Membrane in water
40347
    1TMC1    C1    1   1.363   1.867  11.406 -0.6490 -0.2142  0.2754
    1TMC1    C2    2   1.367   1.958  11.512 -0.1906 -0.2317 -0.3412
    1TMC1    C3    3   1.446   2.067  11.500  0.7428  0.2014  0.5294
    1TMC1    C4    4   1.432   1.887  11.289 -1.3620 -0.7318 -0.4394
    1TMC1    C5    5   1.495   2.007  11.276  0.3911 -0.3650  0.0296
    1TMC1    C6    6   1.516   2.098  11.384 -0.1810  0.2424 -0.0456
    1TMC1     C    7   1.269   1.767  11.418 -0.4693 -0.1522 -0.6243
    1TMC1     O    8   1.177   1.782  11.498 -0.1384 -0.0512 -0.5199
    1TMC1     H    9   1.298   1.950  11.594  1.3918  1.8857  1.2064
    1TMC1    H1   10   1.417   1.838  11.193  1.2759  0.1418 -1.3043
    1TMC1    H2   11   1.580   2.185  11.372 -0.1414  0.1290 -0.6418
    1TMC1    C7   12   1.609   2.015  11.185 -0.1491 -0.4631  0.0114
    1TMC1    C8   13   1.474   2.148  11.616  0.4641  0.5480 -0.2733
    1TMC1    O1   14   1.653   2.119  11.133  0.2354  0.7663 -0.5421
    1TMC1    O2   15   1.510   2.258  11.588  0.0074  0.1552 -0.0622
    1TMC1    O3   16   1.658   1.891  11.162 -0.1450 -0.6529  0.1703
    1TMC1    H3   17   1.608   1.819  11.207 -0.6825 -1.3470 -1.5596
    1TMC1    O5   18   1.489   2.080  11.732 -0.3209  0.1032  0.1556
    1TMC1    H5   19   1.467   1.984  11.733 -2.9510  0.7180  2.2375
    2MPD2     C   20   1.077   1.319  11.287  0.1827 -0.2699  0.1865
    2MPD2    C1   21   1.018   1.423  11.354 -0.2194 -0.6649  0.0687
    2MPD2    C2   22   1.085   1.540  11.363 -0.2704  0.3393 -0.2120
    2MPD2    C3   23   1.217   1.550  11.319 -0.5781 -0.4580  0.1903
    2MPD2    C4   24   1.273   1.443  11.261  0.5162 -0.6488 -0.0164
    2MPD2    C5   25   1.202   1.331  11.235  0.3492  0.0374  0.1552
    2MPD2     H   26   1.041   1.626  11.411 -3.7324 -0.8448 -1.2713
    2MPD2    H1   27   1.377   1.443  11.232  1.1953 -0.4023  2.4470
    2MPD2    H2   28   1.035   1.220  11.271  0.8500 -0.3159 -1.2660
    2MPD2    H3   29   1.250   1.246  11.188  2.2899  1.1209  0.1860
    2MPD2     N   30   1.296   1.663  11.337 -1.0112 -1.0164  0.0986
    2MPD2    H5   31   1.390   1.660  11.298 -0.4887 -1.4583  1.4032
    2MPD2    N1   32   0.892   1.408  11.414  0.0375  0.0088  0.2665
    2MPD2    H7   33   0.848   1.486  11.461  1.3975 -0.5442  2.4731
    3TMC1    C1   34   0.577   2.120  10.174  0.6521  0.0558 -0.2743
    3TMC1    C2   35   0.663   2.205  10.229  0.5082 -0.5140  0.3205
    3TMC1    C3   36   0.797   2.196  10.192 -0.3544 -0.5406  0.0368
    3TMC1    C4   37   0.619   2.026  10.080 -0.6443 -0.4772  0.1471
    3TMC1    C5   38   0.755   2.027  10.040 -0.6759 -0.8826 -0.3598
    3TMC1    C6   39   0.852   2.104  10.101 -0.8779  0.4628  0.0192
    3TMC1     C   40   0.435   2.130  10.200 -0.1483  0.0566 -0.0387
    3TMC1     O   41   0.359   2.093  10.112  0.5404  0.1758 -0.5397
    3TMC1     H   42   0.638   2.275  10.308  0.7227 -2.0985  1.7893
    3TMC1    H1   43   0.547   1.952  10.046 -1.6051  1.0075 -1.0915
    3TMC1    H2   44   0.955   2.107  10.067 -0.6671  0.6259  0.6750
    3TMC1    C7   45   0.795   1.914   9.963  0.5100 -0.0233  0.2394
    3TMC1    C8   46   0.886   2.287  10.269  0.1709  0.7184  0.3373
    3TMC1    O1   47   0.739   1.872   9.862 -0.3796  0.6867  0.4105
    3TMC1    O2   48   0.850   2.388  10.332  0.8225  0.5078  0.1142
    3TMC1    O3   49   0.915   1.875  10.012  0.1158  0.2116  0.1467
    3TMC1    H3   50   0.928   1.899  10.106  2.4517 -0.5685  0.0265
    3TMC1    O5   51   1.016   2.259  10.223 -0.1845  0.0881 -0.3169
    3TMC1    H5   52   1.036   2.164  10.206 -0.2711 -0.1928  1.1024
    4MPD2     C   53   0.042   2.328  10.461 -0.1543  0.2091 -0.7836
    4MPD2    C1   54   0.162   2.385  10.506  0.3500 -0.4782  0.4873
    4MPD2    C2   55   0.281   2.329  10.469  0.0402  0.5475 -0.2884
    4MPD2    C3   56   0.287   2.230  10.374 -0.4613  0.4834  0.1121
    4MPD2    C4   57   0.165   2.172  10.338 -0.0161  0.0466  0.1054
    4MPD2    C5   58   0.041   2.216  10.379  0.4245 -0.0426 -0.3187
    4MPD2     H   59   0.370   2.384  10.498  0.7478 -0.4750 -0.5492
    4MPD2    H1   60   0.160   2.096  10.261 -0.9226 -1.6203  1.7935
    4MPD2    H2   61   4.679   2.368  10.479 -0.0424 -0.1636  0.6902
    4MPD2    H3   62   4.687   2.179  10.333  1.5371  0.3365 -2.8025
    4MPD2     N   63   0.410   2.196  10.320 -0.2276  0.4020 -0.0586
    4MPD2    H5   64   0.492   2.225  10.373 -0.0884  2.4988 -1.4179
    4MPD2    N1   65   0.166   2.498  10.585  0.5479 -0.5191  1.0830
    4MPD2    H7   66   0.255   2.525  10.625  0.5535  2.7263 -1.0991
    5TCq1    O1   67   4.707   4.642  10.863 -0.0488 -0.2542  0.0268
    5TCq1    C1   68   0.094   4.686  10.887  0.5189  0.4137  0.0616
    5TCq1    O2   69   0.131   0.063  10.909  0.2283 -0.3956 -0.4316
    5TCq1    C2   70   0.166   4.581  10.958  0.9150 -0.1304  0.1021
    5TCq1    C3   71   0.105   4.520  11.061  0.5965  0.7759  0.5807
    5TCq1    C4   72   0.167   4.446  11.151  0.2338 -0.1977 -0.4741
    5TCq1    C5   73   0.297   4.418  11.142  0.2205  0.0131 -0.9258
    5TCq1    C6   74   0.364   4.490  11.039  0.5867  0.0635 -0.4014
    5TCq1    C7   75   0.299   4.564  10.945 -0.5516  0.9509  0.5507
    5TCq1    C8   76   0.502   4.446  11.014  0.0197 -0.0595 -0.7946
    5TCq1    O4   77   0.534   4.334  11.053 -0.2110  0.2710  0.0493
    5TCq1    C9   78   0.086   4.385  11.254  0.9369 -1.3368  0.1198
    5TCq1    O5   79   0.147   4.327  11.348  0.7016 -0.3798 -0.6046
    5TCq1    O6   80   4.703   4.369  11.224 -0.4059  0.7204  0.0757
    5TCq1    H1   81   4.710   4.544  10.859 -1.2634 -0.2888 -0.1577
    5TCq1    H2   82   0.000   4.543  11.072  0.3054 -1.1311  1.8926
    5TCq1    H3   83   0.347   4.355  11.215  0.3516  1.0840 -0.0974
    5TCq1    H4   84   0.352   4.621  10.870  0.9330 -2.1506 -0.7644
    6MPD2     C   85   0.764   4.594  10.799  1.1379  0.2411 -0.3888
    6MPD2    C1   86   0.697   4.490  10.861 -0.5125 -0.1821 -0.2777
    6MPD2    C2   87   0.739   4.364  10.847 -0.5763  0.2125  0.1509
    6MPD2    C3   88   0.837   4.329  10.756 -0.2621 -0.0490  0.2097
    6MPD2    C4   89   0.896   4.433  10.683  0.1315 -0.3699 -0.4085
    6MPD2    C5   90   0.861   4.565  10.717  0.1991  0.8499  0.8706
    6MPD2     H   91   0.683   4.289  10.902  0.6949 -1.9362 -1.4766
    6MPD2    H1   92   0.963   4.412  10.600  0.2420 -0.7301 -0.2245
    6MPD2    H2   93   0.725   4.693  10.819  1.1492  0.1103  0.2710
    6MPD2    H3   94   0.917   4.647  10.673  0.3662  0.9149  1.2053
    6MPD2     N   95   0.862   4.191  10.731 -0.5098  0.6646 -0.2020
    6MPD2    H5   96   0.801   4.128  10.782 -0.0265 -0.9023 -1.5588
    6MPD2    N1   97   0.581   4.528  10.937  0.1249  0.5297 -0.4129
    6MPD2    H7   98   0.554   4.625  10.924  2.4467  1.3363  0.7018
    7TCq1    O1   99   3.610   3.734  13.047  0.8897  0.1740 -0.2020
    7TCq1    C1  100   3.497   3.783  13.101  0.4350  0.2467  0.6722
    7TCq1    O2  101   3.490   3.889  13.163  0.3409 -0.0953  0.0598
    7TCq1    C2  102   3.385   3.737  13.027 -0.1713  0.0523 -0.5341
    7TCq1    C3  103   3.294   3.823  12.970  1.0295 -0.5077  0.1242
    7TCq1    C4  104   3.193   3.761  12.902 -0.1172 -0.1775 -0.5910
    7TCq1    C5  105   3.176   3.627  12.894 -0.2993 -0.0495 -0.5442
    7TCq1    C6  106   3.273   3.547  12.939  0.3591 -0.7655 -0.1636
    7TCq1    C7  107   3.376   3.601  13.006  0.6847  0.1306  0.6489
    7TCq1    C8  108   3.254   3.403  12.950 -0.4014  0.5229  1.0216
    7TCq1    O4  109   3.306   3.348  13.045  0.1770  0.0744  0.3141
    7TCq1    C9  110   3.087   3.853  12.864  0.3649  0.1563  0.1513
    7TCq1    O5  111   2.980   3.798  12.820 -0.3728  0.1347  0.6118
    7TCq1    O6  112   3.094   3.974  12.904 -0.8631 -0.0204 -0.1820
    7TCq1    H1  113   3.584   3.688  12.965  1.4188  1.2864 -0.9958
    7TCq1    H2  114   3.294   3.930  12.988  0.0546 -0.8413  2.1134
    7TCq1    H3  115   3.092   3.576  12.848 -0.6586  0.9206 -0.9743
    7TCq1    H4  116   3.452   3.535  13.045 -1.6578 -1.9831  1.6268
    8MPD2     C  117   3.048   2.956  12.837  0.0466  0.5379 -0.8050
    8MPD2    C1  118   3.101   3.007  12.956  0.4418  1.0593 -0.4116
    8MPD2    C2  119   3.140   3.137  12.960 -0.1926 -0.0264 -0.2462
    8MPD2    C3  120   3.122   3.220  12.851  0.7945 -0.4512  0.8570
    8MPD2    C4  121   3.062   3.167  12.739  0.4601 -0.4356 -0.6878
    8MPD2    C5  122   3.019   3.038  12.728 -0.3326  0.2657  0.1875
    8MPD2     H  123   3.181   3.173  13.053  0.4664 -0.2578 -0.4527
    8MPD2    H1  124   3.041   3.243  12.664  0.1898 -1.6203 -1.7957
    8MPD2    H2  125   3.029   2.849  12.830 -0.4914  0.5725  0.1501
    8MPD2    H3  126   2.954   3.002  12.648  1.0976 -0.0678 -0.8230
    8MPD2     N  127   3.173   3.352  12.848 -0.1486  0.2080 -0.3572
    8MPD2    H5  128   3.168   3.418  12.771 -0.1487  1.1223  0.4302
    8MPD2    N1  129   3.111   2.912  13.058 -0.3564 -0.2669  0.3625
    8MPD2    H7  130   3.080   2.821  13.025  0.3332 -0.8921  1.4500
    9TMC1    C1  131   0.904   2.436  11.237  0.6053 -0.3139  0.2683
    9TMC1    C2  132   0.829   2.319  11.225 -0.1817 -0.4646 -0.6189
    9TMC1    C3  133   0.810   2.283  11.095  0.4776  0.1020  0.3278
    9TMC1    C4  134   0.966   2.489  11.132  0.7678 -0.1681 -0.0834
    9TMC1    C5  135   0.939   2.453  11.012  0.1005  0.1059 -0.3367
    9TMC1    C6  136   0.857   2.349  10.985 -1.0796 -0.2070  0.6296
    9TMC1     C  137   0.936   2.493  11.372  0.2752 -0.0964  0.5299
    9TMC1     O  138   0.987   2.603  11.368  0.4250 -0.0490 -0.3031
    9TMC1     H  139   0.789   2.265  11.309  0.8060  0.0481  0.1924
    9TMC1    H1  140   1.027   2.577  11.149  0.6745 -0.0199 -0.5062
    9TMC1    H2  141   0.882   2.297  10.894  2.2899 -1.5905  2.3801
    9TMC1    C7  142   1.027   2.509  10.913 -0.7805  0.3990 -0.1114
    9TMC1    C8  143   0.746   2.159  11.070  0.2798  0.3801  0.9847
    9TMC1    O1  144   1.131   2.567  10.938 -0.2529  0.0998 -0.2809
    9TMC1    O2  145   0.737   2.075  11.158 -0.4701 -0.0544  0.7011
    9TMC1    O3  146   0.946   2.556  10.818 -0.0535  0.1911 -0.7904
    9TMC1    H3  147   0.870   2.495  10.809 -1.2374  1.6513 -0.6607
    9TMC1    O5  148   0.653   2.187  10.976 -0.0296 -0.2031 -0.2309
    9TMC1    H5  149   0.680   2.268  10.928  0.1946  1.8422  3.2857
   10MPD2     C  150   0.990   2.549  11.645 -0.3011 -0.5399  0.4654
   10MPD2    C1  151   0.886   2.461  11.608 -0.0919 -0.4646 -0.1694
   10MPD2    C2  152   0.805   2.395  11.701  0.1410  0.3551  0.5539
   10MPD2    C3  153   0.822   2.433  11.834 -0.3357 -0.2178 -0.4780
   10MPD2    C4  154   0.929   2.518  11.869 -0.1969  0.4408  0.2497
   10MPD2    C5  155   1.012   2.577  11.777  0.5372  0.4931 -0.2012
   10MPD2     H  156   0.727   2.331  11.662 -0.2415  0.9990  0.2582
   10MPD2    H1  157   0.941   2.548  11.972  1.2552 -1.7554  0.7269
   10MPD2    H2  158   1.062   2.594  11.577 -0.4440 -2.0254 -0.6708
   10MPD2    H3  159   1.085   2.644  11.820 -0.0916  0.6352  0.6492
   10MPD2     N  160   0.743   2.396  11.946  0.1007  0.4367 -0.0103
   10MPD2    H5  161   0.779   2.423  12.037 -0.4469  0.5091  0.1859
   10MPD2    N1  162   0.867   2.424  11.473  0.2379  0.2774  0.2819
   10MPD2    H7  163   0.799   2.354  11.446 -2.6869  2.1261  2.8368
   11TCq1    O1  164   2.173   1.594  14.443 -0.3407 -0.4538  0.2594
   11TCq1    C1  165   2.133   1.634  14.565  0.4389 -0.4450  0.4552
   11TCq1    O2  166   2.209   1.670  14.655  0.2267 -0.2329 -0.2274
   11TCq1    C2  167   2.006   1.704  14.531 -0.4753  0.5561  0.5092
   11TCq1    C3  168   1.987   1.825  14.592  0.5261 -0.1866  0.1458
   11TCq1    C4  169   1.887   1.909  14.554 -0.5399 -0.5273  0.0531
   11TCq1    C5  170   1.794   1.865  14.460  0.3631 -0.7098 -0.0827
   11TCq1    C6  171   1.811   1.735  14.413  0.4113  0.1967  0.3615
   11TCq1    C7  172   1.916   1.653  14.447  0.7832  0.2360 -0.2671
   11TCq1    C8  173   1.720   1.691  14.301  0.2819 -0.1863 -0.1725
   11TCq1    O4  174   1.763   1.603  14.226 -0.0301 -0.5854 -0.4130
   11TCq1    C9  175   1.868   2.036  14.621 -0.0902 -0.3183  0.6206
   11TCq1    O5  176   1.759   2.090  14.621 -0.6022  0.1033 -0.4418
   11TCq1    O6  177   1.948   2.060  14.720 -0.2695 -0.1440 -0.4358
   11TCq1    H1  178   2.112   1.623  14.372  0.5075 -1.6482 -0.9398
   11TCq1    H2  179   2.060   1.869  14.659 -0.5392  0.5800  0.8047
   11TCq1    H3  180   1.713   1.933  14.438  0.7757 -0.8431 -2.0161
   11TCq1    H4  181   1.921   1.550  14.414  1.8994  0.3105 -0.3225
   12MPD2     C  182   1.369   1.787  14.216  0.1579  0.2812 -0.4371
   12MPD2    C1  183   1.497   1.733  14.191 -0.1470 -0.2566 -0.3067
   12MPD2    C2  184   1.523   1.684  14.066 -0.2705  0.6736 -0.2173
   12MPD2    C3  185   1.419   1.667  13.971  0.2297  0.3316 -0.0872
   12MPD2    C4  186   1.290   1.709  14.006 -0.4714 -0.0088  0.1702
   12MPD2    C5  187   1.272   1.779  14.121  0.1072 -0.5076 -0.3551
   12MPD2     H  188   1.625   1.661  14.039  0.1415  3.0234 -0.6777
   12MPD2    H1  189   1.202   1.704  13.943 -0.5951  0.1629  0.3287
   12MPD2    H2  190   1.342   1.832  14.311 -1.9426 -0.9692 -0.4249
   12MPD2    H3  191   1.173   1.810  14.151 -1.0437 -3.4903 -1.0187
   12MPD2     N  192   1.441   1.613  13.837 -0.4744  0.5653  0.3926
   12MPD2    H5  193   1.358   1.600  13.780  0.1737  3.7317 -1.2974
   12MPD2    N1  194   1.592   1.750  14.299 -0.1753 -0.1307 -0.6310
   12MPD2    H7  195   1.561   1.815  14.370 -2.1503 -2.7588  0.8858
   13TCq1    O1  196   1.361   2.302  10.539 -0.2755 -0.1529  0.1694
   13TCq1    C1  197   1.233   2.280  10.577 -0.3863  0.0923  0.2089
   13TCq1    O2  198   1.166   2.346  10.653  0.0359 -0.1453  0.1591
   13TCq1    C2  199   1.215   2.140  10.566  0.1791  0.1475  0.3467
   13TCq1    C3  200   1.211   2.083  10.439  0.4074 -0.5504 -0.4519
   13TCq1    C4  201   1.113   1.987  10.414 -0.3110  0.1435  0.8399
   13TCq1    C5  202   1.035   1.931  10.510 -0.4581  0.9652 -0.0920
   13TCq1    C6  203   1.043   1.987  10.635 -0.0766 -0.0883  0.1339
   13TCq1    C7  204   1.126   2.094  10.659  0.7112 -0.0277  0.0494
   13TCq1    C8  205   0.931   1.962  10.729  0.2291 -0.6977  0.1324
   13TCq1    O4  206   0.886   2.059  10.796  0.3560  0.6696 -0.3163
   13TCq1    C9  207   1.087   1.951  10.275  0.7016 -0.4426 -0.6663
   13TCq1    O5  208   0.997   1.866  10.256  0.1224 -0.3180 -0.2379
   13TCq1    O6  209   1.128   2.032  10.190  0.1271  0.1773 -0.1537
   13TCq1    H1  210   1.410   2.242  10.479  0.4884 -1.5344  2.1680
   13TCq1    H2  211   1.270   2.124  10.358  0.6910  0.4866  0.2736
   13TCq1    H3  212   0.951   1.868  10.481 -0.5524  1.0680 -0.0443
   13TCq1    H4  213   1.106   2.153  10.748 -1.7220  0.6358 -0.9502
   14MPD2     C  214   0.738   1.661  10.714  0.0744 -0.4656 -0.4355
   14MPD2    C1  215   0.774   1.779  10.766  0.2877  0.4946  0.6013
   14MPD2    C2  216   0.677   1.849  10.834 -0.4266  0.7502  0.9146
   14MPD2    C3  217   0.548   1.805  10.852  0.1968 -0.9115  0.8756
   14MPD2    C4  218   0.510   1.678  10.794  0.1476  0.2696 -0.7217
   14MPD2    C5  219   0.607   1.620  10.719  0.1608  0.1078  0.2679
   14MPD2     H  220   0.707   1.948  10.866  2.7234 -0.7444  2.6189
   14MPD2    H1  221   0.412   1.634  10.810  0.2624  1.3295  2.7624
   14MPD2    H2  222   0.808   1.595  10.665  1.9346 -1.3058  3.3256
   14MPD2    H3  223   0.578   1.529  10.666 -2.5262  0.8742  0.3944
   14MPD2     N  224   0.463   1.886  10.932 -0.3720  0.3495  0.7750
   14MPD2    H5  225   0.503   1.972  10.967  0.7962 -0.1251  0.6080
   14MPD2    N1  226   0.892   1.834  10.719 -0.4977  0.0592  0.5861
   14MPD2    H7  227   0.950   1.777  10.658  1.4227  2.2216  0.4127
   15TCq1    O1  228   3.825   1.327   1.801 -0.1663 -0.1443 -0.1186
   15TCq1    C1  229   3.762   1.223   1.734  0.1113  0.6595 -0.3640
   15TCq1    O2  230   3.676   1.156   1.792 -0.0752  0.5667  0.0342
   15TCq1    C2  231   3.859   1.157   1.645  0.1187  0.2840  0.0649
   15TCq1    C3  232   3.996   1.159   1.681  0.0180  0.3674 -0.1939
   15TCq1    C4  233   4.085   1.094   1.606  0.6000 -0.4751  0.7832
   15TCq1    C5  234   4.045   1.021   1.500 -0.3887  0.3290  1.1868
   15TCq1    C6  235   3.913   1.021   1.463  0.5353 -0.3246 -0.1216
   15TCq1    C7  236   3.816   1.084   1.539  0.4860  0.0855  0.0230
   15TCq1    C8  237   3.867   0.921   1.370 -0.8247 -0.1353 -0.6286
   15TCq1    O4  238   3.949   0.831   1.345  0.0394  0.8523 -0.5761
   15TCq1    C9  239   4.222   1.085   1.650 -0.3461  0.4804  0.1486
   15TCq1    O5  240   4.304   1.023   1.581 -0.0980 -0.1059 -0.2532
   15TCq1    O6  241   4.249   1.139   1.760  0.1068 -0.4638  0.2759
   15TCq1    H1  242   3.903   1.355   1.748 -0.6536  3.1539  0.8945
   15TCq1    H2  243   4.032   1.193   1.777 -0.4300 -0.5341  0.2902
   15TCq1    H3  244   4.117   0.966   1.441 -1.1134 -1.2858  1.8107
   15TCq1    H4  245   3.710   1.083   1.520  0.7749 -0.7778 -1.5237
   16MPD2     C  246   3.588   0.919   1.126  0.0079 -0.3132 -0.6399
   16MPD2    C1  247   3.687   0.871   1.209 -0.1050  0.2956 -0.5753
   16MPD2    C2  248   3.725   0.742   1.188 -0.5982  0.3386  0.9730
   16MPD2    C3  249   3.668   0.659   1.088 -0.8814 -0.0346 -0.1796
   16MPD2    C4  250   3.567   0.714   1.011  0.0233  0.5380 -0.0683
   16MPD2    C5  251   3.529   0.843   1.029 -0.4740 -0.1344  0.1004
   16MPD2     H  252   3.803   0.690   1.242 -0.6286 -2.1411 -1.3432
   16MPD2    H1  253   3.526   0.651   0.934  0.1866 -0.3001  0.5250
   16MPD2    H2  254   3.559   1.021   1.147 -0.3976 -0.3883 -0.8500
   16MPD2    H3  255   3.452   0.890   0.969  1.2497  0.0798 -1.9456
   16MPD2     N  256   3.704   0.527   1.081 -0.4641  0.0984 -0.1733
   16MPD2    H5  257   3.780   0.510   1.146 -0.2801  3.9700  0.5989
   16MPD2    N1  258   3.745   0.949   1.311 -0.3969 -0.4743  0.1461
   16MPD2    H7  259   3.690   1.030   1.335  0.6553  0.3864 -0.3633
   17TMC1    C1  260   0.118   1.707  11.654 -0.6797 -0.0299  0.3848
   17TMC1    C2  261   0.172   1.830  11.658  0.4936  0.4988  0.4773
   17TMC1    C3  262   0.142   1.909  11.763  0.4900  0.3334  0.8096
   17TMC1    C4  263   0.018   1.666  11.737  0.3358 -0.4754 -0.8837
   17TMC1    C5  264   4.723   1.749  11.836  0.0173 -0.5599 -0.5144
   17TMC1    C6  265   0.053   1.867  11.859  0.0845 -0.6757 -0.1182
   17TMC1     C  266   0.146   1.623  11.539  0.8682  0.5862 -0.1089
   17TMC1     O  267   0.045   1.569  11.499  0.7281 -0.3636 -0.0502
   17TMC1     H  268   0.252   1.853  11.589 -0.1496 -0.1284 -0.4726
   17TMC1    H1  269   4.701   1.572  11.722  1.8457 -1.3042 -1.1076
   17TMC1    H2  270   4.734   1.941  11.915 -0.0848 -1.6571  1.0186
   17TMC1    C7  271   4.607   1.727  11.923 -0.5884  0.4372 -1.1181
   17TMC1    C8  272   0.185   2.051  11.750  0.3039 -0.0727 -0.0019
   17TMC1    O1  273   4.543   1.811  11.981 -0.2247  0.1391  0.1264
   17TMC1    O2  274   0.245   2.083  11.647  0.1235  0.3150 -0.4529
   17TMC1    O3  275   4.592   1.590  11.950 -0.5796  0.4284 -0.3872
   17TMC1    H3  276   4.644   1.531  11.891  0.6240 -0.0669  1.1557
   17TMC1    O5  277   0.193   2.111  11.865  0.4204  0.2182  0.3169
   17TMC1    H5  278   0.158   2.074  11.948 -0.9848  1.8703  0.4680
   18MPD2     C  279   0.209   1.540  11.273 -0.2621 -0.5387 -0.5528
   18MPD2    C1  280   0.297   1.608  11.347  1.0475  0.5382  0.1127
   18MPD2    C2  281   0.431   1.614  11.309  0.0463  0.1097 -0.3726
   18MPD2    C3  282   0.469   1.566  11.182  0.9470 -0.1423  0.4684
   18MPD2    C4  283   0.370   1.510  11.103  0.0665  0.2124  0.0115
   18MPD2    C5  284   0.238   1.492  11.149 -0.2203 -0.4426 -0.1095
   18MPD2     H  285   0.495   1.665  11.380  0.5017  0.6886 -1.2094
   18MPD2    H1  286   0.397   1.469  11.006 -0.1011  0.5401 -0.1751
   18MPD2    H2  287   0.109   1.520  11.311 -0.1077 -1.0570 -0.4282
   18MPD2    H3  288   0.174   1.416  11.105 -0.9850 -0.4306  0.9922
   18MPD2     N  289   0.602   1.573  11.133  0.0215 -0.3648  0.3559
   18MPD2    H5  290   0.611   1.549  11.034 -2.4886 -0.5740  0.1827
   18MPD2    N1  291   0.266   1.656  11.471 -0.5466 -1.0313  0.1761
   18MPD2    H7  292   0.343   1.690  11.527 -1.9620 -0.7777  1.9644
   19TMC2    C1  293   2.433   1.833  14.002 -0.2830 -0.2659  0.1007
   19TMC2    C2  294   2.350   1.898  13.917 -0.1660  0.3545  0.0018
   19TMC2    C3  295   2.263   1.825  13.848  0.4525 -0.2826  0.3230
   19TMC2    C4  296   2.423   1.695  14.026 -0.3471  0.2195 -0.2083
   19TMC2    C5  297   2.323   1.628  13.961  0.4092 -0.0213  0.2029
   19TMC2    C6  298   2.238   1.695  13.873  0.1257 -0.8634  0.2966
   19TMC2     C  299   2.548   1.896  14.073  0.3080  0.4310 -0.3911
   19TMC2     O  300   2.551   2.017  14.074 -0.2962  0.4081  0.0901
   19TMC2     H  301   2.361   2.006  13.911 -0.2757  0.2860 -1.2741
   19TMC2    H1  302   2.476   1.640  14.103 -1.2234 -0.0308  0.2099
   19TMC2    H2  303   2.168   1.638  13.814  0.2309 -0.0947 -0.5643
   19TMC2    C7  304   2.312   1.483  13.958  0.7716 -0.3668  0.1533
   19TMC2    C8  305   2.153   1.896  13.790 -0.4865 -0.0877  0.1006
   19TMC2    O1  306   2.409   1.416  13.990 -0.1578  0.2647  0.2631
   19TMC2    O2  307   2.046   1.836  13.765 -0.0310  0.2663  0.3173
   19TMC2    O5  308   2.191   2.018  13.744 -0.1557  0.0096  0.1861
   19TMC2    H5  309   2.288   2.030  13.746 -0.1611 -0.1542  1.4979
   20MPD2     C  310   2.765   1.954  14.258 -0.0914  0.2110  0.1004
   20MPD2    C1  311   2.740   1.828  14.201 -0.1309 -0.2335  0.2322
   20MPD2    C2  312   2.824   1.722  14.232 -1.7874 -0.2083 -0.1466
   20MPD2    C3  313   2.930   1.732  14.321  0.2182  0.6546 -0.5155
   20MPD2    C4  314   2.959   1.860  14.367  0.5894 -0.5816 -0.1111
   20MPD2    C5  315   2.877   1.966  14.340 -0.3818 -0.1695 -0.3736
   20MPD2     H  316   2.808   1.631  14.176  1.5895 -1.0505  0.2148
   20MPD2    H1  317   3.038   1.881  14.439  0.6942  0.7411 -0.6049
   20MPD2    H2  318   2.706   2.042  14.235 -1.7198 -1.0122 -0.2954
   20MPD2    H3  319   2.909   2.062  14.381 -0.1198  0.1552 -1.3425
   20MPD2     N  320   3.024   1.630  14.352 -0.2571 -0.6999 -0.2360
   20MPD2    H5  321   3.096   1.650  14.421 -0.5918  0.9969 -0.3847
   20MPD2    N1  322   2.643   1.797  14.106  0.0122  0.2583 -0.0572
   20MPD2    H7  323   2.638   1.701  14.074  0.3676  0.1644  0.1613
   21TMC2    C1  324   0.104   1.761  14.770  0.1264 -0.4554  0.1784
   21TMC2    C2  325   0.063   1.641  14.833 -0.4122 -0.1349 -0.1981
   21TMC2    C3  326   0.034   1.663  14.969 -0.6291 -0.0397  0.2378
   21TMC2    C4  327   0.093   1.891  14.822 -0.0450  0.2357  0.3323
   21TMC2    C5  328   0.049   1.904  14.951 -0.9801 -0.2538  0.1871
   21TMC2    C6  329   0.017   1.792  15.024  0.0006  0.1899 -0.1202
   21TMC2     C  330   0.167   1.752  14.638  0.0024 -0.1432 -0.2383
   21TMC2     O  331   0.227   1.651  14.613 -0.3427 -0.3418 -0.0275
   21TMC2     H  332   0.078   1.541  14.794  1.1864  0.3816 -0.8852
   21TMC2    H1  333   0.136   1.974  14.768 -2.7697  0.9337 -0.7230
   21TMC2    H2  334   4.704   1.807  15.119  1.0181  0.4448  0.3744
   21TMC2    C7  335   0.022   2.041  15.013  0.4679  0.1836  0.8912
   21TMC2    C8  336   4.704   1.557  15.031 -0.0236  0.4997  0.0597
   21TMC2    O1  337   0.023   2.044  15.136 -0.0718 -0.4168  0.1994
   21TMC2    O2  338   4.632   1.483  14.967 -0.8649  0.5080  0.1008
   21TMC2    O5  339   4.736   1.560  15.166  0.2626 -0.0667  0.0153
   21TMC2    H5  340   0.076   1.618  15.184 -0.8916  1.0299  1.3480
   22MPD2     C  341   0.325   2.013  14.235  0.2944  0.0902 -0.2623
   22MPD2    C1  342   0.387   1.913  14.309  0.1977 -0.2170  0.4506
   22MPD2    C2  343   0.319   1.857  14.410  0.1878 -0.3369 -0.1556
   22MPD2    C3  344   0.189   1.899  14.440  0.3175 -0.3430  0.1454
   22MPD2    C4  345   0.131   1.992  14.368  0.1593 -0.3058  0.5976
   22MPD2    C5  346   0.200   2.050  14.265 -0.7610  0.4688 -0.4787
   22MPD2     H  347   0.367   1.796  14.486  1.5008 -0.3383 -0.9846
   22MPD2    H1  348   0.025   2.014  14.380  0.1105 -0.5577  0.6272
   22MPD2    H2  349   0.371   2.062  14.151 -1.0760 -0.0316 -1.0834
   22MPD2    H3  350   0.150   2.133  14.216  0.0101  1.4091  0.3571
   22MPD2     N  351   0.120   1.849  14.552  0.7045 -0.7529  0.6412
   22MPD2    H5  352   0.035   1.893  14.586  1.2806  0.3471  0.6523
   22MPD2    N1  353   0.513   1.882  14.269  0.3632 -0.4398  0.3943
   22MPD2    H7  354   0.556   1.959  14.218 -0.7390 -0.4744 -0.5837
   23TMC2    C1  355   1.752   3.192  14.787 -0.1191  0.3731  0.5275
   23TMC2    C2  356   1.772   3.301  14.706  0.3126  0.0749  0.6235
   23TMC2    C3  357   1.665   3.348  14.637 -0.3378  0.4339  0.2618
   23TMC2    C4  358   1.630   3.128  14.803 -0.3041  0.0965  0.2484
   23TMC2    C5  359   1.526   3.176  14.723  0.3037 -0.3919 -0.1814
   23TMC2    C6  360   1.543   3.281  14.645 -0.5577 -0.2463  0.0276
   23TMC2     C  361   1.855   3.158  14.883  0.2584 -0.0167 -0.2524
   23TMC2     O  362   1.851   3.057  14.949 -0.3156 -0.3542 -0.2257
   23TMC2     H  363   1.868   3.347  14.689 -0.9613  2.5777  0.1323
   23TMC2    H1  364   1.611   3.057  14.882  0.8713 -0.6055 -0.1138
   23TMC2    H2  365   1.464   3.307  14.576  0.3773  2.5563  0.0268
   23TMC2    C7  366   1.403   3.093  14.720 -0.6890  0.2194  0.1215
   23TMC2    C8  367   1.661   3.470  14.558  0.2975  0.5420 -0.1772
   23TMC2    O1  368   1.407   3.016  14.813  0.3487  0.0055  0.9508
   23TMC2    O2  369   1.585   3.494  14.468 -0.9258  0.7306  0.2958
   23TMC2    O5  370   1.735   3.558  14.628  0.5306  0.2530 -0.0189
   23TMC2    H5  371   1.800   3.528  14.696 -0.2242 -1.6816 -0.1485
   24MPD2     C  372   2.248   3.260  15.200 -0.3679 -0.0151 -0.1149
   24MPD2    C1  373   2.207   3.141  15.142  0.0540  0.1413 -0.0832
   24MPD2    C2  374   2.112   3.150  15.041 -0.1618 -0.4861  0.0205
   24MPD2    C3  375   2.046   3.267  15.004 -0.4853 -0.5576  0.0968
   24MPD2    C4  376   2.106   3.383  15.049 -0.0423 -0.1504  0.8758
   24MPD2    C5  377   2.199   3.378  15.144 -0.1031 -0.5524  0.1066
   24MPD2     H  378   2.085   3.055  14.996  0.2639  0.1358 -1.5752
   24MPD2    H1  379   2.067   3.478  15.014  2.5233  1.3210  1.9903
   24MPD2    H2  380   2.337   3.260  15.261 -0.7028  0.8794  0.3634
   24MPD2    H3  381   2.248   3.469  15.175 -2.8597 -0.1793  3.2490
   24MPD2     N  382   1.931   3.268  14.917  0.3379  0.2784 -0.7200
   24MPD2    H5  383   1.896   3.355  14.877  0.5624  1.1823  1.0566
   24MPD2    N1  384   2.271   3.024  15.185  0.3830  0.3138  0.2138
   24MPD2    H7  385   2.339   3.039  15.259 -0.0066 -0.4763  0.7302
   25TMC2    C1  386   0.788   0.794  11.121  0.4832 -0.3907 -0.0908
   25TMC2    C2  387   0.922   0.791  11.145 -0.1163  0.2852 -0.5742
   25TMC2    C3  388   0.960   0.837  11.272  0.4188  0.4582  0.4486
   25TMC2    C4  389   0.696   0.860  11.205  0.1012  0.1741 -0.0031
   25TMC2    C5  390   0.732   0.897  11.334 -0.6325 -0.6193 -0.2095
   25TMC2    C6  391   0.868   0.880  11.369  0.2903  0.3331  0.2515
   25TMC2     C  392   0.750   0.662  11.098  0.3045  0.4843  0.1634
   25TMC2     O  393   0.838   0.586  11.141 -0.4560 -0.1352  0.0824
   25TMC2     H  394   0.989   0.746  11.072  0.4564 -0.0212  0.1374
   25TMC2    H1  395   0.591   0.862  11.181  0.1331  1.9049  0.0474
   25TMC2    H2  396   0.902   0.923  11.462 -0.8227 -0.0132  0.8157
   25TMC2    C7  397   0.636   0.916  11.436  0.6418 -0.0143 -1.0287
   25TMC2    C8  398   1.077   0.782  11.319 -0.3933 -0.4115 -0.1599
   25TMC2    O1  399   0.664   0.885  11.549  0.3764 -0.0080 -0.2010
   25TMC2    O2  400   1.141   0.842  11.402  0.3695 -0.4390 -0.0792
   25TMC2    O5  401   1.025   0.657  11.340 -0.6412  0.7435 -0.2534
   25TMC2    H5  402   0.956   0.641  11.272  0.8404 -0.0557 -1.5572
   26MPD2     C  403   0.397   0.343  11.303  0.0278  0.4837 -0.2975
   26MPD2    C1  404   0.336   0.430  11.219 -0.1314 -0.1187 -0.1203
   26MPD2    C2  405   0.403   0.538  11.159  0.1607  0.5847 -0.2513
   26MPD2    C3  406   0.543   0.549  11.170 -0.4739  0.0152 -0.0605
   26MPD2    C4  407   0.607   0.462  11.259 -0.3692 -0.4570 -0.7204
   26MPD2    C5  408   0.534   0.363  11.322 -0.7832 -0.5919  0.0758
   26MPD2     H  409   0.358   0.615  11.097  3.1494  0.2251 -2.8601
   26MPD2    H1  410   0.715   0.452  11.272 -0.2069  1.2457 -0.7792
   26MPD2    H2  411   0.352   0.257  11.351 -0.2567  0.0186 -1.3865
   26MPD2    H3  412   0.587   0.275  11.356 -0.9689 -0.7023  0.0767
   26MPD2     N  413   0.612   0.643  11.096  0.2042  0.8130 -0.0642
   26MPD2    H5  414   0.556   0.714  11.048 -0.6652  0.6820  0.7749
   26MPD2    N1  415   0.198   0.399  11.187 -0.6142 -0.2135  0.1146
   26MPD2    H7  416   0.157   0.314  11.225 -1.3241 -1.1219 -2.7533
   27TMC2    C1  417   4.483   3.156  11.925 -0.3382  0.8666  0.9307
   27TMC2    C2  418   4.560   3.197  11.815  0.0579 -0.4332  0.9395
   27TMC2    C3  419   4.696   3.213  11.832  0.0697  0.4860 -0.3102
   27TMC2    C4  420   4.541   3.124  12.043 -0.3512  0.3752 -0.8197
   27TMC2    C5  421   4.681   3.139  12.055 -0.7072 -0.1816 -0.1091
   27TMC2    C6  422   0.023   3.176  11.947 -0.5798  0.4625 -0.4587
   27TMC2     C  423   4.343   3.126  11.882  0.1770  0.0297  0.1271
   27TMC2     O  424   4.328   3.139  11.763 -0.3785 -0.2408  0.3466
   27TMC2     H  425   4.523   3.231  11.719  0.2889 -1.8310  0.3574
   27TMC2    H1  426   4.489   3.070  12.120 -0.4652 -0.6043 -1.5948
   27TMC2    H2  427   0.131   3.176  11.960 -0.5787 -0.0071 -0.4639
   27TMC2    C7  428   4.729   3.087  12.185  0.7934  1.0582  0.2303
   27TMC2    C8  429   0.037   3.263  11.717  0.8288 -0.7689 -0.6151
   27TMC2    O1  430   4.650   3.028  12.254 -0.0385 -0.6976  0.4840
   27TMC2    O2  431   4.723   3.344  11.643  0.2972  0.0003  0.2512
   27TMC2    O5  432   0.164   3.271  11.733  0.2326 -0.2925 -0.5321
   27TMC2    H5  433   0.215   3.207  11.787 -1.0113  0.1796  1.2140
   28MPD2     C  434   3.858   2.982  11.940 -0.4415  0.4617  0.2133
   28MPD2    C1  435   3.904   3.017  12.067  0.0665 -1.0739  0.5147
   28MPD2    C2  436   4.034   3.049  12.084  0.7062  0.2501 -0.5736
   28MPD2    C3  437   4.117   3.050  11.971  0.0283 -0.7932  0.3551
   28MPD2    C4  438   4.075   3.016  11.844 -0.1488  0.1143 -0.5486
   28MPD2    C5  439   3.946   2.983  11.835 -0.4544  0.5571 -0.6022
   28MPD2     H  440   4.076   3.077  12.180  0.1324  0.3913 -0.3625
   28MPD2    H1  441   4.140   3.013  11.757 -1.8971 -0.0298 -1.8556
   28MPD2    H2  442   3.757   2.950  11.918 -0.3408 -0.2531  0.7680
   28MPD2    H3  443   3.904   2.950  11.740 -0.6667  0.8334 -0.6022
   28MPD2     N  444   4.256   3.088  11.987  0.2755  0.2120 -0.4979
   28MPD2    H5  445   4.297   3.092  12.080  0.6385 -2.1938 -0.5729
   28MPD2    N1  446   3.805   3.021  12.174  0.2321 -0.0413  0.2057
   28MPD2    H7  447   3.711   2.985  12.162  1.3300 -3.7083  2.4906
   29TMC2    C1  448   3.987   0.670  13.718 -0.3510 -0.7203 -0.3019
   29TMC2    C2  449   3.939   0.708  13.838 -0.0634 -0.1228  0.1437
   29TMC2    C3  450   3.992   0.820  13.892 -0.1430  0.3458  0.2622
   29TMC2    C4  451   4.100   0.725  13.668 -0.0519 -0.4489 -0.9130
   29TMC2    C5  452   4.160   0.833  13.735  0.1580 -0.0731 -0.0199
   29TMC2    C6  453   4.090   0.893  13.835 -0.3250  0.1268 -0.3786
   29TMC2     C  454   3.946   0.539  13.663 -0.3272  0.7042  0.0569
   29TMC2     O  455   4.020   0.475  13.590 -0.5091 -0.4549 -0.5446
   29TMC2     H  456   3.869   0.648  13.895 -2.4408  2.5141 -0.0131
   29TMC2    H1  457   4.148   0.679  13.582  1.2010 -1.4135  0.3016
   29TMC2    H2  458   4.124   0.985  13.882 -1.3829 -0.1345  0.8749
   29TMC2    C7  459   4.285   0.891  13.694  0.4160  0.1026 -0.8947
   29TMC2    C8  460   3.930   0.878  14.009 -0.2788  0.0061 -0.4838
   29TMC2    O1  461   4.307   0.889  13.577 -0.1591 -0.1114 -0.1232
   29TMC2    O2  462   3.978   0.972  14.070 -0.0299 -0.0447 -0.0427
   29TMC2    O5  463   3.797   0.873  13.982  0.2095  0.4808 -0.1873
   29TMC2    H5  464   3.766   0.791  13.937 -0.1871  0.1230  0.7339
   30MPD2     C  465   3.640   0.128  13.640 -0.1899  0.3936 -0.2279
   30MPD2    C1  466   3.775   0.140  13.616  0.1551 -1.1064  0.3731
   30MPD2    C2  467   3.836   0.265  13.638 -0.4459  0.8559 -0.3522
   30MPD2    C3  468   3.767   0.376  13.687  0.4569 -0.0402 -0.3399
   30MPD2    C4  469   3.638   0.362  13.715  0.0185  0.1620  0.5130
   30MPD2    C5  470   3.579   0.242  13.679 -0.0612  0.0430  0.7106
   30MPD2     H  471   3.942   0.269  13.616 -0.0994 -1.2266  0.9086
   30MPD2    H1  472   3.573   0.441  13.751 -1.0361 -0.3638 -0.2372
   30MPD2    H2  473   3.572   0.050  13.609 -0.1663 -0.9091  3.0163
   30MPD2    H3  474   3.474   0.240  13.708  0.4788 -2.0991  2.5872
   30MPD2     N  475   3.821   0.502  13.709 -0.1226 -0.0679 -0.0458
   30MPD2    H5  476   3.771   0.566  13.769 -2.7828 -1.6418 -0.5713
   30MPD2    N1  477   3.855   0.028  13.594  0.0687  0.3235  0.2067
   30MPD2    H7  478   3.956   0.030  13.594  0.0224  2.0865 -1.0310
   31TMC2    C1  479   1.592   3.904  15.397 -0.5849  0.1771  0.2089
   31TMC2    C2  480   1.460   3.880  15.378 -0.2123  0.3298  0.2791
   31TMC2    C3  481   1.386   3.831  15.481 -0.0377  0.4333 -0.2932
   31TMC2    C4  482   1.654   3.892  15.523  0.2338 -1.1907 -0.2432
   31TMC2    C5  483   1.574   3.841  15.618  0.3344 -0.2687  0.5108
   31TMC2    C6  484   1.445   3.821  15.600 -0.2155 -0.2712 -0.3834
   31TMC2     C  485   1.666   3.946  15.278 -0.1682  0.6600  0.2277
   31TMC2     O  486   1.599   3.965  15.180 -0.2680 -0.3046 -0.0046
   31TMC2     H  487   1.411   3.900  15.284 -2.3314 -0.3795  1.2484
   31TMC2    H1  488   1.757   3.925  15.538 -0.4677  0.8566  0.1261
   31TMC2    H2  489   1.389   3.786  15.687 -2.3608  1.8057 -0.9286
   31TMC2    C7  490   1.623   3.810  15.754  0.7901  0.6657 -0.2601
   31TMC2    C8  491   1.244   3.854  15.481 -0.1244  0.2333  0.4428
   31TMC2    O1  492   1.566   3.728  15.825 -0.1784  0.7170  0.1867
   31TMC2    O2  493   1.191   3.872  15.591 -0.2370 -0.6291  0.3369
   31TMC2    O5  494   1.208   3.930  15.369 -0.2422 -0.4006  0.5917
   31TMC2    H5  495   1.239   3.902  15.281  0.1578 -1.8241  1.1777
   32MPD2     C  496   2.072   4.122  15.024  0.6237  0.4170  0.4331
   32MPD2    C1  497   1.937   4.125  14.982 -0.7806 -0.1156 -0.7214
   32MPD2    C2  498   1.849   4.075  15.083 -0.1930 -0.2978  0.0443
   32MPD2    C3  499   1.884   4.025  15.201  0.1511  0.2848 -0.2201
   32MPD2    C4  500   2.020   4.020  15.223 -0.2527 -0.0992 -0.0736
   32MPD2    C5  501   2.111   4.061  15.140 -0.2426 -0.4480  0.2401
   32MPD2     H  502   1.743   4.073  15.060 -0.1613 -0.7788 -0.0708
   32MPD2    H1  503   2.060   3.967  15.310  0.5642  1.3768  0.4413
   32MPD2    H2  504   2.143   4.173  14.960 -2.7133  1.0563 -2.8108
   32MPD2    H3  505   2.213   4.068  15.175 -0.0471 -0.0843 -0.4037
   32MPD2     N  506   1.798   3.973  15.297  0.4029 -0.4305  0.0351
   32MPD2    H5  507   1.837   3.944  15.386 -2.0309  1.2678  1.6671
   32MPD2    N1  508   1.897   4.184  14.859  0.4862  0.0752  0.5210
   32MPD2    H7  509   1.975   4.217  14.803  0.8344 -2.6525 -0.6179
   33TMC2    C1  510   1.518   2.453  10.985 -0.5927  0.1339  0.4732
   33TMC2    C2  511   1.574   2.519  11.088  0.0211 -0.7633 -0.4961
   33TMC2    C3  512   1.649   2.630  11.053  1.1904 -0.2515 -0.3194
   33TMC2    C4  513   1.536   2.493  10.854  0.5071 -0.3526 -0.0157
   33TMC2    C5  514   1.596   2.616  10.823  0.5383 -0.1732  0.0416
   33TMC2    C6  515   1.649   2.686  10.926  0.0245  0.3063  0.8177
   33TMC2     C  516   1.424   2.337  11.004  0.1018 -0.0403 -0.2386
   33TMC2     O  517   1.410   2.253  10.914 -0.7532 -0.0285  0.2305
   33TMC2     H  518   1.581   2.480  11.188  0.0427 -0.2778 -0.3086
   33TMC2    H1  519   1.501   2.435  10.769 -0.5571  2.2781 -1.3613
   33TMC2    H2  520   1.702   2.777  10.900 -0.9178  0.7166  0.3391
   33TMC2    C7  521   1.638   2.654  10.692 -0.1901  0.2373 -0.0757
   33TMC2    C8  522   1.700   2.719  11.160  0.2557 -0.1113  0.1720
   33TMC2    O1  523   1.742   2.716  10.679 -0.4058 -0.6881  0.5106
   33TMC2    O2  524   1.790   2.795  11.131  0.2287  0.1847  0.4352
   33TMC2    O5  525   1.615   2.737  11.258  0.1459  0.1791 -0.0704
   33TMC2    H5  526   1.538   2.677  11.253  0.6315 -0.3035 -1.7875
   34MPD2     C  527   1.100   2.131  11.336  0.0588 -0.3593  0.2351
   34MPD2    C1  528   1.118   2.089  11.204 -0.2435 -0.2328 -0.6927
   34MPD2    C2  529   1.222   2.154  11.132 -0.1165 -0.1159  0.0048
   34MPD2    C3  530   1.285   2.259  11.189  0.3614 -0.9294 -0.5322
   34MPD2    C4  531   1.258   2.291  11.321 -0.0879  0.0246 -0.2640
   34MPD2    C5  532   1.179   2.225  11.401  0.0668  0.1543  0.0016
   34MPD2     H  533   1.245   2.130  11.029  0.3736 -2.2262  0.6057
   34MPD2    H1  534   1.319   2.364  11.373  2.0898 -2.0549  0.0738
   34MPD2    H2  535   1.017   2.089  11.390  0.5525 -0.2984  1.0476
   34MPD2    H3  536   1.158   2.250  11.504 -0.5298 -0.5882  0.0649
   34MPD2     N  537   1.378   2.344  11.132  0.4201  0.2504 -0.7699
   34MPD2    H5  538   1.401   2.424  11.190  2.0798 -0.1673 -0.8567
   34MPD2    N1  539   1.047   1.972  11.173 -0.3181 -0.2098  0.2536
   34MPD2    H7  540   0.980   1.943  11.245 -0.6756  3.1593  1.2662
   35TMC2    C1  541   2.159   2.983  11.275  0.1616  0.4725 -0.0245
   35TMC2    C2  542   2.046   3.021  11.211 -0.6675  0.5968 -0.0111
   35TMC2    C3  543   1.929   3.001  11.276 -0.0536  0.6834 -0.1576
   35TMC2    C4  544   2.152   2.926  11.400 -0.1073  0.0497 -0.4520
   35TMC2    C5  545   2.027   2.918  11.460  0.1738  0.5657 -0.2686
   35TMC2    C6  546   1.911   2.955  11.406  0.6050 -0.1427  0.0061
   35TMC2     C  547   2.276   3.051  11.229 -0.2955 -0.1543  0.7049
   35TMC2     O  548   2.268   3.098  11.118  0.3467  1.0007  0.3388
   35TMC2     H  549   2.044   3.071  11.115 -0.2156  0.1511 -0.2568
   35TMC2    H1  550   2.237   2.883  11.452  0.0233  1.9874  0.9538
   35TMC2    H2  551   1.817   2.938  11.457  1.5208 -0.4647  1.5702
   35TMC2    C7  552   2.016   2.798  11.549 -0.2482 -0.3052  0.7473
   35TMC2    C8  553   1.829   3.087  11.223  0.1742  0.1872 -0.4080
   35TMC2    O1  554   2.087   2.703  11.524  0.0022  0.2903 -0.0385
   35TMC2    O2  555   1.842   3.211  11.206  0.0881  0.3058 -0.3966
   35TMC2    O5  556   1.714   3.021  11.252  0.4988  0.3540 -0.2868
   35TMC2    H5  557   1.734   2.926  11.241  0.4677  0.1471  1.4840
   36MPD2     C  558   2.757   3.218  11.269  0.1121  0.0232 -0.1902
   36MPD2    C1  559   2.734   3.158  11.390 -0.9862 -0.5449  0.2220
   36MPD2    C2  560   2.605   3.099  11.403  0.9961  0.0891 -0.2579
   36MPD2    C3  561   2.513   3.106  11.302  0.4032 -0.0128  0.5629
   36MPD2    C4  562   2.534   3.180  11.193  0.0952  0.1757  0.0131
   36MPD2    C5  563   2.658   3.239  11.178  0.3732 -0.7494 -0.8468
   36MPD2     H  564   2.585   3.046  11.495 -0.0779 -2.3771 -1.9333
   36MPD2    H1  565   2.464   3.194  11.112  2.1255  2.4861 -1.3418
   36MPD2    H2  566   2.854   3.264  11.256  0.1615 -0.2204 -0.6632
   36MPD2    H3  567   2.693   3.289  11.089  1.6092  1.2524  0.7755
   36MPD2     N  568   2.378   3.067  11.324 -0.3706 -0.4354 -0.1772
   36MPD2    H5  569   2.351   3.047  11.420 -2.6328  0.3923 -0.6169
   36MPD2    N1  570   2.831   3.168  11.494  0.2532 -0.6040  0.8711
   36MPD2    H7  571   2.913   3.216  11.458  1.4696 -2.3898  1.2740
   37TMC2    C1  572   0.485   3.209  11.635 -0.1036  0.4193 -0.1572
   37TMC2    C2  573   0.424   3.110  11.564  0.2930  0.0880 -0.2655
   37TMC2    C3  574   0.480   3.089  11.437 -0.4301 -0.4780 -0.3082
   37TMC2    C4  575   0.593   3.278  11.589  0.1275 -0.0226 -0.1556
   37TMC2    C5  576   0.634   3.254  11.458  0.1065 -0.2332 -0.1889
   37TMC2    C6  577   0.581   3.159  11.378 -0.1531 -0.6392  0.0858
   37TMC2     C  578   0.475   3.176  11.778 -0.5672  0.3804 -0.0625
   37TMC2     O  579   0.370   3.151  11.828  0.0088  0.4389 -0.0539
   37TMC2     H  580   0.346   3.060  11.620  1.2163  0.7334  1.6026
   37TMC2    H1  581   0.637   3.361  11.644 -0.2254  0.2053 -0.2194
   37TMC2    H2  582   0.626   3.120  11.287 -0.9498 -2.5006  0.4844
   37TMC2    C7  583   0.775   3.283  11.435 -0.1041 -0.1342  0.0181
   37TMC2    C8  584   0.409   2.993  11.349  0.3714 -0.0643 -0.9858
   37TMC2    O1  585   0.840   3.318  11.534 -0.3406  0.4754  0.5865
   37TMC2    O2  586   0.379   3.013  11.229 -1.3648 -0.5217  0.4258
   37TMC2    O5  587   0.362   2.890  11.428  0.1638  0.6529 -0.3550
   37TMC2    H5  588   0.399   2.885  11.518  1.4743 -1.1099 -0.9818
   38MPD2     C  589   0.706   3.136  12.236 -0.0722  0.1880 -0.5590
   38MPD2    C1  590   0.801   3.166  12.139 -0.3126  0.4109  0.3571
   38MPD2    C2  591   0.762   3.173  12.006  0.4646 -0.0085 -0.3987
   38MPD2    C3  592   0.631   3.152  11.967  1.0329  0.0089  0.3096
   38MPD2    C4  593   0.539   3.122  12.060  0.6145  0.7108  0.3387
   38MPD2    C5  594   0.581   3.118  12.191  1.1137 -0.3431  0.4423
   38MPD2     H  595   0.841   3.203  11.938 -0.1291 -1.6784 -1.8123
   38MPD2    H1  596   0.433   3.114  12.041  0.3940  0.8246  1.5703
   38MPD2    H2  597   0.719   3.124  12.343  1.2664 -1.6631 -0.9380
   38MPD2    H3  598   0.508   3.086  12.265 -0.4776 -1.3817 -1.5999
   38MPD2     N  599   0.599   3.174  11.836  0.0131 -0.4849  0.0318
   38MPD2    H5  600   0.674   3.182  11.768  0.0114  0.1589  0.1082
   38MPD2    N1  601   0.940   3.181  12.163  0.3647 -0.0760 -0.4074
   38MPD2    H7  602   1.005   3.203  12.087  1.2297  0.4505  0.4921
   39TMC2    C1  603   4.301   4.689   1.496 -0.0879 -0.2556 -0.5702
   39TMC2    C2  604   4.283   0.044   1.589  0.3560 -0.1508 -0.2218
   39TMC2    C3  605   4.392   0.075   1.660  0.8553 -0.2586  0.2586
   39TMC2    C4  606   4.422   4.621   1.480  0.0625 -0.2939 -0.0005
   39TMC2    C5  607   4.520   4.646   1.568 -0.3639  0.0472 -0.6165
   39TMC2    C6  608   4.513   0.012   1.656  0.1962 -0.6547 -0.6893
   39TMC2     C  609   4.186   4.676   1.413 -0.8973  0.4015  0.6916
   39TMC2     O  610   4.078   4.706   1.464 -0.9542 -0.6891  0.4883
   39TMC2     H  611   4.203   0.117   1.585 -1.0200 -1.7926 -2.0261
   39TMC2    H1  612   4.440   4.544   1.405  2.7156  0.8115 -0.5268
   39TMC2    H2  613   4.586   0.029   1.734  0.1728 -0.2016 -0.7697
   39TMC2    C7  614   4.650   4.588   1.529 -0.7235  0.2101 -0.0989
   39TMC2    C8  615   4.375   0.188   1.742 -0.1389  0.3758 -0.0883
   39TMC2    O1  616   4.651   4.469   1.491  0.0729  0.2097  0.2087
   39TMC2    O2  617   4.267   0.234   1.777 -0.1187 -0.9495 -0.0412
   39TMC2    O5  618   4.493   0.255   1.748  0.3537 -0.0369 -0.2899
   39TMC2    H5  619   4.560   0.217   1.688 -0.3215  0.1154 -1.1425
   40MPD2     C  620   4.171   4.540   1.073 -0.3110 -0.0375 -0.5186
   40MPD2    C1  621   4.120   4.588   1.194 -0.0556 -1.2053  0.8123
   40MPD2    C2  622   3.981   4.604   1.202 -1.2218  0.1452  0.4624
   40MPD2    C3  623   3.896   4.562   1.106  0.1211  0.1573  0.0870
   40MPD2    C4  624   3.951   4.508   0.988 -0.0430  0.2143 -0.2252
   40MPD2    C5  625   4.090   4.499   0.977 -0.1229  0.6411 -0.0201
   40MPD2     H  626   3.940   4.640   1.295  0.9508 -0.5849  1.6920
   40MPD2    H1  627   3.898   4.493   0.895 -0.0566  0.9150 -0.3352
   40MPD2    H2  628   4.277   4.534   1.050 -0.5847 -0.9980 -1.5697
   40MPD2    H3  629   4.142   4.480   0.883  0.9660 -1.5728  1.0425
   40MPD2     N  630   3.755   4.596   1.097  0.3372  0.1886  0.1572
   40MPD2    H5  631   3.706   4.559   1.017 -0.5144 -0.7254  1.0961
   40MPD2    N1  632   4.212   4.629   1.290 -0.5628 -0.3016  0.3694
   40MPD2    H7  633   4.310   4.633   1.266 -0.8665 -1.1770 -1.0129
   41TMC2    C1  634   1.885   3.667  13.637  0.7298  0.1195  0.2040
   41TMC2    C2  635   1.811   3.780  13.650 -0.3845 -0.3955 -0.2973
   41TMC2    C3  636   1.740   3.819  13.538  0.4965  0.1801 -0.0462
   41TMC2    C4  637   1.912   3.614  13.512 -0.3139 -0.3177  0.6172
   41TMC2    C5  638   1.852   3.669  13.402  0.8586  0.3386 -0.6706
   41TMC2    C6  639   1.760   3.768  13.413 -0.1515  0.1188 -0.0157
   41TMC2     C  640   1.955   3.607  13.746 -0.3012  0.3107 -0.0447
   41TMC2     O  641   1.987   3.489  13.743 -0.1138 -0.7123  0.7210
   41TMC2     H  642   1.797   3.838  13.741  0.5054  2.2888 -1.8702
   41TMC2    H1  643   1.971   3.524  13.516 -1.4561 -1.2243 -3.0375
   41TMC2    H2  644   1.715   3.819  13.328 -1.7752  0.2318  0.9105
   41TMC2    C7  645   1.863   3.607  13.274 -0.7171 -0.9933  0.2228
   41TMC2    C8  646   1.614   3.888  13.566 -0.4106  0.0036 -0.0280
   41TMC2    O1  647   1.779   3.633  13.189 -0.2719 -0.1860 -0.8554
   41TMC2    O2  648   1.611   3.975  13.652 -0.9599 -0.3780 -0.3098
   41TMC2    O5  649   1.512   3.862  13.476 -0.2418  0.2779  0.1495
   41TMC2    H5  650   1.527   3.776  13.431 -1.2760 -0.1991  0.6941
   42MPD2     C  651   2.092   3.553  14.007 -0.3946  0.0542 -0.3563
   42MPD2    C1  652   2.094   3.673  13.943  0.5983 -0.0878  0.6459
   42MPD2    C2  653   2.167   3.773  14.001 -0.0107 -0.3314 -0.0476
   42MPD2    C3  654   2.246   3.756  14.115  0.2784 -0.3264 -0.0986
   42MPD2    C4  655   2.243   3.630  14.166 -0.1608  0.3573  0.4189
   42MPD2    C5  656   2.160   3.530  14.123 -0.3590  0.7112  0.3201
   42MPD2     H  657   2.177   3.868  13.950  0.2108 -0.4440 -0.2152
   42MPD2    H1  658   2.318   3.600  14.239 -0.3933 -0.1023  0.4655
   42MPD2    H2  659   2.032   3.471  13.968 -0.1293 -0.1532 -0.3307
   42MPD2    H3  660   2.167   3.433  14.170  0.0599 -0.8907 -3.0863
   42MPD2     N  661   2.314   3.861  14.173  0.4499  1.0677 -0.2363
   42MPD2    H5  662   2.339   3.943  14.119 -2.3429  1.2307 -1.2489
   42MPD2    N1  663   2.012   3.704  13.830 -1.0719 -0.2448 -0.1327
   42MPD2    H7  664   1.992   3.802  13.814  0.7784 -0.4403 -3.4676
   43TMC2    C1  665   3.916   1.801   0.539  0.3517  0.8735  0.0165
   43TMC2    C2  666   3.805   1.881   0.552  1.2130 -0.4372  0.0924
   43TMC2    C3  667   3.790   1.946   0.672  0.0205 -0.0110 -0.3696
   43TMC2    C4  668   4.009   1.788   0.634  0.2498 -0.6234 -1.1933
   43TMC2    C5  669   3.997   1.854   0.752 -0.4112 -0.3977  0.3033
   43TMC2    C6  670   3.887   1.937   0.773 -0.4194  0.0484 -0.1423
   43TMC2     C  671   3.911   1.695   0.436 -0.3185  0.1830  0.3206
   43TMC2     O  672   3.991   1.603   0.456 -0.4932  0.2472  0.3214
   43TMC2     H  673   3.735   1.901   0.472  1.3062 -0.6954 -0.0546
   43TMC2    H1  674   4.083   1.710   0.634  2.2153  1.2322  0.9844
   43TMC2    H2  675   3.873   1.988   0.867 -2.8756 -1.4274  0.2942
   43TMC2    C7  676   4.091   1.835   0.859  0.7377 -0.4908 -0.0445
   43TMC2    C8  677   3.703   2.059   0.677 -0.5598  0.1039 -0.0023
   43TMC2    O1  678   4.063   1.881   0.970  0.3701 -0.1854  0.1782
   43TMC2    O2  679   3.721   2.157   0.748 -0.3546  0.5106 -0.0648
   43TMC2    O5  680   3.581   2.015   0.652 -0.7936  0.5003 -0.0247
   43TMC2    H5  681   3.575   1.921   0.623  1.9012  0.4089 -0.2998
   44MPD2     C  682   3.668   1.406   0.081  0.4857  0.1601 -0.0749
   44MPD2    C1  683   3.771   1.383   0.167 -1.3912 -0.0539 -0.6427
   44MPD2    C2  684   3.811   1.479   0.254  0.0469  0.1061  0.0005
   44MPD2    C3  685   3.763   1.606   0.248 -0.9577 -0.0708 -0.3156
   44MPD2    C4  686   3.666   1.636   0.160 -0.1834  0.3543 -0.4550
   44MPD2    C5  687   3.619   1.539   0.074  0.2829  0.5040 -0.6779
   44MPD2     H  688   3.883   1.465   0.335  0.3296  0.2997 -0.2187
   44MPD2    H1  689   3.622   1.734   0.141  2.6001  1.6750 -0.1180
   44MPD2    H2  690   3.649   1.335   0.002 -2.3015 -2.0300  2.5481
   44MPD2    H3  691   3.538   1.558   0.004  0.0001 -0.0450 -0.5092
   44MPD2     N  692   3.816   1.706   0.336 -0.7627 -0.3515 -1.0313
   44MPD2    H5  693   3.770   1.796   0.331 -1.1764 -0.5094 -0.1535
   44MPD2    N1  694   3.832   1.255   0.171  0.0386 -0.1561 -0.6046
   44MPD2    H7  695   3.904   1.236   0.240 -1.5081 -2.1648  0.4515
   45TMC2    C1  696   4.732   2.985   9.986  0.0132  0.8818 -0.1592
   45TMC2    C2  697   0.110   2.920  10.005 -0.6860 -0.7613  0.1629
   45TMC2    C3  698   0.213   3.002  10.047 -0.2094  0.0134  0.4914
   45TMC2    C4  699   4.715   3.120  10.009 -0.1831  0.2946  0.6295
   45TMC2    C5  700   0.083   3.199  10.045  0.0846 -0.1867 -0.1507
   45TMC2    C6  701   0.204   3.136  10.069 -0.3311  0.0357 -0.4317
   45TMC2     C  702   4.633   2.913   9.917 -0.1906 -0.2825 -0.0300
   45TMC2     O  703   4.634   2.789   9.926  0.2214 -0.3713  0.3551
   45TMC2     H  704   0.127   2.815   9.988 -1.0534 -1.2637  2.8943
   45TMC2    H1  705   4.618   3.169  10.014 -1.0892 -1.3891 -0.5340
   45TMC2    H2  706   0.295   3.178  10.112  1.0003  0.5894 -3.7801
   45TMC2    C7  707   0.065   3.346  10.068  0.0179  0.3918 -0.5046
   45TMC2    C8  708   0.344   2.943  10.059  0.1948 -0.4026  0.1518
   45TMC2    O1  709   0.146   3.413  10.129 -0.2836  0.0090 -0.6150
   45TMC2    O2  710   0.338   2.825  10.100  0.1582 -0.4135  0.0051
   45TMC2    O5  711   0.400   2.991   9.947 -0.2782 -0.8242  0.1718
   45TMC2    H5  712   0.393   3.086   9.925 -0.5604 -0.2511  2.7277
   46MPD2     C  713   4.439   2.806   9.725 -0.2921  0.0970  0.0990
   46MPD2    C1  714   4.491   2.935   9.718  0.5141 -0.0395  0.0868
   46MPD2    C2  715   4.463   3.011   9.609 -0.4629 -0.5539 -0.5096
   46MPD2    C3  716   4.375   2.970   9.512  0.3981 -0.3932 -1.0967
   46MPD2    C4  717   4.321   2.841   9.519 -0.4294 -0.3202 -0.6337
   46MPD2    C5  718   4.349   2.762   9.629 -0.2965 -1.1200  0.4158
   46MPD2     H  719   4.509   3.109   9.606 -0.9163 -0.3819 -1.7027
   46MPD2    H1  720   4.249   2.812   9.444 -1.0194 -0.1225 -0.1466
   46MPD2    H2  721   4.441   2.745   9.815  1.1972 -0.3574 -0.2446
   46MPD2    H3  722   4.309   2.661   9.641  1.3294 -1.8749 -0.5567
   46MPD2     N  723   4.341   3.059   9.403  0.5321 -0.5132  0.4051
   46MPD2    H5  724   4.397   3.143   9.395 -0.3771  0.0580  0.0841
   46MPD2    N1  725   4.571   2.987   9.819  0.2949  0.1390 -0.6911
   46MPD2    H7  726   4.593   3.085   9.813 -0.6672  0.3544 -0.7816
   47TMC2    C1  727   1.870   4.150   8.815 -0.3760 -0.5147 -0.2121
   47TMC2    C2  728   1.857   4.018   8.783  0.7602 -0.1577  0.3500
   47TMC2    C3  729   1.735   3.982   8.735 -0.2808 -0.5246 -0.4412
   47TMC2    C4  730   1.766   4.238   8.799  0.3641 -0.5155 -0.5729
   47TMC2    C5  731   1.642   4.192   8.765 -0.0816  0.2692  0.3209
   47TMC2    C6  732   1.626   4.062   8.736  0.8298 -0.2528 -0.2099
   47TMC2     C  733   1.989   4.200   8.897 -0.1782  1.3774  0.1920
   47TMC2     O  734   1.982   4.306   8.957 -0.3260 -0.0012  0.0422
   47TMC2     H  735   1.928   3.936   8.792 -0.8979 -1.4535  1.6740
   47TMC2    H1  736   1.773   4.341   8.833 -0.8543 -0.7505  0.4044
   47TMC2    H2  737   1.529   4.024   8.704  0.3643 -0.5651  1.5804
   47TMC2    C7  738   1.529   4.288   8.765 -0.4504 -0.0981 -0.3380
   47TMC2    C8  739   1.726   3.848   8.670 -0.4075  0.1845 -1.2074
   47TMC2    O1  740   1.571   4.404   8.778 -0.4022 -0.0042 -0.0074
   47TMC2    O2  741   1.815   3.761   8.672  0.4969 -0.1131 -0.5358
   47TMC2    O5  742   1.615   3.844   8.587 -0.0701 -0.1018  0.4176
   47TMC2    H5  743   1.568   3.927   8.563 -0.6581  0.1020  2.2622
   48MPD2     C  744   2.230   4.233   9.061 -0.3146 -0.7397 -0.0165
   48MPD2    C1  745   2.189   4.113   9.011 -0.6068  0.3041 -0.0669
   48MPD2    C2  746   2.268   4.009   9.041  0.0514 -0.3502  0.2930
   48MPD2    C3  747   2.377   4.017   9.120 -0.3181 -0.2697  0.5258
   48MPD2    C4  748   2.417   4.139   9.169  0.0370 -1.0153 -0.0438
   48MPD2    C5  749   2.344   4.244   9.143  0.4528  0.2284  0.5007
   48MPD2     H  750   2.236   3.916   8.996  0.1662 -0.1904 -0.1202
   48MPD2    H1  751   2.498   4.155   9.240 -1.2359 -2.1785  1.6761
   48MPD2    H2  752   2.190   4.331   9.039  0.9864  0.1723  1.7582
   48MPD2    H3  753   2.373   4.340   9.185  0.6218  1.2766 -1.9641
   48MPD2     N  754   2.440   3.902   9.162  0.2426  0.1655 -0.1545
   48MPD2    H5  755   2.399   3.810   9.146  2.9599 -1.4094  1.9928
   48MPD2    N1  756   2.077   4.096   8.930  0.4189  0.5347 -0.4028
   48MPD2    H7  757   2.061   4.004   8.890  1.9688 -0.4492  1.1957
   49TMC2    C1  758   0.953   1.364  10.377  0.6341  0.3778  0.3408
   49TMC2    C2  759   1.028   1.261  10.338 -0.1341 -0.3621  1.0805
   49TMC2    C3  760   1.166   1.283  10.332  0.0970 -0.0416 -0.3039
   49TMC2    C4  761   1.004   1.468  10.446 -0.5151 -0.4140  0.4724
   49TMC2    C5  762   1.139   1.476  10.452  0.5025  0.0074  0.4710
   49TMC2    C6  763   1.227   1.386  10.393  0.4761  0.1781  0.1271
   49TMC2     C  764   0.827   1.328  10.427  0.8498  0.6922  1.0373
   49TMC2     O  765   0.819   1.215  10.469  0.4226  0.2433 -0.0276
   49TMC2     H  766   0.981   1.171  10.299  1.4059 -0.3135 -0.9320
   49TMC2    H1  767   0.943   1.551  10.478 -0.1377  0.0365  0.0183
   49TMC2    H2  768   1.334   1.399  10.393  0.4553  0.3451  0.6005
   49TMC2    C7  769   1.187   1.589  10.528  0.7514 -0.0259 -0.8992
   49TMC2    C8  770   1.248   1.166  10.294  0.1008 -0.5577  0.0761
   49TMC2    O1  771   1.107   1.665  10.590  0.1373  0.1839  0.6225
   49TMC2    O2  772   1.358   1.150  10.350  0.2892  0.4385  0.0363
   49TMC2    O5  773   1.178   1.074  10.218  0.7014  0.2269 -0.0928
   49TMC2    H5  774   1.095   1.106  10.175  0.4471  2.2712  1.9814
   50MPD2     C  775   0.552   1.302  10.509  0.1651  0.2992  0.7712
   50MPD2    C1  776   0.593   1.411  10.447  0.5740  0.6780  0.2477
   50MPD2    C2  777   0.502   1.511  10.421 -0.4079  0.3821  0.1110
   50MPD2    C3  778   0.368   1.503  10.459  0.2469  0.0454 -0.8551
   50MPD2    C4  779   0.334   1.395  10.539 -0.2011  0.5282 -0.2058
   50MPD2    C5  780   0.422   1.300  10.556  0.2605  0.1647  0.2052
   50MPD2     H  781   0.541   1.594  10.363  0.6138  0.1805  0.5187
   50MPD2    H1  782   0.237   1.382  10.585 -0.9196 -0.4750 -1.9702
   50MPD2    H2  783   0.609   1.212  10.529  0.4172  0.2845  0.0070
   50MPD2    H3  784   0.402   1.205  10.603  2.1324  0.2433  1.1687
   50MPD2     N  785   0.267   1.601  10.425 -0.5520 -0.2539 -0.2875
   50MPD2    H5  786   0.173   1.570  10.450  0.5047 -0.8161  2.8946
   50MPD2    N1  787   0.731   1.429  10.412 -0.3006 -0.3559 -0.9033
   50MPD2    H7  788   0.757   1.515  10.365 -0.5170  0.3181  0.2226
   51TMC2    C1  789   0.910   0.341   0.793  0.2185 -0.0143 -0.0508
   51TMC2    C2  790   0.853   0.461   0.782 -0.2216 -0.5019 -0.0666
   51TMC2    C3  791   0.928   0.571   0.813 -0.7905  0.3163  0.4869
   51TMC2    C4  792   1.041   0.331   0.836  0.6703 -0.0440 -0.3456
   51TMC2    C5  793   1.112   0.442   0.874 -0.1181 -0.1282  0.4430
   51TMC2    C6  794   1.062   0.569   0.857 -0.3066  1.0077  0.1728
   51TMC2     C  795   0.824   0.237   0.845 -0.4150 -0.0275 -0.3319
   51TMC2     O  796   0.868   0.123   0.821  0.5904 -0.1560 -0.0733
   51TMC2     H  797   0.751   0.473   0.746  0.2569 -0.8173 -1.5043
   51TMC2    H1  798   1.077   0.232   0.862 -4.9035 -2.0153 -0.1964
   51TMC2    H2  799   1.108   0.662   0.887 -2.5611  1.6710  1.5537
   51TMC2    C7  800   1.241   0.420   0.929  0.0023  0.2860  0.2572
   51TMC2    C8  801   0.866   0.700   0.780 -0.1248 -0.0982 -0.3182
   51TMC2    O1  802   1.302   0.317   0.893 -0.1429 -0.6231  0.0555
   51TMC2    O2  803   0.860   0.785   0.867 -0.1325 -0.1889 -0.0086
   51TMC2    O5  804   0.800   0.702   0.664  0.3658  0.0941  0.7981
   51TMC2    H5  805   0.822   0.619   0.618  1.5618  1.8386 -1.7863
   52MPD2     C  806   0.383   0.081   1.017  0.1984 -0.5633 -0.6222
   52MPD2    C1  807   0.493   0.001   0.991  0.5897 -0.0654 -0.5107
   52MPD2    C2  808   0.608   0.069   0.947 -0.0794  1.0266  0.6622
   52MPD2    C3  809   0.599   0.207   0.928 -0.5003 -0.7571 -0.3081
   52MPD2    C4  810   0.495   0.283   0.979 -0.2311 -0.4097  0.3073
   52MPD2    C5  811   0.385   0.218   1.020 -0.4452  0.4079 -0.7283
   52MPD2     H  812   0.692   0.006   0.918 -0.7683 -0.4824  1.9417
   52MPD2    H1  813   0.494   0.391   0.965  0.4467 -0.5121 -0.5245
   52MPD2    H2  814   0.284   0.046   1.044 -0.1893 -0.3403 -1.7738
   52MPD2    H3  815   0.293   0.269   1.048 -1.4304 -1.7792  0.0202
   52MPD2     N  816   0.709   0.288   0.889 -0.0136 -0.7074  0.1739
   52MPD2    H5  817   0.707   0.388   0.907 -0.3040 -0.2757 -2.3541
   52MPD2    N1  818   0.491   4.599   1.014 -0.0065  0.2849  0.6487
   52MPD2    H7  819   0.577   4.545   1.011  0.5919  1.2200  1.4768
   53TMC2    C1  820   1.481   3.308  11.509  0.0573  0.3551  0.4948
   53TMC2    C2  821   1.615   3.278  11.502  0.4589 -0.1620 -1.0197
   53TMC2    C3  822   1.692   3.293  11.614  0.4789 -0.1294 -0.0473
   53TMC2    C4  823   1.420   3.350  11.624  0.2417  0.7500 -0.1241
   53TMC2    C5  824   1.497   3.346  11.740  0.3468  0.4186 -0.3165
   53TMC2    C6  825   1.633   3.310  11.737  0.6487  0.0380 -0.6933
   53TMC2     C  826   1.421   3.329  11.381  0.0914  0.4014 -0.2682
   53TMC2     O  827   1.485   3.373  11.288  0.3812 -0.1043 -0.4371
   53TMC2     H  828   1.662   3.228  11.418  1.7657  0.0960 -0.4310
   53TMC2    H1  829   1.318   3.387  11.628  0.4341  1.1866  0.7994
   53TMC2    H2  830   1.688   3.291  11.828 -0.3014 -0.6568 -0.2539
   53TMC2    C7  831   1.427   3.391  11.865 -0.9745  0.2272 -0.0641
   53TMC2    C8  832   1.802   3.197  11.625  0.1706  0.2259 -0.6687
   53TMC2    O1  833   1.339   3.478  11.853 -0.5249 -0.1359 -0.5587
   53TMC2    O2  834   1.901   3.216  11.551 -0.3150 -0.2327  0.5060
   53TMC2    O5  835   1.759   3.082  11.681 -0.1288  0.1694  0.3720
   53TMC2    H5  836   1.674   3.093  11.728  0.0822 -0.3507  0.8707
   54MPD2     C  837   1.204   3.310  11.164  0.2152 -0.3095  0.3820
   54MPD2    C1  838   1.186   3.304  11.297 -0.0818 -0.2523  0.7345
   54MPD2    C2  839   1.061   3.291  11.342 -0.2301  0.5222 -0.1295
   54MPD2    C3  840   0.955   3.285  11.258  0.6505  0.1527 -0.5894
   54MPD2    C4  841   0.972   3.292  11.124 -0.6392 -0.3815 -0.1450
   54MPD2    C5  842   1.102   3.304  11.077  0.0751  0.3353  0.5781
   54MPD2     H  843   1.044   3.269  11.447 -1.9223 -0.8368 -0.6789
   54MPD2    H1  844   0.888   3.294  11.056  2.1838  1.3938 -3.5688
   54MPD2    H2  845   1.305   3.315  11.124  0.1851  0.2060  0.3652
   54MPD2    H3  846   1.125   3.307  10.971  1.9491  0.6868  1.0035
   54MPD2     N  847   0.817   3.280  11.304  0.3686  0.7450  0.1604
   54MPD2    H5  848   0.744   3.254  11.239  0.0330  0.3022  0.7084
   54MPD2    N1  849   1.285   3.295  11.397 -0.5675 -0.5811  0.8782
   54MPD2    H7  850   1.251   3.260  11.486 -2.7314  0.8888  0.6152
   55TMC2    C1  851   2.520   1.705   0.155 -0.1141  1.1279 -1.0345
   55TMC2    C2  852   2.621   1.799   0.137  0.1239  0.0997  0.5537
   55TMC2    C3  853   2.745   1.753   0.172 -0.1881  0.4996  0.2613
   55TMC2    C4  854   2.538   1.582   0.211 -0.3424  0.6231  0.2277
   55TMC2    C5  855   2.665   1.538   0.243 -0.5022 -0.0394 -0.4974
   55TMC2    C6  856   2.773   1.626   0.223 -0.1432 -1.0963 -0.0801
   55TMC2     C  857   2.389   1.753   0.176  0.2357  1.0558  0.3897
   55TMC2     O  858   2.321   1.709   0.272  0.1121 -0.5349  0.0598
   55TMC2     H  859   2.606   1.900   0.101  1.5421  0.3545  0.6566
   55TMC2    H1  860   2.459   1.508   0.213  0.6287 -0.4485 -1.0792
   55TMC2    H2  861   2.874   1.590   0.237  0.0082 -0.3180  0.8643
   55TMC2    C7  862   2.683   1.448   0.355 -0.0731 -0.2521 -0.6799
   55TMC2    C8  863   2.842   1.847   0.211 -0.7793  0.4123  0.2593
   55TMC2    O1  864   2.796   1.438   0.404 -0.4888  0.4475  0.2960
   55TMC2    O2  865   2.809   1.958   0.256 -0.3428  0.0881  0.1980
   55TMC2    O5  866   2.962   1.804   0.164 -0.2192  0.0872  0.1668
   55TMC2    H5  867   2.968   1.729   0.102  1.8622 -0.6672  1.2803
   56MPD2     C  868   2.263   2.073   0.025  0.2906 -0.3066 -1.0388
   56MPD2    C1  869   2.260   1.958   0.103  0.5035  0.3320  0.3477
   56MPD2    C2  870   2.160   1.948   0.198  0.2914 -0.1578  0.1894
   56MPD2    C3  871   2.062   2.047   0.210  0.5615  0.2851 -0.4342
   56MPD2    C4  872   2.073   2.163   0.142  0.2923  0.1692 -0.3449
   56MPD2    C5  873   2.172   2.171   0.048 -0.2287  0.0972  0.2952
   56MPD2     H  874   2.153   1.858   0.258  2.5426 -0.1618  0.4222
   56MPD2    H1  875   1.992   2.234   0.147  0.0701 -0.1604  0.8249
   56MPD2    H2  876   2.339   2.081  17.692 -0.9648  1.1652 -2.1249
   56MPD2    H3  877   2.189   2.260  17.733  1.9282  0.0134  0.7924
   56MPD2     N  878   1.957   2.029   0.309  1.0175  0.2881 -0.4259
   56MPD2    H5  879   1.941   1.937   0.348  2.1915 -0.0639 -0.7729
   56MPD2    N1  880   2.369   1.866   0.097  0.0570  0.9103  0.7521
   56MPD2    H7  881   2.444   1.889   0.032  0.2865 -2.6098 -0.2771
   57TMC2    C1  882   1.504   2.132  13.999 -0.3013  0.1757 -0.3637
   57TMC2    C2  883   1.608   2.130  14.085  0.3503 -0.1886  0.0949
   57TMC2    C3  884   1.718   2.062  14.047  0.0578 -0.1050  0.7053
   57TMC2    C4  885   1.510   2.064  13.878 -0.6775  0.6617  0.1460
   57TMC2    C5  886   1.629   2.006  13.839  0.0474 -0.1273 -0.4186
   57TMC2    C6  887   1.734   2.011  13.925 -0.0400 -0.0515 -0.7138
   57TMC2     C  888   1.372   2.145  14.055 -0.6274  0.5924 -0.0963
   57TMC2     O  889   1.359   2.202  14.162 -0.3311  0.6761  0.1131
   57TMC2     H  890   1.588   2.176  14.181  1.8386  0.5746  0.0312
   57TMC2    H1  891   1.427   2.063  13.808 -0.2698  1.7606 -0.3435
   57TMC2    H2  892   1.833   1.981  13.893  1.2682  3.5649 -0.0017
   57TMC2    C7  893   1.642   1.920  13.724  0.0069 -0.0549  0.6081
   57TMC2    C8  894   1.812   2.033  14.155  0.4620  0.0388  0.3779
   57TMC2    O1  895   1.741   1.850  13.726 -0.6532 -0.2856 -0.2645
   57TMC2    O2  896   1.847   2.105  14.248  0.1074  0.6868  0.4552
   57TMC2    O5  897   1.865   1.909  14.136 -0.2794  0.1860  0.2352
   57TMC2    H5  898   1.834   1.853  14.061 -1.3748  0.4158  0.5150
   58MPD2     C  899   0.871   2.059  14.063 -0.4518  0.4148  0.5402
   58MPD2    C1  900   0.948   2.152  14.125 -0.3931  0.5399  0.2095
   58MPD2    C2  901   1.084   2.161  14.095 -0.1974 -0.6320 -0.4123
   58MPD2    C3  902   1.140   2.075  14.005  0.7788 -0.1595  0.4525
   58MPD2    C4  903   1.058   1.986  13.939  0.9274  0.1763  0.2184
   58MPD2    C5  904   0.930   1.972  13.979 -0.4130  0.3296 -0.0292
   58MPD2     H  905   1.139   2.234  14.153 -0.0640 -3.1274  2.6092
   58MPD2    H1  906   1.092   1.923  13.858 -0.6526  1.6832 -1.6256
   58MPD2    H2  907   0.763   2.052  14.066 -0.3795 -1.0504 -0.9878
   58MPD2    H3  908   0.869   1.894  13.934  0.2284  0.4757 -1.1301
   58MPD2     N  909   1.278   2.073  13.980  0.5367 -0.1419  0.3252
   58MPD2    H5  910   1.307   2.015  13.902  1.0731 -0.4118  0.7241
   58MPD2    N1  911   0.888   2.244  14.219 -0.1720 -0.4362 -0.4128
   58MPD2    H7  912   0.934   2.332  14.241 -1.3177  0.0091  0.2367
   59TMC2    C1  913   3.493   2.568  12.684 -0.3555 -0.2070  0.3118
   59TMC2    C2  914   3.620   2.603  12.642 -0.6141 -0.1087 -0.3803
   59TMC2    C3  915   3.647   2.598  12.509 -0.0849 -0.5512 -0.7823
   59TMC2    C4  916   3.399   2.523  12.601 -0.4759 -0.4094  0.0878
   59TMC2    C5  917   3.430   2.520  12.470  1.0951  0.3939  0.1218
   59TMC2    C6  918   3.548   2.568  12.421 -0.7750 -0.5668  1.1777
   59TMC2     C  919   3.465   2.540  12.822 -0.2145 -0.0961  1.0362
   59TMC2     O  920   3.349   2.534  12.865  0.1749  0.3140  0.5867
   59TMC2     H  921   3.688   2.641  12.718  0.0687 -1.8155 -0.1367
   59TMC2    H1  922   3.298   2.501  12.634 -0.5602 -0.9766 -0.5350
   59TMC2    H2  923   3.578   2.539  12.321 -0.7902 -1.0453  1.3160
   59TMC2    C7  924   3.332   2.472  12.369 -0.4748  0.8157 -0.1284
   59TMC2    C8  925   3.775   2.642  12.457 -0.1628 -0.1955  0.3823
   59TMC2    O1  926   3.245   2.396  12.412  0.3572  0.1594 -0.0379
   59TMC2    O2  927   3.780   2.675  12.344  0.4828  0.0494 -0.9541
   59TMC2    O5  928   3.869   2.619  12.553  0.1701 -0.1096  0.3344
   59TMC2    H5  929   3.833   2.556  12.619 -1.2084 -0.5560 -0.8499
   60MPD2     C  930   3.493   2.603  13.110  0.2729 -1.2063 -0.1682
   60MPD2    C1  931   3.588   2.534  13.040 -0.1251 -0.0928  0.1643
   60MPD2    C2  932   3.700   2.479  13.098  0.1362 -0.2995 -0.0360
   60MPD2    C3  933   3.715   2.498  13.235  0.3616 -0.3202  0.6301
   60MPD2    C4  934   3.619   2.567  13.302  0.0536 -0.6911 -0.1879
   60MPD2    C5  935   3.505   2.614  13.244 -0.4428 -0.0874 -0.6152
   60MPD2     H  936   3.768   2.421  13.036  0.0664 -1.7040  1.2147
   60MPD2    H1  937   3.635   2.613  13.399 -1.3883  1.7650 -1.1390
   60MPD2    H2  938   3.409   2.657  13.068 -0.2584 -0.8286  1.4112
   60MPD2    H3  939   3.432   2.663  13.307  0.6047  0.8722 -0.1514
   60MPD2     N  940   3.817   2.454  13.314 -0.2953 -0.3577  0.2923
   60MPD2    H5  941   3.813   2.470  13.414  2.1436  1.1159  0.1408
   60MPD2    N1  942   3.581   2.529  12.896  0.4459 -0.0572  0.6261
   60MPD2    H7  943   3.663   2.502  12.843 -0.4239 -1.9772  0.2551
   61TMC2    C1  944   2.926   3.522  15.150 -0.0513  0.5201 -0.3361
   61TMC2    C2  945   2.837   3.473  15.237  0.4633 -0.0840 -0.1941
   61TMC2    C3  946   2.773   3.564  15.319  0.1951  1.4036 -0.3379
   61TMC2    C4  947   2.972   3.652  15.155 -0.7752 -0.1542 -0.2700
   61TMC2    C5  948   2.916   3.739  15.247  0.9082  0.7244 -0.5236
   61TMC2    C6  949   2.814   3.694  15.331  0.3608  0.5041  0.1665
   61TMC2     C  950   2.977   3.432  15.042 -0.2688  0.2054  1.0988
   61TMC2     O  951   2.932   3.319  15.045 -0.0275 -0.6141  0.3612
   61TMC2     H  952   2.798   3.372  15.231  0.2253 -0.0119  0.0884
   61TMC2    H1  953   3.042   3.693  15.084 -0.5109  0.0947  0.1336
   61TMC2    H2  954   2.764   3.751  15.409 -1.3738 -1.1651  0.2831
   61TMC2    C7  955   2.978   3.871  15.259 -0.2982 -0.2356  0.0046
   61TMC2    C8  956   2.662   3.520  15.399  0.4670 -0.0634  0.2241
   61TMC2    O1  957   3.055   3.899  15.162 -0.2606  0.0760  0.1084
   61TMC2    O2  958   2.649   3.400  15.433 -0.6271 -0.2225 -0.3644
   61TMC2    O5  959   2.559   3.605  15.386 -0.4681 -0.5944  0.0211
   61TMC2    H5  960   2.578   3.686  15.333  1.2188 -1.7361 -1.0976
   62MPD2     C  961   3.083   3.297  14.794 -1.1966 -0.1791 -0.3642
   62MPD2    C1  962   3.123   3.424  14.842  0.2074  0.6082  0.3827
   62MPD2    C2  963   3.195   3.505  14.751 -0.9864  0.1409  0.1227
   62MPD2    C3  964   3.220   3.464  14.624 -0.1186  0.0419 -0.5842
   62MPD2    C4  965   3.174   3.344  14.580  0.2289 -1.0653  0.1142
   62MPD2    C5  966   3.110   3.260  14.665  0.3674  0.0157 -1.1377
   62MPD2     H  967   3.226   3.601  14.791 -1.1914  1.4956 -2.9188
   62MPD2    H1  968   3.211   3.298  14.489  0.4266 -2.2918  0.8171
   62MPD2    H2  969   3.019   3.236  14.857 -0.4800 -1.9558 -1.3552
   62MPD2    H3  970   3.072   3.166  14.628  1.0170 -1.4040  1.7917
   62MPD2     N  971   3.312   3.537  14.541 -0.2646  0.2750  0.0669
   62MPD2    H5  972   3.313   3.521  14.440 -2.9456 -0.1451  0.1200
   62MPD2    N1  973   3.072   3.490  14.959 -0.6382 -0.0495  0.4554
   62MPD2    H7  974   3.099   3.588  14.961 -0.3153 -0.1198 -0.6956
   63TMC2    C1  975   2.386   3.891   9.991  0.0223  0.0123 -0.1617
   63TMC2    C2  976   2.512   3.878  10.055 -1.1303  0.5638  0.6766
   63TMC2    C3  977   2.595   3.981  10.022 -0.5454 -0.1494  0.2284
   63TMC2    C4  978   2.352   3.989   9.901  0.8574 -0.6486 -0.2392
   63TMC2    C5  979   2.442   4.090   9.871 -0.2923 -0.4945 -0.6059
   63TMC2    C6  980   2.567   4.079   9.927 -0.5048  0.6133 -0.1131
   63TMC2     C  981   2.289   3.798  10.034  0.5568  0.2632 -0.4316
   63TMC2     O  982   2.345   3.701  10.083 -0.1736  0.1272  0.9132
   63TMC2     H  983   2.548   3.791  10.107 -1.2032 -1.5150 -2.7520
   63TMC2    H1  984   2.255   3.981   9.854 -0.3529  2.8139  1.6881
   63TMC2    H2  985   2.651   4.144   9.909 -0.4098  0.1181 -1.4049
   63TMC2    C7  986   2.411   4.194   9.778  0.0239 -0.1138 -0.6825
   63TMC2    C8  987   2.724   3.965  10.088 -0.2078 -0.2069 -0.2410
   63TMC2    O1  988   2.297   4.184   9.727 -0.2914  0.0105 -0.0880
   63TMC2    O2  989   2.748   3.863  10.151  0.6487  0.5387  0.0995
   63TMC2    O5  990   2.817   4.059  10.051  0.0135 -0.6654  0.5735
   63TMC2    H5  991   2.785   4.147  10.079  2.1812  0.9076 -1.8696
   64MPD2     C  992   1.812   3.637  10.139 -0.1863 -0.4394 -0.3029
   64MPD2    C1  993   1.935   3.605  10.200 -0.0486 -0.5714  0.0135
   64MPD2    C2  994   2.046   3.670  10.156  0.3830 -0.7192  0.5603
   64MPD2    C3  995   2.042   3.753  10.047 -0.3064 -0.4206  0.9610
   64MPD2    C4  996   1.917   3.777   9.990 -0.3337  0.1733  0.2428
   64MPD2    C5  997   1.807   3.721  10.040  0.3132 -0.4764 -0.0967
   64MPD2     H  998   2.137   3.641  10.207  1.6395  1.4109 -0.4897
   64MPD2    H1  999   1.912   3.824   9.893 -2.5943  0.1811  0.3703
   64MPD2    H2 1000   1.720   3.600  10.181 -0.6986  0.7089 -0.4149
   64MPD2    H3 1001   1.711   3.742   9.994  0.3861  0.0980  0.0053
   64MPD2     N 1002   2.154   3.826   9.998  0.1810 -0.2791  0.1155
   64MPD2    H5 1003   2.125   3.901   9.936 -0.6539 -0.2718  0.5236
   64MPD2    N1 1004   1.944   3.510  10.307 -0.3561  0.2763 -0.2926
   64MPD2    H7 1005   2.039   3.504  10.342 -0.3898 -0.1023 -0.2597
   65TMC2    C1 1006   3.863   3.599  15.636 -0.0761 -0.0089 -0.5171
   65TMC2    C2 1007   3.769   3.547  15.541  0.4743 -0.3774  0.2555
   65TMC2    C3 1008   3.728   3.633  15.445  0.6134 -0.1996 -0.1657
   65TMC2    C4 1009   3.924   3.718  15.616 -0.6431  0.4512  0.1444
   65TMC2    C5 1010   3.883   3.791  15.502  0.1914 -0.2933 -0.5981
   65TMC2    C6 1011   3.783   3.748  15.416 -0.2994 -0.4226  0.7193
   65TMC2     C 1012   3.921   3.504  15.725 -1.3398  0.2181  0.7151
   65TMC2     O 1013   4.031   3.532  15.762  0.0064 -0.2391 -0.2291
   65TMC2     H 1014   3.702   3.466  15.565  0.2835 -0.3299 -0.1140
   65TMC2    H1 1015   3.992   3.759  15.690 -2.5514 -1.3071  2.8857
   65TMC2    H2 1016   3.750   3.808  15.331 -0.1280 -0.8543  0.3491
   65TMC2    C7 1017   3.872   3.932  15.526 -0.7067  0.2581  0.1953
   65TMC2    C8 1018   3.637   3.585  15.340 -0.3873 -0.2847  0.2751
   65TMC2    O1 1019   3.923   4.004  15.444  0.2633 -0.2605 -0.5109
   65TMC2    O2 1020   3.569   3.652  15.264 -0.2305 -0.4434 -0.0638
   65TMC2    O5 1021   3.696   3.469  15.308  0.2759 -0.3238 -1.0045
   65TMC2    H5 1022   3.773   3.453  15.368  1.1329  0.6246 -1.8472
   66MPD2     C 1023   4.013   3.277  15.894  0.3263 -0.8017  0.0960
   66MPD2    C1 1024   3.919   3.269  15.794 -0.1174  0.1355  0.1706
   66MPD2    C2 1025   3.857   3.146  15.762  0.0572  0.0668 -0.3822
   66MPD2    C3 1026   3.910   3.031  15.804 -0.1245  0.3601 -0.2561
   66MPD2    C4 1027   4.005   3.033  15.899 -0.6488 -0.5611  0.3684
   66MPD2    C5 1028   4.053   3.154  15.943 -0.0398  0.0350 -0.2369
   66MPD2     H 1029   3.775   3.159  15.693  1.5390  0.9389 -1.9822
   66MPD2    H1 1030   4.048   2.941  15.937  1.5514  1.0728  1.8357
   66MPD2    H2 1031   4.052   3.374  15.924 -0.1288 -0.0231 -1.8234
   66MPD2    H3 1032   4.132   3.162  16.017  0.1451  0.5267 -0.4907
   66MPD2     N 1033   3.855   2.914  15.764 -0.1146 -0.6797  0.1905
   66MPD2    H5 1034   3.877   2.831  15.818 -0.0212 -0.0347  1.1467
   66MPD2    N1 1035   3.863   3.380  15.722 -0.0214 -0.6561 -0.1985
   66MPD2    H7 1036   3.790   3.369  15.652 -0.8170 -0.4030  0.6018
   67TMC2    C1 1037   3.660   2.110  14.348  0.0329  0.6307  0.1786
   67TMC2    C2 1038   3.543   2.069  14.400  0.0487 -0.5180  0.0009
   67TMC2    C3 1039   3.534   2.096  14.539 -0.2022  0.4503 -0.1004
   67TMC2    C4 1040   3.771   2.166  14.404  0.0453 -0.3477  0.4041
   67TMC2    C5 1041   3.759   2.189  14.536 -0.1548  0.2179  0.0442
   67TMC2    C6 1042   3.651   2.150  14.603  0.4000  0.8627 -0.3599
   67TMC2     C 1043   3.663   2.127  14.205  0.8468  0.0316 -0.5705
   67TMC2     O 1044   3.760   2.100  14.138  0.0238 -0.3375 -0.0109
   67TMC2     H 1045   3.468   2.010  14.349 -0.4431  0.0478  0.0661
   67TMC2    H1 1046   3.860   2.179  14.344  1.2486 -3.7439  1.4453
   67TMC2    H2 1047   3.654   2.152  14.711  0.2761 -1.5884 -0.3059
   67TMC2    C7 1048   3.891   2.194  14.607 -0.5227 -0.3454  0.3043
   67TMC2    C8 1049   3.435   2.048  14.630  0.3286  0.0109  0.1877
   67TMC2    O1 1050   3.985   2.138  14.556  0.3127 -0.1527  0.0482
   67TMC2    O2 1051   3.450   2.036  14.750  0.0133 -0.1099 -0.1387
   67TMC2    O5 1052   3.326   2.008  14.562 -0.2818  0.6311  0.1126
   67TMC2    H5 1053   3.325   2.037  14.468 -1.2257  1.0957  0.2687
   68MPD2     C 1054   3.575   2.218  13.931  0.3655  0.2072 -0.0482
   68MPD2    C1 1055   3.492   2.216  14.039  0.8840 -0.4004  0.0302
   68MPD2    C2 1056   3.352   2.245  14.024 -1.0047  0.3443 -0.5518
   68MPD2    C3 1057   3.295   2.276  13.903 -0.0670 -1.0678  0.4295
   68MPD2    C4 1058   3.384   2.285  13.800  0.0341 -0.0644 -0.7033
   68MPD2    C5 1059   3.523   2.259  13.810  0.2715 -0.6609  0.5084
   68MPD2     H 1060   3.295   2.238  14.116  0.7898 -0.1633  0.5236
   68MPD2    H1 1061   3.348   2.321  13.704  0.9863  1.2234 -0.5700
   68MPD2    H2 1062   3.681   2.200  13.933  0.0687 -1.5329  0.0033
   68MPD2    H3 1063   3.597   2.266  13.731  0.0004 -0.8649  0.2369
   68MPD2     N 1064   3.154   2.293  13.882 -0.2320 -0.0595  0.2923
   68MPD2    H5 1065   3.120   2.303  13.787 -1.7832 -0.4750  0.8167
   68MPD2    N1 1066   3.543   2.176  14.168  0.0580  0.3609  0.3812
   68MPD2    H7 1067   3.471   2.196  14.237 -1.6631 -0.2458 -1.2339
   69TMC2    C1 1068   0.828   3.867  12.490  0.4476 -0.6051  0.0160
   69TMC2    C2 1069   0.696   3.890  12.521  0.1912 -0.1697  0.3381
   69TMC2    C3 1070   0.614   3.916  12.416  0.0865 -0.5111  0.3980
   69TMC2    C4 1071   0.873   3.871  12.361  0.8700 -0.3156 -0.3233
   69TMC2    C5 1072   0.784   3.900  12.264  0.4440 -0.1151  0.2696
   69TMC2    C6 1073   0.650   3.907  12.289 -0.2282  0.4579  0.6640
   69TMC2     C 1074   0.898   3.826  12.605 -0.4903 -0.9459 -0.4206
   69TMC2     O 1075   0.836   3.796  12.710 -0.0156  0.0606 -0.3387
   69TMC2     H 1076   0.667   3.907  12.624  0.0117 -0.1462  0.2826
   69TMC2    H1 1077   0.978   3.865  12.336  0.8282 -1.1419 -0.2967
   69TMC2    H2 1078   0.578   3.931  12.212 -1.5837  0.0694  1.8291
   69TMC2    C7 1079   0.836   3.878  12.128  0.3002 -0.0117 -0.0765
   69TMC2    C8 1080   0.480   3.969  12.433  0.0277 -0.6856 -0.0836
   69TMC2    O1 1081   0.918   3.786  12.126  0.7842  0.1475 -0.5443
   69TMC2    O2 1082   0.420   4.045  12.357 -0.1212  0.2409 -0.0458
   69TMC2    O5 1083   0.446   3.961  12.564  0.3323 -0.7157  0.0704
   69TMC2    H5 1084   0.489   3.895  12.622  2.2368  0.6961  0.2342
   70MPD2     C 1085   1.261   3.829  12.643 -0.0589  0.0067  0.0805
   70MPD2    C1 1086   1.133   3.778  12.665 -0.2867 -0.6040 -0.3677
   70MPD2    C2 1087   1.116   3.682  12.763  0.1820 -0.4426  0.5575
   70MPD2    C3 1088   1.228   3.625  12.828  0.2759 -0.1268  0.4401
   70MPD2    C4 1089   1.353   3.676  12.796 -0.2383  0.1513 -0.0987
   70MPD2    C5 1090   1.365   3.782  12.714  0.6062 -0.8048 -0.3723
   70MPD2     H 1091   1.014   3.649  12.781  0.6061 -1.7679  0.5861
   70MPD2    H1 1092   1.445   3.630  12.830  0.7907  2.1400 -0.1928
   70MPD2    H2 1093   1.276   3.910  12.573  2.4464 -2.2188 -1.9581
   70MPD2    H3 1094   1.464   3.821  12.694  0.7552 -0.9438  0.0834
   70MPD2     N 1095   1.222   3.505  12.911  0.9256 -0.3610 -0.1104
   70MPD2    H5 1096   1.312   3.465  12.935 -0.4200 -3.0820  0.4060
   70MPD2    N1 1097   1.034   3.837  12.586  1.0342  0.0477  0.0257
   70MPD2    H7 1098   1.058   3.900  12.510 -3.0456  0.1406 -1.1986
   71TMC2    C1 1099   2.743   0.157   1.165 -0.3918 -0.1330 -0.1611
   71TMC2    C2 1100   2.817   0.273   1.154 -0.3300 -0.5376  0.1407
   71TMC2    C3 1101   2.742   0.389   1.171 -0.1222 -0.5464 -0.6069
   71TMC2    C4 1102   2.611   0.154   1.200  0.3092  0.0428  0.6189
   71TMC2    C5 1103   2.547   0.271   1.216  0.8819  0.0697 -0.4415
   71TMC2    C6 1104   2.615   0.391   1.220  0.4576  0.2990  1.1673
   71TMC2     C 1105   2.826   0.039   1.175 -0.4438 -0.0951 -0.6114
   71TMC2     O 1106   2.933   0.038   1.112 -0.5656 -0.4863 -0.1747
   71TMC2     H 1107   2.925   0.267   1.143 -0.4860 -3.3861  0.1749
   71TMC2    H1 1108   2.560   0.060   1.179  1.6592 -1.1017  2.4007
   71TMC2    H2 1109   2.563   0.486   1.232 -1.6864 -0.6106 -0.9597
   71TMC2    C7 1110   2.406   0.282   1.244  0.2845 -0.3887 -0.3657
   71TMC2    C8 1111   2.828   0.504   1.187  0.1718  0.3695  0.4285
   71TMC2    O1 1112   2.376   0.376   1.319 -0.9100 -1.1595  0.1949
   71TMC2    O2 1113   2.919   0.530   1.111  1.1974  0.2167 -0.0429
   71TMC2    O5 1114   2.807   0.561   1.307  0.4609  0.3295 -0.4259
   71TMC2    H5 1115   2.736   0.515   1.357  3.7288 -0.3385  3.5102
   72MPD2     C 1116   2.899   4.272   1.252 -0.2197 -0.5957 -0.3256
   72MPD2    C1 1117   2.968   4.361   1.176  0.0972 -0.2936  0.1270
   72MPD2    C2 1118   2.933   4.494   1.179  0.1840 -0.7405 -0.0653
   72MPD2    C3 1119   2.823   4.536   1.251 -0.0774  0.5381  0.1738
   72MPD2    C4 1120   2.751   4.441   1.318  0.0302  0.0653 -0.3916
   72MPD2    C5 1121   2.785   4.314   1.314 -0.0054 -0.3966  0.5655
   72MPD2     H 1122   3.004   4.559   1.128  1.8495 -2.5356 -0.0546
   72MPD2    H1 1123   2.666   4.469   1.379  0.2275 -0.8425  0.3069
   72MPD2    H2 1124   2.934   4.170   1.261  0.8458 -0.1858  0.2955
   72MPD2    H3 1125   2.727   4.244   1.372 -0.1058 -1.1796 -0.4895
   72MPD2     N 1126   2.766   4.667   1.238 -0.4285  0.3604 -0.8169
   72MPD2    H5 1127   2.673   4.673   1.278 -0.0321  3.2088 -0.2833
   72MPD2    N1 1128   3.083   4.319   1.099 -0.2652  0.2314 -0.1745
   72MPD2    H7 1129   3.134   4.388   1.044  1.5871 -1.5153 -0.6660
   73TMC2    C1 1130   2.723   1.109  13.847 -0.6468  0.5334  0.0982
   73TMC2    C2 1131   2.635   1.090  13.946 -0.1210  0.3906  0.5812
   73TMC2    C3 1132   2.694   1.027  14.059 -0.3870  0.3458  0.1476
   73TMC2    C4 1133   2.856   1.077  13.852  0.2610  0.4529  0.9287
   73TMC2    C5 1134   2.909   1.011  13.963 -0.2026  0.4764  0.5729
   73TMC2    C6 1135   2.820   0.978  14.062  0.0332  0.1194 -0.1641
   73TMC2     C 1136   2.719   1.246  13.807 -0.5220 -0.1960 -0.4910
   73TMC2     O 1137   2.822   1.304  13.804  0.0228  0.3783 -0.3143
   73TMC2     H 1138   2.539   1.141  13.949 -0.8665 -0.9796 -0.0032
   73TMC2    H1 1139   2.922   1.101  13.770 -0.5943 -0.5617 -0.0555
   73TMC2    H2 1140   2.858   0.929  14.150 -0.7518 -0.2573 -0.0317
   73TMC2    C7 1141   3.035   1.069  14.017 -0.9194  0.5771 -0.2650
   73TMC2    C8 1142   2.612   0.978  14.163 -0.0063 -0.0791  0.6526
   73TMC2    O1 1143   3.089   1.020  14.116  0.0351 -0.1073  0.8253
   73TMC2    O2 1144   2.515   0.906  14.150  0.0262 -0.5877 -0.0422
   73TMC2    O5 1145   2.679   0.998  14.278  0.0795 -0.2705 -0.1308
   73TMC2    H5 1146   2.732   1.081  14.275  0.7730 -0.6705  1.0803
   74MPD2     C 1147   2.541   1.700  13.672  0.1383  0.9895  0.3297
   74MPD2    C1 1148   2.648   1.663  13.743  0.2767 -0.0014  0.0106
   74MPD2    C2 1149   2.662   1.532  13.778  0.0804 -0.8831  0.5609
   74MPD2    C3 1150   2.574   1.430  13.736 -0.2061 -0.6265 -0.0082
   74MPD2    C4 1151   2.466   1.473  13.672 -0.1062 -0.0771 -0.1311
   74MPD2    C5 1152   2.445   1.604  13.641  0.9082 -0.2843 -0.0279
   74MPD2     H 1153   2.746   1.505  13.841  0.9045  1.4777  0.4740
   74MPD2    H1 1154   2.374   1.416  13.660  1.6959 -3.3566  1.4844
   74MPD2    H2 1155   2.529   1.799  13.631 -1.1574 -0.2380 -2.2456
   74MPD2    H3 1156   2.352   1.632  13.594  0.1660 -0.0998  1.5533
   74MPD2     N 1157   2.596   1.292  13.765  0.5528  0.4907  0.4031
   74MPD2    H5 1158   2.530   1.218  13.743  1.8771 -0.5177 -0.2238
   74MPD2    N1 1159   2.739   1.772  13.767  0.1572  0.2515  0.2248
   74MPD2    H7 1160   2.711   1.866  13.744  1.8051  0.1640 -2.2038
   75TMC2    C1 1161   2.925   2.314  13.947  0.5987  0.1676  0.8112
   75TMC2    C2 1162   2.823   2.277  14.030 -0.3988 -0.0642  0.2106
   75TMC2    C3 1163   2.703   2.317  14.001  0.5859  0.7062  0.0831
   75TMC2    C4 1164   2.910   2.396  13.833  0.2117  0.4320 -0.3397
   75TMC2    C5 1165   2.782   2.440  13.811  0.0612 -0.4760 -0.0137
   75TMC2    C6 1166   2.678   2.404  13.893 -0.1817 -0.1342  0.6381
   75TMC2     C 1167   3.060   2.286  13.988 -0.7975 -0.3086 -0.0097
   75TMC2     O 1168   3.077   2.244  14.103  0.2022 -0.2474 -0.2153
   75TMC2     H 1169   2.842   2.221  14.121 -2.0108 -1.4850 -0.3175
   75TMC2    H1 1170   2.991   2.450  13.785  0.6006 -0.7943 -1.0464
   75TMC2    H2 1171   2.579   2.440  13.869 -0.6769 -1.7392  0.2541
   75TMC2    C7 1172   2.767   2.477  13.681  0.9186  0.1586 -0.4037
   75TMC2    C8 1173   2.611   2.329  14.114  0.2340 -0.2494 -0.8450
   75TMC2    O1 1174   2.859   2.460  13.603 -0.1995 -0.3851 -0.4408
   75TMC2    O2 1175   2.661   2.352  14.224  0.2662  0.3510  0.3243
   75TMC2    O5 1176   2.492   2.384  14.077  0.2598 -0.2193  0.0044
   75TMC2    H5 1177   2.450   2.334  14.003  0.4747  1.1139 -1.0282
   76TMC2    C1 1178   2.248   3.354  11.920 -0.1150  0.5190  0.1221
   76TMC2    C2 1179   2.207   3.225  11.897 -0.3433  0.5979  0.5100
   76TMC2    C3 1180   2.248   3.128  11.988 -0.1568  0.4795  0.1787
   76TMC2    C4 1181   2.334   3.389  12.021  0.2680 -0.1661 -0.2980
   76TMC2    C5 1182   2.383   3.281  12.096  0.2142 -0.8607  0.1958
   76TMC2    C6 1183   2.340   3.147  12.082  0.0912 -0.0750  0.1724
   76TMC2     C 1184   2.231   3.450  11.815  0.1938 -0.1371  0.1818
   76TMC2     O 1185   2.329   3.517  11.793 -0.3201  0.1109  0.5493
   76TMC2     H 1186   2.142   3.202  11.814 -1.8135 -2.1115  2.4074
   76TMC2    H1 1187   2.367   3.490  12.044  0.3534 -0.0323 -1.0166
   76TMC2    H2 1188   2.399   3.069  12.128  0.2172 -0.8923 -1.3505
   76TMC2    C7 1189   2.468   3.303  12.210 -0.1923  0.6487 -1.0669
   76TMC2    C8 1190   2.199   2.993  11.964  0.4328  0.4239  0.1537
   76TMC2    O1 1191   2.482   3.202  12.280  0.1103 -0.1604 -0.6759
   76TMC2    O2 1192   2.154   2.959  11.857 -0.4781 -0.0120 -0.0477
   76TMC2    O5 1193   2.227   2.915  12.069 -0.3490 -0.1836 -0.0046
   76TMC2    H5 1194   2.247   2.969  12.149  0.3369  0.7228 -0.7795
   77MPD2     C 1195   1.952   3.686  11.450 -0.2576 -0.0159  0.5668
   77MPD2    C1 1196   1.861   3.649  11.548  0.5436  0.2293 -0.2255
   77MPD2    C2 1197   1.924   3.579  11.662 -0.5426 -0.8922  0.3291
   77MPD2    C3 1198   2.056   3.547  11.672 -0.8041 -1.0283 -0.6797
   77MPD2    C4 1199   2.142   3.593  11.572 -0.2086  0.4552  0.7834
   77MPD2    C5 1200   2.084   3.667  11.469  0.6447  1.0012  0.4557
   77MPD2     H 1201   1.864   3.542  11.744 -0.5010  0.2606  0.8840
   77MPD2    H1 1202   2.250   3.579  11.569 -0.2197  0.0952  2.0282
   77MPD2    H2 1203   1.916   3.729  11.357 -0.9264  0.7466  1.1808
   77MPD2    H3 1204   2.158   3.696  11.395 -1.5891  0.0929 -2.1141
   77MPD2     N 1205   2.096   3.468  11.782  0.4705  0.2128  0.1779
   77MPD2    H5 1206   2.020   3.427  11.836 -0.1386  0.8061 -0.2347
   77MPD2    N1 1207   1.720   3.667  11.529  0.6277 -0.3901  0.0011
   77MPD2    H7 1208   1.688   3.695  11.437 -1.0343  2.1918  1.3892
   78TMC2    C1 1209   2.965   0.077   1.557  0.3507 -0.4798  0.0990
   78TMC2    C2 1210   3.036   0.194   1.571 -0.2877  0.3366  0.3275
   78TMC2    C3 1211   3.171   0.192   1.546 -0.8552 -0.0062 -0.2198
   78TMC2    C4 1212   3.028   4.694   1.519 -0.6455 -0.7453  0.7273
   78TMC2    C5 1213   3.165   4.705   1.499  0.4134 -0.1795  0.3154
   78TMC2    C6 1214   3.238   0.079   1.510  0.6764 -0.1388  0.4617
   78TMC2     C 1215   2.820   0.085   1.562 -0.1630 -0.3138  0.1119
   78TMC2     O 1216   2.774   0.198   1.556  0.3117 -0.1871  0.0066
   78TMC2     H 1217   2.991   0.282   1.617  2.8874  2.0091  0.2570
   78TMC2    H1 1218   2.963   4.613   1.489 -0.7560 -0.8923  1.3568
   78TMC2    H2 1219   3.345   0.083   1.491  1.0234 -1.1556  2.1762
   78TMC2    C7 1220   3.240   4.586   1.457  0.0261  0.0044  0.4981
   78TMC2    C8 1221   3.252   0.283   1.626  0.0871  0.3362  0.3553
   78TMC2    O1 1222   3.357   4.604   1.424 -0.3253  0.4430  0.0927
   78TMC2    O2 1223   3.357   0.335   1.582 -0.1135  0.2643 -0.5098
   78TMC2    O5 1224   3.176   0.330   1.728  0.4671  0.7984 -0.4531
   78TMC2    H5 1225   3.116   0.266   1.771 -0.6292  1.8642 -0.3943
   79MPD1     C 1226   2.338   4.653   1.595  0.6597 -0.5352  0.6920
   79MPD1    C1 1227   2.390   0.037   1.547 -0.5451 -0.2177 -0.0779
   79MPD1    C2 1228   2.522   0.057   1.540 -0.3770 -0.2161  0.1681
   79MPD1    C3 1229   2.614   4.691   1.574  0.6340  0.2189 -0.3198
   79MPD1    C4 1230   2.559   4.574   1.595 -0.6660  0.2044  0.5358
   79MPD1    C5 1231   2.426   4.553   1.611  0.3312  0.1998  0.2425
   79MPD1     H 1232   2.552   0.159   1.517 -1.8232 -0.0640 -1.1271
   79MPD1    H1 1233   2.622   4.485   1.601 -0.5591  0.1083 -2.0682
   79MPD1    H2 1234   2.234   4.631   1.617 -0.1551  1.6133 -0.9970
   79MPD1    H3 1235   2.388   4.458   1.647  2.2630  0.7645  3.7561
   79MPD1     N 1236   2.752   4.705   1.576  0.2505  0.3395 -0.2279
   79MPD1    H5 1237   2.804   4.626   1.612 -2.1004 -0.3981  1.5678
   79MPD1    N1 1238   2.310   0.153   1.563  0.3327  0.5932 -0.1294
   79MPD1    H6 1239   2.209   0.141   1.567  0.5096 -1.3177 -1.2036
   79MPD1    H7 1240   2.335   0.212   1.484  1.4649 -0.2836 -0.4417
   80TMC2    C1 1241   0.358   2.790  11.853  0.9502 -0.4667  0.4100
   80TMC2    C2 1242   0.237   2.822  11.792 -0.1521  0.6701  0.7212
   80TMC2    C3 1243   0.124   2.777  11.855  0.6785 -0.6726 -0.0826
   80TMC2    C4 1244   0.359   2.708  11.962 -0.7197 -0.5289  0.3044
   80TMC2    C5 1245   0.242   2.675  12.026 -0.8502  0.3113  0.6066
   80TMC2    C6 1246   0.121   2.721  11.978  0.0348  0.0597  0.4642
   80TMC2     C 1247   0.477   2.820  11.782 -0.1346  0.3339  0.0022
   80TMC2     O 1248   0.461   2.841  11.663 -0.4118 -0.1472  0.5656
   80TMC2     H 1249   0.238   2.875  11.697  2.4232 -2.0051 -0.7610
   80TMC2    H1 1250   0.454   2.671  11.999 -0.4057 -0.4237 -0.3858
   80TMC2    H2 1251   0.030   2.672  12.012  0.5003 -0.1658  1.3885
   80TMC2    C7 1252   0.234   2.541  12.093  0.6117 -0.5547  0.3536
   80TMC2    C8 1253   4.730   2.794  11.790 -0.1003 -0.3033 -0.0554
   80TMC2    O1 1254   0.149   2.465  12.048  0.8637 -0.3875 -0.0665
   80TMC2    O2 1255   4.654   2.866  11.851  0.1877  0.3411  0.0771
   80TMC2    O5 1256   0.025   2.787  11.657  0.2457 -0.1202  0.2652
   80TMC2    H5 1257   0.092   2.715  11.653 -3.0153 -3.0991 -0.4416
   81MPD2     C 1258   0.751   2.879  11.674 -0.5497  0.7020  0.3929
   81MPD2    C1 1259   0.723   2.850  11.806  0.1751 -0.4809  0.5197
   81MPD2    C2 1260   0.831   2.857  11.889 -0.0400  0.1834  0.2630
   81MPD2    C3 1261   0.961   2.889  11.846 -0.4376 -0.4508 -0.1955
   81MPD2    C4 1262   0.982   2.914  11.713 -0.5496 -0.0638 -0.5904
   81MPD2    C5 1263   0.878   2.895  11.629  0.2541  0.0502  0.0487
   81MPD2     H 1264   0.810   2.850  11.995 -2.6172  0.1028 -0.2534
   81MPD2    H1 1265   1.077   2.934  11.664  0.2630 -0.0750  1.0065
   81MPD2    H2 1266   0.667   2.889  11.607 -0.5319 -2.1165 -0.0503
   81MPD2    H3 1267   0.901   2.900  11.523 -0.8259 -2.1211 -0.2847
   81MPD2     N 1268   1.067   2.919  11.928 -0.3227  0.0248  0.6196
   81MPD2    H5 1269   1.144   2.977  11.898  0.6162 -1.8783 -0.7082
   81MPD2    N1 1270   0.594   2.827  11.860 -0.0541 -0.2818 -0.4742
   81MPD2    H7 1271   0.583   2.802  11.958  0.4508 -2.8789 -1.0839
   82TMC2    C1 1272   3.605   2.201  10.852  0.6499 -1.0252 -0.4326
   82TMC2    C2 1273   3.705   2.229  10.938  0.0494 -0.4844 -0.5862
   82TMC2    C3 1274   3.685   2.191  11.069  0.5829 -0.2687 -0.3972
   82TMC2    C4 1275   3.499   2.118  10.888  0.1108 -0.1232 -0.2194
   82TMC2    C5 1276   3.503   2.062  11.017  0.5075  0.9465  0.3921
   82TMC2    C6 1277   3.584   2.115  11.114 -0.1808 -0.4621 -0.0033
   82TMC2     C 1278   3.607   2.255  10.710  0.3035  0.1107 -0.8223
   82TMC2     O 1279   3.507   2.246  10.636 -0.7231  0.1400  0.7136
   82TMC2     H 1280   3.790   2.284  10.900 -0.7707  1.5470  0.5078
   82TMC2    H1 1281   3.431   2.090  10.809 -3.0100 -0.5035  2.5857
   82TMC2    H2 1282   3.577   2.089  11.219 -2.8874 -0.1370 -0.0907
   82TMC2    C7 1283   3.402   1.966  11.069 -0.0034  0.6103 -0.4684
   82TMC2    C8 1284   3.775   2.232  11.173  0.1463 -0.2413  0.8751
   82TMC2    O1 1285   3.414   1.932  11.186 -0.2781 -0.5482  0.5777
   82TMC2    O2 1286   3.813   2.143  11.253 -0.2732 -0.3643  0.4207
   82TMC2    O5 1287   3.862   2.323  11.121 -0.4399  0.8495  0.4038
   82TMC2    H5 1288   3.826   2.399  11.070 -1.0056  1.6204  1.9297
   83MPD2     C 1289   3.847   2.481  10.317  0.5514  0.1893 -0.3759
   83MPD2    C1 1290   3.712   2.482  10.349  0.7661 -0.2221 -0.0026
   83MPD2    C2 1291   3.676   2.406  10.458 -0.2443  0.0091  0.6418
   83MPD2    C3 1292   3.768   2.360  10.552  0.8316 -0.2109  0.2278
   83MPD2    C4 1293   3.899   2.382  10.524 -0.1665 -0.0939 -0.1160
   83MPD2    C5 1294   3.942   2.441  10.407  0.2413  0.2531  0.0575
   83MPD2     H 1295   3.571   2.380  10.465  0.5545 -3.2623  0.4422
   83MPD2    H1 1296   3.979   2.343  10.587 -0.1372 -0.4565 -0.3784
   83MPD2    H2 1297   3.880   2.524  10.223  0.7037  1.3411  0.1930
   83MPD2    H3 1298   4.045   2.453  10.375 -0.0031  1.0029 -0.4642
   83MPD2     N 1299   3.730   2.290  10.670 -0.0271 -0.4349  0.1081
   83MPD2    H5 1300   3.808   2.284  10.735 -1.7451 -0.8614  2.1405
   83MPD2    N1 1301   3.628   2.547  10.263 -0.5925 -0.0989 -0.0531
   83MPD2    H7 1302   3.670   2.579  10.177 -2.1149 -0.4628 -0.9245
   84TMC2    C1 1303   4.682   1.807  10.370 -0.1785  0.1035 -0.2049
   84TMC2    C2 1304   4.646   1.823  10.243  0.4471  0.0063  0.1922
   84TMC2    C3 1305   4.732   1.801  10.148  0.5506 -0.3399  0.5670
   84TMC2    C4 1306   0.076   1.791  10.408  0.2450  0.1971 -0.0122
   84TMC2    C5 1307   0.166   1.768  10.306 -0.3954  0.3656 -0.7914
   84TMC2    C6 1308   0.123   1.763  10.180  1.1380 -0.7246  0.4078
   84TMC2     C 1309   4.593   1.849  10.471  0.4806  0.3646  0.6939
   84TMC2     O 1310   4.621   1.938  10.549 -0.0250 -0.4694  0.1408
   84TMC2     H 1311   4.541   1.838  10.223  0.3505  0.7586  1.2771
   84TMC2    H1 1312   0.101   1.793  10.513  1.0191  0.6866 -0.2112
   84TMC2    H2 1313   0.193   1.724  10.107 -0.5625 -2.8253 -0.0877
   84TMC2    C7 1314   0.291   1.710  10.340  0.2128  0.2808 -0.3282
   84TMC2    C8 1315   4.672   1.758  10.026  0.1911  0.1421 -0.4173
   84TMC2    O1 1316   0.390   1.752  10.281  1.0829  0.2034 -0.3582
   84TMC2    O2 1317   4.550   1.757  10.015 -0.2904  0.1733  0.7276
   84TMC2    O5 1318   0.024   1.787   9.928 -0.2155  0.8762 -0.7510
   84TMC2    H5 1319   0.109   1.819   9.964  1.1111 -2.5044 -0.9591
   85TMC2    C1 1320   1.384   4.363  15.791  0.0491 -0.5191  0.0229
   85TMC2    C2 1321   1.248   4.374  15.784  0.0672  0.5610  0.4303
   85TMC2    C3 1322   1.203   4.468  15.710  0.6141  0.0303  0.6071
   85TMC2    C4 1323   1.468   4.452  15.729  0.1616 -0.0099 -0.0568
   85TMC2    C5 1324   1.418   4.560  15.659  0.2348  0.1175 -0.5736
   85TMC2    C6 1325   1.279   4.566  15.653 -0.2820  0.2891 -0.4920
   85TMC2     C 1326   1.442   4.253  15.859  0.3585 -0.6164 -0.4341
   85TMC2     O 1327   1.553   4.266  15.902  0.8210 -0.2938  0.0936
   85TMC2     H 1328   1.184   4.300  15.830 -1.9186  0.4864 -2.4944
   85TMC2    H1 1329   1.576   4.442  15.731  0.4004  2.6115  0.0695
   85TMC2    H2 1330   1.218   4.640  15.601 -2.1796 -0.8666  0.0983
   85TMC2    C7 1331   1.508   4.618  15.556 -0.6703  0.4996 -0.5644
   85TMC2    C8 1332   1.066   4.480  15.679 -0.3562 -0.2490  0.1834
   85TMC2    O1 1333   1.624   4.580  15.562  0.2285  0.2073 -0.4437
   85TMC2    O2 1334   1.003   4.582  15.674  0.2054  0.5960  0.0255
   85TMC2    O5 1335   1.011   4.358  15.656  0.7551  0.5521 -1.0005
   85TMC2    H5 1336   1.082   4.294  15.634  1.6927  1.4781 -0.6704
   86MPD2     C 1337   1.353   3.839  16.158 -0.0768 -1.4023 -0.0811
   86MPD2    C1 1338   1.253   3.843  16.060  0.1986  1.1314  0.6669
   86MPD2    C2 1339   1.270   3.941  15.961  0.6473 -0.2174 -0.3078
   86MPD2    C3 1340   1.373   4.032  15.960  0.2990  0.1965 -0.2628
   86MPD2    C4 1341   1.475   4.018  16.048 -0.7096  0.1025 -0.1356
   86MPD2    C5 1342   1.460   3.930  16.150  0.8675  0.1562 -0.3154
   86MPD2     H 1343   1.192   3.951  15.886  1.3953 -0.0228 -1.0638
   86MPD2    H1 1344   1.562   4.082  16.057  0.4844 -1.2523 -2.2419
   86MPD2    H2 1345   1.351   3.761  16.233  0.4095 -0.8291  0.5287
   86MPD2    H3 1346   1.540   3.928  16.224  1.3443  1.4585 -0.7871
   86MPD2     N 1347   1.359   4.145  15.874  0.0454 -0.1903 -0.1581
   86MPD2    H5 1348   1.274   4.154  15.818 -0.2842  1.5000  0.6131
   86MPD2    N1 1349   1.136   3.762  16.047 -1.2203  0.3601  0.0343
   86MPD2    H7 1350   1.089   3.775  15.958 -0.3271  1.5634 -0.2609
   87TMC2    C1 1351   3.814   2.337   0.437 -0.4358  0.3328 -0.2036
   87TMC2    C2 1352   3.903   2.239   0.446 -0.4485 -0.0787 -0.1080
   87TMC2    C3 1353   4.007   2.248   0.532 -0.3927  0.0896 -0.2082
   87TMC2    C4 1354   3.802   2.429   0.543 -0.6460  0.0281  0.0528
   87TMC2    C5 1355   3.897   2.419   0.646  1.1390 -0.2382 -0.6468
   87TMC2    C6 1356   4.008   2.342   0.633  0.7551  0.1631 -0.6046
   87TMC2     C 1357   3.691   2.313   0.361 -0.3468 -0.4753  0.0987
   87TMC2     O 1358   3.685   2.202   0.307 -0.0511  0.4613  0.7058
   87TMC2     H 1359   3.906   2.163   0.368 -0.2303 -1.0201  0.8201
   87TMC2    H1 1360   3.716   2.496   0.548 -1.6775 -1.3186  0.5151
   87TMC2    H2 1361   4.089   2.350   0.705 -0.3418 -0.6035  0.7172
   87TMC2    C7 1362   3.894   2.516   0.756  0.2495 -1.2163  0.2240
   87TMC2    C8 1363   4.118   2.172   0.495 -0.6905  0.5180  0.6017
   87TMC2    O1 1364   3.820   2.613   0.746  0.3777  0.1938 -0.6419
   87TMC2    O2 1365   4.108   2.065   0.435  0.5194  0.0116  0.2090
   87TMC2    O5 1366   4.234   2.232   0.524 -0.5320  0.1878  0.0296
   87TMC2    H5 1367   4.234   2.325   0.554 -1.6711  0.8710 -2.0199
   88MPD2     C 1368   4.117   2.528   1.051  0.8777 -1.0391 -0.2443
   88MPD2    C1 1369   4.009   2.566   0.969  1.3142 -0.3331  0.3786
   88MPD2    C2 1370   3.947   2.687   0.992 -0.0166 -0.0829  0.5047
   88MPD2    C3 1371   3.997   2.766   1.093  0.1068  0.6576  0.0659
   88MPD2    C4 1372   4.104   2.734   1.165 -0.1510 -0.5428  0.9609
   88MPD2    C5 1373   4.163   2.609   1.149 -0.0263  0.4514  0.3737
   88MPD2     H 1374   3.868   2.713   0.923 -1.6173 -1.0951  1.9463
   88MPD2    H1 1375   4.126   2.795   1.252  1.2133 -1.9693  1.6071
   88MPD2    H2 1376   4.157   2.427   1.041  2.3905 -0.4730  0.0535
   88MPD2    H3 1377   4.234   2.568   1.219 -0.0023  1.4618  0.9466
   88MPD2     N 1378   3.949   2.893   1.118 -0.0571  0.3109 -1.0106
   88MPD2    H5 1379   4.006   2.941   1.187 -1.8154 -0.6564  1.1055
   88MPD2    N1 1380   3.977   2.479   0.861 -0.5204  0.4762  1.0993
   88MPD2    H7 1381   4.020   2.387   0.861  0.2226  0.8272  1.6049
   89TMC2    C1 1382   0.545   0.364   1.353 -0.5213 -0.2444 -0.1488
   89TMC2    C2 1383   0.656   0.399   1.280 -0.1833 -0.1013  0.1784
   89TMC2    C3 1384   0.665   0.528   1.245  0.4331  0.1386  0.1370
   89TMC2    C4 1385   0.463   0.460   1.407 -0.2753 -0.0282  0.0052
   89TMC2    C5 1386   0.467   0.585   1.355 -0.8357  0.1490  0.5425
   89TMC2    C6 1387   0.567   0.623   1.274 -0.0081  0.3203  0.5904
   89TMC2     C 1388   0.526   0.222   1.378 -0.3039  0.5418 -0.5878
   89TMC2     O 1389   0.627   0.155   1.386 -0.3547  0.3576  0.3719
   89TMC2     H 1390   0.726   0.324   1.245 -0.1509 -0.4547  1.0040
   89TMC2    H1 1391   0.374   0.423   1.457  0.5330  0.2196  1.6374
   89TMC2    H2 1392   0.574   0.725   1.236  1.3801  0.0784  0.1845
   89TMC2    C7 1393   0.356   0.675   1.394  0.5019  0.3759  0.4639
   89TMC2    C8 1394   0.752   0.561   1.130 -0.0044 -0.1447 -0.6909
   89TMC2    O1 1395   0.284   0.639   1.489 -0.4092 -0.8925  0.1553
   89TMC2    O2 1396   0.851   0.488   1.112  0.0558 -0.0080 -0.2460
   89TMC2    O5 1397   0.656   0.569   1.034  0.3018 -0.1157 -0.3427
   89TMC2    H5 1398   0.596   0.646   1.046  0.5865  0.0039  0.3220
   90MPD2     C 1399   0.206   4.547   1.473 -0.4036  0.0721  0.8125
   90MPD2    C1 1400   0.144   4.672   1.485  0.5705 -0.0574 -0.4419
   90MPD2    C2 1401   0.216   0.047   1.454 -0.5523 -0.1154 -0.7481
   90MPD2    C3 1402   0.346   0.052   1.424 -0.0970 -0.5666 -0.0872
   90MPD2    C4 1403   0.405   4.670   1.401 -0.2079 -0.4494  0.8028
   90MPD2    C5 1404   0.336   4.552   1.422 -0.7119 -0.0490  0.2727
   90MPD2     H 1405   0.177   0.148   1.458 -1.5159 -0.4841 -0.8398
   90MPD2    H1 1406   0.503   4.658   1.358  0.1105  1.0717  1.1036
   90MPD2    H2 1407   0.152   4.458   1.504  0.8957 -1.7422 -2.1621
   90MPD2    H3 1408   0.396   4.464   1.406 -0.7934 -0.1646  0.6075
   90MPD2     N 1409   0.395   0.188   1.399 -0.4975  0.6210 -0.8624
   90MPD2    H5 1410   0.315   0.249   1.406 -0.1585  0.6045  3.8299
   90MPD2    N1 1411   0.011   4.684   1.532  0.2773 -0.8694  0.5060
   90MPD2    H7 1412   4.715   0.043   1.544 -0.7159 -1.1602  0.1232
   91TMC2    C1 1413   0.750   0.113  16.520 -1.1211  0.3298 -0.7025
   91TMC2    C2 1414   0.634   0.113  16.596 -0.1986  0.1612 -0.1224
   91TMC2    C3 1415   0.539   0.021  16.564 -0.0301  0.1926  0.1391
   91TMC2    C4 1416   0.788   0.021  16.430 -0.0002 -0.1260  0.8581
   91TMC2    C5 1417   0.686   4.667  16.405 -0.7042  0.2153  0.2533
   91TMC2    C6 1418   0.569   4.659  16.472 -0.1009 -0.7231 -0.3132
   91TMC2     C 1419   0.812   0.241  16.519  0.1256  0.0635  0.1252
   91TMC2     O 1420   0.736   0.334  16.536  0.1239  0.4337  0.4293
   91TMC2     H 1421   0.617   0.186  16.674  1.0194 -0.7456  1.0002
   91TMC2    H1 1422   0.865   0.037  16.355 -1.8542  1.2757 -0.7463
   91TMC2    H2 1423   0.516   4.565  16.466 -1.3524  0.0459 -1.4030
   91TMC2    C7 1424   0.686   4.619  16.274  0.2413  0.0926  0.3821
   91TMC2    C8 1425   0.449   4.704  16.666 -0.4223 -0.5210 -0.5367
   91TMC2    O1 1426   0.786   4.568  16.236  0.1279  0.1370  0.0457
   91TMC2    O2 1427   0.335   4.664  16.648 -0.1489  0.0990  0.2106
   91TMC2    O5 1428   0.538   4.654  16.753 -0.4522  0.1053 -0.2888
   91TMC2    H5 1429   0.630   4.681  16.737 -0.1572 -0.6353  0.1417
   92MPD2     C 1430   0.978   0.485  16.516  0.1836 -0.4321  0.1991
   92MPD2    C1 1431   1.029   0.356  16.525 -0.5907  0.1617  0.7844
   92MPD2    C2 1432   1.161   0.338  16.559 -0.5249  0.6499 -0.4797
   92MPD2    C3 1433   1.239   0.450  16.574 -0.0524 -0.1065  0.3763
   92MPD2    C4 1434   1.187   0.576  16.550  0.0340  0.0078 -0.1907
   92MPD2    C5 1435   1.054   0.598  16.539  0.2716  1.2350 -0.3126
   92MPD2     H 1436   1.204   0.241  16.577 -0.6884  0.2588 -2.1982
   92MPD2    H1 1437   1.258   0.658  16.555  0.6477 -0.5285 -0.0463
   92MPD2    H2 1438   0.875   0.513  16.495  0.5775  0.8515 -0.0560
   92MPD2    H3 1439   1.015   0.698  16.521  1.1652  1.6165 -0.1067
   92MPD2     N 1440   1.367   0.430  16.628 -0.3673 -0.0542  0.0215
   92MPD2    H5 1441   1.392   0.332  16.628  1.1053  0.3016 -1.0197
   92MPD2    N1 1442   0.949   0.236  16.522 -0.3727 -0.5202 -0.1835
   92MPD2    H7 1443   0.985   0.146  16.551 -0.0393 -0.0677  0.8226
   93TMC2    C1 1444   3.057   0.646  13.323 -0.5272  1.2413 -0.0410
   93TMC2    C2 1445   2.965   0.680  13.419  0.3017 -0.1589  0.0726
   93TMC2    C3 1446   3.014   0.750  13.527  0.1474  0.6641 -0.4513
   93TMC2    C4 1447   3.185   0.692  13.323 -0.4367  0.0246  0.2810
   93TMC2    C5 1448   3.226   0.770  13.430  0.5697 -0.1817 -0.0551
   93TMC2    C6 1449   3.145   0.790  13.535 -0.0553  0.0613 -0.1932
   93TMC2     C 1450   3.019   0.552  13.211  0.3801  0.2238 -0.1520
   93TMC2     O 1451   3.107   0.506  13.143 -0.2507 -0.3833  0.6767
   93TMC2     H 1452   2.857   0.668  13.418  0.1442  0.9847  1.5957
   93TMC2    H1 1453   3.245   0.675  13.234 -1.2056 -0.2997 -0.1754
   93TMC2    H2 1454   3.170   0.850  13.622 -0.0880  0.8793 -0.7542
   93TMC2    C7 1455   3.364   0.821  13.442  0.7791  0.5826  0.1928
   93TMC2    C8 1456   2.919   0.822  13.600 -0.0948 -0.2149 -0.4869
   93TMC2    O1 1457   3.427   0.833  13.338 -0.2772 -0.1509  0.3330
   93TMC2    O2 1458   2.826   0.884  13.548  0.4384 -0.4368 -0.1611
   93TMC2    O5 1459   2.910   0.762  13.725  0.3452  0.5023 -0.1950
   93TMC2    H5 1460   2.961   0.679  13.739 -0.7309 -0.0884  0.1822
   94MPD2     C 1461   2.869   0.356  13.028 -0.7336 -0.1518  0.2536
   94MPD2    C1 1462   2.819   0.412  13.143 -0.7567 -0.3786  0.0177
   94MPD2    C2 1463   2.688   0.373  13.181 -0.0677  0.4520 -0.4472
   94MPD2    C3 1464   2.601   0.306  13.102 -0.6627  0.0674 -0.3193
   94MPD2    C4 1465   2.650   0.269  12.976 -0.3827 -0.3223 -0.0571
   94MPD2    C5 1466   2.780   0.300  12.938  0.5137  0.1566  0.1522
   94MPD2     H 1467   2.660   0.413  13.278 -0.2312 -0.6112 -0.0624
   94MPD2    H1 1468   2.585   0.227  12.900 -1.4942  3.8672 -1.4506
   94MPD2    H2 1469   2.970   0.384  12.999 -0.8633  0.3919  0.3367
   94MPD2    H3 1470   2.816   0.276  12.839  0.4073 -1.3080  0.4752
   94MPD2     N 1471   2.462   0.282  13.142  0.2724 -0.2606 -0.0096
   94MPD2    H5 1472   2.397   0.266  13.065 -1.1245  1.7037  0.7643
   94MPD2    N1 1473   2.892   0.502  13.229  0.4297  0.3004 -0.4711
   94MPD2    H7 1474   2.852   0.526  13.318 -0.0309  0.5735 -0.7524
   95TMC2    C1 1475   3.269   2.294  16.381 -0.6667  0.2634  0.0212
   95TMC2    C2 1476   3.174   2.198  16.389  0.6853  0.1824 -0.3792
   95TMC2    C3 1477   3.060   2.229  16.457  0.5666  0.1392 -0.2269
   95TMC2    C4 1478   3.267   2.414  16.452  0.2839 -0.0692 -0.6113
   95TMC2    C5 1479   3.146   2.436  16.513  0.8552  0.1180  0.4086
   95TMC2    C6 1480   3.048   2.343  16.524  0.2988  0.2429 -0.1415
   95TMC2     C 1481   3.378   2.290  16.281  0.1177  0.3286 -0.1200
   95TMC2     O 1482   3.447   2.388  16.268 -0.5517  0.1231  0.2772
   95TMC2     H 1483   3.184   2.105  16.334 -0.8301 -0.5034  0.4979
   95TMC2    H1 1484   3.341   2.490  16.429 -0.2371  0.7343  0.3951
   95TMC2    H2 1485   2.961   2.356  16.587  1.0079  0.2970  0.8481
   95TMC2    C7 1486   3.122   2.553  16.594 -0.0751 -0.6893 -0.4493
   95TMC2    C8 1487   2.959   2.122  16.475  0.0162 -0.0290 -0.2396
   95TMC2    O1 1488   3.008   2.564  16.636 -0.2266  0.8811 -0.0316
   95TMC2    O2 1489   2.922   2.046  16.386  0.1480  0.0261 -0.1285
   95TMC2    O5 1490   2.912   2.117  16.602 -0.0344 -0.2898 -0.2653
   95TMC2    H5 1491   2.955   2.188  16.655 -1.6418  0.0227  0.6171
   96MPD2     C 1492   3.532   2.109  15.816 -0.4178 -0.5065  0.0461
   96MPD2    C1 1493   3.537   2.231  15.874 -0.5806  0.7101  0.7750
   96MPD2    C2 1494   3.493   2.260  16.003  0.6357 -0.1292 -0.0879
   96MPD2    C3 1495   3.443   2.158  16.078 -0.3382 -0.1817 -0.6558
   96MPD2    C4 1496   3.443   2.025  16.027  0.2436 -0.3094 -0.2375
   96MPD2    C5 1497   3.481   2.011  15.894 -0.3297  0.7402 -0.5981
   96MPD2     H 1498   3.489   2.362  16.039 -0.8849 -1.9131  4.7439
   96MPD2    H1 1499   3.391   1.949  16.084 -0.4023  1.8408  2.0301
   96MPD2    H2 1500   3.555   2.074  15.716  0.0964  1.9544 -0.6827
   96MPD2    H3 1501   3.455   1.919  15.843 -0.1167 -0.0509  0.7154
   96MPD2     N 1502   3.375   2.178  16.200 -0.9636  0.6599  0.6074
   96MPD2    H5 1503   3.336   2.097  16.247 -2.2472  1.1421  0.3453
   96MPD2    N1 1504   3.575   2.333  15.782 -0.4528 -0.7864  0.0550
   96MPD2    H7 1505   3.603   2.310  15.687  1.0826 -1.0443  0.5729
   97TMC2    C1 1506   0.593   0.224  17.368 -0.3012 -0.1952  0.6067
   97TMC2    C2 1507   0.567   0.202  17.240  0.1950 -0.5999  0.5733
   97TMC2    C3 1508   0.611   0.289  17.148 -0.0098 -0.1206  0.0853
   97TMC2    C4 1509   0.677   0.318  17.408 -0.0679 -0.6438 -0.1685
   97TMC2    C5 1510   0.720   0.401  17.311 -0.3819  0.3971  0.4553
   97TMC2    C6 1511   0.703   0.386  17.180  0.1740  0.3786  1.1052
   97TMC2     C 1512   0.554   0.131  17.480  0.5453  1.0400  0.4712
   97TMC2     O 1513   0.562   0.174  17.593 -1.0633 -0.2069  0.2548
   97TMC2     H 1514   0.491   0.128  17.220  0.5820 -1.1116  1.0061
   97TMC2    H1 1515   0.702   0.327  17.513  0.0284  0.4089 -0.2832
   97TMC2    H2 1516   0.750   0.444  17.101  1.1398  0.2226  1.5678
   97TMC2    C7 1517   0.782   0.525  17.353  0.1711  0.2690  0.3778
   97TMC2    C8 1518   0.592   0.266  17.005  0.0822  0.3400 -0.0310
   97TMC2    O1 1519   0.835   0.525  17.462 -0.3230  0.1681 -0.4858
   97TMC2    O2 1520   0.636   0.355  16.929 -0.2827  0.6012  0.4433
   97TMC2    O5 1521   0.608   0.138  16.983  0.6534 -0.5135 -0.2534
   97TMC2    H5 1522   0.600   0.078  17.060  1.1213 -0.2088  0.0241
   98MPD2     C 1523   0.466   4.408  17.690 -0.5737 -0.5751  0.2275
   98MPD2    C1 1524   0.464   4.538   0.006 -0.3055  0.0785  0.1968
   98MPD2    C2 1525   0.488   4.646  17.665  0.2241 -0.3710  0.3225
   98MPD2    C3 1526   0.499   4.631  17.524  0.0696 -0.0168  0.1433
   98MPD2    C4 1527   0.490   4.508  17.468  0.3951 -0.0479 -0.2164
   98MPD2    C5 1528   0.480   4.393  17.548 -0.1706 -0.3141 -0.6615
   98MPD2     H 1529   0.477   0.009  17.706  0.9007  0.0744 -0.5489
   98MPD2    H1 1530   0.507   4.497  17.362 -0.2071  0.1504 -0.3321
   98MPD2    H2 1531   0.449   4.317   0.003 -0.4322 -0.9920 -0.3933
   98MPD2    H3 1532   0.475   4.298  17.497 -3.2057 -0.0040 -0.9093
   98MPD2     N 1533   0.526   0.003  17.438 -0.1383 -0.1319  0.2256
   98MPD2    H5 1534   0.534   4.718  17.340  0.3721  1.7327 -0.1510
   98MPD2    N1 1535   0.447   4.546   0.148  0.0208 -0.0166 -0.5805
   98MPD2    H7 1536   0.439   4.458   0.198 -1.6590  0.5506  0.1548
   99TMC2    C1 1537   4.391   1.548   1.449  0.6748  0.2555  0.6562
   99TMC2    C2 1538   4.462   1.510   1.561 -0.1508 -0.4196  0.0058
   99TMC2    C3 1539   4.388   1.457   1.664 -0.2389 -0.9058  0.6799
   99TMC2    C4 1540   4.251   1.550   1.443 -0.5102  0.3021 -0.2535
   99TMC2    C5 1541   4.188   1.504   1.556 -0.5785  0.1829  0.5999
   99TMC2    C6 1542   4.251   1.452   1.663 -0.1879 -0.0223  1.1693
   99TMC2     C 1543   4.464   1.586   1.333 -0.1221  0.8822  0.1324
   99TMC2     O 1544   4.587   1.565   1.335  0.7596 -0.1372 -0.3841
   99TMC2     H 1545   4.571   1.516   1.566 -0.1790  0.0274  0.0809
   99TMC2    H1 1546   4.189   1.592   1.364 -3.1371 -0.6984  1.2495
   99TMC2    H2 1547   4.200   1.416   1.752 -2.1255 -1.9286 -0.7044
   99TMC2    C7 1548   4.041   1.479   1.546 -1.2210 -0.1290 -0.7300
   99TMC2    C8 1549   4.463   1.432   1.783 -0.4414 -0.1196  0.4709
   99TMC2    O1 1550   3.987   1.468   1.652 -0.1668  0.2942 -0.2088
   99TMC2    O2 1551   4.579   1.463   1.802 -0.1967  0.4455  0.4433
   99TMC2    O5 1552   4.401   1.331   1.844 -0.7114 -0.4466  0.4890
   99TMC2    H5 1553   4.338   1.270   1.800  1.5117 -1.5913 -1.1236
  100MPD2     C 1554   4.532   1.676   1.058  0.2069  0.0346 -0.2320
  100MPD2    C1 1555   4.407   1.685   1.116 -0.2078 -0.7190  0.1573
  100MPD2    C2 1556   4.300   1.718   1.033 -0.5839  0.7452  0.1898
  100MPD2    C3 1557   4.313   1.755   0.897 -0.1551  0.4252 -0.2310
  100MPD2    C4 1558   4.439   1.748   0.847 -0.1308  0.4421  0.3515
  100MPD2    C5 1559   4.547   1.706   0.925 -0.1389  0.2135 -0.3292
  100MPD2     H 1560   4.203   1.723   1.082  0.4571  0.2306  2.2827
  100MPD2    H1 1561   4.465   1.762   0.743  0.3233  2.2814  0.7110
  100MPD2    H2 1562   4.619   1.643   1.113 -1.0040 -1.0190  1.0387
  100MPD2    H3 1563   4.644   1.691   0.880 -0.6246  0.6429 -1.5305
  100MPD2     N 1564   4.210   1.793   0.809 -0.8683  0.3864 -0.1132
  100MPD2    H5 1565   4.228   1.821   0.713  0.8795  0.8403  0.3484
  100MPD2    N1 1566   4.382   1.654   1.247  0.5113 -0.2096 -0.0278
  100MPD2    H7 1567   4.292   1.678   1.287  0.9140  1.1463  0.0571
  101TMC2    C1 1568   0.179   2.723  13.083  0.1368 -0.0379  0.2094
  101TMC2    C2 1569   0.192   2.675  12.953 -0.3098 -0.1399  0.1333
  101TMC2    C3 1570   0.262   2.756  12.864 -0.3962  0.8018  0.4617
  101TMC2    C4 1571   0.215   2.850  13.120 -0.2394 -0.0287 -0.2830
  101TMC2    C5 1572   0.276   2.931  13.028 -0.4481 -0.8561  0.3679
  101TMC2    C6 1573   0.298   2.881  12.901 -0.9021 -0.3500 -0.9181
  101TMC2     C 1574   0.109   2.650  13.176 -0.7761  0.4593  0.1620
  101TMC2     O 1575   0.035   2.708  13.255 -0.0281 -0.0276  0.0284
  101TMC2     H 1576   0.133   2.594  12.911 -0.6732  0.1783  0.0243
  101TMC2    H1 1577   0.201   2.892  13.219 -1.1878  1.0826 -0.8962
  101TMC2    H2 1578   0.363   2.931  12.830  0.1657 -0.1669  0.1708
  101TMC2    C7 1579   0.374   3.026  13.081  0.2688  0.2070 -0.1244
  101TMC2    C8 1580   0.268   2.724  12.725  0.3009  0.1317  0.0535
  101TMC2    O1 1581   0.368   3.028  13.202  0.5777  0.1819 -0.4691
  101TMC2    O2 1582   0.216   2.808  12.654  0.0699 -0.2783  0.7448
  101TMC2    O5 1583   0.253   2.593  12.714  0.6084 -0.0555  0.3861
  101TMC2    H5 1584   0.296   2.540  12.785  3.7614  0.3672 -1.2197
  102MPD2     C 1585   0.111   2.278  13.193 -0.4480 -0.0664  0.4079
  102MPD2    C1 1586   0.065   2.409  13.204 -0.1118 -0.8113 -0.4356
  102MPD2    C2 1587   4.672   2.434  13.264 -0.5242 -0.3733 -0.9527
  102MPD2    C3 1588   4.596   2.321  13.288 -0.3495  0.5001  0.4436
  102MPD2    C4 1589   4.646   2.187  13.277 -0.5074  0.8340 -0.4475
  102MPD2    C5 1590   0.037   2.170  13.228  0.3601 -0.0557  0.0775
  102MPD2     H 1591   4.626   2.532  13.254  0.8995  0.2678 -1.3277
  102MPD2    H1 1592   4.582   2.103  13.302  3.6201 -1.3385  2.8937
  102MPD2    H2 1593   0.209   2.261  13.150 -1.2442  0.1497 -1.4974
  102MPD2    H3 1594   0.077   2.069  13.222 -1.7647 -0.8432 -1.0603
  102MPD2     N 1595   4.471   2.340  13.344 -0.9048  0.7966  0.0261
  102MPD2    H5 1596   4.447   2.434  13.375  1.4358  0.8968  1.5177
  102MPD2    N1 1597   0.139   2.517  13.155 -0.4957  0.3996 -0.6315
  102MPD2    H7 1598   0.228   2.502  13.108  0.4265  3.7719  0.0019
  103TMC2    C1 1599   2.700   3.295  12.857  0.1321 -0.1608 -0.6368
  103TMC2    C2 1600   2.761   3.202  12.930 -0.1613 -0.0381 -0.0525
  103TMC2    C3 1601   2.724   3.187  13.056  0.0058  0.1848  0.7480
  103TMC2    C4 1602   2.613   3.384  12.916 -0.5028 -0.2018 -0.3111
  103TMC2    C5 1603   2.583   3.370  13.048  0.1817 -0.5782  0.4117
  103TMC2    C6 1604   2.634   3.268  13.115 -0.2832 -0.2085  0.1042
  103TMC2     C 1605   2.698   3.298  12.712 -1.0361 -0.6072 -0.5412
  103TMC2     O 1606   2.684   3.195  12.649  0.0319 -0.0431  0.2746
  103TMC2     H 1607   2.839   3.134  12.899  0.1599  0.4564 -0.3216
  103TMC2    H1 1608   2.566   3.461  12.856 -1.0860  0.2999  0.7957
  103TMC2    H2 1609   2.609   3.250  13.219  0.5686  0.3353  0.4040
  103TMC2    C7 1610   2.454   3.416  13.103 -0.1142  0.1698  0.5142
  103TMC2    C8 1611   2.807   3.117  13.144 -0.2530 -0.1532  0.4204
  103TMC2    O1 1612   2.433   3.417  13.222  0.5121 -0.2921 -0.1073
  103TMC2    O2 1613   2.814   3.157  13.258  0.2732  0.1780  0.4591
  103TMC2    O5 1614   2.810   2.989  13.112  0.1581  0.4628  0.5502
  103TMC2    H5 1615   2.780   2.966  13.021 -4.6879 -0.2822  2.3230
  104MPD2     C 1616   2.715   3.612  12.533  0.1015  0.1637  0.0286
  104MPD2    C1 1617   2.705   3.472  12.538 -0.0837  0.0858  0.0054
  104MPD2    C2 1618   2.639   3.406  12.435  0.1780  0.8628 -0.1293
  104MPD2    C3 1619   2.589   3.479  12.324  0.6025 -0.0135  0.3277
  104MPD2    C4 1620   2.603   3.613  12.325 -0.4298  0.0533  0.6829
  104MPD2    C5 1621   2.671   3.673  12.427  0.5451  0.6126 -0.8017
  104MPD2     H 1622   2.627   3.298  12.437 -0.8570  1.0125  1.2248
  104MPD2    H1 1623   2.560   3.683  12.255  0.8581 -0.5200 -0.6894
  104MPD2    H2 1624   2.744   3.663  12.624 -0.7131  0.7245 -0.0315
  104MPD2    H3 1625   2.688   3.780  12.425  2.6914  0.2590 -1.4943
  104MPD2     N 1626   2.520   3.429  12.216  0.0402 -0.1695  0.2798
  104MPD2    H5 1627   2.493   3.490  12.140 -0.2764 -0.5218  0.1089
  104MPD2    N1 1628   2.738   3.418  12.665 -0.0012  0.3947  0.2003
  104MPD2    H7 1629   2.771   3.486  12.733 -1.6114 -0.1771  1.5744
  105TMC2    C1 1630   3.162   1.928  17.563 -0.2070  0.3914  0.1893
  105TMC2    C2 1631   3.029   1.904  17.526  0.2283  0.3412  0.6875
  105TMC2    C3 1632   2.946   2.014  17.554 -0.2320 -0.3279  0.6150
  105TMC2    C4 1633   3.216   2.051  17.603 -0.0427  0.2091  0.5685
  105TMC2    C5 1634   3.120   2.149  17.638 -0.7507  1.0101  0.6488
  105TMC2    C6 1635   2.986   2.131  17.614 -0.5799  0.5270 -0.0044
  105TMC2     C 1636   3.252   1.814  17.529 -0.0739 -0.0889 -0.2324
  105TMC2     O 1637   3.207   1.715  17.475 -0.5211  0.2028  0.5607
  105TMC2     H 1638   2.997   1.812  17.478  0.9906 -0.3725  1.5494
  105TMC2    H1 1639   3.322   2.071  17.612  0.4822 -1.7645 -1.1901
  105TMC2    H2 1640   2.915   2.210  17.634  1.0975  1.6311  1.5895
  105TMC2    C7 1641   3.163   2.272  17.691  0.3688 -0.3075  0.8974
  105TMC2    C8 1642   2.799   2.006  17.576 -0.1728  0.0314 -0.3166
  105TMC2    O1 1643   3.078   2.358  17.700  0.6200 -0.1330 -0.0946
  105TMC2    O2 1644   2.746   2.047  17.679 -0.3650 -0.0775  0.2551
  105TMC2    O5 1645   2.763   1.894  17.504  0.0948 -0.0187 -0.0837
  105TMC2    H5 1646   2.820   1.900  17.424  1.0067 -1.3039  0.4675
  106MPD2     C 1647   3.719   1.618  17.526 -0.2821 -1.0869  0.6476
  106MPD2    C1 1648   3.727   1.741  17.587 -0.5026  0.0936  0.3741
  106MPD2    C2 1649   3.620   1.820  17.591  0.2427 -0.3072  0.4921
  106MPD2    C3 1650   3.496   1.768  17.549 -0.2179  0.1186 -0.0072
  106MPD2    C4 1651   3.488   1.639  17.493 -0.4087 -0.9760  0.3881
  106MPD2    C5 1652   3.600   1.564  17.484  0.2384  0.5188 -0.1927
  106MPD2     H 1653   3.614   1.916  17.642 -1.3929  1.4812 -3.0276
  106MPD2    H1 1654   3.395   1.603  17.450 -0.4776 -1.8127  1.2305
  106MPD2    H2 1655   3.791   1.538  17.521  1.1795  0.3242 -0.6096
  106MPD2    H3 1656   3.599   1.458  17.462 -1.3122  0.4329  0.3388
  106MPD2     N 1657   3.384   1.849  17.557 -0.5908 -0.0227  0.2269
  106MPD2    H5 1658   3.399   1.941  17.595  0.6510 -0.0463 -0.1991
  106MPD2    N1 1659   3.853   1.791  17.633  0.1766  0.7725 -0.5718
  106MPD2    H7 1660   3.842   1.888  17.661 -0.0655  0.2873  1.0476
  107TMC2    C1 1661   4.206   2.046  11.340 -0.5902  0.1970 -0.3021
  107TMC2    C2 1662   4.310   2.136  11.348 -0.4219 -0.6827 -0.1816
  107TMC2    C3 1663   4.395   2.133  11.238  0.9236  0.5400 -0.4792
  107TMC2    C4 1664   4.181   1.970  11.234 -0.4623  0.8683 -0.2119
  107TMC2    C5 1665   4.267   1.976  11.128 -0.2133 -0.1380 -0.8163
  107TMC2    C6 1666   4.373   2.059  11.126  0.0748 -0.6215 -0.5232
  107TMC2     C 1667   4.111   2.058  11.454 -0.0106 -0.0308 -0.1186
  107TMC2     O 1668   4.094   2.166  11.505 -0.0736 -0.5720  0.2477
  107TMC2     H 1669   4.334   2.194  11.436  0.1743  0.3652 -1.0259
  107TMC2    H1 1670   4.093   1.907  11.238  0.2074 -0.1837 -1.9927
  107TMC2    H2 1671   4.433   2.073  11.037 -0.0576  0.6773 -0.4041
  107TMC2    C7 1672   4.241   1.884  11.027  0.2821 -0.4305 -0.2147
  107TMC2    C8 1673   4.514   2.213  11.223  0.2410  0.0219  0.0892
  107TMC2    O1 1674   4.156   1.795  11.046  0.7963  0.1394  0.2152
  107TMC2    O2 1675   4.607   2.177  11.149 -0.4354 -0.3406 -0.2708
  107TMC2    O5 1676   4.527   2.297  11.326 -0.5581  0.5112  0.3831
  107TMC2    H5 1677   4.443   2.334  11.360 -1.1326 -0.6562  0.2353
  108MPD2     C 1678   3.905   1.784  11.584 -0.9697  0.8896 -0.6288
  108MPD2    C1 1679   3.960   1.911  11.586 -0.0126  0.4970  0.7239
  108MPD2    C2 1680   3.926   1.993  11.688 -0.4002 -0.3343 -0.3822
  108MPD2    C3 1681   3.831   1.961  11.786  0.8623  0.4593 -0.1082
  108MPD2    C4 1682   3.767   1.844  11.770  0.3411  0.5794 -0.1603
  108MPD2    C5 1683   3.802   1.758  11.670  0.1666  0.6771 -0.0130
  108MPD2     H 1684   3.983   2.084  11.700 -0.3217 -0.4579  0.1700
  108MPD2    H1 1685   3.693   1.803  11.838  1.1864  0.7854  0.8737
  108MPD2    H2 1686   3.940   1.714  11.509  0.6583 -0.0777  1.0090
  108MPD2    H3 1687   3.758   1.659  11.678  0.5278  0.6418  1.3938
  108MPD2     N 1688   3.784   2.041  11.895  0.0887  0.3461 -0.2224
  108MPD2    H5 1689   3.716   1.997  11.955  1.5117  0.6334  1.6012
  108MPD2    N1 1690   4.057   1.938  11.485  0.3423 -0.5136  0.2392
  108MPD2    H7 1691   4.090   1.867  11.421 -0.2383  1.4311 -2.2022
  109TMC2    C1 1692   4.714   4.011   1.307  0.2498 -0.8019  0.1520
  109TMC2    C2 1693   0.045   3.912   1.366 -0.7180 -0.7010 -0.3509
  109TMC2    C3 1694   0.147   3.852   1.295  0.0513 -0.0658  0.2823
  109TMC2    C4 1695   0.000   4.042   1.175 -0.0310 -0.4399  0.2398
  109TMC2    C5 1696   0.096   3.976   1.105 -0.1771 -0.3917 -0.4653
  109TMC2    C6 1697   0.173   3.882   1.169  1.1497  0.8682  0.1918
  109TMC2     C 1698   4.600   4.068   1.371 -0.4313  0.2553 -0.0890
  109TMC2     O 1699   4.594   4.081   1.495  0.1140  0.2081 -0.0301
  109TMC2     H 1700   0.019   3.889   1.468  0.6444 -2.0247 -0.2909
  109TMC2    H1 1701   4.688   4.124   1.124 -2.0426 -2.6793 -1.4720
  109TMC2    H2 1702   0.250   3.827   1.115  0.4502 -0.4790  0.5729
  109TMC2    C7 1703   0.140   4.035   0.984 -0.3087 -0.1904  0.4530
  109TMC2    C8 1704   0.240   3.758   1.357 -0.0814 -0.1177 -0.3574
  109TMC2    O1 1705   0.095   4.144   0.941 -0.0964 -0.1205 -0.0335
  109TMC2    O2 1706   0.356   3.738   1.318 -0.5632 -0.3560 -0.4966
  109TMC2    O5 1707   0.179   3.697   1.457 -0.3207 -0.3820  0.1527
  109TMC2    H5 1708   0.082   3.707   1.467 -0.0179  2.1838  0.3980
  110MPD2     C 1709   4.136   4.278   1.400  0.4664  0.0762  0.3434
  110MPD2    C1 1710   4.152   4.224   1.272 -1.2743 -0.4760 -0.2984
  110MPD2    C2 1711   4.282   4.181   1.236 -0.9714  0.2562  0.0743
  110MPD2    C3 1712   4.387   4.191   1.327 -0.3684 -0.0404  0.6908
  110MPD2    C4 1713   4.358   4.238   1.451  0.0373  0.2214 -0.3290
  110MPD2    C5 1714   4.239   4.300   1.482 -0.0315 -0.4472 -1.0806
  110MPD2     H 1715   4.295   4.121   1.146 -1.5535 -0.4870  0.4813
  110MPD2    H1 1716   4.443   4.252   1.517 -0.9548 -0.5418  1.1021
  110MPD2    H2 1717   4.040   4.323   1.420 -2.2882 -5.3188 -0.7148
  110MPD2    H3 1718   4.221   4.358   1.572 -0.8893 -2.1664 -0.1326
  110MPD2     N 1719   4.509   4.126   1.288 -0.1364 -0.0055  0.1510
  110MPD2    H5 1720   4.518   4.114   1.188 -0.3589  0.8516  0.0309
  110MPD2    N1 1721   4.039   4.204   1.196  0.2828  0.5239  0.1837
  110MPD2    H7 1722   3.955   4.235   1.244 -2.1033  0.0716 -3.7175
  111TMC2    C1 1723   4.626   3.644  11.961 -0.3682 -0.6701  0.4983
  111TMC2    C2 1724   4.563   3.609  12.077 -0.3332  0.1218  0.1754
  111TMC2    C3 1725   4.628   3.524  12.167  0.5266  0.4726 -1.2891
  111TMC2    C4 1726   0.015   3.605  11.934 -0.2951 -0.1416 -0.1821
  111TMC2    C5 1727   0.076   3.526  12.021  0.0369 -0.0186 -0.2976
  111TMC2    C6 1728   0.012   3.475  12.128  0.1597  0.1714 -0.0445
  111TMC2     C 1729   4.545   3.701  11.851 -0.4661  0.1554 -0.8992
  111TMC2     O 1730   4.594   3.714  11.742 -0.1556 -0.0094  0.2097
  111TMC2     H 1731   4.456   3.620  12.082 -0.3276  0.8254 -1.3406
  111TMC2    H1 1732   0.053   3.645  11.841  1.6457 -0.0476  0.6527
  111TMC2    H2 1733   0.066   3.419  12.204 -0.0317  0.3810  0.2482
  111TMC2    C7 1734   0.211   3.476  12.011  0.1006  0.8042  0.1256
  111TMC2    C8 1735   4.552   3.446  12.259 -0.1895 -0.3631 -0.8869
  111TMC2    O1 1736   0.244   3.380  12.083  0.0208 -0.3125  0.1449
  111TMC2    O2 1737   4.612   3.379  12.344  0.4278 -0.7360 -0.2773
  111TMC2    O5 1738   4.438   3.392  12.203 -0.3916 -0.0846  0.4846
  111TMC2    H5 1739   4.408   3.436  12.121  0.6486 -1.6127 -0.7098
  112MPD2     C 1740   4.134   3.966  11.678 -0.3599  0.9347  0.6775
  112MPD2    C1 1741   4.239   3.910  11.615  0.0832 -0.2145  0.7120
  112MPD2    C2 1742   4.336   3.836  11.679 -0.1260  0.5699 -0.1110
  112MPD2    C3 1743   4.333   3.823  11.818 -0.3941  1.1513 -0.0982
  112MPD2    C4 1744   4.226   3.881  11.883 -0.2066  0.2242  0.7744
  112MPD2    C5 1745   4.124   3.943  11.812 -1.0914 -0.2123  0.1687
  112MPD2     H 1746   4.417   3.803  11.614  0.5995  2.4867 -0.1595
  112MPD2    H1 1747   4.196   3.850  11.983  0.2070 -0.1867  0.7698
  112MPD2    H2 1748   4.056   4.023  11.630 -1.6370 -0.5231  1.0103
  112MPD2    H3 1749   4.032   3.975  11.860 -0.2718 -0.5989  1.9671
  112MPD2     N 1750   4.431   3.752  11.891 -0.4669  0.0030  0.6439
  112MPD2    H5 1751   4.422   3.767  11.991  0.7249  0.1445  0.7361
  112MPD2    N1 1752   4.255   3.917  11.473  1.0735  0.4983 -0.0653
  112MPD2    H7 1753   4.339   3.875  11.435  0.6864  0.5922 -1.0293
  113TMC2    C1 1754   3.438   1.672   0.409  1.1921  0.5709 -0.0395
  113TMC2    C2 1755   3.415   1.789   0.352 -0.0420 -0.5709  0.3659
  113TMC2    C3 1756   3.328   1.785   0.247 -0.4416  0.8068  0.4545
  113TMC2    C4 1757   3.361   1.557   0.389  0.1903  0.0676 -0.7028
  113TMC2    C5 1758   3.271   1.561   0.283  0.0358  0.3463 -0.7631
  113TMC2    C6 1759   3.255   1.674   0.209 -0.0780  0.7223  0.1018
  113TMC2     C 1760   3.505   1.668   0.532 -0.6814 -0.4478 -0.9431
  113TMC2     O 1761   3.518   1.775   0.595 -0.0284 -1.1123  0.1249
  113TMC2     H 1762   3.467   1.882   0.369  1.5545 -1.6474  1.4164
  113TMC2    H1 1763   3.368   1.465   0.446 -1.0542  0.3548 -0.0850
  113TMC2    H2 1764   3.192   1.670   0.121  1.3609 -0.6571 -0.8640
  113TMC2    C7 1765   3.187   1.453   0.243 -1.3464  0.0942 -0.5682
  113TMC2    C8 1766   3.330   1.908   0.161  0.3267  0.4022 -0.7203
  113TMC2    O1 1767   3.115   1.470   0.149 -0.7638 -0.3909  0.2311
  113TMC2    O2 1768   3.421   1.972   0.124 -0.2424  0.5524 -0.4675
  113TMC2    O5 1769   3.199   1.931   0.134  0.5120  0.3890  0.0565
  113TMC2    H5 1770   3.142   1.870   0.186  1.6322 -1.5806 -1.0205
  114MPD2     C 1771   3.884   1.485   0.824  0.2879 -1.0105 -0.2750
  114MPD2    C1 1772   3.785   1.581   0.854  0.1904 -0.0370  0.0431
  114MPD2    C2 1773   3.679   1.601   0.761 -0.0415  0.1853 -0.6763
  114MPD2    C3 1774   3.677   1.526   0.651  0.3274  0.0046  0.1942
  114MPD2    C4 1775   3.771   1.426   0.627 -1.0395 -0.3197 -0.1161
  114MPD2    C5 1776   3.875   1.411   0.714 -0.3986 -0.0133 -0.5164
  114MPD2     H 1777   3.597   1.665   0.793  0.5111 -0.0282  1.1797
  114MPD2    H1 1778   3.771   1.370   0.534 -0.3220 -1.8339  0.7855
  114MPD2    H2 1779   3.967   1.455   0.887  0.6635  0.7534  0.0542
  114MPD2    H3 1780   3.962   1.354   0.685 -0.5241  0.4076 -1.7501
  114MPD2     N 1781   3.580   1.546   0.546 -0.6103  0.5034  0.1526
  114MPD2    H5 1782   3.575   1.479   0.470 -2.2343  0.5867  0.1906
  114MPD2    N1 1783   3.774   1.648   0.977  0.2037 -0.4108  0.4815
  114MPD2    H7 1784   3.695   1.711   0.987  0.5146 -0.0259  0.4920
  115TMC2    C1 1785   4.327   3.985   0.087  0.4224 -0.6807 -0.3522
  115TMC2    C2 1786   4.421   3.891   0.131 -0.1496 -0.1559  0.1086
  115TMC2    C3 1787   4.538   3.941   0.167 -0.3048  0.1078 -0.7386
  115TMC2    C4 1788   4.354   4.114   0.069  0.0356  0.6292 -0.1094
  115TMC2    C5 1789   4.478   4.153   0.101 -0.1270  0.1517  0.3644
  115TMC2    C6 1790   4.572   4.070   0.158 -0.1801  0.0560  0.6083
  115TMC2     C 1791   4.209   3.919   0.020 -0.3729 -0.8416 -0.3528
  115TMC2     O 1792   4.190   3.802   0.052 -0.4406  0.0925 -0.4186
  115TMC2     H 1793   4.403   3.785   0.138 -0.5134 -0.2155 -1.9364
  115TMC2    H1 1794   4.272   4.181   0.046 -0.6996  0.0177  0.6740
  115TMC2    H2 1795   4.675   4.104   0.166  0.0578 -0.3418 -0.6886
  115TMC2    C7 1796   4.509   4.297   0.108  0.0333  0.0392  0.2905
  115TMC2    C8 1797   4.642   3.846   0.157  1.1164 -0.1935 -0.0391
  115TMC2    O1 1798   4.566   4.333   0.209  0.0754 -0.0603 -0.0249
  115TMC2    O2 1799   0.014   3.890   0.126  0.5103  0.0858  0.0267
  115TMC2    O5 1800   4.617   3.748   0.248  0.1416  0.3064  0.4436
  115TMC2    H5 1801   4.534   3.762   0.297 -0.7922 -0.1418 -0.9954
  116MPD2     C 1802   3.787   3.934  17.469 -0.0796 -0.0356 -0.8599
  116MPD2    C1 1803   3.836   3.825  17.544  0.7351 -0.7429  0.3668
  116MPD2    C2 1804   3.955   3.847  17.607  0.5976 -0.0014  0.1847
  116MPD2    C3 1805   4.022   3.966  17.595 -0.3098 -0.0867  0.3805
  116MPD2    C4 1806   3.974   4.071  17.518  0.5302  0.0729 -0.5902
  116MPD2    C5 1807   3.858   4.052  17.450  0.6939 -0.4889 -0.1153
  116MPD2     H 1808   4.007   3.765  17.655  0.8583 -0.5105 -0.9667
  116MPD2    H1 1809   4.018   4.170  17.513 -0.5833  0.5918 -0.1544
  116MPD2    H2 1810   3.695   3.926  17.414 -0.2350 -1.7211 -0.3459
  116MPD2    H3 1811   3.822   4.130  17.384  0.0503  0.3024  1.1882
  116MPD2     N 1812   4.141   4.000  17.669  0.4986 -0.7481 -0.4543
  116MPD2    H5 1813   4.176   4.092  17.646 -1.2804  0.2151  0.7231
  116MPD2    N1 1814   3.761   3.711  17.541  0.0299 -0.0683  0.0020
  116MPD2    H7 1815   3.696   3.696  17.465  0.2070  2.0010 -0.5765
  117TMC2    C1 1816   2.241   0.754  13.488 -0.1705  0.5812 -0.7444
  117TMC2    C2 1817   2.358   0.687  13.464 -0.5864  0.0544 -0.2150
  117TMC2    C3 1818   2.463   0.733  13.531  0.3439 -0.1883 -0.1545
  117TMC2    C4 1819   2.223   0.842  13.591 -0.0903 -0.3667  0.2453
  117TMC2    C5 1820   2.331   0.886  13.662  0.2011  0.5195 -0.2607
  117TMC2    C6 1821   2.450   0.825  13.634 -0.2083 -0.5252  0.4557
  117TMC2     C 1822   2.126   0.728  13.411 -0.5960  1.0783 -1.0631
  117TMC2     O 1823   2.098   0.615  13.373  0.3832 -0.2790 -0.1959
  117TMC2     H 1824   2.370   0.629  13.373  0.3426 -3.3661  2.0819
  117TMC2    H1 1825   2.119   0.870  13.608  0.2320  0.7026  0.4517
  117TMC2    H2 1826   2.534   0.876  13.679  0.6818 -0.5630 -1.1448
  117TMC2    C7 1827   2.314   0.998  13.750  0.1319  0.5718  0.5585
  117TMC2    C8 1828   2.587   0.702  13.471  0.4992  0.5511  0.7101
  117TMC2    O1 1829   2.408   1.072  13.757  0.0155 -0.1864 -0.6976
  117TMC2    O2 1830   2.603   0.694  13.351 -0.1506  0.1034 -0.3539
  117TMC2    O5 1831   2.625   0.605  13.560 -0.2639 -0.1428  0.1340
  117TMC2    H5 1832   2.576   0.606  13.644 -0.2372  1.7110  0.1187
  118MPD2     C 1833   2.011   1.085  13.935  0.0321 -0.3837 -0.1700
  118MPD2    C1 1834   2.135   1.098  13.891 -0.5466 -0.0667  0.1013
  118MPD2    C2 1835   2.202   1.216  13.915  0.6146 -0.0375 -0.8223
  118MPD2    C3 1836   2.131   1.316  13.982 -0.3935 -0.1764 -0.2606
  118MPD2    C4 1837   1.995   1.300  14.015  0.0430 -0.1209 -0.9744
  118MPD2    C5 1838   1.935   1.178  13.998  0.3955  0.0759 -0.1152
  118MPD2     H 1839   2.307   1.223  13.889  0.4888  2.1352 -0.7483
  118MPD2    H1 1840   1.946   1.377  14.074 -0.3214 -0.7036 -0.5208
  118MPD2    H2 1841   1.956   0.995  13.909 -2.9787  1.8756 -1.5270
  118MPD2    H3 1842   1.831   1.170  14.028  0.6252  0.0421  0.6480
  118MPD2     N 1843   2.180   1.448  13.994 -0.0321  0.3337 -0.2043
  118MPD2    H5 1844   2.122   1.528  14.021 -0.0745  0.4538 -0.6621
  118MPD2    N1 1845   2.193   0.989  13.821  0.6746 -0.5439 -0.1248
  118MPD2    H7 1846   2.142   0.903  13.802 -1.5651  0.7963 -0.2525
  119TMC2    C1 1847   0.891   2.321  13.822  0.1308 -0.2438  1.0688
  119TMC2    C2 1848   1.020   2.294  13.775 -0.4804  1.0898  0.2333
  119TMC2    C3 1849   1.036   2.196  13.684 -0.6023  0.3818  0.1466
  119TMC2    C4 1850   0.784   2.256  13.774 -0.4374 -0.1148 -0.0412
  119TMC2    C5 1851   0.807   2.159  13.685 -0.1201 -0.1338  0.0061
  119TMC2    C6 1852   0.929   2.121  13.639 -0.4095 -0.0137 -0.7818
  119TMC2     C 1853   0.889   2.417  13.930 -0.4481 -0.5430  0.0132
  119TMC2     O 1854   0.782   2.427  13.983  0.6662  0.2144 -0.1750
  119TMC2     H 1855   1.110   2.345  13.807 -0.8137 -0.0075  2.9000
  119TMC2    H1 1856   0.690   2.287  13.817  0.2189  0.7985  0.7091
  119TMC2    H2 1857   0.940   2.057  13.552  3.0873 -0.9833  0.3688
  119TMC2    C7 1858   0.701   2.120  13.603 -0.1956  0.4164 -0.4123
  119TMC2    C8 1859   1.167   2.147  13.659 -0.1741  0.3961  0.4114
  119TMC2    O1 1860   0.720   2.104  13.484  0.7325  0.6887 -0.5002
  119TMC2    O2 1861   1.201   2.033  13.687 -0.2680 -0.4062  0.3344
  119TMC2    O5 1862   1.206   2.215  13.554  0.3620 -0.5458  0.1789
  119TMC2    H5 1863   1.142   2.289  13.544 -1.0377 -1.5787  1.3946
  120MPD2     C 1864   1.117   2.690  14.294  0.2757 -0.0586 -0.0001
  120MPD2    C1 1865   0.983   2.692  14.254 -1.0455  0.2437 -0.2458
  120MPD2    C2 1866   0.938   2.639  14.128  0.1547 -0.0805 -0.2109
  120MPD2    C3 1867   1.041   2.568  14.065 -0.1857  0.2877  0.1609
  120MPD2    C4 1868   1.172   2.569  14.102 -0.8545 -0.0061  0.1587
  120MPD2    C5 1869   1.213   2.626  14.220 -0.6738 -0.3043  0.0201
  120MPD2     H 1870   0.836   2.643  14.093 -0.0329 -0.7509  0.2625
  120MPD2    H1 1871   1.252   2.518  14.049 -0.2688 -1.6804  2.6380
  120MPD2    H2 1872   1.145   2.732  14.390 -0.5850  0.1029  0.1846
  120MPD2    H3 1873   1.317   2.618  14.249 -0.9469 -1.5140  0.7014
  120MPD2     N 1874   1.009   2.486  13.948 -1.0548  0.5509 -0.3115
  120MPD2    H5 1875   1.090   2.440  13.908 -0.0452  1.3776  0.7553
  120MPD2    N1 1876   0.895   2.740  14.353  0.5916  0.1274 -0.1347
  120MPD2    H7 1877   0.944   2.806  14.412  0.7723  0.8636 -1.1154
  121TMC2    C1 1878   1.974   3.843  14.438 -0.8852  0.5189 -0.2582
  121TMC2    C2 1879   2.052   3.767  14.516  0.4120  0.0306 -0.8820
  121TMC2    C3 1880   2.041   3.627  14.495  1.1282  0.0843 -0.5648
  121TMC2    C4 1881   1.889   3.788  14.346  0.2334 -0.0142 -0.6991
  121TMC2    C5 1882   1.877   3.652  14.335  0.7594 -0.2994 -0.3042
  121TMC2    C6 1883   1.959   3.570  14.409  0.6475 -0.0118  0.2186
  121TMC2     C 1884   2.020   3.979  14.428 -0.3759  0.7630 -0.7624
  121TMC2     O 1885   2.097   4.016  14.518  0.5340  0.3572 -0.6457
  121TMC2     H 1886   2.122   3.810  14.587  0.4905 -2.7103  0.6686
  121TMC2    H1 1887   1.834   3.846  14.272 -2.0553 -3.6207 -1.8722
  121TMC2    H2 1888   1.950   3.462  14.399 -1.8170  0.2978 -0.9581
  121TMC2    C7 1889   1.825   3.583  14.218 -0.0394  0.3406  0.2801
  121TMC2    C8 1890   2.126   3.543  14.580  0.7761 -0.2296  0.5635
  121TMC2    O1 1891   1.850   3.467  14.208  0.2367 -0.2092  0.2877
  121TMC2    O2 1892   2.075   3.435  14.617 -0.1630 -0.8535 -0.2248
  121TMC2    O5 1893   2.250   3.587  14.567  0.1348 -0.1729  0.1521
  121TMC2    H5 1894   2.249   3.663  14.504  0.6632 -0.3675 -0.0967
  122MPD2     C 1895   2.189   4.189  14.312 -0.0573 -1.0379 -0.4771
  122MPD2    C1 1896   2.092   4.124  14.242  0.3229 -0.4276 -0.1041
  122MPD2    C2 1897   2.097   4.136  14.106  0.0953  0.3333  0.3738
  122MPD2    C3 1898   2.191   4.216  14.038 -0.2280 -0.4939  0.0063
  122MPD2    C4 1899   2.296   4.270  14.112 -0.0543  0.3359  0.2783
  122MPD2    C5 1900   2.297   4.255  14.249 -0.3604 -0.6345  0.3779
  122MPD2     H 1901   2.022   4.080  14.051  1.0117  0.0903 -0.6174
  122MPD2    H1 1902   2.373   4.327  14.061 -0.1118  0.6413  0.5408
  122MPD2    H2 1903   2.206   4.197  14.419 -1.2885 -1.2670 -0.2671
  122MPD2    H3 1904   2.371   4.308  14.307  0.0929 -0.3437 -0.4656
  122MPD2     N 1905   2.189   4.249  13.900  0.1733 -0.4086  0.5844
  122MPD2    H5 1906   2.246   4.330  13.878  0.7204 -0.8848  0.2542
  122MPD2    N1 1907   2.001   4.035  14.303 -0.2046  0.4958  0.7305
  122MPD2    H7 1908   1.935   3.987  14.243  0.3283  0.7601 -0.0639
  123TMC2    C1 1909   1.111   2.273   9.881  0.0747  1.0487 -0.1123
  123TMC2    C2 1910   1.230   2.236   9.944  0.6099 -0.2323 -0.7650
  123TMC2    C3 1911   1.281   2.116   9.906  0.5822  0.5760  0.2333
  123TMC2    C4 1912   1.040   2.192   9.799  0.6518  0.4034  0.2495
  123TMC2    C5 1913   1.085   2.066   9.775 -0.2303 -0.2331  0.5146
  123TMC2    C6 1914   1.211   2.027   9.820 -0.2576 -0.1330 -0.6756
  123TMC2     C 1915   1.047   2.400   9.916  0.2989 -0.4275  0.7647
  123TMC2     O 1916   1.123   2.478   9.974  0.5566 -0.2652  0.1328
  123TMC2     H 1917   1.293   2.309   9.994  1.0747 -0.4823 -0.9893
  123TMC2    H1 1918   0.953   2.232   9.750  1.5991  0.1017 -1.6616
  123TMC2    H2 1919   1.256   1.936   9.781  0.2168  0.6973 -2.0755
  123TMC2    C7 1920   1.043   1.987   9.659  0.1975 -0.6906 -0.5759
  123TMC2    C8 1921   1.392   2.061   9.983 -0.1117  0.1759  0.5560
  123TMC2    O1 1922   1.125   1.904   9.617 -0.1377 -0.4192 -0.5444
  123TMC2    O2 1923   1.501   2.061   9.935  0.4867 -0.5143 -0.3405
  123TMC2    O5 1924   1.361   2.096  10.107 -0.3108 -0.1807  0.7158
  123TMC2    H5 1925   1.268   2.084  10.136  0.0180 -0.9789  1.4406
  124MPD2     C 1926   0.652   2.680  10.062 -0.0456  0.5318 -0.5109
  124MPD2    C1 1927   0.597   2.559  10.026  0.5207 -0.0442  0.0126
  124MPD2    C2 1928   0.686   2.462   9.982  0.4225 -0.1873  0.3308
  124MPD2    C3 1929   0.822   2.489   9.990  0.1827 -0.1594 -0.2345
  124MPD2    C4 1930   0.872   2.615  10.016 -0.3560  0.1998 -0.0135
  124MPD2    C5 1931   0.783   2.709  10.053  0.2073  0.2204 -0.3533
  124MPD2     H 1932   0.655   2.361   9.957  2.4677 -0.6697 -0.2370
  124MPD2    H1 1933   0.978   2.640  10.018 -0.9935  2.9845 -1.3823
  124MPD2    H2 1934   0.581   2.761  10.078 -1.6303 -1.0583  0.4869
  124MPD2    H3 1935   0.820   2.805  10.088  1.6617  0.2824 -2.0687
  124MPD2     N 1936   0.908   2.388   9.937 -0.2569 -0.6221  0.2837
  124MPD2    H5 1937   0.856   2.307   9.905 -0.5988 -0.7562  1.1949
  124MPD2    N1 1938   0.461   2.538  10.043 -0.0022 -0.1474 -0.4400
  124MPD2    H7 1939   0.414   2.614  10.091  2.9216  1.6987 -0.4955
  125TMC2    C1 1940   1.258   0.287   8.625  0.7826 -0.0472  0.0898
  125TMC2    C2 1941   1.184   0.353   8.530  0.7014 -0.5581  0.9202
  125TMC2    C3 1942   1.060   0.304   8.519  0.2692 -0.1307 -0.2974
  125TMC2    C4 1943   1.220   0.176   8.690  0.1228 -0.0513  0.0860
  125TMC2    C5 1944   1.093   0.128   8.674 -0.0289 -0.3874 -0.0519
  125TMC2    C6 1945   1.014   0.190   8.582 -0.1178  0.7837 -0.4693
  125TMC2     C 1946   1.381   0.345   8.668  0.4766  0.5381  1.0596
  125TMC2     O 1947   1.459   0.374   8.576  0.7264 -0.4626  0.1157
  125TMC2     H 1948   1.226   0.437   8.476  1.1240 -0.0497  2.0403
  125TMC2    H1 1949   1.282   0.126   8.763 -2.0054 -2.9139 -0.0547
  125TMC2    H2 1950   0.914   0.152   8.563 -0.0588  0.4543 -0.1352
  125TMC2    C7 1951   1.051   0.000   8.730 -0.4514  0.2719 -0.1820
  125TMC2    C8 1952   1.012   0.296   8.381 -0.3732 -0.3230  0.7681
  125TMC2    O1 1953   0.932   4.703   8.726 -0.6335  0.4015 -1.0871
  125TMC2    O2 1954   1.011   0.192   8.315  0.9574 -0.2959 -0.7073
  125TMC2    O5 1955   1.037   0.411   8.326 -0.0919  0.2551  0.3972
  125TMC2    H5 1956   1.043   0.494   8.378 -0.0749  0.7878 -0.4557
  126MPD1     C 1957   1.712   0.544   9.009  0.3402  1.1836 -0.1594
  126MPD1    C1 1958   1.600   0.509   9.082  0.6916  0.3370 -0.2220
  126MPD1    C2 1959   1.498   0.444   9.016  0.7663 -0.3378 -0.4310
  126MPD1    C3 1960   1.507   0.412   8.879  0.1767 -0.0095  0.5364
  126MPD1    C4 1961   1.620   0.452   8.813 -0.2577  0.1266  0.4305
  126MPD1    C5 1962   1.722   0.513   8.880  0.6286  0.8260 -0.4190
  126MPD1     H 1963   1.413   0.400   9.066  0.2522 -0.6569 -1.6115
  126MPD1    H1 1964   1.625   0.449   8.705  1.1496 -1.6734  0.5425
  126MPD1    H2 1965   1.798   0.591   9.057  1.3347  2.4001 -3.1739
  126MPD1    H3 1966   1.809   0.541   8.822 -0.3377  1.4290 -1.5771
  126MPD1     N 1967   1.390   0.360   8.809  0.5901  0.3024 -0.6238
  126MPD1    H5 1968   1.316   0.325   8.869  0.9103  0.8535  0.0849
  126MPD1    N1 1969   1.601   0.523   9.216  0.8099 -0.1639  0.1635
  126MPD1    H6 1970   1.512   0.553   9.255 -0.0493  0.5510 -2.3094
  126MPD1    H7 1971   1.663   0.602   9.231  0.8048 -0.1168 -0.0525
  127TMC2    C1 1972   2.102   2.914   9.915 -0.1172 -0.8249 -0.0702
  127TMC2    C2 1973   2.199   2.847   9.981  0.7045 -0.4564  0.1286
  127TMC2    C3 1974   2.160   2.755  10.082 -0.3267 -0.3499 -0.6666
  127TMC2    C4 1975   1.966   2.875   9.931 -0.2474 -0.3011  0.2992
  127TMC2    C5 1976   1.935   2.786  10.031  0.8975 -0.8026  0.7717
  127TMC2    C6 1977   2.029   2.718  10.104 -0.6700 -0.2526 -0.1109
  127TMC2     C 1978   2.153   3.008   9.817 -0.2049 -0.2883  0.1366
  127TMC2     O 1979   2.270   3.035   9.823  0.0524  0.6216 -0.0781
  127TMC2     H 1980   2.302   2.873   9.962 -0.4973  2.5503 -2.3303
  127TMC2    H1 1981   1.888   2.935   9.886  1.1117  1.0412 -0.2984
  127TMC2    H2 1982   2.001   2.639  10.172  2.8849 -1.0434  0.4053
  127TMC2    C7 1983   1.797   2.737  10.054 -0.0937 -0.3903 -1.0780
  127TMC2    C8 1984   2.248   2.656  10.130 -0.3869  0.3071 -0.2183
  127TMC2    O1 1985   1.725   2.736   9.954 -0.6463  0.4161 -0.7125
  127TMC2    O2 1986   2.328   2.602  10.057 -1.4046 -0.2392  0.2887
  127TMC2    O5 1987   2.222   2.635  10.258 -0.2615 -0.1708  0.0597
  127TMC2    H5 1988   2.151   2.694  10.291  0.9623  1.2502  0.1158
  128MPD2     C 1989   1.970   3.157   9.535  0.2406  0.3254 -0.2202
  128MPD2    C1 1990   2.075   3.147   9.625  0.4482  0.4690  0.0564
  128MPD2    C2 1991   2.188   3.218   9.595 -0.0772  0.1006  1.2267
  128MPD2    C3 1992   2.196   3.301   9.481  0.1343 -0.3261  1.0490
  128MPD2    C4 1993   2.091   3.300   9.388 -0.2103  0.0920  0.4749
  128MPD2    C5 1994   1.980   3.231   9.421  0.6831  0.1983  0.5935
  128MPD2     H 1995   2.272   3.204   9.663  0.3168  0.3410  0.7851
  128MPD2    H1 1996   2.097   3.344   9.289 -1.6671  1.1833  0.8613
  128MPD2    H2 1997   1.876   3.104   9.548  1.2590 -1.6134 -0.7845
  128MPD2    H3 1998   1.890   3.245   9.362  0.1986  0.1039  1.3042
  128MPD2     N 1999   2.317   3.375   9.466 -0.2614 -0.3165 -0.4899
  128MPD2    H5 2000   2.392   3.367   9.534 -0.6332  0.9759  0.0914
  128MPD2    N1 2001   2.062   3.057   9.731 -0.3300  0.1956 -0.1313
  128MPD2    H7 2002   1.970   3.014   9.736 -0.2758  0.0250 -0.6361
  129TMC2    C1 2003   0.863   3.718   1.900  0.0051 -0.2659  0.0160
  129TMC2    C2 2004   0.941   3.730   2.015 -0.1697  0.1690 -0.3818
  129TMC2    C3 2005   1.067   3.668   2.017  0.1317 -0.3862 -0.6912
  129TMC2    C4 2006   0.925   3.653   1.792  0.8270  0.2573  0.2598
  129TMC2    C5 2007   1.035   3.580   1.802 -0.1813  0.5275 -0.0428
  129TMC2    C6 2008   1.108   3.581   1.918  0.0791  0.4690  0.0888
  129TMC2     C 2009   0.743   3.794   1.884  0.5516  0.1835 -0.1796
  129TMC2     O 2010   0.675   3.807   1.986  0.9095 -0.2163 -0.1208
  129TMC2     H 2011   0.899   3.771   2.106 -0.0511  1.3195 -0.8429
  129TMC2    H1 2012   0.868   3.639   1.701 -1.8439 -1.1766  2.1599
  129TMC2    H2 2013   1.207   3.539   1.932 -1.1106 -1.4588  2.8704
  129TMC2    C7 2014   1.043   3.463   1.712 -0.6053  0.1301  0.4719
  129TMC2    C8 2015   1.153   3.679   2.142  1.1704  0.3486 -0.1409
  129TMC2    O1 2016   0.945   3.422   1.649 -0.2942  0.3084 -0.8229
  129TMC2    O2 2017   1.226   3.590   2.180  0.3501 -0.1546 -0.1139
  129TMC2    O5 2018   1.099   3.766   2.219 -0.4334 -0.2992 -0.1280
  129TMC2    H5 2019   1.043   3.832   2.172  0.4657 -0.1532 -0.9892
  130MPD2     C 2020   0.486   3.868   1.761  0.3385  0.1179  0.0537
  130MPD2    C1 2021   0.606   3.881   1.703 -0.5701  0.6068 -0.0943
  130MPD2    C2 2022   0.615   3.950   1.582  0.1832 -0.5929 -0.4513
  130MPD2    C3 2023   0.493   4.000   1.518  0.2571  0.5169  0.0868
  130MPD2    C4 2024   0.376   3.985   1.580 -0.1172 -0.2771 -0.0332
  130MPD2    C5 2025   0.370   3.918   1.700  0.1351 -0.3687 -0.4310
  130MPD2     H 2026   0.710   3.975   1.535 -0.8963  1.9937 -1.3103
  130MPD2    H1 2027   0.278   4.010   1.542 -1.0873 -0.9135  2.0628
  130MPD2    H2 2028   0.467   3.807   1.849 -0.5286 -2.8361 -2.2050
  130MPD2    H3 2029   0.270   3.900   1.736  1.0013  0.8244  2.5766
  130MPD2     N 2030   0.498   4.066   1.392  0.3807  0.0779 -0.4282
  130MPD2    H5 2031   0.596   4.073   1.364  0.7992 -1.0251  0.7504
  130MPD2    N1 2032   0.726   3.835   1.756 -0.3495 -0.6471  0.1819
  130MPD2    H7 2033   0.809   3.836   1.698 -0.9458 -0.4686 -0.6684
  131TMC2    C1 2034   0.326   3.332  10.397 -0.2584 -0.2604  0.1814
  131TMC2    C2 2035   0.240   3.428  10.428  0.5474  0.1598  0.1858
  131TMC2    C3 2036   0.281   3.555  10.431 -1.0096 -0.2727  0.7165
  131TMC2    C4 2037   0.444   3.365  10.329 -0.2910  1.1171 -0.2667
  131TMC2    C5 2038   0.482   3.500  10.326  0.2931  0.0606  0.1622
  131TMC2    C6 2039   0.394   3.597  10.374 -0.1864 -0.0219  0.1624
  131TMC2     C 2040   0.282   3.193  10.399 -0.1351  0.2347 -0.2071
  131TMC2     O 2041   0.353   3.120  10.335 -0.0103 -0.0469  0.0062
  131TMC2     H 2042   0.135   3.414  10.451 -0.0066  0.9323 -1.9398
  131TMC2    H1 2043   0.510   3.294  10.280 -0.5012 -0.6680  2.0430
  131TMC2    H2 2044   0.426   3.699  10.393  1.2528 -0.6173  0.8835
  131TMC2    C7 2045   0.610   3.536  10.266  0.2175 -0.4195  0.5073
  131TMC2    C8 2046   0.182   3.656  10.447 -0.5525  0.9739  0.4207
  131TMC2    O1 2047   0.684   3.445  10.243  0.4967 -0.7283 -0.3471
  131TMC2    O2 2048   0.080   3.632  10.513  0.7698  0.7176  0.2816
  131TMC2    O5 2049   0.179   3.721  10.329  0.4363  0.4833  0.0295
  131TMC2    H5 2050   0.255   3.710  10.268 -1.0447  1.7838 -2.0225
  132MPD2     C 2051   4.671   3.084  10.465  0.8747  0.1630 -0.0835
  132MPD2    C1 2052   0.069   3.071  10.426  0.3727 -0.4842  0.4564
  132MPD2    C2 2053   0.111   2.951  10.373  0.0462  0.1414  0.1047
  132MPD2    C3 2054   0.023   2.847  10.355 -0.3450 -0.0661  0.1927
  132MPD2    C4 2055   4.630   2.863  10.384 -0.0031  0.2140 -0.4183
  132MPD2    C5 2056   4.585   2.986  10.430  0.4255 -0.0213  0.1710
  132MPD2     H 2057   0.215   2.929  10.352 -0.5788 -1.1978 -1.5472
  132MPD2    H1 2058   4.554   2.790  10.360  1.6081 -2.1288  1.6046
  132MPD2    H2 2059   4.621   3.175  10.497 -1.3202 -0.3160 -2.1388
  132MPD2    H3 2060   4.478   3.002  10.432  0.2000 -1.7870  1.4225
  132MPD2     N 2061   0.074   2.725  10.294 -0.0183  0.1052  0.0964
  132MPD2    H5 2062   0.171   2.729  10.262 -0.5080  3.8593 -0.9159
  132MPD2    N1 2063   0.157   3.181  10.441 -0.0206 -0.0364 -0.5071
  132MPD2    H7 2064   0.109   3.253  10.496 -0.5972 -1.0500  0.3172
  133TMC2    C1 2065   0.226   3.589   9.744  0.4273 -0.2503 -0.1098
  133TMC2    C2 2066   0.298   3.474   9.762 -1.2878 -0.0923  0.3923
  133TMC2    C3 2067   0.382   3.471   9.862  0.0315 -0.2672  0.5785
  133TMC2    C4 2068   0.233   3.695   9.830 -1.1328  0.4871 -0.0911
  133TMC2    C5 2069   0.315   3.679   9.940 -1.1460 -0.5333  0.1197
  133TMC2    C6 2070   0.390   3.567   9.960 -0.2019  0.0540 -0.0612
  133TMC2     C 2071   0.127   3.583   9.645 -0.2022 -0.4349 -0.0065
  133TMC2     O 2072   0.099   3.467   9.609  0.0069  0.1655  0.1564
  133TMC2     H 2073   0.287   3.381   9.707 -2.0966 -1.0043  2.0830
  133TMC2    H1 2074   0.162   3.776   9.830  0.0317  1.5125  1.3287
  133TMC2    H2 2075   0.452   3.557  10.048  0.2555  1.4675 -0.2290
  133TMC2    C7 2076   0.338   3.789  10.028 -0.0281 -0.5336  0.1681
  133TMC2    C8 2077   0.464   3.352   9.877  0.0597  0.3822  0.0850
  133TMC2    O1 2078   0.372   3.764  10.141  0.0431  0.3290  0.2016
  133TMC2    O2 2079   0.431   3.236   9.884  0.3383 -0.0039 -0.0696
  133TMC2    O5 2080   0.588   3.398   9.897 -0.1265 -0.2997 -0.3519
  133TMC2    H5 2081   0.590   3.494   9.879 -1.7213 -0.2286 -0.1675
  134MPD2     C 2082   4.675   3.855   9.494 -0.4365  0.2128  0.6374
  134MPD2    C1 2083   4.705   3.722   9.517  0.0155 -0.3496 -0.9920
  134MPD2    C2 2084   4.628   3.623   9.463 -0.3788  0.8151  0.0759
  134MPD2    C3 2085   4.523   3.657   9.377 -0.9529  0.5059  0.2592
  134MPD2    C4 2086   4.494   3.788   9.356  0.4359  0.0208  0.0613
  134MPD2    C5 2087   4.569   3.885   9.416  0.6116  0.2462  0.2281
  134MPD2     H 2088   4.648   3.521   9.497  0.2813  1.3451  1.2746
  134MPD2    H1 2089   4.406   3.821   9.301  0.0851 -0.4322  0.3518
  134MPD2    H2 2090   4.732   3.935   9.539  0.9457 -0.2756 -0.2361
  134MPD2    H3 2091   4.533   3.987   9.405 -1.2425 -0.7283 -2.7057
  134MPD2     N 2092   4.434   3.562   9.309  0.1265 -0.1198 -0.0481
  134MPD2    H5 2093   4.373   3.601   9.238  0.4550  3.0501  1.4503
  134MPD2    N1 2094   0.075   3.705   9.608  0.2981 -0.0973  0.7064
  134MPD2    H7 2095   0.120   3.786   9.649  0.0149  0.8517 -0.8425
  135TMC2    C1 2096   1.810   0.179   9.116  0.0236 -0.1190  0.3242
  135TMC2    C2 2097   1.765   0.102   9.020 -0.2389  0.1796  0.3905
  135TMC2    C3 2098   1.636   0.053   9.027 -0.7298 -0.0242 -0.0122
  135TMC2    C4 2099   1.733   0.214   9.225  0.5637 -0.4672  0.9132
  135TMC2    C5 2100   1.603   0.172   9.229  0.6949 -0.3264  1.2511
  135TMC2    C6 2101   1.555   0.091   9.132  0.5015  0.3151  0.6261
  135TMC2     C 2102   1.954   0.179   9.140 -0.6039 -0.1127  0.0075
  135TMC2     O 2103   1.997   0.234   9.243  0.4291 -0.5102  0.4227
  135TMC2     H 2104   1.825   0.065   8.937  0.3386 -0.5950  1.1513
  135TMC2    H1 2105   1.776   0.270   9.307  0.2023 -1.5523  1.8474
  135TMC2    H2 2106   1.451   0.061   9.128  0.7162 -0.4503  0.8043
  135TMC2    C7 2107   1.518   0.187   9.350  0.2386  0.2567 -0.2509
  135TMC2    C8 2108   1.584   0.034   8.897 -0.3420  0.2318 -0.1876
  135TMC2    O1 2109   1.439   0.103   9.382  0.2609 -0.1397  0.1904
  135TMC2    O2 2110   1.644   0.061   8.794 -0.3661  0.3438 -0.1182
  135TMC2    O5 2111   1.476   4.697   8.903  0.1267  0.1821  0.3433
  135TMC2    H5 2112   1.463   4.655   8.991  2.8738 -0.8422  0.2966
  136MPD2     C 2113   2.239   0.085   9.172 -0.8942  0.4694  0.0021
  136MPD2    C1 2114   2.156   0.036   9.076 -0.1788 -0.0189  0.6758
  136MPD2    C2 2115   2.199   4.688   8.977  0.4730  0.1768  0.4388
  136MPD2    C3 2116   2.325   4.635   8.988  0.3368  0.0424 -0.5814
  136MPD2    C4 2117   2.410   4.679   9.097  0.1346 -0.6443 -0.6813
  136MPD2    C5 2118   2.367   0.040   9.178  0.3023  0.2067  0.4154
  136MPD2     H 2119   2.128   4.664   8.899 -0.0779  0.6360  0.8018
  136MPD2    H1 2120   2.513   4.651   9.117  0.3047 -0.1948 -0.9442
  136MPD2    H2 2121   2.207   0.156   9.246  2.0629  1.6445  0.1427
  136MPD2    H3 2122   2.432   0.074   9.258 -0.8747 -1.6028  2.1280
  136MPD2     N 2123   2.382   4.537   8.907 -0.3390  0.8899  0.5925
  136MPD2    H5 2124   2.474   4.503   8.936 -0.4697 -1.4693 -1.7621
  136MPD2    N1 2125   2.024   0.083   9.059  0.0737 -0.1555 -0.0033
  136MPD2    H7 2126   1.962   0.041   8.990 -1.2325  0.4909  0.7732
  137TMC2    C1 2127   1.119   4.620   9.395  0.3597 -0.7303  0.3307
  137TMC2    C2 2128   1.144   4.679   9.275  0.1708 -0.6575 -0.3816
  137TMC2    C3 2129   1.122   0.078   9.256 -0.0770 -0.2520  0.1328
  137TMC2    C4 2130   1.067   4.693   9.500 -0.0107  0.4085  0.1043
  137TMC2    C5 2131   1.076   0.094   9.487 -0.1519  0.5032  0.1556
  137TMC2    C6 2132   1.095   0.154   9.367  0.8371 -0.2458 -0.4663
  137TMC2     C 2133   1.102   4.471   9.382  0.2908  0.0188  0.1539
  137TMC2     O 2134   1.184   4.406   9.321 -0.0531 -0.4348 -0.2729
  137TMC2     H 2135   1.173   4.616   9.192  0.2621 -0.5334 -0.4448
  137TMC2    H1 2136   1.059   4.634   9.590 -1.9666  0.0541 -0.3044
  137TMC2    H2 2137   1.089   0.262   9.353  0.3648 -0.4209 -1.5934
  137TMC2    C7 2138   1.056   0.175   9.605 -0.2409  0.5474  0.6573
  137TMC2    C8 2139   1.185   0.135   9.141  0.1271 -0.2844 -0.1688
  137TMC2    O1 2140   1.070   0.298   9.595 -0.0753 -0.4079 -0.2792
  137TMC2    O2 2141   1.260   0.230   9.146  1.1764  0.1929 -0.5721
  137TMC2    O5 2142   1.150   0.065   9.031  0.3349  0.0760 -0.2531
  137TMC2    H5 2143   1.069   0.012   9.050  0.9285 -0.2126  1.4520
  138MPD2     C 2144   0.850   4.242   9.522 -0.2250  0.3646  0.5285
  138MPD2    C1 2145   0.976   4.279   9.481 -0.1673  0.3180  0.2075
  138MPD2    C2 2146   1.081   4.190   9.486  0.4829 -0.1459  0.1030
  138MPD2    C3 2147   1.060   4.057   9.519 -0.7600  0.0078  0.5069
  138MPD2    C4 2148   0.932   4.021   9.550  0.3097  0.6197 -0.0076
  138MPD2    C5 2149   0.830   4.110   9.552 -0.2596 -0.5477  0.0235
  138MPD2     H 2150   1.181   4.230   9.473 -0.0109  1.2408  0.6126
  138MPD2    H1 2151   0.910   3.920   9.583 -1.3061  1.5583  1.7828
  138MPD2    H2 2152   0.765   4.309   9.524 -1.7791 -1.5760 -1.0852
  138MPD2    H3 2153   0.732   4.083   9.589 -0.3257  0.2535  0.4333
  138MPD2     N 2154   1.171   3.967   9.532 -0.0287 -0.1558 -0.0321
  138MPD2    H5 2155   1.265   4.002   9.520 -0.0240  0.0272  0.5061
  138MPD2    N1 2156   1.000   4.416   9.453 -0.6766  0.5733 -0.2962
  138MPD2    H7 2157   0.929   4.478   9.491  1.3027  1.2097  2.3530
  139TMC2    C1 2158   1.949   1.955  13.387 -0.3140  0.2380 -0.9375
  139TMC2    C2 2159   1.916   1.999  13.261 -0.4220  0.2096 -0.3454
  139TMC2    C3 2160   1.847   2.118  13.246 -0.5900  0.1979 -0.1582
  139TMC2    C4 2161   1.923   2.033  13.498 -0.0835  0.2978 -0.0138
  139TMC2    C5 2162   1.865   2.158  13.474  0.8435 -0.3926 -0.8347
  139TMC2    C6 2163   1.818   2.197  13.350 -0.4114  0.4608  0.1056
  139TMC2     C 2164   1.975   1.817  13.399  0.0875  0.0084 -0.1944
  139TMC2     O 2165   1.979   1.753  13.293 -0.6017 -0.0769  0.1458
  139TMC2     H 2166   1.945   1.945  13.172  0.1470  1.4848 -0.9386
  139TMC2    H1 2167   1.956   1.994  13.595 -1.7436  2.3159  1.3540
  139TMC2    H2 2168   1.760   2.287  13.334 -2.2854 -0.7635  0.0076
  139TMC2    C7 2169   1.841   2.246  13.593  0.0769 -0.2876  0.2149
  139TMC2    C8 2170   1.818   2.153  13.109  0.1004 -0.1531  0.0779
  139TMC2    O1 2171   1.753   2.330  13.581  0.1383 -0.0698  0.3657
  139TMC2    O2 2172   1.898   2.135  13.018  0.1613  0.2652 -0.1908
  139TMC2    O5 2173   1.687   2.184  13.104 -0.6186 -0.0142  0.4135
  139TMC2    H5 2174   1.645   2.214  13.187  0.2622  3.2361 -0.3100
  140MPD2     C 2175   1.957   1.552  13.656  0.7207 -0.4431  0.0012
  140MPD2    C1 2176   2.006   1.614  13.544  0.2418  0.3582  0.1104
  140MPD2    C2 2177   2.091   1.541  13.465  0.3606  0.4911  1.1953
  140MPD2    C3 2178   2.122   1.411  13.483  0.2511 -0.2348 -0.1664
  140MPD2    C4 2179   2.075   1.347  13.592  1.1958 -0.2693 -0.6316
  140MPD2    C5 2180   1.993   1.420  13.678  0.5557  0.7496 -0.5753
  140MPD2     H 2181   2.121   1.581  13.369 -3.1268  0.8552  0.2516
  140MPD2    H1 2182   2.089   1.241  13.606 -1.5047 -0.1638  2.6332
  140MPD2    H2 2183   1.891   1.604  13.725 -1.5901 -2.7778 -0.4751
  140MPD2    H3 2184   1.959   1.373  13.770  0.5500  1.8407 -0.0156
  140MPD2     N 2185   2.209   1.358  13.384  0.3426  0.5477  0.6515
  140MPD2    H5 2186   2.245   1.424  13.317  1.4038 -2.0293 -1.2974
  140MPD2    N1 2187   1.980   1.756  13.525  0.4113  0.1577 -0.6852
  140MPD2    H7 2188   1.959   1.806  13.611  2.0107  1.8151 -1.2537
  141TMC2    C1 2189   2.442   3.954  14.338 -0.6743 -0.5260  0.2592
  141TMC2    C2 2190   2.468   3.976  14.468 -0.3735  0.3962  0.0675
  141TMC2    C3 2191   2.581   4.053  14.496  0.5643 -0.5068  0.7163
  141TMC2    C4 2192   2.520   4.003  14.240 -0.1719  0.2345 -0.0735
  141TMC2    C5 2193   2.630   4.079  14.269 -0.1736  0.0943  0.4383
  141TMC2    C6 2194   2.658   4.109  14.399  0.3431 -0.0363 -0.0580
  141TMC2     C 2195   2.354   3.853  14.308 -0.4352 -0.1205  0.4388
  141TMC2     O 2196   2.322   3.777  14.400  0.5285  0.4449  0.0039
  141TMC2     H 2197   2.406   3.925  14.541  1.2306  1.9909  2.5775
  141TMC2    H1 2198   2.510   3.978  14.135  0.0276  1.1865 -0.3247
  141TMC2    H2 2199   2.727   4.191  14.417 -1.2993  1.2427  0.4308
  141TMC2    C7 2200   2.736   4.095  14.170  0.3863  0.6765 -0.2560
  141TMC2    C8 2201   2.628   4.052  14.630 -0.2106  0.5792  0.5803
  141TMC2    O1 2202   2.705   4.107  14.055 -0.2413 -0.3248 -0.0102
  141TMC2    O2 2203   2.558   4.095  14.722  0.2709  0.0595  0.1884
  141TMC2    O5 2204   2.764   4.045  14.613 -0.2185  0.2630  0.2704
  141TMC2    H5 2205   2.773   3.984  14.537 -0.7096 -2.0592  2.0297
  142TMC2    C1 2206   1.174   1.478   9.007  0.0937  0.1209 -0.0535
  142TMC2    C2 2207   1.311   1.505   8.996  0.2692  0.0482 -0.0349
  142TMC2    C3 2208   1.355   1.631   9.013 -0.0397  0.4690 -0.5680
  142TMC2    C4 2209   1.086   1.574   9.055  0.2869  0.3332  0.0071
  142TMC2    C5 2210   1.143   1.700   9.081  0.3201 -0.3797 -0.0602
  142TMC2    C6 2211   1.278   1.730   9.055 -0.7483  0.1736  0.1050
  142TMC2     C 2212   1.124   1.348   8.964 -0.0374 -0.0905  0.1522
  142TMC2     O 2213   1.009   1.323   8.994 -0.4017 -0.6389  0.3276
  142TMC2     H 2214   1.375   1.417   8.994 -0.7906 -0.6974 -1.2713
  142TMC2    H1 2215   0.979   1.561   9.069  0.5521 -0.1713  1.5789
  142TMC2    H2 2216   1.326   1.827   9.065 -0.3012  0.0672 -1.0375
  142TMC2    C7 2217   1.071   1.797   9.169  0.5414 -0.0301 -0.0978
  142TMC2    C8 2218   1.500   1.650   9.020 -0.5410 -0.5006 -0.5581
  142TMC2    O1 2219   1.144   1.891   9.202 -0.4840 -0.4424 -0.0813
  142TMC2    O2 2220   1.543   1.745   9.080 -0.0745 -0.0232 -0.5372
  142TMC2    O5 2221   1.552   1.598   8.905 -0.5781  0.6546  0.0046
  142TMC2    H5 2222   1.491   1.537   8.859  1.2166  0.4375 -2.1205
  143MPD2     C 2223   1.089   0.987   8.622 -1.0627  0.5330  0.2352
  143MPD2    C1 2224   1.034   0.990   8.748  0.3438  0.3476 -0.0447
  143MPD2    C2 2225   1.076   1.083   8.840  0.2822 -0.8051 -0.1252
  143MPD2    C3 2226   1.172   1.174   8.798 -0.5803  0.0180  0.1102
  143MPD2    C4 2227   1.234   1.163   8.673 -0.4177 -0.1713 -0.0962
  143MPD2    C5 2228   1.189   1.075   8.581 -0.1132  0.5822  0.1530
  143MPD2     H 2229   1.034   1.081   8.941 -0.7755 -0.2620 -0.5529
  143MPD2    H1 2230   1.298   1.244   8.640  1.5609 -1.3092  0.9686
  143MPD2    H2 2231   1.040   0.927   8.546 -2.7318  0.5890  1.2445
  143MPD2    H3 2232   1.224   1.078   8.478 -0.5294 -0.1040 -0.0108
  143MPD2     N 2233   1.202   1.296   8.864 -0.6834 -0.7107 -0.3194
  143MPD2    H5 2234   1.273   1.352   8.818  0.4090 -0.1330  2.0728
  143MPD2    N1 2235   0.934   0.888   8.770 -0.0615 -0.3148  0.0356
  143MPD2    H7 2236   0.903   0.827   8.696  0.3617 -0.7573  0.2191
  144TMC2    C1 2237   3.484   0.227   0.270 -0.3494 -0.3610 -0.8287
  144TMC2    C2 2238   3.550   0.128   0.209  0.2293 -0.0009 -0.1059
  144TMC2    C3 2239   3.669   0.091   0.267  0.2215 -0.2104 -0.6043
  144TMC2    C4 2240   3.538   0.294   0.375 -0.4173 -0.6028  1.2291
  144TMC2    C5 2241   3.660   0.253   0.422  0.4056  0.3193 -0.5087
  144TMC2    C6 2242   3.730   0.145   0.375  0.4717  0.4576 -0.1385
  144TMC2     C 2243   3.372   0.288   0.200  0.2128  0.3327 -0.0305
  144TMC2     O 2244   3.327   0.212   0.115  0.2320 -0.0036 -0.2116
  144TMC2     H 2245   3.510   0.073   0.124 -0.0246 -0.4244  0.2893
  144TMC2    H1 2246   3.480   0.370   0.426 -0.5857 -0.7685  1.2845
  144TMC2    H2 2247   3.834   0.123   0.397  0.9584  2.5907 -0.2809
  144TMC2    C7 2248   3.725   0.320   0.537  0.2500  0.0240 -0.5228
  144TMC2    C8 2249   3.732   4.709   0.214  0.0496  0.7551  0.0189
  144TMC2    O1 2250   3.827   0.261   0.578 -0.9478  0.0677  0.3925
  144TMC2    O2 2251   3.686   4.630   0.138  0.2662  0.1070 -0.1277
  144TMC2    O5 2252   3.858   4.736   0.202  0.2250 -0.0741  0.3822
  144TMC2    H5 2253   3.886   0.091   0.222 -2.3076  0.6453  0.6493
  145MPD2     C 2254   3.006   0.643   0.099  0.6298 -0.3803 -0.0381
  145MPD2    C1 2255   3.036   0.525   0.032  0.0467 -0.3368 -0.9436
  145MPD2    C2 2256   3.133   0.437   0.090 -0.3786  0.3799 -0.1246
  145MPD2    C3 2257   3.220   0.484   0.188 -0.0051  0.0516  0.6774
  145MPD2    C4 2258   3.184   0.605   0.244 -0.0194  0.0400 -0.2005
  145MPD2    C5 2259   3.077   0.682   0.208  0.5022  0.4715 -0.5167
  145MPD2     H 2260   3.159   0.341   0.047 -0.4387  0.4702 -0.3599
  145MPD2    H1 2261   3.249   0.653   0.316 -1.2175  0.7577  0.3919
  145MPD2    H2 2262   2.919   0.702   0.071  1.3679  0.9627  0.5243
  145MPD2    H3 2263   3.048   0.783   0.234 -0.5239  0.3275 -1.0803
  145MPD2     N 2264   3.335   0.418   0.234  0.4538  1.0518 -0.2798
  145MPD2    H5 2265   3.382   0.474   0.305 -0.8920  1.8822 -0.0506
  145MPD2    N1 2266   2.965   0.469  17.662  0.1972 -0.2515 -0.6536
  145MPD2    H7 2267   2.984   0.373  17.635 -1.3420 -1.0572  1.1355
  146TMC2    C1 2268   4.456   4.245  11.986  0.6993 -0.0089  0.2703
  146TMC2    C2 2269   4.371   4.271  11.880 -0.2174 -0.6830  0.6572
  146TMC2    C3 2270   4.406   4.211  11.764  0.2810 -0.2061 -0.0994
  146TMC2    C4 2271   4.580   4.182  11.974  0.0285 -0.6186 -0.0943
  146TMC2    C5 2272   4.608   4.139  11.847  0.0301  0.0063 -0.0000
  146TMC2    C6 2273   4.523   4.152  11.741  0.0769 -0.5921  1.0167
  146TMC2     C 2274   4.415   4.306  12.113  0.0473  0.3052 -0.2736
  146TMC2     O 2275   4.328   4.389  12.098 -0.0108  0.2103  0.7432
  146TMC2     H 2276   4.276   4.322  11.889  0.8630  1.4828 -0.2011
  146TMC2    H1 2277   4.658   4.195  12.048 -1.4626 -0.6236  1.4805
  146TMC2    H2 2278   4.555   4.119  11.643  0.1965  2.1819  0.1076
  146TMC2    C7 2279   4.728   4.064  11.830  0.1281  0.2286  0.1844
  146TMC2    C8 2280   4.307   4.230  11.660  1.0034  0.5729  0.8739
  146TMC2    O1 2281   0.043   4.056  11.720 -0.1720  0.1348  0.3350
  146TMC2    O2 2282   4.192   4.257  11.696 -0.0464  0.0517 -0.7309
  146TMC2    O5 2283   4.374   4.272  11.550 -0.5248 -0.5286  0.2040
  146TMC2    H5 2284   4.472   4.263  11.551 -0.5190 -0.4036  0.8325
  147MPD2     C 2285   0.365   3.792  12.056 -0.0462  0.3192 -0.2117
  147MPD2    C1 2286   0.248   3.785  12.132  0.2334  0.0617 -0.4843
  147MPD2    C2 2287   0.139   3.858  12.086 -0.1167  0.3806  0.0975
  147MPD2    C3 2288   0.142   3.933  11.971  0.2626 -1.1934  0.2526
  147MPD2    C4 2289   0.255   3.927  11.893  0.4723 -0.5075 -0.0122
  147MPD2    C5 2290   0.367   3.861  11.939 -0.4499  0.5979 -0.1970
  147MPD2     H 2291   0.045   3.849  12.139 -0.3130  1.3806 -0.0782
  147MPD2    H1 2292   0.259   3.961  11.790 -0.6401 -1.3241 -0.3244
  147MPD2    H2 2293   0.452   3.736  12.088  0.2493  1.4866  1.0088
  147MPD2    H3 2294   0.444   3.850  11.864 -0.8943 -0.8350 -0.4331
  147MPD2     N 2295   0.021   4.003  11.947  0.1256 -0.7042  0.3723
  147MPD2    H5 2296   4.690   4.000  12.023 -0.7502 -0.5840 -0.4018
  147MPD2    N1 2297   0.246   3.714  12.259 -0.3133  0.2423 -0.7328
  147MPD2    H7 2298   0.328   3.669  12.298 -0.0453  1.8964  0.5941
  148TMC2    C1 2299   4.048   3.288  10.216 -0.3855  0.5275  0.0792
  148TMC2    C2 2300   4.091   3.393  10.290  0.2549  0.2411  0.1753
  148TMC2    C3 2301   4.162   3.367  10.401 -0.1508  0.4255  0.0081
  148TMC2    C4 2302   4.063   3.158  10.254  0.3707  0.0483 -0.6037
  148TMC2    C5 2303   4.128   3.144  10.375  0.0827  0.2119 -0.0567
  148TMC2    C6 2304   4.183   3.247  10.450  0.3066  0.5358 -0.1274
  148TMC2     C 2305   4.009   3.321  10.076  0.2751  0.3361 -0.4350
  148TMC2     O 2306   4.082   3.395  10.010 -0.6644  0.0865  0.2383
  148TMC2     H 2307   4.079   3.495  10.256 -0.6550  0.2472  0.5307
  148TMC2    H1 2308   4.041   3.077  10.185 -0.9343 -1.9570  2.1582
  148TMC2    H2 2309   4.233   3.230  10.544 -0.1563  3.1122  0.5782
  148TMC2    C7 2310   4.153   3.002  10.402 -0.7693  0.3287  0.5289
  148TMC2    C8 2311   4.199   3.486  10.479 -1.1671 -0.5315  0.6218
  148TMC2    O1 2312   4.151   2.930  10.303 -0.2532 -0.4185  0.5809
  148TMC2    O2 2313   4.157   3.598  10.451 -0.0571 -0.3265 -0.6064
  148TMC2    O5 2314   4.283   3.462  10.583  0.3367  0.5213 -0.0508
  148TMC2    H5 2315   4.320   3.372  10.574  0.2343  0.5205 -0.4595
  149MPD2     C 2316   3.858   3.338   9.828  0.9892  0.3599  0.4007
  149MPD2    C1 2317   3.852   3.233   9.912  0.7125 -0.1235  0.0805
  149MPD2    C2 2318   3.780   3.118   9.876 -0.4450  0.3869 -0.1912
  149MPD2    C3 2319   3.737   3.101   9.743  0.2935  0.0407  0.3683
  149MPD2    C4 2320   3.737   3.211   9.660 -0.1599  0.4695  0.2632
  149MPD2    C5 2321   3.799   3.326   9.702  0.2151 -0.0625 -0.0792
  149MPD2     H 2322   3.769   3.032   9.940 -2.8420  1.3859  0.7115
  149MPD2    H1 2323   3.694   3.213   9.560 -1.6949 -1.4650  0.8838
  149MPD2    H2 2324   3.912   3.428   9.854  0.5654  0.6492  0.2856
  149MPD2    H3 2325   3.812   3.399   9.623 -0.8401  0.1885 -0.0234
  149MPD2     N 2326   3.685   2.980   9.688 -0.9385  0.4319  1.2020
  149MPD2    H5 2327   3.650   3.002   9.595 -0.7631 -0.8124  0.8495
  149MPD2    N1 2328   3.915   3.231  10.040  0.2745  0.3855 -0.2190
  149MPD2    H7 2329   3.893   3.156  10.104 -0.7305  0.5988 -0.3177
  150TMC2    C1 2330   1.511   2.245  12.289  0.1073 -0.2471  0.1163
  150TMC2    C2 2331   1.477   2.376  12.276  0.5636  0.4523 -0.4244
  150TMC2    C3 2332   1.564   2.464  12.217 -0.6940  0.1513 -0.5256
  150TMC2    C4 2333   1.641   2.200  12.269  0.3652 -0.3255 -0.1317
  150TMC2    C5 2334   1.726   2.297  12.223  0.4309 -0.5193  1.0450
  150TMC2    C6 2335   1.691   2.429  12.188  0.1085  0.4643 -0.0364
  150TMC2     C 2336   1.437   2.163  12.383 -0.1343 -0.0530  0.1370
  150TMC2     O 2337   1.503   2.089  12.455  0.1614 -0.1840  0.0815
  150TMC2     H 2338   1.378   2.421  12.284 -0.2517 -1.1019 -1.7953
  150TMC2    H1 2339   1.684   2.102  12.287  1.0554  0.0447  0.1848
  150TMC2    H2 2340   1.760   2.509  12.163  1.1279 -0.0417  1.1624
  150TMC2    C7 2341   1.867   2.268  12.208  0.4032 -0.2545  0.0231
  150TMC2    C8 2342   1.543   2.599  12.243  0.8282 -0.0335  0.5606
  150TMC2    O1 2343   1.931   2.343  12.133 -0.3745  0.2825  0.0317
  150TMC2    O2 2344   1.586   2.682  12.165 -0.0175 -0.6084 -0.2177
  150TMC2    O5 2345   1.505   2.624  12.369 -0.2955 -0.8460 -0.1998
  150TMC2    H5 2346   1.534   2.540  12.412  0.0356 -0.3706  0.5084
  151MPD2     C 2347   0.966   2.031  12.556 -0.5781 -0.0794  0.1820
  151MPD2    C1 2348   0.950   2.111  12.450 -0.0569  0.3096 -0.1561
  151MPD2    C2 2349   1.065   2.161  12.394 -0.3411  0.2395  0.0077
  151MPD2    C3 2350   1.188   2.123  12.441  0.3288  0.3929  0.3352
  151MPD2    C4 2351   1.204   2.034  12.546 -0.4277 -0.0416 -0.0904
  151MPD2    C5 2352   1.089   1.994  12.601  0.1641 -0.3615  0.2124
  151MPD2     H 2353   1.058   2.223  12.305 -1.1222  0.8665  0.5034
  151MPD2    H1 2354   1.300   2.012  12.591 -0.7075 -1.6283 -0.2467
  151MPD2    H2 2355   0.878   1.997  12.609 -0.3245  1.4435  1.5488
  151MPD2    H3 2356   1.094   1.922  12.682  0.3056 -1.1224 -0.4785
  151MPD2     N 2357   1.299   2.178  12.365  0.5578 -0.4247  0.3916
  151MPD2    H5 2358   1.268   2.229  12.282 -1.6166 -1.4169  0.5801
  151MPD2    N1 2359   0.816   2.137  12.413 -0.0259 -0.2253 -0.4734
  151MPD2    H7 2360   0.741   2.107  12.474 -0.2319  2.5549  0.6578
  152TMC2    C1 2361   1.574   1.964  12.836 -0.1169  0.4352 -0.5658
  152TMC2    C2 2362   1.641   1.854  12.862 -0.6048  0.9884  0.1910
  152TMC2    C3 2363   1.768   1.840  12.824  0.5642 -0.3229 -0.0472
  152TMC2    C4 2364   1.639   2.067  12.774 -0.3901 -0.0073 -0.2088
  152TMC2    C5 2365   1.767   2.051  12.734 -0.2544  0.3546 -0.5240
  152TMC2    C6 2366   1.840   1.940  12.765  0.0629  0.8350  0.1081
  152TMC2     C 2367   1.440   1.986  12.881  0.6065 -0.2050 -0.5774
  152TMC2     O 2368   1.410   2.104  12.885 -0.6990  0.1909  0.3598
  152TMC2     H 2369   1.596   1.779  12.926  0.6132 -0.4519 -0.6345
  152TMC2    H1 2370   1.590   2.162  12.759  1.7902  1.1467  0.0280
  152TMC2    H2 2371   1.932   1.918  12.714 -0.5272 -1.4504  0.0197
  152TMC2    C7 2372   1.832   2.157  12.661  0.8545  0.1695  0.0343
  152TMC2    C8 2373   1.836   1.721  12.858 -0.4524 -0.1364 -0.5013
  152TMC2    O1 2374   1.772   2.220  12.576 -0.0204 -0.0605 -0.5217
  152TMC2    O2 2375   1.773   1.619  12.879 -0.3483  0.5308 -0.8118
  152TMC2    O5 2376   1.966   1.730  12.875  0.3210  0.0760  0.5133
  152TMC2    H5 2377   2.019   1.811  12.857 -0.4828  0.1688 -1.4946
  153MPD2     C 2378   1.169   1.746  12.947  0.3767 -0.3770 -0.8915
  153MPD2    C1 2379   1.230   1.868  12.943 -0.3953  0.2159  0.5672
  153MPD2    C2 2380   1.152   1.981  12.941  0.5278  0.6497 -0.1317
  153MPD2    C3 2381   1.013   1.973  12.942  0.4510 -0.9736  0.6404
  153MPD2    C4 2382   0.954   1.846  12.952 -1.0757 -0.3742 -0.2849
  153MPD2    C5 2383   1.032   1.735  12.950  0.2705  0.0977  0.7690
  153MPD2     H 2384   1.194   2.080  12.927  1.2358  0.7729  2.8821
  153MPD2    H1 2385   0.847   1.844  12.969 -1.1344  0.4174 -0.5350
  153MPD2    H2 2386   1.226   1.655  12.937  0.7184 -0.3524  0.8081
  153MPD2    H3 2387   0.980   1.641  12.957  1.7678 -0.7884 -0.0773
  153MPD2     N 2388   0.942   2.091  12.932 -0.6683 -0.0510 -0.2115
  153MPD2    H5 2389   0.999   2.174  12.921 -2.9037  1.4966 -0.1930
  153MPD2    N1 2390   1.377   1.873  12.919  0.0768 -0.1644  0.2804
  153MPD2    H7 2391   1.422   1.784  12.904 -0.5881 -0.6732  1.2592
  154TMC2    C1 2392   3.144   2.467   0.685 -0.0448  0.3596 -0.4541
  154TMC2    C2 2393   3.116   2.563   0.587 -0.3760  0.1411 -0.1474
  154TMC2    C3 2394   3.127   2.522   0.455 -0.0234 -0.6698 -0.0378
  154TMC2    C4 2395   3.173   2.344   0.644  0.0574 -0.2367 -0.2662
  154TMC2    C5 2396   3.169   2.298   0.512 -0.1449  0.6480 -0.5452
  154TMC2    C6 2397   3.146   2.389   0.416  0.3273  0.0537  0.2439
  154TMC2     C 2398   3.114   2.498   0.826  0.0582 -0.7646  0.0470
  154TMC2     O 2399   3.169   2.429   0.912  0.0420  0.2256  0.3052
  154TMC2     H 2400   3.089   2.666   0.606 -3.2961 -1.0806  2.3407
  154TMC2    H1 2401   3.176   2.275   0.727 -0.0621 -0.5888 -0.5494
  154TMC2    H2 2402   3.145   2.368   0.310 -1.5357  0.1487  0.2367
  154TMC2    C7 2403   3.160   2.160   0.480  0.1867 -0.7795  0.7084
  154TMC2    C8 2404   3.065   2.612   0.364  0.2594  0.1477  0.7215
  154TMC2    O1 2405   3.127   2.144   0.361  0.5209 -0.1850  0.1877
  154TMC2    O2 2406   3.094   2.732   0.363 -0.8534  0.1828  0.0992
  154TMC2    O5 2407   2.990   2.542   0.281  0.1800  0.3810  0.2117
  154TMC2    H5 2408   2.978   2.455   0.323  0.5771 -0.5629 -1.6448
  155MPD2     C 2409   2.885   2.753   0.956  0.4738 -0.5292  0.2147
  155MPD2    C1 2410   2.978   2.654   0.963  0.5417 -0.6035 -0.3801
  155MPD2    C2 2411   3.024   2.621   1.086  0.1628  0.2521 -1.0661
  155MPD2    C3 2412   2.970   2.667   1.202  0.8287  0.2307 -0.4259
  155MPD2    C4 2413   2.857   2.749   1.187  0.0522 -0.0280  0.2804
  155MPD2    C5 2414   2.819   2.799   1.063 -0.2700  0.0294  0.3709
  155MPD2     H 2415   3.101   2.544   1.084  0.1271  0.1954  0.2878
  155MPD2    H1 2416   2.798   2.772   1.275 -1.1161 -0.4968 -0.3913
  155MPD2    H2 2417   2.843   2.794   0.864  2.3610 -2.1077 -1.3672
  155MPD2    H3 2418   2.740   2.872   1.053  0.7101  0.8428 -1.4696
  155MPD2     N 2419   3.004   2.620   1.329  0.6628  0.2842 -0.8485
  155MPD2    H5 2420   3.065   2.539   1.336  0.6177  0.3439  0.2657
  155MPD2    N1 2421   3.023   2.604   0.840  1.3806  0.4556 -0.4837
  155MPD2    H7 2422   2.979   2.646   0.758 -2.3563 -0.4952  1.0273
  156TMC2    C1 2423   2.047   4.432  12.203  0.2755  0.2241  0.6575
  156TMC2    C2 2424   2.035   4.304  12.227  0.6470 -0.1092 -0.3142
  156TMC2    C3 2425   2.006   4.223  12.118  0.7079  0.6644 -0.1550
  156TMC2    C4 2426   2.025   4.491  12.082 -0.1421 -0.2416 -0.4420
  156TMC2    C5 2427   1.983   4.412  11.975 -0.8073  0.3828  0.4319
  156TMC2    C6 2428   1.980   4.276  11.998  0.3470  0.1853 -0.1300
  156TMC2     C 2429   1.990   4.509  12.307  0.1868  0.2910  1.7410
  156TMC2     O 2430   1.897   4.581  12.269  0.0789 -0.7181  0.4469
  156TMC2     H 2431   2.030   4.253  12.322 -0.2871  2.4497  1.0104
  156TMC2    H1 2432   2.038   4.597  12.069  0.1333 -0.0664  1.2445
  156TMC2    H2 2433   1.945   4.207  11.922 -0.2169  1.0067 -0.6167
  156TMC2    C7 2434   1.933   4.477  11.856  0.4385 -0.3142 -0.6302
  156TMC2    C8 2435   1.977   4.088  12.149  0.3647  0.9270  0.4907
  156TMC2    O1 2436   1.915   4.598  11.859 -0.0678  0.2378 -0.0698
  156TMC2    O2 2437   1.949   4.038  12.258 -0.2433  0.3600 -0.3761
  156TMC2    O5 2438   2.022   4.024  12.043  0.2287  0.1128 -0.1119
  156TMC2    H5 2439   2.073   4.076  11.978 -1.5319  1.2525 -0.5746
  157MPD2     C 2440   2.041   4.512  12.680 -0.0082  0.2109 -0.2142
  157MPD2    C1 2441   1.980   4.542  12.557 -0.0871  0.1007  0.4380
  157MPD2    C2 2442   1.884   4.636  12.555 -0.1783 -0.8556 -0.1249
  157MPD2    C3 2443   1.831   4.688  12.671 -0.3239 -0.3195  0.2617
  157MPD2    C4 2444   1.878   4.646  12.793 -0.4793  0.4502 -0.3268
  157MPD2    C5 2445   1.985   4.559  12.797  0.0819 -0.1296 -0.1943
  157MPD2     H 2446   1.822   4.653  12.468 -0.3088  1.7263  0.4903
  157MPD2    H1 2447   1.833   4.668  12.889  0.9972  0.5048  0.3630
  157MPD2    H2 2448   2.136   4.459  12.678 -0.0620  0.1528 -1.1443
  157MPD2    H3 2449   2.026   4.523  12.890  0.5144  2.6996  0.7037
  157MPD2     N 2450   1.741   0.053  12.662 -0.1329 -0.3820  0.2135
  157MPD2    H5 2451   1.722   0.072  12.564  1.0954 -0.1958  0.0146
  157MPD2    N1 2452   2.033   4.483  12.432  0.0266 -0.3728  0.2381
  157MPD2    H7 2453   2.093   4.403  12.449 -1.1173 -1.2525  0.1813
  158TMC2    C1 2454   1.985   3.136  13.213  0.5911 -0.1881  0.6306
  158TMC2    C2 2455   1.953   3.115  13.086 -0.4708  0.5171  0.4687
  158TMC2    C3 2456   1.833   3.160  13.042 -0.1175 -0.4442  0.3435
  158TMC2    C4 2457   1.903   3.209  13.293  0.4446 -0.3390  0.2734
  158TMC2    C5 2458   1.785   3.264  13.249 -0.0633  0.2787  0.2200
  158TMC2    C6 2459   1.747   3.237  13.115  0.1567  0.7719 -0.2000
  158TMC2     C 2460   2.127   3.099  13.245 -0.2944 -0.1216  0.2470
  158TMC2     O 2461   2.205   3.066  13.157 -0.2275 -0.1910 -0.2928
  158TMC2     H 2462   2.023   3.064  13.021  0.8219  0.3027  2.0319
  158TMC2    H1 2463   1.930   3.236  13.394  2.2997 -1.1626 -0.0137
  158TMC2    H2 2464   1.650   3.271  13.080  1.3731  1.8204 -2.5442
  158TMC2    C7 2465   1.673   3.295  13.341 -0.0470 -0.2063  0.0083
  158TMC2    C8 2466   1.810   3.138  12.899  0.6910  0.5254  0.0584
  158TMC2    O1 2467   1.589   3.372  13.296  0.3922  0.1813 -0.0842
  158TMC2    O2 2468   1.903   3.132  12.819  0.2165 -0.3902 -0.0333
  158TMC2    O5 2469   1.682   3.102  12.874 -0.5176  0.4786 -0.4428
  158TMC2    H5 2470   1.624   3.102  12.953 -0.9086  0.0152 -0.7254
  159MPD2     C 2471   2.508   3.081  13.590 -0.2028  0.1088  0.7116
  159MPD2    C1 2472   2.394   3.067  13.666  0.4378  0.3234  0.2743
  159MPD2    C2 2473   2.278   3.067  13.591  0.2004  0.1994 -0.3280
  159MPD2    C3 2474   2.273   3.079  13.452  0.3415  0.2126  0.3133
  159MPD2    C4 2475   2.393   3.095  13.384 -0.1409 -0.2111  0.3797
  159MPD2    C5 2476   2.509   3.088  13.454  0.0397  0.2668  0.0636
  159MPD2     H 2477   2.177   3.060  13.631  0.7655  0.5748  1.1731
  159MPD2    H1 2478   2.395   3.107  13.276  2.2161  0.7119  0.5383
  159MPD2    H2 2479   2.604   3.091  13.640 -0.0957 -3.4977  1.2133
  159MPD2    H3 2480   2.607   3.102  13.408 -0.6923 -1.0786 -1.9097
  159MPD2     N 2481   2.149   3.091  13.383 -0.8931 -0.8537 -0.2464
  159MPD2    H5 2482   2.064   3.100  13.438 -1.3457 -1.9155 -0.7604
  159MPD2    N1 2483   2.411   3.053  13.806  0.4058 -0.4456 -0.3510
  159MPD2    H7 2484   2.505   3.055  13.845  0.0330 -1.4340  0.5880
  160TMC2    C1 2485   2.552   2.839   0.302 -0.1066 -1.0403  0.7325
  160TMC2    C2 2486   2.635   2.950   0.289 -0.0614  0.4027 -0.0260
  160TMC2    C3 2487   2.759   2.950   0.351 -0.3552 -0.5692  0.0981
  160TMC2    C4 2488   2.580   2.728   0.379 -0.0945 -0.3790 -0.2862
  160TMC2    C5 2489   2.709   2.731   0.436  0.3096  0.6268 -0.0220
  160TMC2    C6 2490   2.789   2.844   0.433 -0.3202  0.7206  0.4139
  160TMC2     C 2491   2.419   2.888   0.279 -0.4304 -0.1377  0.4633
  160TMC2     O 2492   2.408   2.969   0.187  0.3952  0.2573 -0.3151
  160TMC2     H 2493   2.604   3.036   0.231  0.8831  0.0376 -1.0869
  160TMC2    H1 2494   2.504   2.653   0.400 -1.8434  0.8335 -2.3084
  160TMC2    H2 2495   2.886   2.852   0.480 -0.3436  1.9825  0.2369
  160TMC2    C7 2496   2.747   2.632   0.536  0.8636 -0.6730 -0.0017
  160TMC2    C8 2497   2.828   3.075   0.378  0.7988  0.5143 -0.0370
  160TMC2    O1 2498   2.826   2.671   0.622 -0.4701 -0.4297 -0.0712
  160TMC2    O2 2499   2.952   3.080   0.374 -0.0281  0.5355 -0.1511
  160TMC2    O5 2500   2.762   3.130   0.475  0.2547  0.3049 -0.6811
  160TMC2    H5 2501   2.665   3.122   0.468  0.2058 -0.4105  0.7378
  161MPD2     C 2502   2.134   2.985   0.295 -0.0638  0.1872  0.2835
  161MPD2    C1 2503   2.188   2.881   0.366 -0.5917 -0.8535 -0.3509
  161MPD2    C2 2504   2.095   2.803   0.442  0.6791  0.0013  0.6129
  161MPD2    C3 2505   1.962   2.839   0.458  0.1752  0.3389  0.9650
  161MPD2    C4 2506   1.916   2.946   0.388  0.2200 -0.4127  0.0422
  161MPD2    C5 2507   1.997   3.019   0.304  0.2537  0.0003  0.4807
  161MPD2     H 2508   2.124   2.707   0.484  0.4906 -0.0179  0.7025
  161MPD2    H1 2509   1.814   2.983   0.390 -0.8548 -3.4749  2.7467
  161MPD2    H2 2510   2.195   3.041   0.226  0.1247  1.1066  1.1980
  161MPD2    H3 2511   1.953   3.106   0.258  1.4741  0.4792  0.2269
  161MPD2     N 2512   1.866   2.757   0.518  0.3285  0.3291 -0.2251
  161MPD2    H5 2513   1.771   2.793   0.513  0.8750  1.8170  0.1810
  161MPD2    N1 2514   2.324   2.842   0.366 -0.2629 -0.0575 -0.0517
  161MPD2    H7 2515   2.356   2.773   0.434  1.1882  0.3597 -0.2981
  162TMC2    C1 2516   4.517   2.997   1.135 -0.0379 -0.3247 -1.0054
  162TMC2    C2 2517   4.386   2.984   1.182  0.2999 -0.4366  0.4507
  162TMC2    C3 2518   4.370   3.038   1.310  0.1391 -0.4037  0.0242
  162TMC2    C4 2519   4.620   3.030   1.218 -0.1340  0.0673 -0.4904
  162TMC2    C5 2520   4.593   3.068   1.347 -0.1547  0.2705  0.2218
  162TMC2    C6 2521   4.469   3.084   1.396  0.1929  0.1364  0.1585
  162TMC2     C 2522   4.547   2.992   0.994 -0.1761  0.0845  0.3544
  162TMC2     O 2523   4.654   2.939   0.957 -0.2877 -0.1774 -0.3871
  162TMC2     H 2524   4.306   2.940   1.123  1.1399  0.9696 -1.7728
  162TMC2    H1 2525   4.721   3.023   1.180 -0.1966 -1.4086 -0.3798
  162TMC2    H2 2526   4.445   3.107   1.499 -1.2464  1.3937 -0.4427
  162TMC2    C7 2527   4.696   3.124   1.440  0.1109  0.5480  0.9190
  162TMC2    C8 2528   4.230   3.049   1.347  0.0749  0.5840 -0.1959
  162TMC2    O1 2529   4.654   3.190   1.534 -0.4624 -0.1567  0.0403
  162TMC2    O2 2530   4.138   3.040   1.268  0.7113  0.0821 -0.1746
  162TMC2    O5 2531   4.229   2.975   1.466 -0.7118 -0.0291  0.4745
  162TMC2    H5 2532   4.318   2.933   1.470 -1.2636 -1.0756  1.5893
  163MPD2     C 2533   4.395   3.008   0.497 -0.2865  0.8795 -0.5312
  163MPD2    C1 2534   4.516   2.973   0.553  0.1691 -0.1797 -0.4595
  163MPD2    C2 2535   4.540   2.984   0.687 -0.1833  0.1637  0.4686
  163MPD2    C3 2536   4.437   3.023   0.772  0.4487  0.7898 -1.2956
  163MPD2    C4 2537   4.316   3.065   0.717  0.1380  0.4332 -0.3474
  163MPD2    C5 2538   4.299   3.054   0.582  0.5657 -0.3913 -0.1050
  163MPD2     H 2539   4.639   2.957   0.722 -0.5817 -1.2857  0.5190
  163MPD2    H1 2540   4.230   3.102   0.771 -1.7353 -1.4743 -2.0389
  163MPD2    H2 2541   4.385   3.012   0.389 -0.5059  2.5929 -0.4473
  163MPD2    H3 2542   4.206   3.090   0.539  0.8011 -3.1159 -2.8845
  163MPD2     N 2543   4.441   3.027   0.915  0.5692 -0.4701  0.0200
  163MPD2    H5 2544   4.360   3.061   0.967  0.3757 -0.8707 -0.0211
  163MPD2    N1 2545   4.616   2.933   0.458 -0.4179 -0.4969  0.7413
  163MPD2    H7 2546   4.581   2.920   0.364  0.0161 -2.2769  0.8122
  164TMC2    C1 2547   0.072   2.686  10.696 -0.1820  0.2771  0.5772
  164TMC2    C2 2548   0.190   2.748  10.686 -0.2869  0.1386  0.3612
  164TMC2    C3 2549   0.197   2.872  10.724 -0.5594  0.2868 -0.2202
  164TMC2    C4 2550   4.701   2.747  10.756  0.2998  0.1530 -0.8991
  164TMC2    C5 2551   4.714   2.876  10.797 -0.5716 -0.7217 -0.4167
  164TMC2    C6 2552   0.092   2.945  10.776 -0.7403  0.6643 -0.7734
  164TMC2     C 2553   0.050   2.571  10.621 -0.4573  1.0689 -1.0150
  164TMC2     O 2554   4.677   2.525  10.631 -0.2347  0.0014 -0.2386
  164TMC2     H 2555   0.281   2.704  10.645  0.2747  1.3898  0.2651
  164TMC2    H1 2556   4.605   2.696  10.758 -0.7131  2.1665  1.3446
  164TMC2    H2 2557   0.096   3.046  10.814 -0.0827  0.8648 -1.3777
  164TMC2    C7 2558   4.617   2.947  10.873 -0.2277 -0.7423  0.1615
  164TMC2    C8 2559   0.317   2.947  10.686 -0.2874 -0.0241  0.9310
  164TMC2    O1 2560   4.617   3.067  10.875 -0.1068 -0.9495 -0.0614
  164TMC2    O2 2561   0.403   2.906  10.609  0.2406 -0.5298  0.2361
  164TMC2    O5 2562   0.342   3.015  10.801  0.0666 -0.6031  0.8268
  164TMC2    H5 2563   0.275   3.028  10.871 -1.7742 -2.7488 -0.5432
  165TMC2    C1 2564   1.925   0.362   0.899 -0.2927 -0.9400 -0.2274
  165TMC2    C2 2565   1.954   0.250   0.820 -0.1524 -0.3089  0.8135
  165TMC2    C3 2566   2.087   0.229   0.787 -0.1147  0.0985  0.1355
  165TMC2    C4 2567   2.020   0.449   0.944 -0.3409 -0.4847  0.1051
  165TMC2    C5 2568   2.148   0.417   0.906 -0.0435  0.3976  0.5901
  165TMC2    C6 2569   2.185   0.311   0.829 -0.0787  0.3346  0.1999
  165TMC2     C 2570   1.782   0.379   0.941 -0.1051 -0.4071  0.1051
  165TMC2     O 2571   1.709   0.299   0.886  0.2324  0.9189  0.0045
  165TMC2     H 2572   1.878   0.180   0.789  0.5962 -0.7274 -0.0495
  165TMC2    H1 2573   1.994   0.542   0.992  0.9544 -0.6539  1.1580
  165TMC2    H2 2574   2.283   0.292   0.786  0.5061  2.9507  0.3829
  165TMC2    C7 2575   2.256   0.510   0.935  0.1989 -0.2014 -0.3201
  165TMC2    C8 2576   2.124   0.145   0.675 -0.1035 -1.0473 -1.0691
  165TMC2    O1 2577   2.356   0.498   0.865 -0.2892 -0.2955 -0.2997
  165TMC2    O2 2578   2.239   0.113   0.657 -0.0454 -0.4284  0.1568
  165TMC2    O5 2579   2.019   0.098   0.600  0.0747 -0.3786 -1.3415
  165TMC2    H5 2580   1.954   0.171   0.595  2.7744  2.1810  1.5165
  166MPD2     C 2581   1.409   0.602   1.190  0.4986 -1.0094  0.1766
  166MPD2    C1 2582   1.406   0.522   1.086 -0.3425  0.0103  1.0085
  166MPD2    C2 2583   1.518   0.467   1.039 -0.8210  0.2932 -0.5542
  166MPD2    C3 2584   1.644   0.502   1.092  0.1290  0.2357 -0.4238
  166MPD2    C4 2585   1.644   0.595   1.198 -0.2051  0.5146  0.8378
  166MPD2    C5 2586   1.526   0.630   1.256  0.6870 -0.0355 -0.3808
  166MPD2     H 2587   1.516   0.403   0.952  0.3325  3.4200 -2.8890
  166MPD2    H1 2588   1.735   0.624   1.250  0.0670  1.6743 -0.2650
  166MPD2    H2 2589   1.316   0.635   1.235 -0.6280 -0.8289 -2.3087
  166MPD2    H3 2590   1.529   0.696   1.342  0.4647  0.5185 -0.8003
  166MPD2     N 2591   1.767   0.456   1.054  0.0311  0.3716  0.2280
  166MPD2    H5 2592   1.850   0.497   1.096  0.0086  1.6089 -0.9465
  166MPD2    N1 2593   1.277   0.515   1.019  0.2276 -0.0809  0.5697
  166MPD2    H7 2594   1.210   0.580   1.059  0.6097  0.1676  0.8082
  167TMC2    C1 2595   4.676   3.045  12.897  0.8133  0.0933 -0.1049
  167TMC2    C2 2596   4.666   3.072  13.029  0.3059 -0.5444 -0.4597
  167TMC2    C3 2597   4.602   2.989  13.106 -0.2260  0.2958 -0.1388
  167TMC2    C4 2598   4.639   2.927  12.840  0.0445 -0.4176  0.6233
  167TMC2    C5 2599   4.580   2.843  12.927  0.3627 -0.7984  0.5509
  167TMC2    C6 2600   4.546   2.877  13.060 -0.0080  0.1393  0.2070
  167TMC2     C 2601   0.044   3.119  12.832  0.3878 -0.0508 -0.4041
  167TMC2     O 2602   0.132   3.175  12.896  0.0187  0.3193 -0.5008
  167TMC2     H 2603   4.711   3.159  13.077  1.1627 -1.0194 -0.3898
  167TMC2    H1 2604   4.667   2.889  12.743  1.2462 -0.5603  1.0301
  167TMC2    H2 2605   4.501   2.816  13.138  0.1833 -0.8024 -0.4125
  167TMC2    C7 2606   4.553   2.703  12.901  0.4583 -0.4075 -0.0648
  167TMC2    C8 2607   4.605   3.005  13.247  0.2116  0.3204 -0.4370
  167TMC2    O1 2608   4.536   2.622  12.990 -0.3251  0.2598 -0.4077
  167TMC2    O2 2609   4.717   3.033  13.290  1.0474  0.0528  0.0440
  167TMC2    O5 2610   4.486   3.033  13.282 -0.1598 -0.4228 -0.0942
  167TMC2    H5 2611   4.418   3.033  13.211  2.2158  1.3653 -2.3576
  168MPD2     C 2612   0.233   3.204  12.614 -0.2028  0.3662 -0.9199
  168MPD2    C1 2613   0.118   3.134  12.597  0.0012 -0.7865 -0.2314
  168MPD2    C2 2614   0.085   3.102  12.467  0.1043  0.4378 -0.7007
  168MPD2    C3 2615   0.159   3.147  12.355  0.9517  0.0872  0.0177
  168MPD2    C4 2616   0.275   3.220  12.379 -0.6545  0.1657  0.4751
  168MPD2    C5 2617   0.307   3.244  12.509 -0.8779  0.1260 -0.1290
  168MPD2     H 2618   4.727   3.050  12.456 -0.4644  0.6590  3.0402
  168MPD2    H1 2619   0.335   3.265  12.301  1.1459 -0.6501  1.4168
  168MPD2    H2 2620   0.262   3.234  12.714 -1.1873  1.7020 -1.0247
  168MPD2    H3 2621   0.391   3.309  12.530  0.8994 -1.6841 -1.6795
  168MPD2     N 2622   0.110   3.145  12.223  0.2781 -0.0259  0.0524
  168MPD2    H5 2623   0.156   3.199  12.150 -2.8364  2.6518  0.0505
  168MPD2    N1 2624   0.029   3.097  12.697  0.4076  0.6278  0.2596
  168MPD2    H7 2625   4.684   3.041  12.675  0.9863  0.4624 -1.4725
  169MPD1     C 2626   1.109   2.445   9.536 -0.1965  0.4598 -0.5271
  169MPD1    C1 2627   1.055   2.337   9.470 -0.9800 -0.2301  0.2016
  169MPD1    C2 2628   1.142   2.233   9.438 -0.0542 -0.2357  0.5230
  169MPD1    C3 2629   1.267   2.213   9.492  0.0473 -0.5013  0.0153
  169MPD1    C4 2630   1.319   2.318   9.564 -0.7219  0.3116  0.4196
  169MPD1    C5 2631   1.235   2.430   9.585  0.3538  0.6507 -0.0075
  169MPD1     H 2632   1.097   2.149   9.386 -0.2325 -0.5067  1.1209
  169MPD1    H1 2633   1.413   2.307   9.617 -1.1441  1.6609  1.4459
  169MPD1    H2 2634   1.071   2.546   9.547 -1.0505  0.0330  0.5271
  169MPD1    H3 2635   1.277   2.507   9.649  0.0733  0.7126  0.1011
  169MPD1     N 2636   1.341   2.092   9.465  0.0918  0.2774  0.3478
  169MPD1    H5 2637   1.280   2.018   9.433  1.0702 -1.1550  1.7947
  169MPD1    N1 2638   0.932   2.348   9.402 -0.2002  0.5092  0.0788
  169MPD1    H6 2639   0.880   2.396   9.475 -0.2082  2.2494 -1.0722
  169MPD1    H7 2640   0.894   2.258   9.377 -0.3659  0.2388  1.3243
  170MPD1     C 2641   1.442   0.081  13.080  0.0234  0.0747 -0.5680
  170MPD1    C1 2642   1.459   0.179  13.179 -0.1393  0.0917  0.1311
  170MPD1    C2 2643   1.353   0.263  13.199  0.3680  0.8387 -0.6782
  170MPD1    C3 2644   1.240   0.264  13.118  0.4396  0.5658 -0.1048
  170MPD1    C4 2645   1.242   0.181  13.008 -0.6132 -0.5293 -0.0433
  170MPD1    C5 2646   1.342   0.084  12.993 -0.2394 -0.4255 -0.4767
  170MPD1     H 2647   1.362   0.336  13.279  0.2026  0.1324 -0.0192
  170MPD1    H1 2648   1.152   0.172  12.949 -0.2047  1.0968 -0.9296
  170MPD1    H2 2649   1.513   4.736  13.068 -0.6838 -0.5140 -0.7335
  170MPD1    H3 2650   1.332   0.019  12.907 -0.3446  0.0742 -0.8425
  170MPD1     N 2651   1.134   0.352  13.146 -0.2133  0.3538  0.6671
  170MPD1    H5 2652   1.136   0.401  13.235  0.2574  2.2655 -0.3930
  170MPD1    N1 2653   1.566   0.179  13.273  0.5032  0.7952  0.0692
  170MPD1    H6 2654   1.577   0.273  13.309  1.2947  0.3794  0.8947
  170MPD1    H7 2655   1.653   0.144  13.233 -0.2480 -2.5242  1.3507
  171MPD1     C 2656   3.805   1.565  15.431 -0.6212 -0.1919 -0.0515
  171MPD1    C1 2657   3.751   1.595  15.556 -0.2741 -0.3276 -0.5322
  171MPD1    C2 2658   3.799   1.517  15.663 -0.4530 -0.2017 -0.4349
  171MPD1    C3 2659   3.888   1.412  15.638 -0.2939  0.6924  0.1449
  171MPD1    C4 2660   3.939   1.392  15.510  1.0535 -0.1096  0.2526
  171MPD1    C5 2661   3.896   1.466  15.412 -0.6689 -0.4121 -0.5793
  171MPD1     H 2662   3.769   1.536  15.765 -0.6451  0.2019 -0.5682
  171MPD1    H1 2663   4.018   1.321  15.490 -0.3023 -0.8422 -2.4973
  171MPD1    H2 2664   3.775   1.617  15.341 -0.6301  2.4414  1.4800
  171MPD1    H3 2665   3.941   1.447  15.316 -0.8780 -0.3989 -0.6798
  171MPD1     N 2666   3.937   1.329  15.744  0.1914  0.3725  0.0079
  171MPD1    H5 2667   4.000   1.255  15.714 -1.3040 -1.1465  0.5857
  171MPD1    N1 2668   3.660   1.701  15.574  0.1180 -0.1488  0.0128
  171MPD1    H6 2669   3.585   1.677  15.510 -0.2885 -0.7932  0.7300
  171MPD1    H7 2670   3.610   1.706  15.662  0.7330  0.3812  0.3337
  172MPD1     C 2671   3.215   0.215  17.049  0.1647  0.2712  0.6872
  172MPD1    C1 2672   3.195   0.349  17.047 -0.3550  1.1463  0.3003
  172MPD1    C2 2673   3.208   0.432  17.153  0.0858  0.4209  0.7622
  172MPD1    C3 2674   3.228   0.381  17.278 -0.0520  0.5439  0.2828
  172MPD1    C4 2675   3.255   0.246  17.287 -0.2507 -0.6464  0.2700
  172MPD1    C5 2676   3.249   0.168  17.172 -0.2289  0.0083  0.6375
  172MPD1     H 2677   3.171   0.534  17.140 -0.3872  0.1226 -0.2363
  172MPD1    H1 2678   3.282   0.189  17.375 -0.5783  0.6939  1.2514
  172MPD1    H2 2679   3.205   0.142  16.970  4.5184  0.0125  0.3585
  172MPD1    H3 2680   3.270   0.062  17.185  0.4555 -0.0825 -1.1771
  172MPD1     N 2681   3.236   0.463  17.392  0.0524 -0.2801 -0.0372
  172MPD1    H5 2682   3.277   0.419  17.474 -0.3072 -1.6845 -0.5982
  172MPD1    N1 2683   3.180   0.408  16.919  0.1065  0.1361 -0.0600
  172MPD1    H6 2684   3.145   0.332  16.861  0.6018 -1.0620  1.2109
  172MPD1    H7 2685   3.110   0.481  16.919  0.3411  0.3460  1.3985
  173MPD1     C 2686   4.636   0.684  13.360  0.6503 -0.1294  0.9429
  173MPD1    C1 2687   0.010   0.685  13.437 -0.1072  0.2183  0.0814
  173MPD1    C2 2688   4.732   0.675  13.574 -0.0667 -0.1400  0.2609
  173MPD1    C3 2689   4.605   0.651  13.633 -0.0594  0.0697  0.5950
  173MPD1    C4 2690   4.493   0.655  13.545  0.5601  0.4443 -0.1001
  173MPD1    C5 2691   4.507   0.672  13.411  0.4297  0.8146  0.4370
  173MPD1     H 2692   0.077   0.695  13.642  1.5138 -1.6193 -1.2015
  173MPD1    H1 2693   4.393   0.637  13.582  1.0442  0.0279  1.0145
  173MPD1    H2 2694   4.651   0.703  13.254 -1.2379 -2.6445  0.2150
  173MPD1    H3 2695   4.423   0.659  13.344  0.6931  1.4809 -0.0214
  173MPD1     N 2696   4.601   0.647  13.774 -0.0404 -0.1367 -0.2095
  173MPD1    H5 2697   4.689   0.664  13.822  0.8852 -1.7340 -1.3220
  173MPD1    N1 2698   0.132   0.735  13.377 -0.6148  0.2255 -0.3097
  173MPD1    H6 2699   0.209   0.701  13.434 -1.7454 -2.1944 -0.2613
  173MPD1    H7 2700   0.146   0.716  13.277 -0.3428  2.8768 -0.7706
  174MPD1     C 2701   0.533   0.376  14.234  0.0116 -0.3721  0.1943
  174MPD1    C1 2702   0.430   0.345  14.328 -0.0194  0.8945  0.7680
  174MPD1    C2 2703   0.304   0.379  14.291 -0.1501 -0.0109  0.6442
  174MPD1    C3 2704   0.269   0.426  14.165 -0.6714  0.0312 -0.6898
  174MPD1    C4 2705   0.362   0.444  14.070  0.3715 -0.4003 -0.2020
  174MPD1    C5 2706   0.489   0.425  14.111  0.0833  0.0678 -0.2852
  174MPD1     H 2707   0.234   0.371  14.373 -2.2878 -0.5164 -1.2332
  174MPD1    H1 2708   0.339   0.479  13.970  1.2103  0.4672 -0.0872
  174MPD1    H2 2709   0.638   0.356  14.253  0.0684 -1.0406 -0.8136
  174MPD1    H3 2710   0.563   0.448  14.035 -2.0915  1.2409 -2.0483
  174MPD1     N 2711   0.135   0.461  14.136 -0.2120  0.0045 -0.0440
  174MPD1    H5 2712   0.115   0.492  14.042 -2.3003  0.4576  0.5507
  174MPD1    N1 2713   0.472   0.312  14.462  0.0861  0.1035  0.2561
  174MPD1    H6 2714   0.458   0.399  14.513  0.4249  0.5032 -0.3380
  174MPD1    H7 2715   0.568   0.280  14.461  0.0491 -0.0089  0.3925
  175MPD1     C 2716   3.585   1.235  15.783 -0.8981  0.3907  0.4476
  175MPD1    C1 2717   3.477   1.274  15.714  0.3759 -0.1151  0.3301
  175MPD1    C2 2718   3.355   1.291  15.779 -1.0909  0.3767  0.0284
  175MPD1    C3 2719   3.352   1.282  15.919 -0.0465 -0.9421  0.3686
  175MPD1    C4 2720   3.470   1.249  15.991 -0.3515  0.4215  0.2061
  175MPD1    C5 2721   3.585   1.225  15.920 -0.1337  0.1788 -0.5849
  175MPD1     H 2722   3.264   1.309  15.722  0.3751 -0.8471 -2.6991
  175MPD1    H1 2723   3.461   1.227  16.096 -1.1650 -0.2061  0.0038
  175MPD1    H2 2724   3.677   1.217  15.728 -0.8714  1.7222  0.0616
  175MPD1    H3 2725   3.673   1.189  15.973  0.4225  1.1515 -0.8501
  175MPD1     N 2726   3.228   1.299  15.993 -0.5692  0.5669  0.0534
  175MPD1    H5 2727   3.235   1.302  16.094  0.1136  1.5128 -0.0186
  175MPD1    N1 2728   3.490   1.270  15.576 -0.7046 -0.3817  0.3620
  175MPD1    H6 2729   3.584   1.300  15.555 -0.1057 -3.3117 -1.1658
  175MPD1    H7 2730   3.423   1.319  15.517  0.7418 -1.4706 -2.1807
  176MPD1     C 2731   4.169   3.495  17.375 -0.6151  0.1220 -0.1484
  176MPD1    C1 2732   4.258   3.483  17.277 -0.5636  0.2132  0.7267
  176MPD1    C2 2733   4.393   3.516  17.308 -0.0930 -0.4170  0.3751
  176MPD1    C3 2734   4.433   3.535  17.440  0.0094 -0.0503 -0.0409
  176MPD1    C4 2735   4.337   3.551  17.538 -0.7972  0.5805  0.8792
  176MPD1    C5 2736   4.210   3.525  17.503 -0.5715 -0.1154 -0.1235
  176MPD1     H 2737   4.465   3.507  17.227 -3.1386  0.3092 -2.3844
  176MPD1    H1 2738   4.353   3.576  17.643 -0.6570  1.2288  0.7018
  176MPD1    H2 2739   4.065   3.477  17.349 -0.9419  0.6958  0.7806
  176MPD1    H3 2740   4.130   3.528  17.576  1.7173  0.2709  2.3648
  176MPD1     N 2741   4.571   3.552  17.459  0.2538  0.1968  0.0442
  176MPD1    H5 2742   4.625   3.502  17.389  0.7135  0.7438  0.0067
  176MPD1    N1 2743   4.211   3.475  17.142  0.0608  0.0653  0.3870
  176MPD1    H6 2744   4.127   3.420  17.127  0.1471 -0.2652  1.1257
  176MPD1    H7 2745   4.281   3.453  17.070 -1.8868  2.4687 -2.2411
  177MPD1     C 2746   3.058   3.286   9.848  0.5314 -0.2579 -0.1990
  177MPD1    C1 2747   2.922   3.258   9.866 -0.6472  0.2857 -0.7516
  177MPD1    C2 2748   2.836   3.320   9.776  0.2235  0.3479 -0.1970
  177MPD1    C3 2749   2.872   3.407   9.679  0.7460 -0.0075 -0.5973
  177MPD1    C4 2750   3.007   3.434   9.675 -1.1341 -0.2724 -0.5163
  177MPD1    C5 2751   3.095   3.377   9.757  0.0363  0.2349 -0.7050
  177MPD1     H 2752   2.730   3.299   9.777  0.2058  0.4526  0.5205
  177MPD1    H1 2753   3.053   3.499   9.601  0.2532 -3.0366 -2.0770
  177MPD1    H2 2754   3.129   3.231   9.909  2.5198  0.3675 -1.9613
  177MPD1    H3 2755   3.200   3.399   9.747  0.1531 -0.0178 -0.0115
  177MPD1     N 2756   2.771   3.460   9.596 -0.0235  0.1981  0.2698
  177MPD1    H5 2757   2.672   3.435   9.599  0.6436 -2.6973 -1.2363
  177MPD1    N1 2758   2.877   3.149   9.941 -0.2330  0.0930 -0.3520
  177MPD1    H6 2759   2.778   3.159   9.960  0.0945 -0.4329  1.7216
  177MPD1    H7 2760   2.935   3.131  10.024  1.8584  1.9693 -1.4098
  178MPD1     C 2761   0.700   4.187   0.353  0.0334 -0.5884  0.0301
  178MPD1    C1 2762   0.668   4.075   0.277 -0.0833  0.8303  0.3595
  178MPD1    C2 2763   0.675   4.088   0.143 -0.4600 -0.2873  0.4459
  178MPD1    C3 2764   0.729   4.204   0.087  0.9933  0.0126 -0.1949
  178MPD1    C4 2765   0.748   4.313   0.164 -1.0926  0.1808 -0.4718
  178MPD1    C5 2766   0.729   4.304   0.298 -0.5434  0.3504  0.1109
  178MPD1     H 2767   0.662   4.001   0.079  0.4963 -0.4669  0.4962
  178MPD1    H1 2768   0.781   4.412   0.132 -0.4053 -0.1077 -0.6529
  178MPD1    H2 2769   0.681   4.195   0.460  2.1343 -0.1945  0.3827
  178MPD1    H3 2770   0.746   4.400   0.347  1.4696  1.0052 -1.9017
  178MPD1     N 2771   0.758   4.216  17.694  0.0430  0.1714  0.1511
  178MPD1    H5 2772   0.805   4.298  17.657  1.1907 -0.8435 -0.6514
  178MPD1    N1 2773   0.619   3.958   0.327 -0.2508  0.1349 -0.1604
  178MPD1    H6 2774   0.654   3.953   0.422 -0.2577 -0.1493 -0.1754
  178MPD1    H7 2775   0.641   3.877   0.271 -2.1650  0.1522 -0.9549
  179MPD1     C 2776   0.043   2.797  15.481 -0.6959  0.4307 -0.1927
  179MPD1    C1 2777   0.001   2.698  15.395  0.2060 -0.3482  0.3748
  179MPD1    C2 2778   0.011   2.564  15.446  0.0448 -0.3804  0.8377
  179MPD1    C3 2779   0.063   2.534  15.570  1.0288 -0.7385 -0.1343
  179MPD1    C4 2780   0.107   2.632  15.651  0.0277 -0.3291 -0.2506
  179MPD1    C5 2781   0.090   2.762  15.605 -0.2921 -0.0036  0.1262
  179MPD1     H 2782   4.723   2.483  15.378 -0.2151 -1.0961  1.7800
  179MPD1    H1 2783   0.148   2.620  15.751 -0.7605 -1.0322 -0.0079
  179MPD1    H2 2784   0.023   2.902  15.459  0.7336  0.6316 -0.4902
  179MPD1    H3 2785   0.120   2.840  15.674 -3.8066  1.8421 -0.4662
  179MPD1     N 2786   0.057   2.401  15.625  0.0233 -0.4098 -0.0035
  179MPD1    H5 2787   0.106   2.379  15.711 -1.8194  0.7109  1.3300
  179MPD1    N1 2788   4.672   2.731  15.278 -0.6114 -0.4128 -0.4372
  179MPD1    H6 2789   4.676   2.830  15.257  1.9725 -0.8862 -2.1035
  179MPD1    H7 2790   4.700   2.672  15.199 -0.6392 -0.2676 -0.5552
  180MPD1     C 2791   4.441   3.612  14.884  0.1856  0.5973 -0.2934
  180MPD1    C1 2792   4.333   3.681  14.838  0.2594 -0.3227 -0.2188
  180MPD1    C2 2793   4.345   3.753  14.720  0.5868  0.1526 -0.4195
  180MPD1    C3 2794   4.471   3.772  14.662 -0.6483 -0.3619 -0.7253
  180MPD1    C4 2795   4.586   3.720  14.723  0.6034  0.1006  0.1849
  180MPD1    C5 2796   4.565   3.638  14.830 -0.6509 -0.0316 -0.9666
  180MPD1     H 2797   4.259   3.794  14.668  0.5965  0.3447 -0.2835
  180MPD1    H1 2798   4.687   3.746  14.695  0.8646  0.4300  1.3992
  180MPD1    H2 2799   4.438   3.549  14.972  0.7184  1.9403  0.6901
  180MPD1    H3 2800   4.647   3.583  14.875 -1.0589  0.0531 -0.1168
  180MPD1     N 2801   4.477   3.843  14.540 -0.4135 -0.3197  0.3500
  180MPD1    H5 2802   4.385   3.869  14.506  0.2756 -0.7014 -1.8065
  180MPD1    N1 2803   4.208   3.668  14.888  0.1286 -0.3961  0.3108
  180MPD1    H6 2804   4.207   3.638  14.985 -0.5638 -0.2792  0.3420
  180MPD1    H7 2805   4.179   3.585  14.836  0.6231 -0.2235 -0.2489
  181MPD1     C 2806   1.432   1.236   9.981 -1.3983 -0.0528 -0.2039
  181MPD1    C1 2807   1.496   1.135   9.911  0.1254  0.0489  0.4609
  181MPD1    C2 2808   1.632   1.142   9.905 -0.5259 -0.8230  0.0154
  181MPD1    C3 2809   1.705   1.252   9.961 -0.3019  0.2590  1.0678
  181MPD1    C4 2810   1.633   1.344  10.031 -0.1892 -0.0434  0.6963
  181MPD1    C5 2811   1.499   1.335  10.041 -0.2735 -0.5683 -0.2989
  181MPD1     H 2812   1.685   1.055   9.868 -1.7494 -0.8750 -1.5924
  181MPD1    H1 2813   1.671   1.435  10.075 -0.2479  0.3807 -0.1222
  181MPD1    H2 2814   1.325   1.234  10.000 -1.2102  0.6101  0.9551
  181MPD1    H3 2815   1.455   1.410  10.105 -1.0222 -1.0764 -0.2165
  181MPD1     N 2816   1.844   1.264   9.962 -0.4264 -0.5853 -0.0006
  181MPD1    H5 2817   1.885   1.336  10.021 -4.3126  1.3916  0.2915
  181MPD1    N1 2818   1.433   1.017   9.870  0.1592  0.5166 -0.2014
  181MPD1    H6 2819   1.336   1.029   9.843  0.1000 -1.4758 -0.8622
  181MPD1    H7 2820   1.467   0.973   9.785 -0.5422  0.5914 -0.5203
  182MPD1     C 2821   3.280   0.658   0.750  0.1266 -0.1791  0.1832
  182MPD1    C1 2822   3.215   0.703   0.638 -0.1123  0.4102  0.7090
  182MPD1    C2 2823   3.090   0.652   0.606  0.4299  0.2434  0.1553
  182MPD1    C3 2824   3.021   0.567   0.692  0.0584  0.0936  0.1870
  182MPD1    C4 2825   3.084   0.533   0.812 -0.1138 -0.5324 -0.0192
  182MPD1    C5 2826   3.206   0.588   0.843 -0.4081  0.4268  0.1149
  182MPD1     H 2827   3.046   0.675   0.510  0.2772  0.9397  0.3973
  182MPD1    H1 2828   3.038   0.463   0.881 -1.3678  1.5394  1.2164
  182MPD1    H2 2829   3.380   0.694   0.771  1.0957 -1.6691 -1.8829
  182MPD1    H3 2830   3.249   0.558   0.938 -0.4683  2.1398  0.6914
  182MPD1     N 2831   2.890   0.517   0.677 -0.2948  0.1539 -0.2186
  182MPD1    H5 2832   2.861   0.442   0.739 -3.0581  0.5104 -1.0611
  182MPD1    N1 2833   3.282   0.783   0.545  0.3995  0.2282 -0.3675
  182MPD1    H6 2834   3.350   0.836   0.599  0.4232 -1.7398  1.5312
  182MPD1    H7 2835   3.222   0.857   0.509  1.6716  0.7372 -1.4505
  183MPD1     C 2836   2.626   0.541   8.737  0.4253 -0.5979 -0.3330
  183MPD1    C1 2837   2.730   0.525   8.825 -0.2238 -0.6173  0.0486
  183MPD1    C2 2838   2.750   0.626   8.918 -0.6373  0.7965  0.6868
  183MPD1    C3 2839   2.662   0.730   8.935  0.0821 -0.0067  1.1818
  183MPD1    C4 2840   2.549   0.733   8.852 -0.5791 -0.1023 -0.3723
  183MPD1    C5 2841   2.534   0.636   8.763  0.2843  0.5747  0.1862
  183MPD1     H 2842   2.839   0.619   8.979 -1.6899  1.6524  2.3216
  183MPD1    H1 2843   2.478   0.815   8.863  0.3152  0.8141 -1.4326
  183MPD1    H2 2844   2.604   0.474   8.655  1.0209 -1.9586  0.6250
  183MPD1    H3 2845   2.447   0.640   8.698 -0.1284 -2.1062  0.5679
  183MPD1     N 2846   2.684   0.818   9.046 -0.4500  0.0447 -0.1466
  183MPD1    H5 2847   2.772   0.804   9.094  0.1046  0.3042 -1.0996
  183MPD1    N1 2848   2.823   0.423   8.812  0.1276  0.4441  0.1339
  183MPD1    H6 2849   2.783   0.351   8.752 -0.1905  0.7038  0.0365
  183MPD1    H7 2850   2.841   0.372   8.899 -0.9528 -0.9320 -0.4644
  184MPD1     C 2851   1.980   2.951  10.350  0.4581 -0.1782 -0.4424
  184MPD1    C1 2852   2.098   3.007  10.324  0.2192  0.5605  0.1753
  184MPD1    C2 2853   2.096   3.104  10.215 -0.1478 -0.0018 -0.0959
  184MPD1    C3 2854   1.977   3.147  10.162 -0.9059  0.0771 -0.0690
  184MPD1    C4 2855   1.859   3.090  10.211  0.0324  0.7937 -0.9493
  184MPD1    C5 2856   1.858   2.990  10.305 -0.6244 -0.5823  0.6603
  184MPD1     H 2857   2.197   3.136  10.192 -0.0955 -0.7272 -0.9199
  184MPD1    H1 2858   1.764   3.136  10.187 -0.2599  0.7751  0.1382
  184MPD1    H2 2859   1.974   2.872  10.425  0.4778  1.4679  1.2767
  184MPD1    H3 2860   1.764   2.962  10.351 -1.5660  0.0626 -0.8807
  184MPD1     N 2861   1.967   3.245  10.061  0.6830  0.1401  0.2028
  184MPD1    H5 2862   1.875   3.272  10.027  0.9661  0.3910 -0.3680
  184MPD1    N1 2863   2.220   2.954  10.361  0.3791 -0.0379  0.6715
  184MPD1    H6 2864   2.222   2.917  10.456  1.4721 -1.0448  0.2580
  184MPD1    H7 2865   2.301   3.014  10.349 -1.4556  1.8114 -2.3876
  185MPD1     C 2866   1.458   3.408   9.232  0.6919  0.4571  0.6239
  185MPD1    C1 2867   1.432   3.395   9.365  0.3637  0.4129  0.4430
  185MPD1    C2 2868   1.545   3.402   9.449  0.3046  0.4037  0.4476
  185MPD1    C3 2869   1.666   3.453   9.407  0.0002  0.0170  0.4222
  185MPD1    C4 2870   1.688   3.480   9.275 -0.9085 -0.5568 -0.1569
  185MPD1    C5 2871   1.580   3.461   9.192  0.9168  0.7665  0.2393
  185MPD1     H 2872   1.534   3.361   9.548 -3.3013  0.7626  0.1911
  185MPD1    H1 2873   1.778   3.537   9.252  0.2763 -1.4497  2.2355
  185MPD1    H2 2874   1.379   3.393   9.159  1.3798 -0.5187  0.0773
  185MPD1    H3 2875   1.604   3.470   9.087 -0.4586  2.3611  0.0651
  185MPD1     N 2876   1.775   3.472   9.494  0.2747  0.0213 -0.3574
  185MPD1    H5 2877   1.861   3.500   9.447 -0.1693 -2.3470 -2.5526
  185MPD1    N1 2878   1.302   3.354   9.407 -0.5635 -0.0716 -0.5113
  185MPD1    H6 2879   1.304   3.376   9.507 -1.0746  0.9113 -0.7178
  185MPD1    H7 2880   1.226   3.407   9.366 -0.0278  0.1381 -1.2413
  186MPD1     C 2881   0.918   1.934  16.124  0.6563 -0.2128  0.3481
  186MPD1    C1 2882   0.942   2.017  16.021 -0.3988 -0.0569 -0.2806
  186MPD1    C2 2883   0.932   2.158  16.043  0.0139  0.0179 -0.0316
  186MPD1    C3 2884   0.904   2.208  16.168 -0.7113  0.5400  0.0396
  186MPD1    C4 2885   0.894   2.114  16.271 -0.2819  0.0825  0.1662
  186MPD1    C5 2886   0.898   1.984  16.248 -1.4623 -0.2342  0.2356
  186MPD1     H 2887   0.934   2.226  15.960  0.1465  1.1989  0.9406
  186MPD1    H1 2888   0.853   2.149  16.365 -2.0157 -1.8938  0.1501
  186MPD1    H2 2889   0.915   1.826  16.118 -1.2339 -0.2017  0.8357
  186MPD1    H3 2890   0.890   1.927  16.340  0.8819 -0.6473  0.1643
  186MPD1     N 2891   0.898   2.348  16.194  0.6621 -0.5063  0.4135
  186MPD1    H5 2892   0.882   2.380  16.289 -0.7236 -0.0585  0.0302
  186MPD1    N1 2893   0.962   1.968  15.895 -0.6950  0.2904  0.4821
  186MPD1    H6 2894   1.019   2.032  15.841 -2.0167  0.6382 -0.4848
  186MPD1    H7 2895   1.008   1.877  15.888  0.0685  0.6968  0.3045
  187MPD1     C 2896   0.019   4.666   0.521 -0.6632 -0.2993 -0.0635
  187MPD1    C1 2897   0.043   4.538   0.478 -0.0257 -0.5383 -0.1245
  187MPD1    C2 2898   0.062   4.511   0.347 -0.2974 -0.0304 -0.3949
  187MPD1    C3 2899   0.073   4.613   0.258  0.6727 -0.2167  0.0586
  187MPD1    C4 2900   0.064   0.007   0.298 -0.2433  0.9173 -0.4926
  187MPD1    C5 2901   0.032   0.037   0.427  0.2111  0.3716 -0.4507
  187MPD1     H 2902   0.056   4.409   0.310 -2.8528  0.5042 -1.4385
  187MPD1    H1 2903   0.057   0.085   0.223 -2.5354  0.9920 -0.1805
  187MPD1    H2 2904   4.725   4.686   0.623 -1.7420  0.0033 -0.4422
  187MPD1    H3 2905   0.015   0.134   0.471 -0.4763 -0.1172  0.3698
  187MPD1     N 2906   0.089   4.598   0.122 -1.0187  0.0494  0.0371
  187MPD1    H5 2907   0.055   4.673   0.062  4.1939  2.1666 -0.2227
  187MPD1    N1 2908   4.723   4.442   0.561  0.2982  0.4287  0.0354
  187MPD1    H6 2909   4.735   4.470   0.658  0.4942 -0.5448  0.2883
  187MPD1    H7 2910   0.019   4.346   0.558  1.7255  0.8584  2.1783
  188MPD1     C 2911   4.360   4.644  10.715 -0.5157  0.9899 -0.0718
  188MPD1    C1 2912   4.335   4.669  10.583  0.1537  0.6717 -0.3255
  188MPD1    C2 2913   4.348   4.564  10.499 -0.3462 -0.3898  0.1133
  188MPD1    C3 2914   4.386   4.434  10.536  0.0676  0.1545 -0.5796
  188MPD1    C4 2915   4.422   4.416  10.669  0.3299  0.0051  0.0224
  188MPD1    C5 2916   4.398   4.522  10.752  0.3800  0.2828  0.4424
  188MPD1     H 2917   4.316   4.574  10.396 -1.0202  3.6285  0.6981
  188MPD1    H1 2918   4.446   4.319  10.709 -1.7854 -0.7900 -0.6418
  188MPD1    H2 2919   4.343   4.723  10.786 -3.6309  1.2363 -1.1085
  188MPD1    H3 2920   4.421   4.500  10.855 -0.6629 -1.4763  0.2985
  188MPD1     N 2921   4.402   4.323  10.447  0.2260 -0.3385  0.2812
  188MPD1    H5 2922   4.426   4.238  10.497 -0.5465  1.0784  3.0535
  188MPD1    N1 2923   4.257   0.047  10.548 -0.6605  0.6315  0.2830
  188MPD1    H6 2924   4.287   0.129  10.599 -1.6487  0.9768  0.3113
  188MPD1    H7 2925   4.275   0.069  10.450  1.9027  0.7393  0.7833
  189MPD1     C 2926   1.628   0.604   0.467  0.3187 -0.5619  0.0917
  189MPD1    C1 2927   1.521   0.543   0.406 -0.3087  0.3107  0.9706
  189MPD1    C2 2928   1.434   0.627   0.337 -0.3045  0.3531 -0.2597
  189MPD1    C3 2929   1.440   0.764   0.343  0.3607  0.3757  0.3265
  189MPD1    C4 2930   1.537   0.820   0.416  0.1518  0.3636 -0.7330
  189MPD1    C5 2931   1.642   0.740   0.467  0.7875  0.6193 -0.4075
  189MPD1     H 2932   1.356   0.578   0.280 -0.7699  0.3737  0.3628
  189MPD1    H1 2933   1.556   0.926   0.405  0.9907  0.3180  0.2954
  189MPD1    H2 2934   1.714   0.558   0.515  1.7856  1.3507 -0.6818
  189MPD1    H3 2935   1.720   0.784   0.528 -0.1646  0.2799  1.0604
  189MPD1     N 2936   1.343   0.836   0.267  0.1623 -0.2034  0.3724
  189MPD1    H5 2937   1.275   0.781   0.215  0.0782  0.2815 -0.0314
  189MPD1    N1 2938   1.515   0.403   0.398  0.1486  0.4498 -0.8550
  189MPD1    H6 2939   1.561   0.360   0.478  2.0290  1.3677 -1.4520
  189MPD1    H7 2940   1.421   0.366   0.383 -0.0487  0.4720  0.3203
  190MPD1     C 2941   0.074   3.854  15.074 -0.2329 -0.1755  0.5518
  190MPD1    C1 2942   0.090   3.929  15.193 -0.1942 -0.1971  0.0151
  190MPD1    C2 2943   0.198   3.893  15.270 -0.2549 -0.2581 -0.0210
  190MPD1    C3 2944   0.293   3.801  15.224 -0.4179 -0.3529 -0.1805
  190MPD1    C4 2945   0.280   3.740  15.099 -0.2355 -0.2819 -0.1245
  190MPD1    C5 2946   0.167   3.766  15.030  0.7827  0.1617  0.1634
  190MPD1     H 2947   0.217   3.930  15.370  0.9491  1.9666 -1.0799
  190MPD1    H1 2948   0.349   3.665  15.062 -1.0916 -1.5109  0.8078
  190MPD1    H2 2949   4.722   3.870  15.014 -1.7185  0.3658  2.8620
  190MPD1    H3 2950   0.152   3.710  14.938  1.4009 -0.8937  0.7029
  190MPD1     N 2951   0.400   3.766  15.308 -0.4809  0.4671 -0.6964
  190MPD1    H5 2952   0.412   3.829  15.387  0.6373 -0.3903 -0.1716
  190MPD1    N1 2953   4.732   4.025  15.235 -0.1244  0.1474 -0.2986
  190MPD1    H6 2954   0.026   4.099  15.297 -1.5498  2.0994 -1.9238
  190MPD1    H7 2955   4.675   4.060  15.158 -0.7086  1.6887  0.8376
  191MPD1     C 2956   4.149   0.494  12.857  0.4338 -0.3546 -0.1045
  191MPD1    C1 2957   4.210   0.619  12.835 -0.1299  0.6269  0.2482
  191MPD1    C2 2958   4.124   0.721  12.793 -0.4578  0.3419 -0.0356
  191MPD1    C3 2959   3.985   0.714  12.791  0.0565  0.3901 -0.0400
  191MPD1    C4 2960   3.928   0.593  12.814 -0.5631 -0.7935  0.2154
  191MPD1    C5 2961   4.007   0.482  12.848 -0.2252 -0.0996 -0.2220
  191MPD1     H 2962   4.165   0.815  12.757 -1.4242  0.2197 -1.4359
  191MPD1    H1 2963   3.822   0.573  12.809 -0.3586 -1.6977 -0.4717
  191MPD1    H2 2964   4.210   0.405  12.852  0.9873 -0.0160  0.6369
  191MPD1    H3 2965   3.972   0.383  12.873 -0.1087  0.2763  1.4136
  191MPD1     N 2966   3.920   0.830  12.742  0.5113  0.2791  0.7790
  191MPD1    H5 2967   3.972   0.917  12.743 -0.8416  1.1013 -0.9365
  191MPD1    N1 2968   4.350   0.626  12.813 -0.3615  0.5010 -0.4325
  191MPD1    H6 2969   4.385   0.722  12.813  1.5996 -0.2093 -1.6557
  191MPD1    H7 2970   4.397   0.556  12.870 -1.0244  1.4305  1.2462
  192MPD1     C 2971   3.061   1.425  12.967 -0.1754 -0.6274 -0.4032
  192MPD1    C1 2972   3.066   1.294  12.940 -0.0615 -0.0512 -0.2887
  192MPD1    C2 2973   3.181   1.236  12.884 -0.2920  1.0782 -0.5145
  192MPD1    C3 2974   3.281   1.319  12.838  0.3039 -0.1141 -0.1821
  192MPD1    C4 2975   3.269   1.458  12.855  0.4073  0.0713 -0.0258
  192MPD1    C5 2976   3.164   1.508  12.924 -0.2086 -0.0868  0.0756
  192MPD1     H 2977   3.187   1.127  12.881 -1.3003  1.0031  0.0283
  192MPD1    H1 2978   3.344   1.531  12.824 -1.2175  2.2801  1.2749
  192MPD1    H2 2979   2.972   1.473  13.006  0.5899  1.7620 -1.5999
  192MPD1    H3 2980   3.157   1.615  12.941 -0.7559 -0.4202  1.8733
  192MPD1     N 2981   3.403   1.271  12.780  0.0571 -0.0962 -0.2046
  192MPD1    H5 2982   3.473   1.344  12.777  0.5561 -0.6617 -2.1414
  192MPD1    N1 2983   2.974   1.213  13.016  0.5445  0.2802  0.1273
  192MPD1    H6 2984   2.949   1.129  12.964  2.6011 -0.3960  0.2490
  192MPD1    H7 2985   2.886   1.265  13.020  0.9880  0.9420  1.2340
  193MPD1     C 2986   3.743   0.970  16.297  0.8006  0.0142 -0.8311
  193MPD1    C1 2987   3.847   0.895  16.352  0.4227 -0.4426  0.2904
  193MPD1    C2 2988   3.941   0.956  16.425 -0.2825 -0.9444  0.0140
  193MPD1    C3 2989   3.943   1.094  16.444 -0.2169 -0.1015  0.0616
  193MPD1    C4 2990   3.839   1.167  16.394  0.4663  0.4646 -0.2792
  193MPD1    C5 2991   3.750   1.102  16.315  0.2663  0.5871  0.9307
  193MPD1     H 2992   4.013   0.884  16.460  0.4076 -0.8248 -1.1536
  193MPD1    H1 2993   3.834   1.274  16.409  1.8410  0.7262 -1.6684
  193MPD1    H2 2994   3.655   0.926  16.252 -0.4274 -0.0018  1.5812
  193MPD1    H3 2995   3.669   1.162  16.275 -1.6829 -2.5592  0.1771
  193MPD1     N 2996   4.039   1.162  16.523  0.2742  0.2687 -0.2981
  193MPD1    H5 2997   4.026   1.260  16.543  0.0053  0.1580  0.0567
  193MPD1    N1 2998   3.842   0.754  16.356 -0.7394 -0.0242  0.9800
  193MPD1    H6 2999   3.812   0.720  16.265  0.2866  0.5564  0.4271
  193MPD1    H7 3000   3.937   0.721  16.375 -1.0966  0.3469  3.3996
  194MPD1     C 3001   1.653   3.625  17.056  0.2265  0.6405 -0.5469
  194MPD1    C1 3002   1.642   3.571  16.929  0.1094 -0.7564  0.0814
  194MPD1    C2 3003   1.638   3.436  16.919  0.1049 -0.0970 -0.4275
  194MPD1    C3 3004   1.681   3.358  17.029 -0.5156  0.3709 -0.2713
  194MPD1    C4 3005   1.703   3.412  17.154  0.1969  0.1395 -0.4408
  194MPD1    C5 3006   1.669   3.546  17.167  0.8654 -0.0373 -0.3548
  194MPD1     H 3007   1.624   3.385  16.824 -1.7179  1.1339 -0.8091
  194MPD1    H1 3008   1.731   3.352  17.240 -0.8002 -1.5885 -1.3121
  194MPD1    H2 3009   1.650   3.731  17.078 -2.2181  0.3464  0.4831
  194MPD1    H3 3010   1.685   3.592  17.264  2.5839 -1.5505  0.0883
  194MPD1     N 3011   1.711   3.220  17.013 -0.4681 -0.0037  0.6690
  194MPD1    H5 3012   1.748   3.179  17.097  1.3277 -0.1396 -0.1808
  194MPD1    N1 3013   1.601   3.648  16.818 -0.9629 -0.3574 -0.0921
  194MPD1    H6 3014   1.619   3.610  16.725 -0.5471  0.2319 -0.2608
  194MPD1    H7 3015   1.647   3.738  16.832 -0.4414 -0.6673  0.1889
  195MPD1     C 3016   4.130   3.800   1.531 -0.4635 -0.1899  0.0456
  195MPD1    C1 3017   4.240   3.718   1.508 -0.0556  0.3202  0.4311
  195MPD1    C2 3018   4.310   3.721   1.388  0.5334  0.6489  0.7785
  195MPD1    C3 3019   4.257   3.806   1.286 -0.2484  0.4448 -0.1476
  195MPD1    C4 3020   4.143   3.881   1.304 -0.0523  0.2832 -0.5412
  195MPD1    C5 3021   4.083   3.883   1.427 -0.0094  0.4357 -0.5046
  195MPD1     H 3022   4.400   3.664   1.369 -0.4030 -0.4754 -0.2378
  195MPD1    H1 3023   4.093   3.940   1.229 -0.2911  0.8655  0.0828
  195MPD1    H2 3024   4.086   3.804   1.630  0.8655  0.0834  0.6265
  195MPD1    H3 3025   4.006   3.955   1.453  0.2032  0.7131 -0.6482
  195MPD1     N 3026   4.322   3.821   1.160 -0.4292  0.3855  0.2678
  195MPD1    H5 3027   4.279   3.879   1.089 -2.6745 -2.1385 -0.4430
  195MPD1    N1 3028   4.304   3.664   1.623 -0.4637  0.9030  0.1708
  195MPD1    H6 3029   4.224   3.620   1.668 -2.5862  2.5784 -1.9497
  195MPD1    H7 3030   4.372   3.591   1.608 -0.7602  0.5537  0.5229
  196MPD1     C 3031   3.155   3.758   0.206 -0.4665  0.7947 -1.2778
  196MPD1    C1 3032   3.078   3.739   0.320 -0.9181  0.0887 -0.5251
  196MPD1    C2 3033   3.110   3.816   0.434  0.1624  0.0501 -0.5758
  196MPD1    C3 3034   3.190   3.929   0.427  0.5198 -0.2837  0.1016
  196MPD1    C4 3035   3.261   3.953   0.308  0.0470  0.1509 -0.6234
  196MPD1    C5 3036   3.245   3.869   0.198  0.7125  0.6245  0.1099
  196MPD1     H 3037   3.057   3.789   0.525  2.6119 -0.2101  0.7527
  196MPD1    H1 3038   3.323   4.042   0.300 -1.9007  1.5750  0.2394
  196MPD1    H2 3039   3.135   3.699   0.118  1.6894 -0.0849 -1.1689
  196MPD1    H3 3040   3.296   3.886   0.103  0.8742  0.4005  0.1557
  196MPD1     N 3041   3.211   4.017   0.534 -0.3653  0.3627 -0.0282
  196MPD1    H5 3042   3.275   4.094   0.516  1.5576 -1.3308 -0.4548
  196MPD1    N1 3043   2.999   3.626   0.331 -0.3118 -0.5066  0.3783
  196MPD1    H6 3044   2.928   3.632   0.405 -2.2355 -0.3177 -1.4729
  196MPD1    H7 3045   2.952   3.593   0.247  2.3888  1.8157 -2.0122
  197MPD1     C 3046   2.495   3.068  16.968  0.2972  0.5289  0.0261
  197MPD1    C1 3047   2.470   2.952  16.905 -0.1134  0.2671 -0.0964
  197MPD1    C2 3048   2.579   2.870  16.885  0.1453  0.0868  0.1293
  197MPD1    C3 3049   2.706   2.894  16.933  0.1476 -0.1024  0.0214
  197MPD1    C4 3050   2.722   3.005  17.011 -0.6586  1.0022 -0.2505
  197MPD1    C5 3051   2.620   3.099  17.020  0.1981  0.4357  0.0373
  197MPD1     H 3052   2.566   2.776  16.833  0.5437 -0.3719  0.8413
  197MPD1    H1 3053   2.813   3.041  17.058  0.0231  1.3286 -1.7950
  197MPD1    H2 3054   2.422   3.147  16.976 -0.6686 -0.3087 -0.6099
  197MPD1    H3 3055   2.628   3.200  17.058 -1.3153  1.5585 -2.6168
  197MPD1     N 3056   2.819   2.809  16.927 -0.2536  0.8899  0.5585
  197MPD1    H5 3057   2.903   2.846  16.970  2.0063 -0.3982 -2.8595
  197MPD1    N1 3058   2.333   2.923  16.849 -0.3252 -0.2243 -0.1145
  197MPD1    H6 3059   2.316   2.823  16.835 -3.5781  0.3823 -0.5051
  197MPD1    H7 3060   2.268   2.956  16.921  0.6249  1.1114  0.1228
  198MPD1     C 3061   0.098   0.248  14.822  0.3837 -0.0682  0.4966
  198MPD1    C1 3062   0.030   0.347  14.898  0.5540  0.1539 -0.1594
  198MPD1    C2 3063   0.016   0.320  15.035  0.1978 -0.6667  0.2944
  198MPD1    C3 3064   0.065   0.202  15.093  0.8549 -0.0408 -0.5732
  198MPD1    C4 3065   0.119   0.104  15.008  0.2115  0.2254  0.1433
  198MPD1    C5 3066   0.145   0.133  14.878  0.7731 -0.5546  0.2918
  198MPD1     H 3067   4.720   0.394  15.107  1.0143 -0.7456  0.7431
  198MPD1    H1 3068   0.154   0.012  15.052 -2.1468  0.7982  3.1962
  198MPD1    H2 3069   0.114   0.263  14.716 -0.3630  0.8547  0.5189
  198MPD1    H3 3070   0.205   0.060  14.826 -0.8530 -0.1963 -2.0877
  198MPD1     N 3071   0.053   0.199  15.229  0.4023 -0.3387 -0.2870
  198MPD1    H5 3072   4.732   0.269  15.273  2.0525  0.5689  0.4454
  198MPD1    N1 3073   0.014   0.479  14.838 -0.8773  0.4062  0.0812
  198MPD1    H6 3074   4.671   0.522  14.886 -0.2204 -0.0261  1.5755
  198MPD1    H7 3075   4.717   0.461  14.744 -0.3737  0.0449 -0.0306
  199MPD1     C 3076   2.089   0.788   8.581  0.4482 -0.6790 -0.1504
  199MPD1    C1 3077   1.978   0.744   8.516  0.1003 -1.1428 -0.3584
  199MPD1    C2 3078   1.854   0.758   8.570 -0.4624 -0.3381 -0.7174
  199MPD1    C3 3079   1.835   0.819   8.692  0.2502  0.3325 -0.3783
  199MPD1    C4 3080   1.942   0.870   8.749  0.0075  0.3770  0.2317
  199MPD1    C5 3081   2.066   0.850   8.703 -0.2438  0.7833 -0.6751
  199MPD1     H 3082   1.769   0.731   8.509 -0.2315  1.2026 -1.7268
  199MPD1    H1 3083   1.932   0.912   8.848 -3.3844  2.4272 -0.9709
  199MPD1    H2 3084   2.188   0.785   8.539  0.0612 -0.4520 -1.0666
  199MPD1    H3 3085   2.154   0.894   8.749  0.3266  0.5241 -1.5187
  199MPD1     N 3086   1.712   0.829   8.757  0.0096 -1.0199  0.1923
  199MPD1    H5 3087   1.723   0.867   8.850 -0.4747 -0.7877  0.1518
  199MPD1    N1 3088   1.990   0.699   8.387 -0.3878 -0.0216  0.4144
  199MPD1    H6 3089   1.906   0.651   8.356 -2.3596  1.6697  3.1666
  199MPD1    H7 3090   2.063   0.628   8.382 -1.3980 -1.0517  0.3641
  200MPD1     C 3091   1.458   1.190  15.345  0.4974  0.2490 -0.4415
  200MPD1    C1 3092   1.416   1.195  15.217 -0.1809  0.5598  0.3704
  200MPD1    C2 3093   1.455   1.301  15.142 -0.3280  0.3434 -0.4077
  200MPD1    C3 3094   1.517   1.408  15.202 -0.1483  0.6502  0.2282
  200MPD1    C4 3095   1.541   1.409  15.339 -0.0442  0.2236  0.0596
  200MPD1    C5 3096   1.522   1.294  15.412 -0.2813 -0.7121 -0.2300
  200MPD1     H 3097   1.421   1.307  15.040 -0.7575  0.8728 -0.2303
  200MPD1    H1 3098   1.581   1.495  15.389 -3.0962  2.3438 -1.1457
  200MPD1    H2 3099   1.441   1.098  15.400 -2.3846  0.9193 -0.1772
  200MPD1    H3 3100   1.548   1.290  15.517 -1.5646 -1.1279  0.0766
  200MPD1     N 3101   1.552   1.517  15.121 -0.6171  0.2301  0.1173
  200MPD1    H5 3102   1.550   1.512  15.019  1.3932 -0.4413  0.1033
  200MPD1    N1 3103   1.358   1.089  15.154 -0.3818 -0.3552  0.0114
  200MPD1    H6 3104   1.275   1.129  15.111  1.5135  1.3973 -1.9620
  200MPD1    H7 3105   1.324   1.018  15.220 -1.0930  0.6854  0.7616
  201MPD1     C 3106   2.901   0.436  13.709 -0.5737 -0.2793  0.3379
  201MPD1    C1 3107   3.030   0.466  13.736 -0.5358  0.2220  0.4779
  201MPD1    C2 3108   3.119   0.428  13.640  0.3592 -1.1554 -0.7495
  201MPD1    C3 3109   3.081   0.357  13.520  0.4580  0.3601  0.3812
  201MPD1    C4 3110   2.949   0.341  13.489  0.4747 -0.1376 -0.4336
  201MPD1    C5 3111   2.859   0.377  13.587 -0.0496  0.2024 -0.0883
  201MPD1     H 3112   3.224   0.456  13.643 -0.1615  0.5499  1.4066
  201MPD1    H1 3113   2.910   0.299  13.397  0.6805 -0.5602 -0.3256
  201MPD1    H2 3114   2.818   0.464  13.774  0.9186  0.0168  2.0920
  201MPD1    H3 3115   2.755   0.364  13.561 -0.7148  3.5898  0.9388
  201MPD1     N 3116   3.168   0.309  13.426 -0.0829 -0.1369 -0.0415
  201MPD1    H5 3117   3.133   0.250  13.351 -1.4995 -0.6244  0.9915
  201MPD1    N1 3118   3.075   0.557  13.832 -0.4748  0.3831 -0.2344
  201MPD1    H6 3119   3.173   0.546  13.860  0.6854  2.2619 -3.6324
  201MPD1    H7 3120   3.014   0.560  13.914 -3.0496 -0.2790 -2.1624
  202MPD1     C 3121   3.227   4.484   9.029  0.6343  0.3698 -0.1308
  202MPD1    C1 3122   3.168   4.608   9.046 -0.7811  0.8236  0.4942
  202MPD1    C2 3123   3.209   4.691   9.151  0.6487  0.5097  0.0414
  202MPD1    C3 3124   3.328   4.672   9.212 -1.0416  0.3157 -0.2446
  202MPD1    C4 3125   3.396   4.552   9.178  0.7227 -0.2978  0.1320
  202MPD1    C5 3126   3.343   4.458   9.093  0.5924  0.2473  0.7520
  202MPD1     H 3127   3.143   0.030   9.190 -0.7750 -0.3412 -0.7287
  202MPD1    H1 3128   3.490   4.533   9.228  0.2259 -1.2198  0.7060
  202MPD1    H2 3129   3.186   4.406   8.966  1.3529 -0.2027  0.1069
  202MPD1    H3 3130   3.391   4.363   9.069  0.8171  1.0343 -1.8432
  202MPD1     N 3131   3.382   0.013   9.313  0.5233  0.3727 -0.2777
  202MPD1    H5 3132   3.469   4.725   9.359  1.1029  0.9772 -1.0677
  202MPD1    N1 3133   3.031   4.603   9.012 -0.1483  0.2204 -0.2880
  202MPD1    H6 3134   3.017   4.545   8.929  0.5657  0.4926 -0.6009
  202MPD1    H7 3135   2.994   4.696   8.991 -0.5934 -0.0823 -0.8450
  203MPD1     C 3136   1.454   0.596  12.405 -0.2756  0.6713 -0.2188
  203MPD1    C1 3137   1.530   0.522  12.317  0.4183 -0.0494 -0.0339
  203MPD1    C2 3138   1.643   0.464  12.375 -1.4736  1.0136 -0.3936
  203MPD1    C3 3139   1.675   0.471  12.510 -0.6098  0.2491 -0.1466
  203MPD1    C4 3140   1.593   0.546  12.592 -0.8201 -0.4827 -0.0601
  203MPD1    C5 3141   1.477   0.606  12.542  0.1420  0.6296 -0.5790
  203MPD1     H 3142   1.716   0.409  12.318 -0.0870  0.8349  1.5317
  203MPD1    H1 3143   1.620   0.568  12.694 -0.6279 -0.8186 -0.0383
  203MPD1    H2 3144   1.369   0.648  12.362 -1.9074 -1.6267  0.2140
  203MPD1    H3 3145   1.408   0.660  12.605 -0.3696  0.0257 -0.6285
  203MPD1     N 3146   1.794   0.405  12.542  0.0232 -0.2203 -0.1429
  203MPD1    H5 3147   1.846   0.361  12.467 -0.9610  2.7319 -2.5136
  203MPD1    N1 3148   1.517   0.523  12.180  0.0791  0.2632 -0.9094
  203MPD1    H6 3149   1.419   0.536  12.156 -0.0222  1.6862  0.2428
  203MPD1    H7 3150   1.552   0.438  12.137  1.8730  1.9239 -2.7590
  204MPD1     C 3151   1.765   2.415  17.722 -0.2710 -0.1976 -0.1493
  204MPD1    C1 3152   1.860   2.423  17.620 -0.4534 -0.1605 -0.5984
  204MPD1    C2 3153   1.917   2.304  17.586 -0.3016 -0.1635  0.2029
  204MPD1    C3 3154   1.865   2.182  17.631  0.7244 -0.0761  0.3192
  204MPD1    C4 3155   1.768   2.189  17.723  0.0321  0.3531  0.1838
  204MPD1    C5 3156   1.719   2.298   0.033 -0.3222  0.3261 -1.2282
  204MPD1     H 3157   1.990   2.305  17.505  0.4904 -0.8279  0.9115
  204MPD1    H1 3158   1.713   2.098  17.743 -1.9485  1.5084 -0.0327
  204MPD1    H2 3159   1.714   2.501   0.020  1.3773  1.1892 -0.9753
  204MPD1    H3 3160   1.636   2.287   0.101  0.1503  0.0999 -0.6922
  204MPD1     N 3161   1.921   2.061  17.579  0.0344 -0.2740 -0.7400
  204MPD1    H5 3162   1.992   2.073  17.508  0.6331  0.5641 -0.0078
  204MPD1    N1 3163   1.898   2.548  17.573 -0.3203 -0.2184  0.1844
  204MPD1    H6 3164   1.925   2.543  17.475  2.2888  2.3766  0.7585
  204MPD1    H7 3165   1.833   2.624  17.596  0.2136  0.6128 -1.0481
  205MPD1     C 3166   1.826   0.197  17.509  0.3709  0.1633 -0.3961
  205MPD1    C1 3167   1.817   0.329  17.469  0.2476  0.4572  0.2403
  205MPD1    C2 3168   1.892   0.424  17.538  0.1020 -0.4351  0.2913
  205MPD1    C3 3169   1.990   0.381  17.625 -0.6512 -0.6389  0.1201
  205MPD1    C4 3170   2.017   0.246  17.643  0.6141  0.1116 -0.0258
  205MPD1    C5 3171   1.925   0.156  17.598 -0.0511  0.4578 -0.6297
  205MPD1     H 3172   1.867   0.527  17.515 -1.6082 -1.1887 -1.2082
  205MPD1    H1 3173   2.102   0.224  17.706  1.8832  1.2015 -1.3550
  205MPD1    H2 3174   1.767   0.122  17.458 -0.4711  1.3879 -1.2156
  205MPD1    H3 3175   1.931   0.048  17.607 -1.4138  0.3138 -1.4836
  205MPD1     N 3176   2.078   0.475  17.687  0.0194 -0.1967 -0.1252
  205MPD1    H5 3177   2.130   0.422   0.012 -1.0167  1.3896  1.8896
  205MPD1    N1 3178   1.718   0.370  17.380  0.3468  0.3241 -0.2335
  205MPD1    H6 3179   1.750   0.455  17.335 -1.3890  0.9144 -0.3440
  205MPD1    H7 3180   1.707   0.298  17.308 -1.4904  1.2193 -0.8257
  206MPD1     C 3181   2.120   3.515  17.208 -0.0480  0.3624 -0.1595
  206MPD1    C1 3182   2.127   3.399  17.138  0.3084  0.4309  0.3137
  206MPD1    C2 3183   2.063   3.388  17.016  0.0668 -0.1740 -0.4490
  206MPD1    C3 3184   2.013   3.499  16.943  0.3619 -0.2442  0.3378
  206MPD1    C4 3185   2.011   3.614  17.014 -0.2366  0.6222  0.0742
  206MPD1    C5 3186   2.059   3.623  17.147  0.1176 -0.2125 -0.0002
  206MPD1     H 3187   2.066   3.292  16.965  0.0880  0.9971 -2.6447
  206MPD1    H1 3188   1.966   3.701  16.970  0.5668  1.3461  0.6880
  206MPD1    H2 3189   2.163   3.524  17.307  2.9346  0.9576 -1.4891
  206MPD1    H3 3190   2.072   3.718  17.199  0.0941 -0.0398 -0.3071
  206MPD1     N 3191   1.954   3.500  16.815 -0.0752  0.3442 -0.0415
  206MPD1    H5 3192   1.918   3.591  16.788 -1.2481 -0.1269 -0.0778
  206MPD1    N1 3193   2.175   3.279  17.202 -0.0482  0.5122  0.3690
  206MPD1    H6 3194   2.198   3.200  17.142  1.5265  0.1268  1.4783
  206MPD1    H7 3195   2.258   3.302  17.256  1.9316 -3.1278 -1.1035
  207MPD1     C 3196   0.683   0.391   8.149  1.3471  0.3898  0.1171
  207MPD1    C1 3197   0.648   0.302   8.247 -0.3103 -0.0696 -0.2637
  207MPD1    C2 3198   0.669   0.342   8.381 -0.7529 -0.5079 -0.0054
  207MPD1    C3 3199   0.711   0.475   8.406 -0.8045 -0.2054  0.4650
  207MPD1    C4 3200   0.731   0.564   8.300 -0.0749  0.5938 -1.2125
  207MPD1    C5 3201   0.720   0.517   8.170  0.2094  0.6531  0.1082
  207MPD1     H 3202   0.655   0.274   8.464  2.2210  1.2371  1.9160
  207MPD1    H1 3203   0.749   0.669   8.320  0.8929  0.0382  0.8259
  207MPD1    H2 3204   0.686   0.356   8.046  0.6919  0.9783 -0.1040
  207MPD1    H3 3205   0.733   0.589   8.090  1.7142  0.4060  0.1290
  207MPD1     N 3206   0.707   0.534   8.538  0.3615 -0.2873 -0.2892
  207MPD1    H5 3207   0.703   0.636   8.531  0.1132 -0.2662  0.1740
  207MPD1    N1 3208   0.602   0.175   8.211 -0.1313 -0.5650  0.5375
  207MPD1    H6 3209   0.549   0.128   8.285 -0.8801 -1.8375 -0.8136
  207MPD1    H7 3210   0.555   0.166   8.122 -0.2867 -0.6731  0.6295
  208MPD1     C 3211   3.526   4.229  17.526 -0.2025  0.5728 -0.1051
  208MPD1    C1 3212   3.464   4.295  17.425 -0.3481  0.4970 -0.7942
  208MPD1    C2 3213   3.330   4.323  17.438 -0.1757  0.4173  0.0252
  208MPD1    C3 3214   3.260   4.295  17.552  0.1052 -0.0156  0.1201
  208MPD1    C4 3215   3.318   4.221  17.649 -0.3817  0.3926  0.1130
  208MPD1    C5 3216   3.454   4.196  17.639 -0.0739 -0.1751 -0.5609
  208MPD1     H 3217   3.285   4.384  17.360 -1.6798  0.5338  0.9810
  208MPD1    H1 3218   3.267   4.199  17.742 -1.0161 -1.2092 -0.6105
  208MPD1    H2 3219   3.632   4.206  17.518 -0.5416 -1.3156  0.6978
  208MPD1    H3 3220   3.500   4.139  17.719 -2.4468 -0.3203  0.7170
  208MPD1     N 3221   3.131   4.344  17.560  0.6023 -0.1726  0.3973
  208MPD1    H5 3222   3.106   4.415  17.491  2.2865 -0.0763 -0.1183
  208MPD1    N1 3223   3.540   4.352  17.326 -0.7021 -0.1039  0.0440
  208MPD1    H6 3224   3.491   4.366  17.238  1.7140 -2.9731 -1.7206
  208MPD1    H7 3225   3.631   4.308  17.313 -1.3092 -0.9311 -1.4275
  209MPD1     C 3226   0.744   1.204  10.087 -0.2642 -0.2371  0.2089
  209MPD1    C1 3227   0.822   1.096  10.041 -0.5078 -0.0132  0.0021
  209MPD1    C2 3228   0.761   0.976  10.000 -0.2517 -0.4697 -0.4799
  209MPD1    C3 3229   0.626   0.968  10.018 -0.9647  0.6744  0.1564
  209MPD1    C4 3230   0.551   1.068  10.069 -0.3892  0.2912  0.5513
  209MPD1    C5 3231   0.610   1.192  10.092  0.3814 -0.2242  0.2450
  209MPD1     H 3232   0.816   0.889   9.964  1.1561 -0.7438  2.3951
  209MPD1    H1 3233   0.443   1.058  10.064 -0.3315  0.8508 -1.8380
  209MPD1    H2 3234   0.781   1.297  10.128 -0.5175  0.2640 -0.7242
  209MPD1    H3 3235   0.544   1.272  10.123 -0.8149 -1.2245  0.2791
  209MPD1     N 3236   0.560   0.852   9.974  0.3304  0.4162 -0.1746
  209MPD1    H5 3237   0.622   0.788   9.925 -2.5487 -0.6972 -2.4068
  209MPD1    N1 3238   0.960   1.117  10.044  0.0641  0.3787 -0.7098
  209MPD1    H6 3239   0.977   1.208  10.001 -3.6091  0.5897 -1.6951
  209MPD1    H7 3240   1.018   1.055   9.988  1.3566  0.3617  0.6410
  210MPD1     C 3241   4.413   0.212   9.969  0.8201 -0.2432  0.1217
  210MPD1    C1 3242   4.427   0.340  10.010  0.4750 -0.2692 -0.1422
  210MPD1    C2 3243   4.554   0.388  10.005  0.1096  0.2655  0.6300
  210MPD1    C3 3244   4.658   0.312   9.956  0.1281  0.6333  0.1830
  210MPD1    C4 3245   4.637   0.193   9.904  0.4827 -0.3788 -0.2838
  210MPD1    C5 3246   4.513   0.133   9.919  0.3683 -0.1230 -0.1647
  210MPD1     H 3247   4.568   0.491  10.034 -0.2264  0.5546 -0.2498
  210MPD1    H1 3248   4.725   0.141   9.866  2.2791  1.7943  0.9002
  210MPD1    H2 3249   4.313   0.170   9.972  1.3729 -1.5859 -0.5628
  210MPD1    H3 3250   4.495   0.031   9.887  0.4722  0.1475 -1.0781
  210MPD1     N 3251   0.056   0.359   9.937 -0.1385  0.3237 -0.5801
  210MPD1    H5 3252   0.103   0.326   9.854  2.5382  0.2256  0.9828
  210MPD1    N1 3253   4.324   0.409  10.075 -0.2386  0.0515  0.4121
  210MPD1    H6 3254   4.227   0.387  10.054  1.0657 -3.9569 -1.3145
  210MPD1    H7 3255   4.335   0.508  10.054 -2.8324  0.2262 -0.1231
  211MPD1     C 3256   2.093   4.502  16.664 -0.7005 -0.4562  0.0331
  211MPD1    C1 3257   2.146   4.587  16.757  0.4063  0.7210 -0.1081
  211MPD1    C2 3258   2.090   4.712  16.761 -0.9329  0.7982 -0.4645
  211MPD1    C3 3259   1.973   0.006  16.691 -0.1281 -0.5016 -0.0416
  211MPD1    C4 3260   1.920   4.654  16.604 -0.3326  0.0982  0.3658
  211MPD1    C5 3261   1.983   4.533  16.591 -0.3685  0.3680 -0.5819
  211MPD1     H 3262   2.124   0.048  16.834  1.2338 -0.0137 -0.6528
  211MPD1    H1 3263   1.844   4.684  16.533 -2.8697 -2.0545  2.1639
  211MPD1    H2 3264   2.132   4.404  16.638  1.4806  0.2214  0.7377
  211MPD1    H3 3265   1.934   4.457  16.532 -1.0316  1.4931 -1.4867
  211MPD1     N 3266   1.918   0.130  16.712  0.9001 -0.3857  0.0309
  211MPD1    H5 3267   1.968   0.194  16.773  2.0826  1.3440 -2.7479
  211MPD1    N1 3268   2.268   4.554  16.829  0.1249 -0.2713 -0.1952
  211MPD1    H6 3269   2.269   4.596  16.921 -3.3438 -0.3585 -0.1156
  211MPD1    H7 3270   2.284   4.453  16.835 -1.5748 -0.5011  0.3758
  212MPD1     C 3271   1.563   3.588  16.384  0.3003 -0.8440  0.0434
  212MPD1    C1 3272   1.488   3.654  16.480  0.2995 -0.3459  0.0127
  212MPD1    C2 3273   1.422   3.580  16.576 -0.6083 -0.4877  0.1905
  212MPD1    C3 3274   1.435   3.441  16.573  0.0763  1.1506 -0.2960
  212MPD1    C4 3275   1.521   3.376  16.482 -0.3628 -0.3780 -0.4986
  212MPD1    C5 3276   1.573   3.453  16.381 -0.2275  0.5162 -0.4233
  212MPD1     H 3277   1.368   3.639  16.649  0.9991  1.1763  0.0272
  212MPD1    H1 3278   1.540   3.269  16.485  3.3915  0.3056  0.3845
  212MPD1    H2 3279   1.616   3.644  16.308 -0.5258  1.5053  1.1973
  212MPD1    H3 3280   1.630   3.406  16.301 -1.5403  0.0182 -1.0792
  212MPD1     N 3281   1.377   3.359  16.666  0.4264  0.1913 -0.3557
  212MPD1    H5 3282   1.406   3.262  16.656 -0.3592  0.0062 -0.8161
  212MPD1    N1 3283   1.475   3.793  16.477 -0.1183 -0.2924 -0.2771
  212MPD1    H6 3284   1.561   3.838  16.446 -0.3233  1.2863  1.4575
  212MPD1    H7 3285   1.439   3.831  16.564  0.8571  0.0165 -0.0158
  213MPD1     C 3286   4.466   3.722  15.530  0.0954 -0.5111 -0.5338
  213MPD1    C1 3287   4.529   3.812  15.451  0.3908 -0.5329  0.2110
  213MPD1    C2 3288   4.454   3.926  15.425  0.2514 -0.2468 -0.2346
  213MPD1    C3 3289   4.314   3.929  15.438 -0.4468 -0.3420  0.2921
  213MPD1    C4 3290   4.256   3.822  15.500  0.1387  0.4177 -0.0856
  213MPD1    C5 3291   4.333   3.716  15.536 -0.1079 -0.4081 -0.0092
  213MPD1     H 3292   4.496   4.018  15.386 -0.5110 -0.6759 -2.0600
  213MPD1    H1 3293   4.148   3.818  15.508 -0.0945  0.0701 -3.2881
  213MPD1    H2 3294   4.533   3.643  15.562  1.0847  0.1776 -0.9290
  213MPD1    H3 3295   4.283   3.627  15.572 -1.9602  0.0980 -1.3170
  213MPD1     N 3296   4.238   4.042  15.402  0.0102 -0.4131 -0.1016
  213MPD1    H5 3297   4.139   4.045  15.425  0.0270  1.4363 -0.3097
  213MPD1    N1 3298   4.668   3.816  15.459 -0.8996 -0.1490 -0.0674
  213MPD1    H6 3299   4.706   3.722  15.450 -3.1811 -1.2664  2.2614
  213MPD1    H7 3300   4.707   3.867  15.380 -0.4317 -0.9782 -0.3714
  214MPD1     C 3301   3.412   3.941  15.161  0.5321 -1.2990  0.7556
  214MPD1    C1 3302   3.480   3.981  15.047  0.1380  0.3104 -0.2535
  214MPD1    C2 3303   3.602   4.048  15.061  0.2098  0.0638 -0.0477
  214MPD1    C3 3304   3.660   4.059  15.191  0.3902  0.0445  0.6401
  214MPD1    C4 3305   3.586   4.010  15.303 -0.4274  0.0042  0.4156
  214MPD1    C5 3306   3.462   3.960  15.288 -0.1914  0.0843  0.4024
  214MPD1     H 3307   3.670   4.067  14.979  2.9930 -0.2541  2.1922
  214MPD1    H1 3308   3.621   4.018  15.405 -0.3200 -0.0932  0.3864
  214MPD1    H2 3309   3.315   3.891  15.165 -1.0744  1.6584 -1.1105
  214MPD1    H3 3310   3.412   3.918  15.374  3.2576 -3.2532  0.7449
  214MPD1     N 3311   3.784   4.118  15.208 -0.2794  0.5739  0.5293
  214MPD1    H5 3312   3.827   4.099  15.298  0.8604  3.5459  0.5997
  214MPD1    N1 3313   3.440   3.939  14.915 -0.3108 -0.4651 -0.7866
  214MPD1    H6 3314   3.465   4.006  14.843  0.8032 -1.2240 -1.1124
  214MPD1    H7 3315   3.339   3.942  14.922 -0.3388  0.6336 -1.7613
  215MPD1     C 3316   3.073   0.435  11.075 -0.4878  0.0572 -0.3092
  215MPD1    C1 3317   3.128   0.408  11.197  0.1785 -0.2056  0.4177
  215MPD1    C2 3318   3.208   0.508  11.243 -0.3627  0.1684  0.0995
  215MPD1    C3 3319   3.229   0.629  11.169  0.9663 -0.5281 -0.0433
  215MPD1    C4 3320   3.181   0.639  11.039  0.4794 -0.2599  0.2910
  215MPD1    C5 3321   3.105   0.536  10.993 -0.5230 -0.9549 -0.8465
  215MPD1     H 3322   3.257   0.490  11.338 -1.4476  1.0771  0.8215
  215MPD1    H1 3323   3.198   0.723  10.972  0.1713  0.2225  0.8188
  215MPD1    H2 3324   3.009   0.356  11.036 -1.7821  2.1874 -2.4287
  215MPD1    H3 3325   3.064   0.544  10.893  0.3484  0.1541 -1.1173
  215MPD1     N 3326   3.298   0.729  11.242  0.7529  0.5135  0.4557
  215MPD1    H5 3327   3.324   0.699  11.336  0.8089  0.5082  0.4381
  215MPD1    N1 3328   3.104   0.292  11.275  0.3764  0.8565 -0.4185
  215MPD1    H6 3329   3.183   0.260  11.331 -0.4554 -0.9247 -0.2580
  215MPD1    H7 3330   3.064   0.216  11.221 -0.0032 -0.4108  1.6155
  216MPD1     C 3331   1.108   3.511  17.307 -0.1519  0.5174  0.0344
  216MPD1    C1 3332   1.027   3.437  17.389 -0.4809 -0.6963  0.7135
  216MPD1    C2 3333   1.069   3.315  17.430 -0.0119 -0.0260 -0.7162
  216MPD1    C3 3334   1.184   3.256  17.391  0.1455  0.1919 -0.1618
  216MPD1    C4 3335   1.277   3.332  17.319  0.8795 -0.2186  0.5270
  216MPD1    C5 3336   1.235   3.462  17.280 -0.0291 -0.1257  0.3180
  216MPD1     H 3337   1.001   3.254  17.488 -1.4841  1.6309 -0.7144
  216MPD1    H1 3338   1.375   3.297  17.287  1.3159 -0.0111  1.6094
  216MPD1    H2 3339   1.082   3.615  17.288 -0.2648  0.7245  1.3048
  216MPD1    H3 3340   1.309   3.520  17.226 -0.5325 -0.8460 -1.1275
  216MPD1     N 3341   1.205   3.123  17.422 -0.3652  0.8333 -0.4393
  216MPD1    H5 3342   1.138   3.079  17.484  0.5756  4.2702  2.9966
  216MPD1    N1 3343   0.919   3.498  17.460  0.3374 -0.3392 -0.0551
  216MPD1    H6 3344   0.880   3.574  17.405  0.4813  0.9870  1.6424
  216MPD1    H7 3345   0.841   3.434  17.469 -0.2243  0.1378 -1.6188
  217MPD1     C 3346   2.114   3.561   8.547  0.4938  0.0819  0.0763
  217MPD1    C1 3347   2.079   3.682   8.491  0.0992 -0.3574 -0.2388
  217MPD1    C2 3348   2.155   3.789   8.526 -0.9397  0.8518  0.8268
  217MPD1    C3 3349   2.241   3.790   8.629  0.4272  0.5803 -0.5006
  217MPD1    C4 3350   2.269   3.665   8.690 -1.2704  0.3910 -0.0494
  217MPD1    C5 3351   2.215   3.548   8.642 -0.1054  0.0405  0.6271
  217MPD1     H 3352   2.141   3.883   8.473 -0.3264 -0.4292 -1.6117
  217MPD1    H1 3353   2.333   3.653   8.777 -2.0155  2.2595  0.7461
  217MPD1    H2 3354   2.065   3.468   8.518 -0.5928  1.1661 -1.5276
  217MPD1    H3 3355   2.240   3.453   8.688 -1.4381  0.1670  1.6188
  217MPD1     N 3356   2.309   3.904   8.678 -0.2624 -0.1077  0.1525
  217MPD1    H5 3357   2.389   3.887   8.738  0.1314 -0.9119 -0.6083
  217MPD1    N1 3358   1.996   3.678   8.378  0.8186 -0.4473 -0.2927
  217MPD1    H6 3359   1.937   3.762   8.380  1.7827  0.1971  0.7464
  217MPD1    H7 3360   1.927   3.603   8.375  0.4546 -0.1125 -0.4496
  218MPD1     C 3361   3.179   0.522  12.810 -0.0649  0.6387 -0.5109
  218MPD1    C1 3362   3.266   0.630  12.792 -0.3784  0.0237 -0.3415
  218MPD1    C2 3363   3.393   0.608  12.752 -0.1243  0.3593 -0.4234
  218MPD1    C3 3364   3.429   0.478  12.727  0.4367  0.0858 -0.8324
  218MPD1    C4 3365   3.351   0.377  12.772  0.2460 -0.4147  0.4068
  218MPD1    C5 3366   3.227   0.395  12.820  0.2289 -0.4350 -0.1534
  218MPD1     H 3367   3.454   0.692  12.722  1.0315  0.2804  1.6645
  218MPD1    H1 3368   3.379   0.272  12.766  1.7608 -0.0616  1.2906
  218MPD1    H2 3369   3.076   0.541  12.839  0.8785  0.7621  2.7760
  218MPD1    H3 3370   3.163   0.310  12.842  1.1819 -0.5519  2.1363
  218MPD1     N 3371   3.553   0.460  12.656 -0.9484  0.1910  0.0711
  218MPD1    H5 3372   3.597   0.546  12.625  1.0063  0.0143  2.3399
  218MPD1    N1 3373   3.213   0.751  12.765  0.2651  0.9366 -0.3546
  218MPD1    H6 3374   3.130   0.766  12.822 -0.8723  1.3292 -2.1250
  218MPD1    H7 3375   3.279   0.828  12.779 -0.6700  1.5559  0.6966
  219MPD1     C 3376   3.895   1.106  12.298 -0.4930 -0.5374 -0.1670
  219MPD1    C1 3377   4.006   1.040  12.349  0.2515 -0.6784 -0.3859
  219MPD1    C2 3378   3.999   0.908  12.385  0.2805 -0.5174  0.0056
  219MPD1    C3 3379   3.880   0.838  12.368  0.6924 -0.1537 -0.2587
  219MPD1    C4 3380   3.776   0.902  12.311  0.1105  0.1567 -0.4591
  219MPD1    C5 3381   3.782   1.034  12.273  0.2680 -0.0601 -0.3506
  219MPD1     H 3382   4.092   0.864  12.419 -0.3067 -1.9849 -0.2864
  219MPD1    H1 3383   3.685   0.845  12.295  0.2589 -0.4852  1.0616
  219MPD1    H2 3384   3.892   1.209  12.265 -0.8620 -1.3848 -2.7890
  219MPD1    H3 3385   3.696   1.082  12.228 -1.1077 -1.6636  0.5584
  219MPD1     N 3386   3.872   0.703  12.406  0.1840 -0.5580  0.1878
  219MPD1    H5 3387   3.781   0.660  12.393  1.2824 -2.4187 -1.3520
  219MPD1    N1 3388   4.131   1.100  12.347 -0.5838  0.8960  0.4925
  219MPD1    H6 3389   4.119   1.196  12.381  1.7357  1.0699  0.8177
  219MPD1    H7 3390   4.201   1.054  12.404 -2.6985 -2.6387  0.1897
  220MPD1     C 3391   3.825   1.722   9.736  0.0543 -0.5381  0.0075
  220MPD1    C1 3392   3.922   1.661   9.814 -0.2893  0.5904 -0.2993
  220MPD1    C2 3393   3.873   1.567   9.907  0.4777 -0.6022  0.1261
  220MPD1    C3 3394   3.743   1.518   9.907 -0.1734 -0.0854  0.2948
  220MPD1    C4 3395   3.657   1.575   9.824  0.3629 -0.5748  0.1289
  220MPD1    C5 3396   3.690   1.676   9.739 -0.1988 -0.5959 -0.1156
  220MPD1     H 3397   3.932   1.522   9.987 -0.3525  0.7549  1.4903
  220MPD1    H1 3398   3.557   1.535   9.810  1.0534 -1.8324 -1.2686
  220MPD1    H2 3399   3.844   1.810   9.675 -3.3154 -0.9246 -1.6300
  220MPD1    H3 3400   3.607   1.721   9.687 -0.8938 -1.7345 -0.0001
  220MPD1     N 3401   3.715   1.416   9.990  0.1698  0.7581 -0.4364
  220MPD1    H5 3402   3.784   1.386  10.059 -0.7169  0.1923  0.2077
  220MPD1    N1 3403   4.043   1.721   9.833  0.1583 -0.0199 -0.6348
  220MPD1    H6 3404   4.119   1.657   9.854  0.4105  0.6523  0.5319
  220MPD1    H7 3405   4.078   1.783   9.760  1.7861 -0.3642 -0.1500
  221MPD1     C 3406   1.279   0.512  16.243  0.4761  0.5035 -0.7877
  221MPD1    C1 3407   1.285   0.376  16.252 -0.6843 -0.9790  0.3154
  221MPD1    C2 3408   1.408   0.312  16.273 -0.0782  0.6739  0.6791
  221MPD1    C3 3409   1.524   0.384  16.307  0.4064 -0.9458  0.7747
  221MPD1    C4 3410   1.513   0.522  16.309 -0.4879  0.1353 -0.1921
  221MPD1    C5 3411   1.393   0.580  16.289  0.2883  0.4566  0.1505
  221MPD1     H 3412   1.405   0.205  16.258  1.3616  0.6509  0.6286
  221MPD1    H1 3413   1.598   0.586  16.331 -1.7990  1.7455  0.1818
  221MPD1    H2 3414   1.180   0.554  16.226 -0.5875 -1.4306  0.4915
  221MPD1    H3 3415   1.374   0.686  16.302  0.9486  0.4503  1.1587
  221MPD1     N 3416   1.654   0.326  16.323 -0.6920  0.2587 -0.1032
  221MPD1    H5 3417   1.727   0.397  16.321  0.3627 -0.8031  1.3054
  221MPD1    N1 3418   1.165   0.305  16.211  0.3138  0.4554  0.7430
  221MPD1    H6 3419   1.167   0.208  16.242 -2.2502  0.0707 -0.3420
  221MPD1    H7 3420   1.086   0.350  16.256 -0.3821  0.6211 -0.6708
  222MPD1     C 3421   1.865   3.930  16.939  0.0729 -0.3694 -0.2608
  222MPD1    C1 3422   1.807   3.917  16.819 -0.1631  0.9539  0.1361
  222MPD1    C2 3423   1.673   3.938  16.802  0.3794 -0.3069 -0.4914
  222MPD1    C3 3424   1.605   3.986  16.908 -0.4234 -0.2334 -0.5719
  222MPD1    C4 3425   1.668   4.026  17.022 -0.0032  0.0634 -0.1593
  222MPD1    C5 3426   1.800   3.998  17.035  0.3434 -0.5068 -0.3509
  222MPD1     H 3427   1.620   3.897  16.717  3.0167 -1.5863 -1.5194
  222MPD1    H1 3428   1.621   4.070  17.109  1.2791 -0.8214  0.9811
  222MPD1    H2 3429   1.971   3.908  16.947  0.0851  0.0067  0.6162
  222MPD1    H3 3430   1.862   4.030  17.118 -0.9148  1.2822 -0.0860
  222MPD1     N 3431   1.465   4.005  16.907  0.0712  0.4950 -0.5539
  222MPD1    H5 3432   1.415   4.029  16.992 -2.4205  1.2716 -2.2708
  222MPD1    N1 3433   1.872   3.844  16.722  0.2672 -0.5011  0.1531
  222MPD1    H6 3434   1.830   3.851  16.629 -0.8284 -1.5151  0.5747
  222MPD1    H7 3435   1.974   3.846  16.727  0.3759 -0.5362 -1.9657
  223MPD1     C 3436   0.671   3.907  16.238 -0.5210  0.1220  1.2513
  223MPD1    C1 3437   0.804   3.906  16.215 -0.6320  0.4170 -0.0394
  223MPD1    C2 3438   0.885   3.911  16.324  0.0050  0.0575 -0.5848
  223MPD1    C3 3439   0.846   3.935  16.452  0.4313 -0.6822 -0.3860
  223MPD1    C4 3440   0.707   3.946  16.467  0.6365 -0.9028 -0.8155
  223MPD1    C5 3441   0.619   3.932  16.363 -0.2759 -0.3238 -0.2062
  223MPD1     H 3442   0.991   3.905  16.307 -0.1167  1.1702 -1.7025
  223MPD1    H1 3443   0.665   3.971  16.563 -0.7953 -2.0096 -1.1644
  223MPD1    H2 3444   0.601   3.890  16.156  0.3695  0.4345  0.4309
  223MPD1    H3 3445   0.511   3.939  16.377  0.0980  0.6158  2.1682
  223MPD1     N 3446   0.940   3.945  16.559  0.1232 -0.0288  0.1705
  223MPD1    H5 3447   1.036   3.913  16.547 -0.7838 -2.2549 -1.2107
  223MPD1    N1 3448   0.844   3.873  16.083  0.7107 -0.3055 -0.0429
  223MPD1    H6 3449   0.938   3.900  16.054 -0.3379  2.2981 -0.9637
  223MPD1    H7 3450   0.777   3.898  16.011  0.9451 -1.2869 -0.6116
  224MPD1     C 3451   2.187   0.438   8.670  0.2133 -0.5278  0.1183
  224MPD1    C1 3452   2.292   0.352   8.687 -0.7817 -0.3762 -0.3035
  224MPD1    C2 3453   2.345   0.344   8.815 -0.2464  0.4012 -0.5286
  224MPD1    C3 3454   2.321   0.438   8.913  0.0325  0.1917  0.0888
  224MPD1    C4 3455   2.215   0.519   8.896 -0.2566 -0.8077  0.1756
  224MPD1    C5 3456   2.142   0.518   8.774 -0.2932 -0.1015  0.0557
  224MPD1     H 3457   2.426   0.274   8.830 -0.5522  0.6475  2.1747
  224MPD1    H1 3458   2.200   0.588   8.978  0.7320 -0.4730  0.0660
  224MPD1    H2 3459   2.142   0.443   8.571 -1.2005  1.2163  0.8636
  224MPD1    H3 3460   2.059   0.586   8.760 -1.2132 -1.1146  0.5475
  224MPD1     N 3461   2.379   0.439   9.043 -0.4580 -0.1091 -0.7441
  224MPD1    H5 3462   2.330   0.497   9.110  0.5820 -0.5450  0.3956
  224MPD1    N1 3463   2.340   0.271   8.584  0.2224  0.4286  0.9904
  224MPD1    H6 3464   2.431   0.227   8.600  0.0199 -0.4852 -0.3524
  224MPD1    H7 3465   2.352   0.324   8.498  0.7811  0.9944  1.4136
  225MPD1     C 3466   3.873   1.465  12.019 -0.5017 -0.7351 -0.5258
  225MPD1    C1 3467   3.855   1.476  12.153  0.4846 -0.7266 -0.3788
  225MPD1    C2 3468   3.738   1.440  12.215  0.0264  0.2018  0.0751
  225MPD1    C3 3469   3.632   1.385  12.140 -0.1284  1.3354 -0.7906
  225MPD1    C4 3470   3.652   1.359  12.007 -0.1240  0.2191 -0.0149
  225MPD1    C5 3471   3.768   1.399  11.952 -0.5490 -0.2236  0.2902
  225MPD1     H 3472   3.733   1.450  12.323 -1.6303  0.6984 -0.0466
  225MPD1    H1 3473   3.579   1.306  11.946 -1.3819 -0.3181  1.9620
  225MPD1    H2 3474   3.953   1.501  11.956  0.5190 -1.6202  0.2578
  225MPD1    H3 3475   3.782   1.376  11.847  1.7312  1.0724  0.2958
  225MPD1     N 3476   3.510   1.347  12.191  0.1781  0.6003 -0.4135
  225MPD1    H5 3477   3.449   1.296  12.127  1.8246 -0.5484 -1.0771
  225MPD1    N1 3478   3.958   1.541  12.217  1.0041  0.1760  0.1709
  225MPD1    H6 3479   4.053   1.527  12.182  0.9552 -0.6619  0.3866
  225MPD1    H7 3480   3.956   1.518  12.316 -2.5680  2.0929  0.5143
  226MPD1     C 3481   1.353   0.772   9.461  0.4977  0.0940  0.1307
  226MPD1    C1 3482   1.271   0.876   9.517  0.1546  0.4050 -0.8961
  226MPD1    C2 3483   1.324   1.001   9.543  0.1489  0.2117  0.1439
  226MPD1    C3 3484   1.460   1.028   9.516  0.5619 -0.3465  0.1340
  226MPD1    C4 3485   1.533   0.932   9.441  0.1717  0.1527 -0.0979
  226MPD1    C5 3486   1.477   0.807   9.417 -0.6625 -0.6924 -0.9586
  226MPD1     H 3487   1.260   1.077   9.588  1.0015  1.5821 -0.9546
  226MPD1    H1 3488   1.636   0.949   9.410  0.3602 -1.1302 -0.1776
  226MPD1    H2 3489   1.320   0.670   9.450  0.9315  0.0661 -0.9068
  226MPD1    H3 3490   1.535   0.734   9.361  1.6431  1.7889 -1.8432
  226MPD1     N 3491   1.508   1.155   9.547 -0.0088  0.2825  0.0271
  226MPD1    H5 3492   1.437   1.206   9.599 -0.3738 -0.7757  0.5595
  226MPD1    N1 3493   1.131   0.857   9.533 -0.1850  0.1547 -0.0448
  226MPD1    H6 3494   1.072   0.917   9.475 -1.6998 -0.4299  0.8784
  226MPD1    H7 3495   1.106   0.765   9.498 -2.4780  0.5806  0.4914
  227MPD1     C 3496   1.318   1.740  10.238 -0.1199 -0.1466  0.4195
  227MPD1    C1 3497   1.458   1.758  10.237 -0.1853  0.5715 -0.4838
  227MPD1    C2 3498   1.528   1.734  10.125  0.9531  0.8176  0.3983
  227MPD1    C3 3499   1.463   1.707  10.007  0.6450  0.0772 -0.4091
  227MPD1    C4 3500   1.326   1.698  10.007 -0.0342 -0.1445  0.3542
  227MPD1    C5 3501   1.254   1.723  10.120  0.4145  0.0620 -0.3453
  227MPD1     H 3502   1.636   1.728  10.117  1.0307  0.8160  1.5850
  227MPD1    H1 3503   1.273   1.661   9.920  2.2090  0.6338 -1.3432
  227MPD1    H2 3504   1.260   1.757  10.327  0.3079  0.0123  0.6686
  227MPD1    H3 3505   1.146   1.712  10.116  0.6391 -1.3848 -2.4814
  227MPD1     N 3506   1.544   1.649   9.904  0.8123  0.3290 -0.4244
  227MPD1    H5 3507   1.643   1.653   9.924  0.4859  2.3077  0.8196
  227MPD1    N1 3508   1.530   1.778  10.359  0.3138  0.0613 -0.1044
  227MPD1    H6 3509   1.476   1.823  10.432  1.4093  0.1891  0.6228
  227MPD1    H7 3510   1.620   1.825  10.350 -1.6502  3.9685  0.6079
  228MPD1     C 3511   0.644   3.785  13.161 -0.0887 -0.0288  0.0780
  228MPD1    C1 3512   0.535   3.703  13.196 -0.0358  0.3884 -0.3157
  228MPD1    C2 3513   0.458   3.662  13.091 -0.6096  0.6408  0.6663
  228MPD1    C3 3514   0.492   3.674  12.955  0.8887 -0.1335  0.7371
  228MPD1    C4 3515   0.603   3.740  12.930 -0.2201 -0.4802  0.1574
  228MPD1    C5 3516   0.679   3.798  13.022  1.1067 -0.5219  0.1107
  228MPD1     H 3517   0.365   3.610  13.109 -0.7183  0.4748 -0.3421
  228MPD1    H1 3518   0.638   3.759  12.829 -0.8958 -0.3075 -0.0440
  228MPD1    H2 3519   0.711   3.818  13.240  0.0041 -0.6259  0.2520
  228MPD1    H3 3520   0.767   3.850  12.988  0.4086 -0.2363 -1.2702
  228MPD1     N 3521   0.397   3.625  12.861  0.0012  0.5243  0.1518
  228MPD1    H5 3522   0.328   3.560  12.897  0.2337 -0.1568 -0.6269
  228MPD1    N1 3523   0.487   3.694  13.326  1.0667 -0.0849 -0.1573
  228MPD1    H6 3524   0.442   3.603  13.332 -0.0006  0.3325 -2.0390
  228MPD1    H7 3525   0.560   3.709  13.396  1.5683 -0.5086 -0.5854
  229MPD1     C 3526   0.024   2.838  14.663  0.4376  0.3868  0.5624
  229MPD1    C1 3527   0.022   2.853  14.794  0.7211  0.2623  0.1415
  229MPD1    C2 3528   0.062   2.750  14.877  0.0495  0.0084  0.1657
  229MPD1    C3 3529   0.126   2.641  14.820 -0.1799 -0.0990 -0.1402
  229MPD1    C4 3530   0.138   2.631  14.682  0.0914  0.7808 -0.4515
  229MPD1    C5 3531   0.077   2.728  14.605  0.2308  0.4303 -0.3511
  229MPD1     H 3532   0.069   2.766  14.984  0.2300 -3.5110  0.6881
  229MPD1    H1 3533   0.195   2.553  14.634 -0.0951  0.4764 -0.1784
  229MPD1    H2 3534   4.722   2.913  14.594  1.2710 -1.2079 -1.6336
  229MPD1    H3 3535   0.075   2.721  14.497 -1.8327  0.5204 -0.3024
  229MPD1     N 3536   0.179   2.529  14.888  0.4142  0.4175 -0.7816
  229MPD1    H5 3537   0.226   2.459  14.831 -2.2874 -1.9024 -0.1214
  229MPD1    N1 3538   4.690   2.960  14.846 -0.4419  0.2572  0.2060
  229MPD1    H6 3539   4.725   2.971  14.941 -0.9628  3.7911 -0.0011
  229MPD1    H7 3540   4.706   3.047  14.796 -0.4391  0.0171 -0.2108
  230MPD1     C 3541   0.705   2.459  15.766 -0.9543 -0.0641  0.1494
  230MPD1    C1 3542   0.648   2.565  15.701 -0.3799 -0.5294  0.0057
  230MPD1    C2 3543   0.559   2.537  15.593  0.1867 -0.2720 -0.2409
  230MPD1    C3 3544   0.544   2.405  15.541 -0.1006  0.5198 -0.0411
  230MPD1    C4 3545   0.607   2.303  15.612  1.2079 -0.6542 -0.2350
  230MPD1    C5 3546   0.687   2.335  15.719  0.2904 -0.4216  0.3690
  230MPD1     H 3547   0.509   2.618  15.541 -0.8860 -1.4850 -1.1043
  230MPD1    H1 3548   0.603   2.196  15.591  2.0551 -0.3119 -2.1566
  230MPD1    H2 3549   0.767   2.471  15.854 -2.5674  0.8684  1.1553
  230MPD1    H3 3550   0.736   2.258  15.777 -1.1598 -0.1521  1.9683
  230MPD1     N 3551   0.466   2.384  15.425 -0.1031 -0.5201 -0.2753
  230MPD1    H5 3552   0.419   2.468  15.394 -1.3961 -1.2400 -0.2367
  230MPD1    N1 3553   0.665   2.700  15.742 -0.2236 -0.1463 -0.2737
  230MPD1    H6 3554   0.763   2.729  15.740  0.0547 -1.0207  0.6360
  230MPD1    H7 3555   0.631   2.765  15.672 -0.4069 -1.4039 -1.3518
  231MPD1     C 3556   3.388   4.293  15.180  0.1420  0.2262 -0.4708
  231MPD1    C1 3557   3.356   4.297  15.044 -0.6899 -0.3959  0.0550
  231MPD1    C2 3558   3.429   4.403  14.979  0.4240  0.0548  0.3343
  231MPD1    C3 3559   3.532   4.474  15.042 -0.2189  1.1190  0.6985
  231MPD1    C4 3560   3.560   4.455  15.181  0.8621 -0.0677 -0.3858
  231MPD1    C5 3561   3.489   4.365  15.248 -0.2611  0.6548 -0.2717
  231MPD1     H 3562   3.405   4.425  14.876 -0.9760 -1.2253  0.3946
  231MPD1    H1 3563   3.638   4.515  15.226  0.3174  0.0104  0.4458
  231MPD1    H2 3564   3.330   4.232  15.249  1.3201  0.8051  1.0220
  231MPD1    H3 3565   3.512   4.351  15.353 -0.7887 -1.7838 -0.4931
  231MPD1     N 3566   3.599   4.560  14.958 -0.1931  0.0084  0.4858
  231MPD1    H5 3567   3.579   4.544  14.860  0.9144 -0.0091  0.2625
  231MPD1    N1 3568   3.243   4.226  14.989 -0.2340 -0.3579 -0.7001
  231MPD1    H6 3569   3.232   4.217  14.889  1.8726 -0.3595 -0.9278
  231MPD1    H7 3570   3.216   4.135  15.026 -1.2312 -0.3389 -1.3804
  232MPD1     C 3571   0.680   1.541   0.370  0.0760 -0.4355  0.1780
  232MPD1    C1 3572   0.542   1.561   0.386  0.3292 -0.0561  0.1207
  232MPD1    C2 3573   0.466   1.496   0.286  0.0545  0.1511  0.2517
  232MPD1    C3 3574   0.516   1.418   0.180  0.0907  0.4741 -0.3635
  232MPD1    C4 3575   0.648   1.409   0.172 -0.0452  0.2230  0.8147
  232MPD1    C5 3576   0.730   1.462   0.269 -0.1977 -0.1874  0.9821
  232MPD1     H 3577   0.359   1.498   0.295  0.0991  1.6097  0.4270
  232MPD1    H1 3578   0.697   1.346   0.099  0.0854  2.4028 -0.9748
  232MPD1    H2 3579   0.744   1.591   0.441 -1.2720 -2.0314  2.5345
  232MPD1    H3 3580   0.836   1.445   0.255 -0.7849 -1.2616 -1.9905
  232MPD1     N 3581   0.431   1.368   0.086  0.0161  0.5545  0.0330
  232MPD1    H5 3582   0.334   1.397   0.097 -0.2596  0.3292 -1.8469
  232MPD1    N1 3583   0.488   1.644   0.482  0.1010 -0.5480 -0.0730
  232MPD1    H6 3584   0.543   1.648   0.567 -1.1390 -1.9294  0.8033
  232MPD1    H7 3585   0.392   1.621   0.506 -0.7327  1.0523 -1.9059
  233MPD1     C 3586   1.544   0.800  17.085  0.0710 -0.7621 -0.5464
  233MPD1    C1 3587   1.588   0.889  17.181  0.3131  0.2801 -0.0615
  233MPD1    C2 3588   1.582   0.834  17.311 -0.4912 -0.2410 -0.1692
  233MPD1    C3 3589   1.580   0.701  17.333 -0.0284 -0.1180 -0.5208
  233MPD1    C4 3590   1.560   0.613  17.230 -0.5868  0.2884 -0.1156
  233MPD1    C5 3591   1.536   0.667  17.109  0.2610  0.3556  0.3801
  233MPD1     H 3592   1.589   0.901  17.395 -0.0853 -0.9621  0.3772
  233MPD1    H1 3593   1.569   0.506  17.245  2.3694  0.4599 -0.5742
  233MPD1    H2 3594   1.518   0.827  16.984  0.6305 -2.5404 -1.1610
  233MPD1    H3 3595   1.519   0.598  17.028  0.7079  0.1505  0.4660
  233MPD1     N 3596   1.591   0.637  17.460 -0.0927  0.3987  0.5447
  233MPD1    H5 3597   1.581   0.537  17.476  0.2893  0.5127  1.5181
  233MPD1    N1 3598   1.600   1.027  17.154  0.0016 -0.1944 -0.0556
  233MPD1    H6 3599   1.647   1.074  17.232  1.5225 -1.1868 -0.3683
  233MPD1    H7 3600   1.656   1.039  17.070  0.2562 -0.8775  0.0188
  234MPD1     C 3601   4.010   4.077   9.452  0.7074 -0.0826  0.0359
  234MPD1    C1 3602   3.960   4.139   9.565  0.0714 -0.1982  0.4140
  234MPD1    C2 3603   3.832   4.194   9.567  0.0272  0.2250  0.3494
  234MPD1    C3 3604   3.757   4.172   9.450  0.1757 -0.1188 -0.5156
  234MPD1    C4 3605   3.805   4.104   9.340 -0.6583 -0.8082 -0.1818
  234MPD1    C5 3606   3.934   4.060   9.342 -0.5351  0.4132  0.2647
  234MPD1     H 3607   3.781   4.241   9.650 -1.1305  2.8243 -1.8416
  234MPD1    H1 3608   3.754   4.084   9.246 -1.1400  0.7203 -0.2405
  234MPD1    H2 3609   4.109   4.034   9.444  0.3823 -0.6374 -0.9858
  234MPD1    H3 3610   3.977   3.989   9.272  0.6636  1.1230  0.2757
  234MPD1     N 3611   3.626   4.225   9.456 -0.1512  0.2518 -0.2185
  234MPD1    H5 3612   3.593   4.255   9.547 -0.9492  2.7179 -1.3298
  234MPD1    N1 3613   4.048   4.171   9.666 -0.7855 -0.2810 -0.1387
  234MPD1    H6 3614   4.128   4.108   9.673  1.0223  2.1205  0.5747
  234MPD1    H7 3615   3.999   4.175   9.755 -1.1808 -0.3466 -0.3515
  235MPD1     C 3616   4.258   2.067   9.754 -0.7042 -0.4983  0.5058
  235MPD1    C1 3617   4.252   2.198   9.746 -0.2897  1.1926  0.1788
  235MPD1    C2 3618   4.350   2.277   9.813 -0.5542  0.1935 -0.0318
  235MPD1    C3 3619   4.461   2.218   9.882  0.8563 -0.0767 -0.5634
  235MPD1    C4 3620   4.465   2.077   9.886  0.2979 -0.6178 -0.6182
  235MPD1    C5 3621   4.357   2.010   9.832  0.6203 -0.1131  0.7665
  235MPD1     H 3622   4.350   2.384   9.796  1.3517  0.1257 -0.5190
  235MPD1    H1 3623   4.550   2.027   9.932  1.1496  2.0488  0.7435
  235MPD1    H2 3624   4.198   1.994   9.701  0.4789 -1.2729  0.2303
  235MPD1    H3 3625   4.359   1.902   9.840  0.3338 -0.3015 -1.7234
  235MPD1     N 3626   4.559   2.297   9.937 -0.2523 -0.9724  0.3711
  235MPD1    H5 3627   4.526   2.385   9.975 -1.3947 -0.5896 -1.4898
  235MPD1    N1 3628   4.163   2.253   9.654  0.2325  0.7877  0.3171
  235MPD1    H6 3629   4.128   2.341   9.689  1.0309  0.2156  2.5742
  235MPD1    H7 3630   4.078   2.199   9.638  0.8431  0.7950 -2.8376
  236MPD1     C 3631   3.739   2.891   8.848 -0.5116 -0.8007  0.2302
  236MPD1    C1 3632   3.677   2.776   8.882  0.7102  0.1344  0.1806
  236MPD1    C2 3633   3.673   2.732   9.013 -0.6209  0.2571 -0.3058
  236MPD1    C3 3634   3.746   2.789   9.117 -0.3735 -0.6354  0.6148
  236MPD1    C4 3635   3.812   2.902   9.084 -0.0352 -0.1845 -0.9991
  236MPD1    C5 3636   3.803   2.957   8.956  0.7664 -0.5873  0.3898
  236MPD1     H 3637   3.620   2.643   9.046  0.5150 -0.0618  0.6715
  236MPD1    H1 3638   3.878   2.956   9.151 -1.8303 -0.9899  1.4279
  236MPD1    H2 3639   3.726   2.941   8.753  1.5509 -2.1164 -0.7389
  236MPD1    H3 3640   3.852   3.053   8.943 -3.9282  1.3435 -3.0054
  236MPD1     N 3641   3.750   2.743   9.254 -0.0381  0.5578  0.1272
  236MPD1    H5 3642   3.789   2.800   9.329  0.1532  2.0272 -1.0861
  236MPD1    N1 3643   3.601   2.720   8.779  0.0681 -0.3641 -0.1371
  236MPD1    H6 3644   3.506   2.691   8.801  0.5076  1.1001  3.8224
  236MPD1    H7 3645   3.596   2.781   8.698  0.1128 -0.8891 -0.5305
  237MPD1     C 3646   3.550   0.661  15.644 -0.0472 -0.2935 -0.3649
  237MPD1    C1 3647   3.566   0.679  15.505 -0.1222  0.3742 -0.1978
  237MPD1    C2 3648   3.447   0.678  15.434 -0.7089 -0.5651 -0.1467
  237MPD1    C3 3649   3.326   0.672  15.492 -0.0642 -0.3616  0.4128
  237MPD1    C4 3650   3.311   0.661  15.627 -0.0067 -0.1674  0.4125
  237MPD1    C5 3651   3.425   0.642  15.699  0.0840  0.3289 -0.5285
  237MPD1     H 3652   3.462   0.690  15.327  2.2774 -2.1843  0.0915
  237MPD1    H1 3653   3.214   0.652  15.674 -0.4133 -0.4678 -0.4725
  237MPD1    H2 3654   3.636   0.631  15.702  0.3274  0.6709 -0.4212
  237MPD1    H3 3655   3.418   0.626  15.806  0.8873 -0.9926 -0.6816
  237MPD1     N 3656   3.207   0.671  15.423 -0.2211  0.9515  0.1805
  237MPD1    H5 3657   3.124   0.681  15.480 -1.5211 -0.3210 -1.4580
  237MPD1    N1 3658   3.698   0.667  15.444  0.0126  0.4219 -0.5096
  237MPD1    H6 3659   3.776   0.676  15.508  1.7270 -0.9009 -2.4105
  237MPD1    H7 3660   3.722   0.722  15.362 -0.1251 -1.5858 -1.9076
  238MPD1     C 3661   0.562   4.191  15.312  0.3141 -0.0900  0.1599
  238MPD1    C1 3662   0.621   4.141  15.189  0.2455  0.6033  0.3518
  238MPD1    C2 3663   0.536   4.138  15.076  0.2057  0.2261 -0.9766
  238MPD1    C3 3664   0.403   4.164  15.084 -0.7304 -0.0312  0.2073
  238MPD1    C4 3665   0.356   4.213  15.204  0.4607 -0.5709  0.4540
  238MPD1    C5 3666   0.435   4.235  15.310  0.6727 -0.3216  0.3513
  238MPD1     H 3667   0.576   4.090  14.988 -1.0051 -0.4075 -1.1685
  238MPD1    H1 3668   0.249   4.223  15.208  0.3988 -2.3252  3.4027
  238MPD1    H2 3669   0.623   4.201  15.401  0.2236  0.4300  0.1636
  238MPD1    H3 3670   0.398   4.288  15.398 -1.7428 -0.9555 -0.2958
  238MPD1     N 3671   0.306   4.145  14.991 -0.0830  0.1473  0.0762
  238MPD1    H5 3672   0.214   4.151  15.034  0.4455 -1.2171  1.4109
  238MPD1    N1 3673   0.749   4.106  15.195  0.6692 -0.2261  0.0552
  238MPD1    H6 3674   0.781   4.084  15.289  0.4226  2.4016  0.7556
  238MPD1    H7 3675   0.762   4.020  15.141 -0.6574  1.0460 -2.3382
  239MPD1     C 3676   0.512   0.530  14.794  0.2697  1.1220  0.3642
  239MPD1    C1 3677   0.586   0.589  14.692 -0.2437  0.1743  0.3406
  239MPD1    C2 3678   0.522   0.645  14.583  0.0817  0.9858 -0.3341
  239MPD1    C3 3679   0.387   0.627  14.576  1.0358  0.5247 -0.5130
  239MPD1    C4 3680   0.310   0.557  14.671  1.1452  0.3484 -0.5942
  239MPD1    C5 3681   0.377   0.515  14.783  0.6839  0.5875  0.1056
  239MPD1     H 3682   0.591   0.680  14.508 -0.0471  0.6733 -0.5984
  239MPD1    H1 3683   0.206   0.533  14.655  0.0497  2.9765  2.8412
  239MPD1    H2 3684   0.559   0.487  14.882 -0.8217  1.0784  0.9257
  239MPD1    H3 3685   0.319   0.458  14.855  1.8439 -0.0830  0.4925
  239MPD1     N 3686   0.318   0.677  14.466 -0.3767  0.4359 -0.1527
  239MPD1    H5 3687   0.217   0.676  14.474 -0.3532 -0.1308  0.0995
  239MPD1    N1 3688   0.723   0.596  14.692 -0.4960  0.6372  0.8872
  239MPD1    H6 3689   0.767   0.584  14.783  0.4536 -0.0906  0.3318
  239MPD1    H7 3690   0.769   0.680  14.654 -0.7973  0.3920 -0.0271
  240MPD1     C 3691   0.701   0.052  14.091 -0.2921  0.3567  0.4146
  240MPD1    C1 3692   0.692   4.718  14.210 -0.1452 -0.0538  0.5127
  240MPD1    C2 3693   0.572   4.676  14.260 -0.1886  0.2931 -0.0234
  240MPD1    C3 3694   0.448   4.718  14.203  0.5934 -0.5648 -0.1119
  240MPD1    C4 3695   0.458   0.049  14.085  0.7314 -0.6283  0.0759
  240MPD1    C5 3696   0.577   0.077  14.028  0.8435 -0.6337 -0.1179
  240MPD1     H 3697   0.572   4.629  14.358 -1.6183  1.0790  0.3496
  240MPD1    H1 3698   0.376   0.089  14.026  3.1873  0.3116 -2.7316
  240MPD1    H2 3699   0.790   0.097  14.050 -0.0612  1.1981  1.8802
  240MPD1    H3 3700   0.581   0.150  13.947  1.2744 -1.0189 -0.4424
  240MPD1     N 3701   0.327   4.683  14.272 -0.0674 -0.5100  0.4885
  240MPD1    H5 3702   0.334   4.620  14.351 -0.0678  1.0838  1.7691
  240MPD1    N1 3703   0.809   4.704  14.286 -0.5842 -0.0953  0.3980
  240MPD1    H6 3704   0.806   4.625  14.351 -0.3644 -0.6885 -0.3108
  240MPD1    H7 3705   0.890   4.695  14.225  1.5426  0.2482  3.1368
  241MPD1     C 3706   0.242   4.466  15.068  0.1341  0.1186 -0.5006
  241MPD1    C1 3707   0.108   4.436  15.034  0.1910 -0.3485  0.3180
  241MPD1    C2 3708   0.080   4.442  14.898  0.2247 -0.2163  0.2559
  241MPD1    C3 3709   0.166   4.494  14.810 -0.0922  0.4696 -0.7292
  241MPD1    C4 3710   0.295   4.527  14.847 -0.0798  0.0436 -0.2149
  241MPD1    C5 3711   0.333   4.499  14.977  0.1581 -0.7523  0.2020
  241MPD1     H 3712   4.717   4.408  14.871 -0.4171 -0.8152  3.4240
  241MPD1    H1 3713   0.370   4.563  14.778  0.4382 -0.8281 -0.1078
  241MPD1    H2 3714   0.288   4.454  15.166 -0.8271 -1.7859 -0.2703
  241MPD1    H3 3715   0.439   4.509  14.998  0.0092  1.3793 -0.0166
  241MPD1     N 3716   0.134   4.499  14.672 -0.7926  0.1059  0.2419
  241MPD1    H5 3717   0.214   4.532  14.618 -0.5762  0.3059  0.6925
  241MPD1    N1 3718   0.021   4.362  15.114 -0.2220  0.2601  0.4439
  241MPD1    H6 3719   4.659   4.374  15.091 -0.1924 -0.3591  0.0002
  241MPD1    H7 3720   0.040   4.383  15.212  1.4372  1.0932 -0.0525
  242MPD1     C 3721   4.571   3.373  15.851  0.1794  0.1835  0.5387
  242MPD1    C1 3722   4.670   3.463  15.821  0.1675  0.4141  0.6639
  242MPD1    C2 3723   4.706   3.481  15.691  0.0309  0.7020 -0.4509
  242MPD1    C3 3724   4.634   3.420  15.590 -0.3118  0.8862  0.8926
  242MPD1    C4 3725   4.535   3.331  15.619  0.7238  0.8636 -0.4152
  242MPD1    C5 3726   4.509   3.304  15.750  0.3667  0.5656 -0.5228
  242MPD1     H 3727   0.069   3.525  15.685  0.5469 -0.1400  1.8290
  242MPD1    H1 3728   4.482   3.267  15.551  0.2102  0.1578  0.6433
  242MPD1    H2 3729   4.547   3.347  15.954  1.6450 -2.6868  0.1495
  242MPD1    H3 3730   4.446   3.223  15.784  1.3820 -0.0263 -0.0369
  242MPD1     N 3731   4.666   3.432  15.454  0.6253 -0.3564  0.5249
  242MPD1    H5 3732   4.601   3.387  15.390  2.7339 -0.5547 -1.4642
  242MPD1    N1 3733   0.012   3.516  15.929 -0.2223 -0.5421  0.3089
  242MPD1    H6 3734   4.691   3.528  16.012  0.3081 -1.7686  0.8552
  242MPD1    H7 3735   0.062   3.603  15.911 -0.8925  0.1902  2.0031
  243MPD1     C 3736   0.880   2.301   0.317 -0.0389  0.2842  0.0666
  243MPD1    C1 3737   0.980   2.230   0.387  0.2173  0.1510 -0.1513
  243MPD1    C2 3738   1.087   2.195   0.313 -0.0283  0.8726 -0.0491
  243MPD1    C3 3739   1.104   2.229   0.175  0.1965 -0.5481 -0.5078
  243MPD1    C4 3740   1.007   2.292   0.110 -0.2300 -0.6641 -0.6447
  243MPD1    C5 3741   0.892   2.323   0.182  0.0645 -0.0848  0.1589
  243MPD1     H 3742   1.166   2.142   0.366 -1.2995 -0.0258  0.9446
  243MPD1    H1 3743   1.020   2.321   0.006  0.3344 -1.5040 -0.8068
  243MPD1    H2 3744   0.792   2.342   0.366 -1.5132 -0.8081 -1.6645
  243MPD1    H3 3745   0.801   2.368   0.143  0.0948  0.8741  1.2082
  243MPD1     N 3746   1.225   2.195   0.108  0.0630  0.2403 -0.8077
  243MPD1    H5 3747   1.271   2.119   0.157 -3.0006 -1.3357 -0.4021
  243MPD1    N1 3748   0.973   2.220   0.524 -0.2347 -0.0910 -0.1681
  243MPD1    H6 3749   0.889   2.268   0.555  1.0485  2.5997 -0.9324
  243MPD1    H7 3750   1.052   2.273   0.559  0.1392 -0.4788 -0.4108
  244MPD1     C 3751   1.455   1.335  17.530 -0.5687 -0.0299 -0.4448
  244MPD1    C1 3752   1.480   1.407  17.413 -0.0550 -0.1039 -0.3707
  244MPD1    C2 3753   1.488   1.548  17.416 -0.4103 -0.5369  0.3189
  244MPD1    C3 3754   1.459   1.610  17.544 -0.4660  0.5103  0.1806
  244MPD1    C4 3755   1.444   1.532  17.654  0.8574 -0.3952 -0.0793
  244MPD1    C5 3756   1.429   1.402  17.644 -0.5638 -0.6560 -0.0663
  244MPD1     H 3757   1.517   1.607  17.330 -0.6891  1.1744  1.3935
  244MPD1    H1 3758   1.422   1.577   0.006  2.9941 -0.2853  0.3640
  244MPD1    H2 3759   1.443   1.227  17.532  1.6635 -0.2046  2.7281
  244MPD1    H3 3760   1.424   1.343  17.735 -1.5371  2.7136  2.0681
  244MPD1     N 3761   1.462   1.754  17.544  0.5324  0.5168 -0.1310
  244MPD1    H5 3762   1.451   1.791  17.450 -2.0194 -0.2897 -0.1432
  244MPD1    N1 3763   1.512   1.339  17.295 -0.6711 -0.1649 -0.5219
  244MPD1    H6 3764   1.489   1.392  17.211 -0.2299  1.1370  0.1743
  244MPD1    H7 3765   1.451   1.258  17.282 -0.4983 -0.4549  0.4386
  245MPD1     C 3766   2.700   2.051  13.265  0.2062 -0.3584  0.3708
  245MPD1    C1 3767   2.733   2.092  13.391  0.1562 -0.3211 -0.0224
  245MPD1    C2 3768   2.816   2.200  13.400 -0.8196 -0.5276  0.3952
  245MPD1    C3 3769   2.859   2.282  13.296 -0.5804  0.4866 -0.1643
  245MPD1    C4 3770   2.822   2.238  13.165 -0.1605 -0.5642 -0.7754
  245MPD1    C5 3771   2.739   2.125  13.153 -0.0693  0.3116  0.2498
  245MPD1     H 3772   2.859   2.224  13.496 -2.1354 -1.9691  1.3434
  245MPD1    H1 3773   2.852   2.294  13.077  0.5534  0.6764  0.2507
  245MPD1    H2 3774   2.653   1.956  13.243  1.1087 -0.4087 -1.3467
  245MPD1    H3 3775   2.709   2.095  13.054  1.6088  0.2037 -0.2318
  245MPD1     N 3776   2.937   2.392  13.327 -0.1693  0.5700  0.3364
  245MPD1    H5 3777   2.955   2.415  13.424  0.2540 -1.2265  0.6798
  245MPD1    N1 3778   2.699   2.010  13.502  0.1479 -0.1030  0.5702
  245MPD1    H6 3779   2.705   2.065  13.588 -0.6248 -0.7291  1.0205
  245MPD1    H7 3780   2.605   1.973  13.490 -0.6987  2.1955  0.0727
  246MPD1     C 3781   0.340   4.294  10.142  0.3074  0.1187 -0.1151
  246MPD1    C1 3782   0.284   4.274  10.021 -0.3202 -0.3914 -0.3412
  246MPD1    C2 3783   0.282   4.147   9.961 -0.5301 -0.1268 -0.1489
  246MPD1    C3 3784   0.319   4.033  10.031  0.4229  0.2379 -0.7520
  246MPD1    C4 3785   0.374   4.058  10.155 -0.0401 -0.5068 -0.1592
  246MPD1    C5 3786   0.382   4.186  10.209  0.2609 -0.6586  0.4402
  246MPD1     H 3787   0.250   4.122   9.861  0.8013  0.9707 -0.8485
  246MPD1    H1 3788   0.410   3.979  10.220  2.0252 -0.6008 -1.4183
  246MPD1    H2 3789   0.347   4.394  10.183  0.4117  0.8003 -1.8367
  246MPD1    H3 3790   0.416   4.196  10.311  0.5784 -0.2567  0.2896
  246MPD1     N 3791   0.311   3.909   9.970  0.7183 -0.2835 -0.6550
  246MPD1    H5 3792   0.289   3.913   9.871  0.6569 -0.4268 -0.6477
  246MPD1    N1 3793   0.267   4.395   9.950  0.1103  0.0046  0.5422
  246MPD1    H6 3794   0.211   4.383   9.866 -0.7887 -2.4888  1.4865
  246MPD1    H7 3795   0.216   4.463  10.007  1.7437  0.1877  1.7850
  247MPD1     C 3796   3.281   2.964  16.859 -0.0641  0.2119  0.3253
  247MPD1    C1 3797   3.154   2.941  16.808 -0.2444 -0.0350  0.0684
  247MPD1    C2 3798   3.137   2.820  16.735  0.1518  0.2698  0.0120
  247MPD1    C3 3799   3.248   2.733  16.717  0.1097  0.4137 -0.1336
  247MPD1    C4 3800   3.373   2.767  16.761 -0.1148  0.1588  0.1617
  247MPD1    C5 3801   3.385   2.881  16.833  0.2842  0.2283  0.2230
  247MPD1     H 3802   3.038   2.789  16.704  0.2887 -1.9024  1.7541
  247MPD1    H1 3803   3.457   2.702  16.740  1.4279  2.1117  0.3559
  247MPD1    H2 3804   3.299   3.056  16.914 -2.8510  1.4719 -0.8466
  247MPD1    H3 3805   3.488   2.901  16.862  0.7110  0.4932 -1.4964
  247MPD1     N 3806   3.239   2.610  16.639  0.4774  0.2194 -0.3343
  247MPD1    H5 3807   3.331   2.568  16.627  0.3834 -0.4837  1.5179
  247MPD1    N1 3808   3.041   3.018  16.848  0.1861  0.5859 -0.2346
  247MPD1    H6 3809   2.971   3.008  16.774 -1.4052  0.3501  1.2927
  247MPD1    H7 3810   3.065   3.116  16.862  0.3354  0.6418 -0.8729
  248MPD1     C 3811   3.112   1.671   0.577  0.0985 -0.3837 -0.4035
  248MPD1    C1 3812   3.184   1.720   0.676 -0.5337  0.0841 -0.0254
  248MPD1    C2 3813   3.211   1.852   0.681  0.4650  0.2488 -0.2389
  248MPD1    C3 3814   3.153   1.934   0.582 -0.1005  0.4055  0.5184
  248MPD1    C4 3815   3.075   1.876   0.473 -0.1962  0.2724 -0.0073
  248MPD1    C5 3816   3.067   1.748   0.477 -0.0615 -0.2013 -0.0281
  248MPD1     H 3817   3.264   1.884   0.771 -0.0100 -0.5771  0.3315
  248MPD1    H1 3818   3.025   1.935   0.397 -0.3124  0.7275  0.4213
  248MPD1    H2 3819   3.075   1.569   0.576  0.2876 -0.4659  0.5749
  248MPD1    H3 3820   3.013   1.699   0.397  0.9588 -0.4263 -0.5855
  248MPD1     N 3821   3.174   2.075   0.588 -0.0942 -0.1452 -0.1869
  248MPD1    H5 3822   3.233   2.107   0.664 -0.6771  2.1592 -0.7182
  248MPD1    N1 3823   3.209   1.637   0.786  0.0333  0.0815  0.2126
  248MPD1    H6 3824   3.216   1.540   0.758 -0.6887 -0.8683  3.2293
  248MPD1    H7 3825   3.294   1.656   0.839  0.4850 -0.6106 -0.2572
  249MPD1     C 3826   1.546   1.812  10.808 -0.1210 -0.4687 -0.0085
  249MPD1    C1 3827   1.597   1.698  10.755 -0.1564  0.1621 -0.0690
  249MPD1    C2 3828   1.518   1.623  10.673 -0.4243  0.4827 -0.3646
  249MPD1    C3 3829   1.391   1.665  10.630  0.2064 -0.0253  0.2221
  249MPD1    C4 3830   1.355   1.795  10.671 -0.5099 -0.4618  0.4049
  249MPD1    C5 3831   1.427   1.860  10.766  0.3123  0.2923 -0.5011
  249MPD1     H 3832   1.564   1.529  10.647 -0.5733 -0.0715  1.4008
  249MPD1    H1 3833   1.266   1.845  10.635  0.4141  0.6453 -0.3200
  249MPD1    H2 3834   1.606   1.863  10.883  0.4210  1.0458 -1.5028
  249MPD1    H3 3835   1.387   1.952  10.806  0.3017 -0.1264  0.4611
  249MPD1     N 3836   1.314   1.574  10.562  0.4779 -0.3878  0.1860
  249MPD1    H5 3837   1.355   1.485  10.539 -1.0514 -0.7244 -1.1783
  249MPD1    N1 3838   1.721   1.645  10.802  0.4288  0.0554  0.2231
  249MPD1    H6 3839   1.760   1.573  10.742  0.6880 -0.0185  0.4841
  249MPD1    H7 3840   1.791   1.714  10.826  0.8155 -0.5326  0.7660
  250MPD2     C 3841   1.592   1.402  12.616  0.0011  0.3038 -0.3393
  250MPD2    C1 3842   1.578   1.310  12.717 -0.1225  0.1317 -0.1461
  250MPD2    C2 3843   1.452   1.244  12.732  0.0366 -0.2374  0.3783
  250MPD2    C3 3844   1.348   1.279  12.645  0.1176  0.6332 -0.0062
  250MPD2    C4 3845   1.362   1.376  12.552  0.1115  0.1954  0.8074
  250MPD2    C5 3846   1.481   1.440  12.544 -0.4247 -0.0201  0.3995
  250MPD2     H 3847   1.431   1.180  12.817  0.9148  1.8344  2.1848
  250MPD2    H1 3848   1.275   1.415  12.501  0.7403  0.2812 -0.2118
  250MPD2    H2 3849   1.686   1.454  12.600 -0.8550  1.5005 -1.5027
  250MPD2    H3 3850   1.492   1.514  12.466 -0.4426 -0.3200  0.1138
  250MPD2     N 3851   1.232   1.202  12.659  0.6762 -0.2920 -0.5857
  250MPD2    H5 3852   1.238   1.123  12.723  1.3518  2.1812  2.4151
  250MPD2    N1 3853   1.682   1.304  12.816  0.8440  0.2363  0.1009
  250MPD2    H7 3854   1.752   1.377  12.812  0.7184  0.3493 -0.0264
  251TMC3    C1 3855   1.787   1.267  13.032  0.6393  0.0071 -0.4061
  251TMC3    C2 3856   1.734   1.302  13.152  0.0427 -1.0527 -0.2572
  251TMC3    C3 3857   1.772   1.420  13.202 -0.6331 -0.1663 -0.2183
  251TMC3    C4 3858   1.900   1.317  12.985  0.2204 -0.5927 -0.5803
  251TMC3    C5 3859   1.946   1.430  13.048  0.5843  0.6585 -0.3391
  251TMC3    C6 3860   1.886   1.480  13.162  0.3652 -0.5411  0.3264
  251TMC3     C 3861   1.681   1.232  12.931 -0.3997  0.5040  0.3181
  251TMC3     O 3862   1.595   1.160  12.969 -0.1991 -0.8086  0.1187
  251TMC3     H 3863   1.642   1.258  13.189 -0.4196  0.6402  0.6242
  251TMC3    H1 3864   1.942   1.285  12.890  0.1782 -0.7747 -0.5387
  251TMC3    H2 3865   1.914   1.581  13.190 -3.3096  0.5407  0.0667
  251TMC3    C7 3866   2.085   1.473  13.020 -0.1286  0.1633  0.2016
  251TMC3    C8 3867   1.657   1.500  13.231  0.0363 -0.0454  0.0600
  251TMC3    O1 3868   2.145   1.392  12.953  0.5084 -0.4336 -0.0985
  251TMC3    O2 3869   1.551   1.459  13.184 -0.1264 -0.1081 -0.0167
  252TMC3    C1 3870   1.507   1.925   9.433  0.0078  0.0616  0.1788
  252TMC3    C2 3871   1.641   1.897   9.442 -0.4771  0.2433 -0.4588
  252TMC3    C3 3872   1.675   1.766   9.427 -0.5895 -0.6312 -0.2074
  252TMC3    C4 3873   1.408   1.831   9.406 -0.2028 -0.1350  0.0600
  252TMC3    C5 3874   1.449   1.704   9.387 -0.2322  0.4666  0.4191
  252TMC3    C6 3875   1.580   1.669   9.398 -0.4240 -0.3618  0.1069
  252TMC3     C 3876   1.475   2.065   9.479 -0.2197  0.5577 -0.3811
  252TMC3     O 3877   1.570   2.137   9.490 -0.2750 -0.0518  0.1351
  252TMC3     H 3878   1.711   1.970   9.481  1.7528 -1.3486 -1.4859
  252TMC3    H1 3879   1.310   1.864   9.372  0.5232  0.4477 -1.4661
  252TMC3    H2 3880   1.617   1.567   9.391  0.0442 -0.2168  0.5331
  252TMC3    C7 3881   1.349   1.605   9.378 -0.8238  0.5832 -0.8268
  252TMC3    C8 3882   1.818   1.737   9.426  0.4042 -0.9493 -0.8097
  252TMC3    O1 3883   1.242   1.637   9.429 -0.2416  0.1707  0.5372
  252TMC3    O2 3884   1.867   1.644   9.367  0.8241 -0.0790  0.2865
  253MPD2     C 3885   3.217   1.056  15.127  0.8170 -0.4051  0.0658
  253MPD2    C1 3886   3.089   1.085  15.171 -0.5681  1.0859 -0.1227
  253MPD2    C2 3887   3.058   1.089  15.306  0.5308  1.1136 -0.3836
  253MPD2    C3 3888   3.150   1.050  15.402  0.2369  0.2029  0.2241
  253MPD2    C4 3889   3.278   1.025  15.355 -1.0522 -0.6955 -0.6649
  253MPD2    C5 3890   3.306   1.016  15.221  0.6266 -0.4283  0.3474
  253MPD2     H 3891   2.955   1.117  15.328 -0.0031 -1.1806  0.0500
  253MPD2    H1 3892   3.354   0.999  15.427 -2.6503 -1.3072  0.7894
  253MPD2    H2 3893   3.244   1.061  15.022 -2.0319 -1.0087 -0.6977
  253MPD2    H3 3894   3.406   0.982  15.197  0.3538 -1.1681  0.2797
  253MPD2     N 3895   3.123   1.048  15.539  0.7204  0.5462  0.1522
  253MPD2    H5 3896   3.198   1.003  15.590  1.6987  0.6188 -1.2053
  253MPD2    N1 3897   2.981   1.120  15.085 -0.0749  0.2802 -0.2778
  253MPD2    H7 3898   2.888   1.133  15.124  0.6007  1.0360  1.0900
  254TMC3    C1 3899   2.985   1.044  15.742  0.0521  0.0609  0.3440
  254TMC3    C2 3900   2.876   1.097  15.798  0.6237  0.2884  0.3039
  254TMC3    C3 3901   2.865   1.098  15.933  0.2277 -0.8123 -0.6618
  254TMC3    C4 3902   3.070   0.967  15.811  0.1418  0.1112  0.8595
  254TMC3    C5 3903   3.052   0.955  15.943 -0.8905  0.6166  0.2022
  254TMC3    C6 3904   2.947   1.017  16.011  0.0539  0.7101  0.2887
  254TMC3     C 3905   3.001   1.069  15.598 -0.2188 -0.3730  0.4842
  254TMC3     O 3906   2.903   1.120  15.544 -0.3428 -0.1240 -0.2097
  254TMC3     H 3907   2.807   1.163  15.746  1.3954 -0.1960 -1.3134
  254TMC3    H1 3908   3.151   0.911  15.765 -1.1108 -1.7666  0.9524
  254TMC3    H2 3909   2.951   1.012  16.119 -1.7262  0.3769  0.3446
  254TMC3    C7 3910   3.159   0.885  16.026  0.6761  0.4886 -0.1379
  254TMC3    C8 3911   2.734   1.156  15.994 -0.7290  0.0661 -0.1687
  254TMC3    O1 3912   3.115   0.837  16.130  0.3621 -0.6426  0.0347
  254TMC3    O2 3913   2.698   1.114  16.101 -0.6197  0.1212 -0.3338
  255MPD2     C 3914   1.714   4.323   9.983 -0.0056  0.9890 -0.7502
  255MPD2    C1 3915   1.576   4.312   9.977 -0.5756  0.3539 -0.3740
  255MPD2    C2 3916   1.511   4.202   9.916  0.5579  0.7403  0.7642
  255MPD2    C3 3917   1.585   4.101   9.865 -0.0828 -0.4146 -0.1910
  255MPD2    C4 3918   1.718   4.104   9.881  0.5239  0.1603  0.7493
  255MPD2    C5 3919   1.781   4.211   9.944  0.0014 -0.0904  0.4149
  255MPD2     H 3920   1.403   4.197   9.910  0.6298 -1.4190  1.4714
  255MPD2    H1 3921   1.783   4.030   9.837 -0.1230  0.7122 -1.1794
  255MPD2    H2 3922   1.777   4.405  10.016 -0.2497  0.6110  0.6509
  255MPD2    H3 3923   1.889   4.206   9.956  0.0672 -0.8383 -0.4979
  255MPD2     N 3924   1.523   3.994   9.800  0.2485 -0.3997 -0.4783
  255MPD2    H5 3925   1.423   4.005   9.786  1.1706  3.4420 -3.8592
  255MPD2    N1 3926   1.499   4.430  10.025 -0.2817  0.1787 -0.1081
  255MPD2    H7 3927   1.556   4.501  10.070 -0.1381 -0.7128  1.1026
  256TMC3    C1 3928   1.328   4.567  10.094 -0.1303 -0.1544 -0.0574
  256TMC3    C2 3929   1.349   4.679  10.012 -0.8176  0.1516  0.1575
  256TMC3    C3 3930   1.278   0.054  10.044 -0.2336 -0.3440 -0.1852
  256TMC3    C4 3931   1.235   4.569  10.194 -0.9595 -0.2426  0.1928
  256TMC3    C5 3932   1.173   4.686  10.220 -1.3187  0.7016  0.1577
  256TMC3    C6 3933   1.188   0.059  10.148 -0.5941 -0.1164 -0.0645
  256TMC3     C 3934   1.361   4.438  10.039  0.0587 -0.1927 -0.0786
  256TMC3     O 3935   1.271   4.354  10.029  0.0368 -0.0722 -0.7124
  256TMC3     H 3936   1.422   4.676   9.932 -2.0509 -1.6209 -0.8913
  256TMC3    H1 3937   1.217   4.476  10.246 -1.1688 -1.4443 -1.9993
  256TMC3    H2 3938   1.123   0.146  10.157 -0.5536  0.0117 -1.0401
  256TMC3    C7 3939   1.049   4.674  10.303  0.2413 -0.1614  0.4337
  256TMC3    C8 3940   1.310   0.178   9.974 -0.1349 -0.1131  0.1250
  256TMC3    O1 3941   1.017   4.560  10.343 -0.1506  0.2216 -0.1068
  256TMC3    O2 3942   1.281   0.285  10.028  0.7225 -0.1163 -0.4671
  257MPD2     C 3943   0.144   0.727  12.775 -0.5003 -0.3582  0.4505
  257MPD2    C1 3944   0.194   0.829  12.846  0.1299  0.3871  0.3382
  257MPD2    C2 3945   0.318   0.807  12.908  0.4457  0.1785  0.3346
  257MPD2    C3 3946   0.399   0.697  12.899  0.0553  0.6061 -0.4370
  257MPD2    C4 3947   0.338   0.594  12.830  0.4004 -0.4375  0.1301
  257MPD2    C5 3948   0.213   0.608  12.766  0.0406  0.3492  0.2913
  257MPD2     H 3949   0.367   0.888  12.961 -0.1612 -0.0192  1.1842
  257MPD2    H1 3950   0.390   0.499  12.833  0.9195 -0.1533  0.2300
  257MPD2    H2 3951   0.049   0.743  12.724 -1.9049 -1.8008  2.6159
  257MPD2    H3 3952   0.174   0.529  12.703  2.9003  0.8222 -2.0860
  257MPD2     N 3953   0.509   0.677  12.983  0.2579  0.0513  0.3114
  257MPD2    H5 3954   0.519   0.744  13.059 -0.3167  0.7715 -0.2497
  257MPD2    N1 3955   0.126   0.952  12.850 -0.4132  0.0201 -0.1762
  257MPD2    H7 3956   0.034   0.953  12.807 -0.0630  2.9673 -0.8296
  258TMC3    C1 3957   0.709   0.561  13.062  0.2015 -0.1763 -0.6551
  258TMC3    C2 3958   0.800   0.464  13.046  0.4500 -0.3841 -0.8114
  258TMC3    C3 3959   0.927   0.477  13.097 -0.2481 -0.3205  0.0028
  258TMC3    C4 3960   0.737   0.677  13.140  0.1423 -0.0263 -0.4917
  258TMC3    C5 3961   0.856   0.670  13.209 -0.3241  0.0739  0.2264
  258TMC3    C6 3962   0.941   0.563  13.203  1.0866  0.0985 -0.4121
  258TMC3     C 3963   0.604   0.581  12.962  0.2602  0.3137  0.6314
  258TMC3     O 3964   0.627   0.510  12.868  0.1986 -0.7214  0.0580
  258TMC3     H 3965   0.772   0.384  12.979 -0.2405  1.1645 -2.3671
  258TMC3    H1 3966   0.681   0.769  13.147  0.3288  0.1146 -0.8693
  258TMC3    H2 3967   1.041   0.574  13.243  1.3604 -0.2989 -0.9876
  258TMC3    C7 3968   0.866   0.777  13.310  0.1752 -0.4482 -0.3617
  258TMC3    C8 3969   1.025   0.377  13.062  0.2117 -0.3316 -0.0316
  258TMC3    O1 3970   0.830   0.891  13.282  0.4561  0.6512  0.0504
  258TMC3    O2 3971   0.997   0.331  12.955 -0.0457  0.2697  0.6807
  259MPD2     C 3972   4.514   2.079   0.946 -0.2737 -0.1810  0.3777
  259MPD2    C1 3973   4.644   2.037   0.960  0.4726  0.3959  0.0400
  259MPD2    C2 3974   4.736   2.076   0.860  0.8462  0.4450 -0.1495
  259MPD2    C3 3975   4.692   2.136   0.743  0.5752 -0.3352  0.2068
  259MPD2    C4 3976   4.562   2.170   0.731  0.0962 -0.1255  0.0531
  259MPD2    C5 3977   4.472   2.141   0.832 -0.1547  0.7585  0.1275
  259MPD2     H 3978   0.103   2.045   0.862  0.3264 -1.1185  2.0500
  259MPD2    H1 3979   4.523   2.217   0.642  1.4752  2.4176  0.7999
  259MPD2    H2 3980   4.437   2.047   1.015  1.6012  1.7917  3.3753
  259MPD2    H3 3981   4.370   2.177   0.824  0.0434  1.3051  0.1147
  259MPD2     N 3982   0.045   2.139   0.638  0.0628 -0.0495  0.1853
  259MPD2    H5 3983   0.133   2.089   0.654  1.5786  2.4755 -0.2994
  259MPD2    N1 3984   4.674   1.959   1.070  0.4235  0.2994  0.3746
  259MPD2    H7 3985   4.602   1.949   1.141 -0.0113  1.4786  0.1035
  260TMC3    C1 3986   0.130   2.123   0.421  0.1187 -0.2909 -0.0599
  260TMC3    C2 3987   0.123   2.154   0.290 -0.4540  0.5063  0.0811
  260TMC3    C3 3988   0.185   2.073   0.205 -0.8322 -0.5203 -0.5009
  260TMC3    C4 3989   0.183   2.001   0.473  0.3060 -0.4211  0.3288
  260TMC3    C5 3990   0.230   1.919   0.374  0.0694 -0.1878  0.8808
  260TMC3    C6 3991   0.246   1.963   0.248  0.1749  0.6610  0.4707
  260TMC3     C 3992   0.027   2.178   0.511  0.1335 -0.4196  0.2250
  260TMC3     O 3993   4.679   2.260   0.481 -0.3605  0.2767 -0.0002
  260TMC3     H 3994   0.075   2.243   0.252 -2.2397  0.0127  1.1781
  260TMC3    H1 3995   0.205   1.983   0.578 -1.4690  1.3203  0.9803
  260TMC3    H2 3996   0.333   1.915   0.204 -0.3398 -1.1272  1.4040
  260TMC3    C7 3997   0.171   1.784   0.365  0.7940  0.0434  0.0291
  260TMC3    C8 3998   0.135   2.075   0.077 -0.3945  0.4433  0.2740
  260TMC3    O1 3999   0.194   1.721   0.262 -0.2398  0.4167  0.6100
  260TMC3    O2 4000   0.065   2.169   0.043  0.1155 -0.1406  0.2549
  261MPD2     C 4001   0.835   0.751  12.126  0.4810  0.1379 -0.1255
  261MPD2    C1 4002   0.802   0.882  12.151 -0.9017  0.2177 -0.8013
  261MPD2    C2 4003   0.764   0.955  12.041 -0.6317  0.2752 -0.1219
  261MPD2    C3 4004   0.750   0.902  11.915  0.0571 -0.3870 -0.2202
  261MPD2    C4 4005   0.775   0.768  11.896 -0.6795  0.3154  0.5337
  261MPD2    C5 4006   0.815   0.693  12.002  0.3905  0.0161  0.8785
  261MPD2     H 4007   0.744   1.060  12.060 -0.1454  0.2287  0.6220
  261MPD2    H1 4008   0.751   0.724  11.800  0.8028  0.5022  0.0818
  261MPD2    H2 4009   0.863   0.686  12.208  1.7386  0.3618 -0.3814
  261MPD2    H3 4010   0.827   0.587  11.983 -1.4607  0.0302 -0.3708
  261MPD2     N 4011   0.705   0.984  11.807 -0.6703 -0.1328 -0.3293
  261MPD2    H5 4012   0.707   0.952  11.711 -0.1314  1.4269 -0.8337
  261MPD2    N1 4013   0.827   0.948  12.273 -0.4577 -0.3368 -0.0250
  261MPD2    H7 4014   0.813   1.049  12.270 -1.5976 -0.5195 -1.0237
  262TMC3    C1 4015   0.617   1.187  11.716  0.6357 -0.1205  0.2145
  262TMC3    C2 4016   0.519   1.283  11.730 -0.6260 -0.8114  0.8064
  262TMC3    C3 4017   0.539   1.399  11.652  0.3116 -0.3443  0.0771
  262TMC3    C4 4018   0.716   1.187  11.617 -0.6813 -0.1889  0.5735
  262TMC3    C5 4019   0.723   1.303  11.548  0.5793 -0.3842  0.0649
  262TMC3    C6 4020   0.641   1.412  11.562 -0.0586 -0.3181  0.3361
  262TMC3     C 4021   0.637   1.100  11.830  0.4398  0.2980 -0.0599
  262TMC3     O 4022   0.572   1.124  11.928 -0.1774  0.3037  0.2073
  262TMC3     H 4023   0.447   1.267  11.809 -0.3793 -0.5435  1.0877
  262TMC3    H1 4024   0.799   1.117  11.619 -0.6873 -0.2669 -1.5963
  262TMC3    H2 4025   0.646   1.496  11.494  3.1395 -0.9097 -0.1477
  262TMC3    C7 4026   0.824   1.292  11.436 -0.2419  0.5843  0.0055
  262TMC3    C8 4027   0.490   1.523  11.705  0.2774  0.0321 -0.6593
  262TMC3    O1 4028   0.861   1.179  11.406  0.1531  0.5545  0.1787
  262TMC3    O2 4029   0.528   1.629  11.666  0.2782  0.0152  0.2706
  263MPD2     C 4030   1.900   4.627  11.141  0.4797  0.3820  0.4124
  263MPD2    C1 4031   1.954   4.720  11.227  0.8287  0.0461 -0.3390
  263MPD2    C2 4032   1.972   0.114  11.178 -1.1012 -0.1658 -1.0290
  263MPD2    C3 4033   1.945   0.148  11.047  0.5992  0.1584  0.3814
  263MPD2    C4 4034   1.878   0.053  10.971 -0.5786  0.4979 -0.0811
  263MPD2    C5 4035   1.855   4.661  11.021  0.0503 -0.2701 -0.5807
  263MPD2     H 4036   2.007   0.191  11.246  0.3087 -0.2736 -1.6216
  263MPD2    H1 4037   1.840   0.064  10.870 -0.4342 -1.0373 -0.2967
  263MPD2    H2 4038   1.882   4.526  11.175 -0.4658  0.5437  0.3963
  263MPD2    H3 4039   1.798   4.604  10.949  1.8301 -1.9667 -0.6188
  263MPD2     N 4040   1.967   0.274  10.992  0.6527  0.7746 -0.6257
  263MPD2    H5 4041   1.999   0.353  11.047  0.0486  0.3764  0.2994
  263MPD2    N1 4042   2.002   4.676  11.351  0.2074 -0.2775 -0.2231
  263MPD2    H7 4043   2.000   4.577  11.370 -1.2152  0.1643  1.9380
  264TMC3    C1 4044   1.980   0.448  10.845  0.0634  0.5278 -0.0520
  264TMC3    C2 4045   1.905   0.549  10.912 -0.0432  0.8531  0.0376
  264TMC3    C3 4046   1.895   0.677  10.854  0.3792  0.0147  0.5140
  264TMC3    C4 4047   2.023   0.480  10.723 -1.3428  0.3863 -0.2661
  264TMC3    C5 4048   2.001   0.603  10.665  0.3849 -0.0734 -0.0238
  264TMC3    C6 4049   1.936   0.703  10.725  0.0319  0.3817 -0.3808
  264TMC3     C 4050   1.948   0.310  10.861 -0.7756 -0.0549 -0.3528
  264TMC3     O 4051   1.947   0.239  10.762  0.4835  0.3415 -0.3051
  264TMC3     H 4052   1.865   0.525  11.010 -1.0344 -2.2288 -1.1168
  264TMC3    H1 4053   2.093   0.414  10.673 -1.8492 -1.5943  1.6443
  264TMC3    H2 4054   1.929   0.802  10.681 -0.5436  0.2563 -0.5796
  264TMC3    C7 4055   2.080   0.631  10.545 -0.0872 -0.3083 -0.3417
  264TMC3    C8 4056   1.865   0.792  10.937 -0.0189 -0.3774  0.4746
  264TMC3    O1 4057   2.189   0.575  10.539 -0.4476 -0.4167  0.1332
  264TMC3    O2 4058   1.886   0.894  10.874  0.6977 -0.1203  0.5642
  265MPD2     C 4059   3.934   0.616  15.737  0.6640  0.2749  0.3813
  265MPD2    C1 4060   3.976   0.742  15.691 -0.0419 -0.6387  0.1488
  265MPD2    C2 4061   3.998   0.741  15.554 -0.4245 -0.2134 -0.2797
  265MPD2    C3 4062   4.016   0.631  15.473 -0.2209 -0.1258  0.2250
  265MPD2    C4 4063   3.985   0.514  15.528  0.1801  0.5135 -0.1176
  265MPD2    C5 4064   3.940   0.508  15.659  0.2795  0.1372  0.5677
  265MPD2     H 4065   4.028   0.838  15.515 -0.5087 -1.1214 -2.6037
  265MPD2    H1 4066   3.996   0.421  15.474  0.9033  1.3856 -1.4556
  265MPD2    H2 4067   3.902   0.606  15.841  0.7174 -2.8749  0.1104
  265MPD2    H3 4068   3.909   0.409  15.691  1.2875 -0.3975 -0.0975
  265MPD2     N 4069   4.065   0.621  15.337 -0.2275  0.2204 -0.0177
  265MPD2    H5 4070   4.081   0.527  15.304 -2.7073 -0.1224 -0.2061
  265MPD2    N1 4071   3.967   0.858  15.773  0.3769  0.1739  0.3442
  265MPD2    H7 4072   3.963   0.944  15.718  1.3284 -0.8315 -1.2589
  266TMC3    C1 4073   3.987   0.994  15.963  0.4162  0.1973 -0.7862
  266TMC3    C2 4074   4.072   1.017  16.068 -0.4816 -0.3540 -0.2500
  266TMC3    C3 4075   4.088   1.146  16.119 -0.2275  0.2430 -0.0417
  266TMC3    C4 4076   3.918   1.097  15.903  0.1788  0.2831 -0.4760
  266TMC3    C5 4077   3.938   1.222  15.959  0.4102 -0.0559  1.2942
  266TMC3    C6 4078   4.019   1.247  16.066  0.5006 -0.1540  0.1475
  266TMC3     C 4079   3.976   0.863  15.915 -0.3513  0.2935 -0.1587
  266TMC3     O 4080   4.002   0.771  15.986  0.5533  0.0898  0.3045
  266TMC3     H 4081   4.118   0.931  16.114 -0.0651 -0.3454 -0.6426
  266TMC3    H1 4082   3.850   1.083  15.820 -0.6998  1.0332  0.1079
  266TMC3    H2 4083   4.038   1.351  16.090  1.7423 -0.5707  0.9833
  266TMC3    C7 4084   3.911   1.340  15.882 -0.0213 -0.7471  0.2050
  266TMC3    C8 4085   4.214   1.160  16.197  0.2568  0.1284  0.6334
  266TMC3    O1 4086   3.870   1.436  15.948 -0.0678  0.1912  0.1979
  266TMC3    O2 4087   4.306   1.074  16.202  0.2326  0.1776 -0.2081
  267MPD2     C 4088   1.559   2.412   0.346  0.0254  0.5141  0.1267
  267MPD2    C1 4089   1.624   2.510   0.277 -0.7544  0.0617 -0.3672
  267MPD2    C2 4090   1.553   2.599   0.194  0.2306 -0.1325  0.4487
  267MPD2    C3 4091   1.426   2.573   0.157 -0.0326 -0.3243  0.2175
  267MPD2    C4 4092   1.360   2.474   0.233  0.4609  0.0945 -0.1255
  267MPD2    C5 4093   1.425   2.399   0.331  0.0987 -0.3233 -0.3121
  267MPD2     H 4094   1.611   2.670   0.135  0.7999 -1.4859 -0.6277
  267MPD2    H1 4095   1.259   2.445   0.208  0.8462 -0.9118 -0.5065
  267MPD2    H2 4096   1.610   2.334   0.401  1.2636  0.6374 -0.8449
  267MPD2    H3 4097   1.375   2.310   0.367  0.4927 -0.3975  0.0526
  267MPD2     N 4098   1.341   2.645   0.066 -0.1233 -0.3333 -0.4759
  267MPD2    H5 4099   1.247   2.607   0.064  0.3269 -1.5493  1.0902
  267MPD2    N1 4100   1.764   2.511   0.274 -0.0045 -0.3014  0.5846
  267MPD2    H7 4101   1.804   2.420   0.291  0.1540 -0.5200 -0.9569
  268TMC3    C1 4102   1.984   2.568   0.205  0.1786 -0.3822  0.5552
  268TMC3    C2 4103   2.063   2.625   0.117  1.4027  0.6774  0.1121
  268TMC3    C3 4104   2.199   2.604   0.109  0.3000 -1.0712  0.8359
  268TMC3    C4 4105   2.039   2.470   0.288 -0.1186 -0.0605  0.6981
  268TMC3    C5 4106   2.173   2.449   0.278  0.2754 -0.3057 -0.4450
  268TMC3    C6 4107   2.256   2.514   0.189  0.0408 -0.9345 -0.8635
  268TMC3     C 4108   1.849   2.610   0.228  0.0374  0.4282  0.5817
  268TMC3     O 4109   1.821   2.724   0.197 -0.5754 -0.5260  0.3449
  268TMC3     H 4110   2.022   2.699   0.048  1.5282  0.7033  0.0643
  268TMC3    H1 4111   1.968   2.413   0.347 -0.4184 -3.1702 -2.6145
  268TMC3    H2 4112   2.361   2.491   0.179  0.7249  1.2276  1.4497
  268TMC3    C7 4113   2.229   2.353   0.371  0.8666  0.0939  0.4837
  268TMC3    C8 4114   2.273   2.672   0.006 -0.0505  0.5762 -0.3635
  268TMC3    O1 4115   2.346   2.329   0.348 -0.6911 -0.0141  0.7131
  268TMC3    O2 4116   2.393   2.666   0.015 -0.1284  0.3062 -0.0357
  269MPD2     C 4117   1.998   1.052  15.595 -0.0588 -0.5444  0.1379
  269MPD2    C1 4118   1.911   1.140  15.649 -0.0635 -0.3774  0.0393
  269MPD2    C2 4119   1.929   1.277  15.649 -0.3455 -0.2815 -0.5422
  269MPD2    C3 4120   2.059   1.325  15.620  0.1474  0.1819 -0.4259
  269MPD2    C4 4121   2.151   1.234  15.583  0.1897 -0.2355 -0.4177
  269MPD2    C5 4122   2.120   1.098  15.572 -0.1779 -0.0140 -0.0309
  269MPD2     H 4123   1.856   1.352  15.678  1.1496  0.7006  0.7198
  269MPD2    H1 4124   2.254   1.261  15.567  1.0775 -2.8850  0.8424
  269MPD2    H2 4125   1.985   0.945  15.584  0.1163 -0.3685 -1.7519
  269MPD2    H3 4126   2.201   1.032  15.544 -0.8164 -1.0153  0.4823
  269MPD2     N 4127   2.091   1.461  15.638 -0.2015 -0.0180 -0.6749
  269MPD2    H5 4128   2.026   1.518  15.691  1.7476 -0.3461  2.1391
  269MPD2    N1 4129   1.784   1.085  15.677  0.1444  0.1022  0.0742
  269MPD2    H7 4130   1.774   0.989  15.645  1.6925 -0.6134  1.7594
  270TMC3    C1 4131   1.569   1.065  15.766  0.5519 -0.6662 -0.3279
  270TMC3    C2 4132   1.539   0.994  15.656  0.5780  0.0703  0.0847
  270TMC3    C3 4133   1.449   0.891  15.673  0.0153  0.3364  0.4918
  270TMC3    C4 4134   1.542   1.018  15.893 -0.2115 -0.0822 -0.1190
  270TMC3    C5 4135   1.470   0.907  15.906  0.4455  0.5325  0.0810
  270TMC3    C6 4136   1.415   0.849  15.799 -0.0254 -0.1816  0.4355
  270TMC3     C 4137   1.689   1.149  15.755  0.2848 -0.0297  0.4190
  270TMC3     O 4138   1.692   1.262  15.799  0.0076  0.5391 -0.3099
  270TMC3     H 4139   1.562   1.032  15.558 -1.5181 -1.4608 -1.0143
  270TMC3    H1 4140   1.583   1.076  15.975  0.8237 -3.3021  1.6227
  270TMC3    H2 4141   1.333   0.778  15.809  0.1784 -0.6959 -1.4569
  270TMC3    C7 4142   1.542   0.823  15.997 -0.4038 -0.8151  0.3518
  270TMC3    C8 4143   1.373   0.856  15.553 -0.4697  0.4188 -0.5820
  270TMC3    O1 4144   1.616   0.860  16.088 -0.6926 -0.0470  0.6792
  270TMC3    O2 4145   1.252   0.842  15.574  0.1295  0.4188  0.0829
  271MPD2     C 4146   1.289   1.016  13.587 -0.2349 -0.2964 -0.6898
  271MPD2    C1 4147   1.308   1.107  13.694 -0.1017  0.1117  0.5387
  271MPD2    C2 4148   1.229   1.217  13.705  0.4352  0.2781  0.4591
  271MPD2    C3 4149   1.120   1.239  13.613  0.6492 -0.3178 -0.1375
  271MPD2    C4 4150   1.095   1.144  13.514  0.1471 -0.2813 -0.3244
  271MPD2    C5 4151   1.182   1.036  13.502 -0.7261 -0.4987  0.6448
  271MPD2     H 4152   1.245   1.287  13.786 -0.5897  0.6319  0.3639
  271MPD2    H1 4153   1.000   1.151  13.462 -0.9215  0.2259  1.6928
  271MPD2    H2 4154   1.338   0.919  13.590 -0.8044 -0.5883 -0.7367
  271MPD2    H3 4155   1.155   0.966  13.424  1.2670 -0.5281 -0.0095
  271MPD2     N 4156   1.031   1.352  13.617 -0.4052 -0.6229 -0.4991
  271MPD2    H5 4157   0.975   1.364  13.534  1.0137 -1.2154 -1.5291
  271MPD2    N1 4158   1.394   1.079  13.807  0.1338  0.2588  0.4411
  271MPD2    H7 4159   1.402   1.151  13.878  1.2055  2.7831 -2.2479
  272TMC3    C1 4160   1.550   0.980  13.956 -0.5285 -0.3233  0.3481
  272TMC3    C2 4161   1.667   0.899  13.961  0.3767 -0.5366  0.1025
  272TMC3    C3 4162   1.691   0.839  14.084  0.6663  0.1555 -0.0536
  272TMC3    C4 4163   1.471   1.007  14.064 -0.4641  0.4383  0.2283
  272TMC3    C5 4164   1.511   0.960  14.181 -0.5992 -0.3937 -0.2000
  272TMC3    C6 4165   1.623   0.879  14.198 -0.1239 -0.1733  0.0865
  272TMC3     C 4166   1.487   0.976  13.824  0.3082  0.3376 -0.9981
  272TMC3     O 4167   1.507   0.876  13.756  0.1983 -0.3867 -0.1858
  272TMC3     H 4168   1.725   0.869  13.874 -0.9845 -1.5334 -0.4486
  272TMC3    H1 4169   1.375   1.055  14.049 -0.3069  1.0085  1.0707
  272TMC3    H2 4170   1.669   0.845  14.290 -0.7803 -1.1471  0.0478
  272TMC3    C7 4171   1.429   0.993  14.300 -0.4784  0.3536 -0.7544
  272TMC3    C8 4172   1.805   0.743  14.082 -0.0184 -0.5398 -0.6648
  272TMC3    O1 4173   1.331   1.065  14.283  0.0800 -0.1332 -0.4768
  272TMC3    O2 4174   1.875   0.745  13.980  0.2617  0.6464 -0.1564
  273MPD2     C 4175   2.560   3.508  11.450  0.0806 -0.1672  0.1051
  273MPD2    C1 4176   2.646   3.609  11.454  0.0099 -1.0103 -0.1040
  273MPD2    C2 4177   2.668   3.687  11.348  0.1359  0.2225 -0.3250
  273MPD2    C3 4178   2.600   3.673  11.228 -0.0236  0.4819 -0.8223
  273MPD2    C4 4179   2.505   3.571  11.226 -0.9148 -0.3037 -0.5806
  273MPD2    C5 4180   2.487   3.480  11.338  0.1719  0.4421 -0.6569
  273MPD2     H 4181   2.730   3.774  11.366  2.3150 -0.6706 -3.6082
  273MPD2    H1 4182   2.432   3.558  11.147 -0.4249 -2.5300 -0.6785
  273MPD2    H2 4183   2.520   3.463  11.540  0.6652  2.2846  1.5625
  273MPD2    H3 4184   2.414   3.400  11.335 -0.1159  0.6314  1.9247
  273MPD2     N 4185   2.620   3.757  11.110  0.5840  0.0942  0.4205
  273MPD2    H5 4186   2.549   3.746  11.039  1.8246  0.9365 -0.9371
  273MPD2    N1 4187   2.715   3.615  11.575  0.4326  0.9880  0.2254
  273MPD2    H7 4188   2.673   3.559  11.649  1.0372  0.7620  0.4005
  274TMC3    C1 4189   2.690   3.946  10.986 -0.1289 -0.0627 -0.2475
  274TMC3    C2 4190   2.641   3.913  10.860 -0.2675  0.3810 -0.1534
  274TMC3    C3 4191   2.636   4.014  10.769  0.2106  0.3285  0.0407
  274TMC3    C4 4192   2.724   4.072  11.018 -1.0290 -0.1166  0.0819
  274TMC3    C5 4193   2.723   4.160  10.918 -0.4993 -0.7794  0.7273
  274TMC3    C6 4194   2.669   4.138  10.796  0.3273 -0.4142  0.0087
  274TMC3     C 4195   2.722   3.852  11.093 -0.7005  0.3295  0.1805
  274TMC3     O 4196   2.799   3.893  11.182  0.2911 -0.2652  0.1964
  274TMC3     H 4197   2.603   3.817  10.830 -0.7039  0.9760 -1.4927
  274TMC3    H1 4198   2.747   4.108  11.118  2.2846 -1.6611 -0.1322
  274TMC3    H2 4199   2.645   4.219  10.728  0.8117 -1.3929 -1.3110
  274TMC3    C7 4200   2.722   4.299  10.948  0.2141 -0.6599 -0.6248
  274TMC3    C8 4201   2.528   3.999  10.670 -0.5932 -0.5092  0.3826
  274TMC3    O1 4202   2.764   4.371  10.858 -0.7313  0.2106 -0.4854
  274TMC3    O2 4203   2.429   3.934  10.707  0.2750  0.1023  0.6108
  275MPD2     C 4204   2.550   2.171  14.581 -0.5209 -0.0456  0.3863
  275MPD2    C1 4205   2.592   2.089  14.688 -0.2481 -0.0574 -1.1217
  275MPD2    C2 4206   2.607   1.954  14.645  0.6930 -0.1627  0.4388
  275MPD2    C3 4207   2.554   1.902  14.527  0.0571 -0.5717  0.0554
  275MPD2    C4 4208   2.500   1.996  14.437 -0.1347 -0.1245 -0.3329
  275MPD2    C5 4209   2.493   2.126  14.466  0.1383  0.5867  0.4605
  275MPD2     H 4210   2.641   1.880  14.717 -1.1448  0.3111  1.7876
  275MPD2    H1 4211   2.469   1.965  14.338  0.7203 -1.2217 -0.2497
  275MPD2    H2 4212   2.533   2.277  14.594 -2.5416 -0.2421 -0.6679
  275MPD2    H3 4213   2.450   2.198  14.396 -2.1798 -0.6216  0.6686
  275MPD2     N 4214   2.556   1.765  14.508 -0.4682  0.4348  0.2220
  275MPD2    H5 4215   2.624   1.715  14.564 -0.0610  0.3533 -0.3586
  275MPD2    N1 4216   2.623   2.136  14.820  0.1656 -0.3480  0.2453
  275MPD2    H7 4217   2.640   2.063  14.888  1.8560  0.0412  0.2425
  276TMC3    C1 4218   2.652   2.270  15.013 -0.6441  0.4468  0.5966
  276TMC3    C2 4219   2.607   2.178  15.107  1.0430  0.2549 -0.0421
  276TMC3    C3 4220   2.654   2.178  15.236 -0.0603  0.5953  0.0789
  276TMC3    C4 4221   2.751   2.359  15.052  0.2201  0.2945 -0.2788
  276TMC3    C5 4222   2.800   2.355  15.179 -0.2961  0.3438 -0.1206
  276TMC3    C6 4223   2.748   2.280  15.275  0.2142  0.1781 -0.4235
  276TMC3     C 4224   2.616   2.264  14.870 -0.4394 -0.5723 -0.7022
  276TMC3     O 4225   2.614   2.373  14.811  0.3192 -0.4992  0.1545
  276TMC3     H 4226   2.532   2.103  15.083  1.1822  1.2624 -3.5077
  276TMC3    H1 4227   2.798   2.419  14.975  0.5683 -0.9625 -1.0445
  276TMC3    H2 4228   2.776   2.285  15.379  0.6504 -0.8031 -0.4964
  276TMC3    C7 4229   2.925   2.416  15.214 -0.8148 -0.3194 -0.0944
  276TMC3    C8 4230   2.632   2.062  15.334  0.5037 -0.2892  0.5761
  276TMC3    O1 4231   2.968   2.391  15.329 -0.6356  0.3514  0.6336
  276TMC3    O2 4232   2.665   2.073  15.449  0.1560 -0.7537  0.1457
  277MPD2     C 4233   4.338   1.593  12.939  0.1466 -0.4358 -0.7082
  277MPD2    C1 4234   4.213   1.587  12.993 -0.0834 -0.1932 -0.3900
  277MPD2    C2 4235   4.185   1.465  13.051 -0.8780 -0.3892 -0.4247
  277MPD2    C3 4236   4.275   1.363  13.051 -0.8426  0.7567  0.2434
  277MPD2    C4 4237   4.402   1.375  12.994 -0.5193 -0.2290  0.5739
  277MPD2    C5 4238   4.429   1.498  12.941  0.0950 -0.2269 -0.5978
  277MPD2     H 4239   4.095   1.439  13.106 -1.6847 -0.6330 -1.8647
  277MPD2    H1 4240   4.476   1.296  12.990 -0.9506 -0.6945  1.8608
  277MPD2    H2 4241   4.373   1.689  12.902  1.0178 -0.5155 -0.0949
  277MPD2    H3 4242   4.523   1.517  12.890 -0.1034 -0.8261 -1.1879
  277MPD2     N 4243   4.225   1.245  13.116 -0.2616 -0.1334  0.4601
  277MPD2    H5 4244   4.140   1.260  13.169 -0.4262 -3.7688  1.2815
  277MPD2    N1 4245   4.127   1.696  13.006 -0.7154  0.5318 -0.3977
  277MPD2    H7 4246   4.162   1.783  12.967  1.1576 -0.6637 -1.3695
  278TMC3    C1 4247   4.211   1.026  13.187  0.1670 -0.2616  0.3207
  278TMC3    C2 4248   4.211   0.896  13.143 -0.0443  0.1099 -0.4410
  278TMC3    C3 4249   4.147   0.811  13.221 -0.0700 -0.4045 -0.1312
  278TMC3    C4 4250   4.147   1.078  13.294 -0.0368 -0.3470  0.0267
  278TMC3    C5 4251   4.079   0.979  13.365 -0.1159  0.0903  0.0680
  278TMC3    C6 4252   4.077   0.848  13.329  0.2513 -0.3389 -0.0949
  278TMC3     C 4253   4.283   1.116  13.106  0.6426  0.2091  0.1022
  278TMC3     O 4254   4.384   1.086  13.045  0.1602 -0.3701 -0.2904
  278TMC3     H 4255   4.263   0.866  13.053 -0.0163 -1.5497  0.1345
  278TMC3    H1 4256   4.136   1.182  13.322 -0.3661 -0.3494 -0.0936
  278TMC3    H2 4257   4.039   0.778  13.402  2.2124 -1.6868 -0.3734
  278TMC3    C7 4258   3.995   1.016  13.474 -0.2215  0.4250  0.1896
  278TMC3    C8 4259   4.179   0.666  13.210  0.0381 -0.1207  0.1184
  278TMC3    O1 4260   4.009   1.126  13.520  0.0306  0.2387  0.4595
  278TMC3    O2 4261   4.278   0.628  13.148 -0.2317 -0.1964  0.5070
  279MPD2     C 4262   3.765   0.662   0.259  0.6734  0.5336  0.0210
  279MPD2    C1 4263   3.718   0.624   0.137  0.0827 -0.0168  0.2441
  279MPD2    C2 4264   3.807   0.576   0.043  0.4192  1.0184 -0.7591
  279MPD2    C3 4265   3.946   0.585   0.063  0.0252 -0.2507 -0.3827
  279MPD2    C4 4266   3.985   0.634   0.182 -0.1539 -0.2877  0.2956
  279MPD2    C5 4267   3.901   0.665   0.283  0.4089 -0.0980  0.0177
  279MPD2     H 4268   3.764   0.536  17.697 -0.7341  2.2939 -0.7601
  279MPD2    H1 4269   4.090   0.615   0.203 -0.5584 -1.9880  0.8224
  279MPD2    H2 4270   3.703   0.690   0.343  0.7039 -2.1045  0.9321
  279MPD2    H3 4271   3.942   0.693   0.379  1.1626 -0.1809 -0.2724
  279MPD2     N 4272   4.041   0.555  17.712  0.4799  0.0077  0.5630
  279MPD2    H5 4273   4.131   0.589  17.744  2.3265 -2.0350 -2.5329
  279MPD2    N1 4274   3.579   0.635   0.118  0.9822 -0.3235 -0.2759
  279MPD2    H7 4275   3.525   0.694   0.180 -1.9899 -0.8612 -2.3486
  280TMC3    C1 4276   3.398   0.643  17.712 -0.2554  0.5394 -0.5133
  280TMC3    C2 4277   3.328   0.579  17.615 -0.1376  0.4936 -0.1866
  280TMC3    C3 4278   3.250   0.651  17.529 -1.5118  0.6483  0.2637
  280TMC3    C4 4279   3.383   0.772  17.740 -0.4247  0.6352 -0.2040
  280TMC3    C5 4280   3.300   0.842  17.657 -0.2530  0.4204 -0.0331
  280TMC3    C6 4281   3.227   0.788  17.554  0.6525  0.5573  0.2277
  280TMC3     C 4282   3.518   0.575   0.012 -0.7420 -0.6341  0.5091
  280TMC3     O 4283   3.545   0.467  17.704 -0.9520  0.7296  0.4509
  280TMC3     H 4284   3.349   0.473  17.604 -2.0779 -0.0021  0.7854
  280TMC3    H1 4285   3.455   0.824   0.059  1.4243 -3.7580  1.2837
  280TMC3    H2 4286   3.180   0.848  17.477  3.1805  0.2601 -1.5640
  280TMC3    C7 4287   3.290   0.981  17.667  0.3246  0.1016  0.3598
  280TMC3    C8 4288   3.206   0.595  17.401 -0.8355 -1.0564  0.0006
  280TMC3    O1 4289   3.389   1.041  17.708 -0.1071  0.2068  0.7025
  280TMC3    O2 4290   3.155   0.677  17.325 -0.2754 -0.0394 -0.4641
  281TMC3    C1 4291   2.315   1.202  13.255  0.7154 -0.1796 -0.4596
  281TMC3    C2 4292   2.424   1.283  13.232 -0.0961 -0.5619  0.1702
  281TMC3    C3 4293   2.473   1.290  13.104  0.1006  0.3493  0.4004
  281TMC3    C4 4294   2.250   1.130  13.153 -0.3975 -0.1518 -0.1005
  281TMC3    C5 4295   2.305   1.138  13.032  0.3131  0.6244 -0.3450
  281TMC3    C6 4296   2.422   1.209  13.008  0.0600 -0.0578  0.1342
  281TMC3     C 4297   2.233   1.228  13.367  0.3222 -0.5954 -0.8149
  281TMC3     O 4298   2.170   1.133  13.409 -0.7097 -0.9725 -0.0174
  281TMC3     H 4299   2.467   1.343  13.311 -0.1402 -0.4791  0.1317
  281TMC3    H1 4300   2.160   1.073  13.173  0.4692 -1.6311 -0.3714
  281TMC3    H2 4301   2.474   1.212  12.913 -0.0091 -1.2340  0.0522
  281TMC3    C7 4302   2.272   1.040  12.939 -0.2583  0.2999  0.3968
  281TMC3    C8 4303   2.603   1.352  13.077  0.0163 -0.0444  0.3635
  281TMC3    O1 4304   2.266   1.065  12.821 -0.4344 -0.8617 -0.4026
  281TMC3    O2 4305   2.694   1.268  13.057 -0.5841 -0.0842 -0.1587
  282MPD2     C 4306   4.195   2.428  14.928  0.4034 -0.5356 -0.1907
  282MPD2    C1 4307   4.069   2.434  14.980  0.5702 -0.2977 -0.3239
  282MPD2    C2 4308   3.962   2.365  14.920  0.5980  0.5221  0.3252
  282MPD2    C3 4309   3.992   2.298  14.803  0.3383 -0.5012  0.4635
  282MPD2    C4 4310   4.122   2.288  14.750 -0.7914 -0.6225 -0.0562
  282MPD2    C5 4311   4.218   2.351  14.822 -0.5777  0.4036  0.4112
  282MPD2     H 4312   3.866   2.365  14.971  1.1449  1.7647  1.3520
  282MPD2    H1 4313   4.155   2.227  14.667 -1.3330  0.1852 -0.8518
  282MPD2    H2 4314   4.279   2.476  14.977  0.0280  0.9878 -1.0449
  282MPD2    H3 4315   4.317   2.339  14.780 -0.6318 -0.4931  0.5476
  282MPD2     N 4316   3.877   2.250  14.735 -0.9707 -0.0305 -0.0986
  282MPD2    H5 4317   3.784   2.274  14.765 -2.0624 -2.8780 -1.2811
  282MPD2    N1 4318   4.044   2.502  15.103 -0.5544 -0.0385  0.2680
  282MPD2    H7 4319   3.948   2.494  15.136  0.1170 -2.4232  1.5950
  283TMC3    C1 4320   4.076   2.660  15.282  0.2781  0.2470  0.3471
  283TMC3    C2 4321   4.102   2.791  15.308 -0.1996 -0.3885  0.0082
  283TMC3    C3 4322   4.074   2.840  15.431  0.1149  0.3177  0.4349
  283TMC3    C4 4323   4.020   2.579  15.376  0.3959  0.2802 -0.5147
  283TMC3    C5 4324   4.001   2.632  15.502 -0.7494  0.0561 -0.1076
  283TMC3    C6 4325   4.029   2.763  15.532  0.8423  0.7857  0.0062
  283TMC3     C 4326   4.119   2.601  15.150  0.3393 -0.0124 -0.7742
  283TMC3     O 4327   4.216   2.653  15.099 -0.1580 -0.3847 -0.4050
  283TMC3     H 4328   4.164   2.854  15.246  0.4005 -0.2866  0.7171
  283TMC3    H1 4329   4.004   2.476  15.347  1.5556  0.2050 -0.8798
  283TMC3    H2 4330   4.029   2.800  15.634  0.0251 -1.3840  0.7886
  283TMC3    C7 4331   3.974   2.538  15.617  0.2765 -0.8832  0.7554
  283TMC3    C8 4332   4.132   2.964  15.469  0.2685 -0.1232  0.6368
  283TMC3    O1 4333   3.975   2.596  15.725 -0.1427  0.2495 -0.0617
  283TMC3    O2 4334   4.200   2.958  15.568 -0.2011 -0.1745 -0.1245
  284MPD2     C 4335   1.970   1.644  12.168 -0.1089  0.9094  0.0680
  284MPD2    C1 4336   2.089   1.718  12.160  0.0667 -0.5572  0.8423
  284MPD2    C2 4337   2.213   1.683  12.217  0.7290 -0.3815 -0.7188
  284MPD2    C3 4338   2.221   1.561  12.284 -0.6148 -0.0625  0.2637
  284MPD2    C4 4339   2.108   1.475  12.279 -0.5973 -0.6366 -1.0705
  284MPD2    C5 4340   1.987   1.525  12.239 -0.7964  0.3950 -0.1416
  284MPD2     H 4341   2.304   1.740  12.200  1.2785 -0.7423  1.0258
  284MPD2    H1 4342   2.093   1.380  12.329 -2.2096 -0.4440 -1.1617
  284MPD2    H2 4343   1.869   1.664  12.136 -0.1545  1.4798  0.5550
  284MPD2    H3 4344   1.895   1.469  12.251 -0.1758 -0.3280  1.2846
  284MPD2     N 4345   2.339   1.507  12.334 -0.4442  0.3588 -0.3989
  284MPD2    H5 4346   2.328   1.410  12.361 -1.8659  0.3821 -0.9075
  284MPD2    N1 4347   2.100   1.829  12.071 -0.1787 -0.0317 -0.5469
  284MPD2    H7 4348   2.197   1.847  12.048 -0.8755 -0.7150 -3.9509
  285TMC3    C1 4349   2.059   1.983  11.911 -0.2565  0.2706 -0.6781
  285TMC3    C2 4350   2.129   1.908  11.818  0.5736  0.5636 -0.1858
  285TMC3    C3 4351   2.165   1.977  11.708  0.3312 -0.7034 -0.4147
  285TMC3    C4 4352   2.006   2.109  11.888  0.0385  0.0566 -0.4766
  285TMC3    C5 4353   2.035   2.160  11.767 -0.1687  0.0325 -1.2594
  285TMC3    C6 4354   2.107   2.094  11.670  0.5493  0.6493  0.4197
  285TMC3     C 4355   2.001   1.907  12.017 -0.2801 -0.4777  0.0131
  285TMC3     O 4356   1.878   1.913  12.038  0.2730  0.3048 -0.4473
  285TMC3     H 4357   2.142   1.803  11.837  2.1982  0.6538 -0.8185
  285TMC3    H1 4358   1.954   2.165  11.964 -0.6424  0.8958 -1.5643
  285TMC3    H2 4359   2.108   2.145  11.575  2.0157  1.0559  0.6524
  285TMC3    C7 4360   2.011   2.298  11.738 -0.1452  0.1562  0.9705
  285TMC3    C8 4361   2.234   1.910  11.606 -0.6577 -0.0129 -0.2799
  285TMC3    O1 4362   2.098   2.363  11.686 -0.2400  0.1005 -0.7350
  285TMC3    O2 4363   2.263   1.794  11.628  0.1502 -0.5389  0.1252
  286MPD2     C 4364   3.332   0.736   1.307  0.6696  0.1797 -0.4712
  286MPD2    C1 4365   3.245   0.670   1.221 -0.3884 -0.3185  0.2135
  286MPD2    C2 4366   3.247   0.533   1.225  0.0939 -0.3614  1.2640
  286MPD2    C3 4367   3.353   0.463   1.275  0.2452  0.1759 -0.1229
  286MPD2    C4 4368   3.437   0.533   1.357  0.3867 -0.5719 -0.4252
  286MPD2    C5 4369   3.419   0.666   1.379 -0.4589 -0.6614 -0.2444
  286MPD2     H 4370   3.171   0.482   1.168  0.1146 -0.8382  1.6635
  286MPD2    H1 4371   3.520   0.488   1.410  0.4208  0.7621  0.6564
  286MPD2    H2 4372   3.342   0.844   1.307 -1.6127  0.3795  0.2771
  286MPD2    H3 4373   3.486   0.723   1.442  0.3118 -0.7033 -1.0236
  286MPD2     N 4374   3.374   0.323   1.252  0.2589 -0.0188 -0.5699
  286MPD2    H5 4375   3.448   0.290   1.313  0.2453 -1.6677 -1.4372
  286MPD2    N1 4376   3.146   0.735   1.152  0.3763 -0.8940  0.3212
  286MPD2    H7 4377   3.072   0.681   1.108  0.1130 -0.2937  0.0228
  287TMC3    C1 4378   3.369   0.111   1.157 -0.1111  0.6428 -0.0150
  287TMC3    C2 4379   3.294   0.017   1.091  0.0228  0.3028  0.0898
  287TMC3    C3 4380   3.354   4.634   1.049  0.3680  0.2612 -0.3157
  287TMC3    C4 4381   3.496   0.090   1.179 -0.5326 -0.1718 -0.1952
  287TMC3    C5 4382   3.550   4.705   1.141  0.4944  0.8923  0.1494
  287TMC3    C6 4383   3.489   4.614   1.074 -0.3988 -0.3577  0.1231
  287TMC3     C 4384   3.309   0.243   1.166  0.5213  0.2688 -0.7294
  287TMC3     O 4385   3.216   0.262   1.089 -0.0049  0.7587  0.1703
  287TMC3     H 4386   3.187   0.031   1.090 -0.2284 -1.7951 -1.4629
  287TMC3    H1 4387   3.550   0.177   1.215  1.2016 -1.0162 -0.7544
  287TMC3    H2 4388   3.528   4.514   1.063 -0.0936 -0.0618 -1.5578
  287TMC3    C7 4389   3.695   4.693   1.173  0.1763  0.3959  1.1708
  287TMC3    C8 4390   3.290   4.585   0.929  0.0331 -0.2173  0.1609
  287TMC3    O1 4391   3.736   0.038   1.257  0.5648  0.7488  0.9285
  287TMC3    O2 4392   3.176   4.544   0.949  0.4513  0.3771 -0.2169
  288TMC3    C1 4393   4.645   0.540  14.173  0.5864 -0.9805  0.2476
  288TMC3    C2 4394   4.537   0.565  14.258  0.3073  0.3925 -0.4365
  288TMC3    C3 4395   4.429   0.619  14.201 -0.1787 -0.3418  0.4117
  288TMC3    C4 4396   4.629   0.552  14.032  0.3640 -0.4301 -0.1059
  288TMC3    C5 4397   4.510   0.606  13.984  0.4515 -0.1643  1.2370
  288TMC3    C6 4398   4.414   0.650  14.066  0.3282 -0.3011  0.3693
  288TMC3     C 4399   0.033   0.476  14.228  0.1624  0.4981 -0.2870
  288TMC3     O 4400   0.040   0.464  14.348 -0.3919 -0.2614 -0.3871
  288TMC3     H 4401   4.545   0.551  14.365 -1.9361 -0.3967 -0.3531
  288TMC3    H1 4402   4.703   0.526  13.957  1.2124 -0.2202  0.6566
  288TMC3    H2 4403   4.319   0.685  14.028  1.0642  1.3240  0.0292
  288TMC3    C7 4404   4.482   0.618  13.844 -0.1265  0.6388  0.3410
  288TMC3    C8 4405   4.318   0.646  14.283 -0.0409  0.4116  0.1327
  288TMC3    O1 4406   4.363   0.611  13.819 -0.0339 -0.6570  0.1568
  288TMC3    O2 4407   4.240   0.736  14.252 -0.0175  0.2019  0.2767
  289MPD2     C 4408   4.425   4.111  14.140  0.7311  0.2834 -0.0392
  289MPD2    C1 4409   4.431   4.247  14.110 -0.3816 -0.2788  0.1186
  289MPD2    C2 4410   4.329   4.300  14.028  0.4563 -0.1599 -0.1745
  289MPD2    C3 4411   4.233   4.224  13.966  0.8066 -0.2005  0.4409
  289MPD2    C4 4412   4.224   4.090  14.004  0.9240  0.7054 -0.2507
  289MPD2    C5 4413   4.319   4.034  14.089  0.0692  0.0524  0.6213
  289MPD2     H 4414   4.339   4.406  14.008 -0.3597 -0.0012  0.2478
  289MPD2    H1 4415   4.150   4.022  13.964  2.5284 -0.6435 -0.9353
  289MPD2    H2 4416   4.507   4.060  14.190 -0.0119  0.2628  1.1619
  289MPD2    H3 4417   4.297   3.934  14.126 -3.9883  0.6228 -0.3268
  289MPD2     N 4418   4.121   4.282  13.892  0.3214  0.2616  0.0113
  289MPD2    H5 4419   4.044   4.217  13.873  1.7265 -1.5055  0.3517
  289MPD2    N1 4420   4.532   4.317  14.178 -0.0117  0.6773  0.6297
  289MPD2    H7 4421   4.590   4.259  14.237 -0.1134 -0.4353 -0.3795
  290TMC3    C1 4422   4.027   4.414  13.723 -0.3590  0.6543 -0.6489
  290TMC3    C2 4423   3.997   4.536  13.667 -0.1938 -0.0193  0.1563
  290TMC3    C3 4424   3.894   4.528  13.576  0.0566  0.3858  0.1133
  290TMC3    C4 4425   3.975   4.289  13.681  0.5366  0.1160  0.3013
  290TMC3    C5 4426   3.890   4.297  13.573  0.5962  0.0642 -0.5518
  290TMC3    C6 4427   3.834   4.416  13.533 -0.3077 -0.3262  0.5155
  290TMC3     C 4428   4.112   4.409  13.843 -0.0287 -0.1811  0.2984
  290TMC3     O 4429   4.160   4.512  13.889  0.0536 -0.5883 -0.1814
  290TMC3     H 4430   4.037   4.631  13.703 -0.5208  1.1217 -2.4817
  290TMC3    H1 4431   4.032   4.197  13.690  0.1220 -0.4389 -2.6186
  290TMC3    H2 4432   3.752   4.411  13.462  0.9209  1.5836 -1.0219
  290TMC3    C7 4433   3.835   4.179  13.510  0.4304 -0.0177  0.1737
  290TMC3    C8 4434   3.799   4.638  13.559  0.1625  0.5537  0.1174
  290TMC3    O1 4435   3.793   4.191  13.397  0.1934  0.0592 -0.0283
  290TMC3    O2 4436   3.696   4.603  13.504 -0.0016  0.8198  0.2191
  291MPD2     C 4437   4.090   4.154   0.327  0.0351 -0.5272 -0.5197
  291MPD2    C1 4438   4.064   4.024   0.360  0.6715 -0.7337 -0.2495
  291MPD2    C2 4439   4.155   3.962   0.445  0.0575  0.1373 -0.2501
  291MPD2    C3 4440   4.278   4.020   0.476 -0.4000  0.9061 -0.0426
  291MPD2    C4 4441   4.315   4.137   0.410 -0.1615 -0.3323 -0.0418
  291MPD2    C5 4442   4.220   4.197   0.331  0.3336  0.2409 -0.2220
  291MPD2     H 4443   4.112   3.873   0.490  0.9154 -0.1540 -0.0086
  291MPD2    H1 4444   4.412   4.181   0.429  0.0880 -0.4375 -1.0916
  291MPD2    H2 4445   4.032   4.219   0.262  1.6490  0.7875 -0.6331
  291MPD2    H3 4446   4.229   4.296   0.286  0.1983  0.9982  1.4064
  291MPD2     N 4447   4.362   3.964   0.579  0.1053 -0.6628 -0.6210
  291MPD2    H5 4448   4.458   3.996   0.586 -1.0949  2.3556  1.9893
  291MPD2    N1 4449   3.930   3.979   0.335 -0.4289  0.5907  0.2158
  291MPD2    H7 4450   3.859   4.042   0.298 -1.8436 -1.4409 -0.5196
  292TMC3    C1 4451   3.758   3.831   0.309  0.2964  0.2368  0.3509
  292TMC3    C2 4452   3.667   3.909   0.372  0.3799  0.6332 -0.3362
  292TMC3    C3 4453   3.554   3.846   0.410  0.0765 -0.1411 -0.8512
  292TMC3    C4 4454   3.724   3.706   0.251  0.2839  0.0544  1.4068
  292TMC3    C5 4455   3.594   3.666   0.267 -0.0056 -0.4331 -0.4394
  292TMC3    C6 4456   3.514   3.723   0.359  0.6067 -0.0355 -0.2028
  292TMC3     C 4457   3.897   3.848   0.342  0.0994  0.1427  0.5376
  292TMC3     O 4458   3.965   3.749   0.358 -0.3136 -0.4209 -0.2022
  292TMC3     H 4459   3.706   3.999   0.419 -0.2488  0.0037  1.3644
  292TMC3    H1 4460   3.800   3.651   0.198 -0.2672 -0.8370  1.5519
  292TMC3    H2 4461   3.426   3.672   0.396  1.3514 -1.0993  0.1018
  292TMC3    C7 4462   3.553   3.544   0.194  0.1295 -0.5123 -0.2832
  292TMC3    C8 4463   3.515   3.878   0.541  0.1815  0.0886 -0.7704
  292TMC3    O1 4464   3.644   3.470   0.155 -0.0788 -0.1680 -0.2437
  292TMC3    O2 4465   3.530   3.987   0.584 -1.0820  0.5604  0.1344
  293MPD2     C 4466   0.532   1.290  12.441  0.1983 -0.0117 -0.1298
  293MPD2    C1 4467   0.427   1.207  12.484 -0.4480  0.0808  0.1720
  293MPD2    C2 4468   0.424   1.167  12.618 -0.1290  0.5522 -0.1580
  293MPD2    C3 4469   0.512   1.231  12.708 -0.0985 -0.2410  0.3699
  293MPD2    C4 4470   0.613   1.305  12.657 -0.0345  0.3060  0.3956
  293MPD2    C5 4471   0.637   1.326  12.524 -0.4553 -0.3552 -0.5113
  293MPD2     H 4472   0.337   1.115  12.656  0.8990  0.0307  1.4813
  293MPD2    H1 4473   0.685   1.351  12.724 -1.7941  2.2511  0.9206
  293MPD2    H2 4474   0.531   1.313  12.336 -2.6295 -1.4112 -0.4139
  293MPD2    H3 4475   0.713   1.394  12.488 -0.3048 -0.1008  0.2979
  293MPD2     N 4476   0.495   1.205  12.849  0.1399  0.4589 -0.0805
  293MPD2    H5 4477   0.410   1.158  12.879  0.3764  0.0937  0.0267
  293MPD2    N1 4478   0.337   1.170  12.373 -0.4706 -0.7625  0.2508
  293MPD2    H7 4479   0.357   1.203  12.279  0.3485 -0.5120  0.5076
  294TMC3    C1 4480   0.194   1.019  12.267 -0.3701 -0.9780  0.0994
  294TMC3    C2 4481   0.129   0.898  12.276  0.2150 -0.0003  0.7931
  294TMC3    C3 4482   0.107   0.826  12.160  0.4284 -0.0478  0.0778
  294TMC3    C4 4483   0.237   1.071  12.150 -0.4098  0.2689  0.7567
  294TMC3    C5 4484   0.217   0.995  12.036  0.1563 -0.6672 -1.2062
  294TMC3    C6 4485   0.144   0.878  12.036 -0.0242 -0.5084  0.1858
  294TMC3     C 4486   0.245   1.068  12.393  0.1411  0.6320  0.1810
  294TMC3     O 4487   0.202   1.005  12.492  0.3090  0.0880  0.0472
  294TMC3     H 4488   0.077   0.866  12.366 -1.2643 -0.7711 -0.3356
  294TMC3    H1 4489   0.266   1.175  12.145  0.6843 -0.1216 -1.0141
  294TMC3    H2 4490   0.096   0.845  11.945 -1.2318 -0.8104  0.9395
  294TMC3    C7 4491   0.225   1.069  11.907 -0.3966 -0.2491 -0.3375
  294TMC3    C8 4492   4.724   0.748  12.162  0.1011  0.0381  0.4837
  294TMC3    O1 4493   0.186   1.188  11.907 -0.3735 -0.2188 -0.2309
  294TMC3    O2 4494   4.632   0.779  12.244  0.1062 -0.1324 -0.0014
  295MPD2     C 4495   0.784   3.747   0.645  0.5539 -1.1933 -0.0657
  295MPD2    C1 4496   0.820   3.883   0.635 -0.9972 -0.3715 -0.2544
  295MPD2    C2 4497   0.787   3.972   0.730  0.0166  0.1253 -0.3237
  295MPD2    C3 4498   0.720   3.942   0.837  0.1003 -0.0956  0.3062
  295MPD2    C4 4499   0.680   3.811   0.854  1.4001 -0.5870 -0.0204
  295MPD2    C5 4500   0.715   3.720   0.759 -0.1208  0.3964  0.3767
  295MPD2     H 4501   0.825   4.073   0.715 -0.4665  0.4396  0.6209
  295MPD2    H1 4502   0.611   3.779   0.931  2.2429 -0.4753  0.7792
  295MPD2    H2 4503   0.802   3.665   0.577  2.3817 -0.7086 -0.1858
  295MPD2    H3 4504   0.684   3.617   0.773  0.0298  0.4044  0.7813
  295MPD2     N 4505   0.662   4.035   0.929 -0.1643  0.4157  0.4053
  295MPD2    H5 4506   0.601   4.003   1.004 -1.1414  2.1543  0.3432
  295MPD2    N1 4507   0.897   3.930   0.526 -0.4231  0.0825 -0.2434
  295MPD2    H7 4508   0.948   4.016   0.542  0.2160 -0.2444 -0.5332
  296TMC3    C1 4509   0.615   4.231   1.037 -0.8552  0.5080  1.1805
  296TMC3    C2 4510   0.545   4.343   0.999 -0.0075  0.1533  0.1228
  296TMC3    C3 4511   0.436   4.384   1.069  0.0556 -0.3788 -0.9408
  296TMC3    C4 4512   0.564   4.151   1.138 -0.2803 -0.0575 -0.9331
  296TMC3    C5 4513   0.450   4.201   1.208  0.5445  0.4023 -0.7506
  296TMC3    C6 4514   0.380   4.309   1.167 -0.1173 -0.1868 -0.0532
  296TMC3     C 4515   0.684   4.168   0.925  0.0169 -0.0817  0.4798
  296TMC3     O 4516   0.723   4.238   0.832 -0.1445 -0.1052  0.0115
  296TMC3     H 4517   0.568   4.399   0.909  1.2451 -0.1337  0.2573
  296TMC3    H1 4518   0.618   4.061   1.166  2.7720  1.4616 -1.8679
  296TMC3    H2 4519   0.300   4.351   1.227  1.0139  0.5226  0.9821
  296TMC3    C7 4520   0.401   4.134   1.334 -0.2608  0.6716 -0.1006
  296TMC3    C8 4521   0.388   4.520   1.052 -0.2952 -0.1639 -0.3201
  296TMC3    O1 4522   0.285   4.164   1.376  0.2837 -0.6491  0.0154
  296TMC3    O2 4523   0.273   4.544   1.084 -0.1173  0.3574 -0.2478
  297MPD2     C 4524   3.156   1.601  16.671 -0.2997  0.1397 -0.0127
  297MPD2    C1 4525   3.231   1.570  16.556  0.4488 -0.0320  0.1586
  297MPD2    C2 4526   3.367   1.609  16.551 -0.7527 -0.2694  0.6331
  297MPD2    C3 4527   3.423   1.676  16.653  0.3552 -0.4777 -0.1746
  297MPD2    C4 4528   3.348   1.697  16.768  0.3019  0.4559 -0.0111
  297MPD2    C5 4529   3.221   1.659  16.777  0.1516  0.3242 -0.1699
  297MPD2     H 4530   3.420   1.602  16.457  1.5364  1.2681  1.8169
  297MPD2    H1 4531   3.390   1.738  16.858  0.2289  0.3100  0.0902
  297MPD2    H2 4532   3.055   1.570  16.698 -0.2709 -1.8716 -2.1966
  297MPD2    H3 4533   3.171   1.668  16.872 -0.0763  0.2261 -0.2796
  297MPD2     N 4534   3.563   1.718  16.651 -0.4247 -0.2697  0.0805
  297MPD2    H5 4535   3.617   1.673  16.576 -0.1599  1.1835 -0.5926
  297MPD2    N1 4536   3.178   1.510  16.443  0.1513  0.4622 -0.4666
  297MPD2    H7 4537   3.248   1.514  16.369  0.0433 -0.5957 -0.6219
  298TMC3    C1 4538   3.019   1.494  16.278 -0.2544  0.4061  0.5295
  298TMC3    C2 4539   3.086   1.419  16.185  0.2937  0.3146  0.2332
  298TMC3    C3 4540   3.040   1.432  16.060 -0.7971  0.2612 -0.2130
  298TMC3    C4 4541   2.902   1.553  16.259 -0.6222 -0.2152 -0.5269
  298TMC3    C5 4542   2.857   1.558  16.129 -0.1162  0.0416 -0.8969
  298TMC3    C6 4543   2.926   1.499  16.027  0.8763  0.3456 -0.0821
  298TMC3     C 4544   3.049   1.475  16.420  0.6102  0.6731  0.3071
  298TMC3     O 4545   2.958   1.447  16.497  0.1472 -0.2158 -0.0128
  298TMC3     H 4546   3.179   1.375  16.220  0.6258  2.7704  2.4365
  298TMC3    H1 4547   2.854   1.603  16.343 -0.4116 -0.1779 -0.4301
  298TMC3    H2 4548   2.884   1.491  15.927 -0.0653 -0.4878  0.3863
  298TMC3    C7 4549   2.737   1.631  16.123  0.3570 -0.5549 -0.2174
  298TMC3    C8 4550   3.112   1.359  15.947  0.0467 -0.5505  0.9079
  298TMC3    O1 4551   2.669   1.637  16.219 -0.3874 -0.3890  0.0648
  298TMC3    O2 4552   3.076   1.391  15.837  0.6075 -0.4914  0.2122
  299MPD2     C 4553   3.484   1.706  10.346  1.0802 -0.5355 -0.2272
  299MPD2    C1 4554   3.406   1.634  10.443  0.7264 -0.0167 -0.0360
  299MPD2    C2 4555   3.298   1.559  10.401 -0.5626 -0.0300 -0.8586
  299MPD2    C3 4556   3.291   1.536  10.264  0.6525 -0.1409  0.0806
  299MPD2    C4 4557   3.371   1.596  10.172 -0.6357  0.6957  0.3951
  299MPD2    C5 4558   3.469   1.682  10.216  0.6110 -0.0656  0.0412
  299MPD2     H 4559   3.226   1.512  10.468  1.0190 -0.1552  0.7645
  299MPD2    H1 4560   3.356   1.575  10.067 -2.1213  1.9057  0.3717
  299MPD2    H2 4561   3.563   1.773  10.376  2.6082 -1.8923 -1.2690
  299MPD2    H3 4562   3.538   1.737  10.152 -0.0297  0.0777 -0.5313
  299MPD2     N 4563   3.195   1.451  10.201  0.5089 -0.0706  0.0297
  299MPD2    H5 4564   3.195   1.452  10.100  0.7237  0.7360  0.0395
  299MPD2    N1 4565   3.460   1.642  10.573 -0.1327  0.2980  1.0279
  299MPD2    H7 4566   3.536   1.707  10.591 -1.7935  2.6543 -0.3877
  300TMC3    C1 4567   2.996   1.336  10.177  0.7173  0.3422  0.5825
  300TMC3    C2 4568   2.956   1.404  10.068 -0.5946 -0.2961  0.1271
  300TMC3    C3 4569   2.831   1.394  10.021 -0.0087  0.5332 -0.0306
  300TMC3    C4 4570   2.904   1.250  10.237 -0.1489  0.6192  0.5006
  300TMC3    C5 4571   2.789   1.224  10.159  0.5508  0.2930 -1.1014
  300TMC3    C6 4572   2.746   1.298  10.058  0.0397 -0.3367  0.8135
  300TMC3     C 4573   3.097   1.380  10.269  0.9717  0.9390 -0.1375
  300TMC3     O 4574   3.075   1.362  10.389  0.5372 -0.8048  0.1023
  300TMC3     H 4575   3.021   1.469  10.010  0.0743  2.1398  3.6142
  300TMC3    H1 4576   2.933   1.187  10.320 -2.1134  1.5796  1.8960
  300TMC3    H2 4577   2.651   1.279  10.009 -0.7078  1.3466  1.6228
  300TMC3    C7 4578   2.677   1.150  10.215  0.1912  0.5782 -0.1441
  300TMC3    C8 4579   2.773   1.523   9.994  0.5901 -0.2301  0.2332
  300TMC3    O1 4580   2.612   1.093  10.126 -0.1174  0.3209  0.5049
  300TMC3    O2 4581   2.846   1.598   9.931 -0.7776  0.6023 -0.1009
  301MPD2     C 4582   1.261   2.948   1.156  0.0366 -0.7205  0.1388
  301MPD2    C1 4583   1.205   2.876   1.054  0.0090 -0.0799  0.2442
  301MPD2    C2 4584   1.279   2.806   0.964 -0.3126  0.0013 -0.3743
  301MPD2    C3 4585   1.412   2.820   0.961 -0.1988 -0.3841  0.4317
  301MPD2    C4 4586   1.463   2.911   1.053  0.3983  0.4516 -0.5226
  301MPD2    C5 4587   1.394   2.970   1.155  0.2597 -0.5923  0.2912
  301MPD2     H 4588   1.226   2.747   0.890 -0.4275  0.1789 -0.4323
  301MPD2    H1 4589   1.567   2.940   1.048  0.7066 -0.7383 -1.1730
  301MPD2    H2 4590   1.200   3.009   1.221  0.7234 -0.7216  0.7840
  301MPD2    H3 4591   1.428   3.059   1.206 -0.3509  0.6732 -1.4929
  301MPD2     N 4592   1.491   2.760   0.860 -0.4375 -0.4830 -0.1441
  301MPD2    H5 4593   1.591   2.770   0.879 -0.3812 -2.1835  0.4752
  301MPD2    N1 4594   1.064   2.868   1.047 -0.1742  0.4410  0.3863
  301MPD2    H7 4595   1.032   2.812   0.968  0.8901  0.4108 -0.0207
  302TMC3    C1 4596   1.556   2.622   0.682  0.1982  0.2035 -0.4805
  302TMC3    C2 4597   1.676   2.670   0.675  0.4631  0.7774  0.1807
  302TMC3    C3 4598   1.773   2.579   0.646 -0.1549 -0.7523 -0.1012
  302TMC3    C4 4599   1.520   2.491   0.676 -0.4711 -0.0339  0.1191
  302TMC3    C5 4600   1.622   2.406   0.665  1.3163  0.0915 -0.0269
  302TMC3    C6 4601   1.751   2.446   0.645 -0.5103  0.3011 -0.5038
  302TMC3     C 4602   1.452   2.695   0.751 -0.1265  0.0610  0.5988
  302TMC3     O 4603   1.341   2.680   0.696 -0.0057 -0.2622 -0.0866
  302TMC3     H 4604   1.690   2.777   0.680 -0.5011  0.9087  0.1099
  302TMC3    H1 4605   1.419   2.459   0.699 -1.1873  1.7288 -0.5702
  302TMC3    H2 4606   1.830   2.375   0.624  0.1279  0.5021  1.1990
  302TMC3    C7 4607   1.598   2.262   0.682  0.0484  0.6181 -0.0715
  302TMC3    C8 4608   1.894   2.640   0.601  0.5133  0.2942  0.6623
  302TMC3    O1 4609   1.694   2.190   0.715 -0.2311 -0.1130 -0.9098
  302TMC3    O2 4610   1.992   2.571   0.613  0.2460  0.4961 -0.1549
  303MPD2     C 4611   1.269   0.729   9.988 -0.6069  0.3402  0.1534
  303MPD2    C1 4612   1.143   0.706  10.042 -0.1889  0.0383  0.5259
  303MPD2    C2 4613   1.037   0.669   9.963  0.3988  0.6685  0.4256
  303MPD2    C3 4614   1.056   0.635   9.829 -0.1779 -0.0443  0.1547
  303MPD2    C4 4615   1.181   0.655   9.778 -0.0614  0.7823 -0.8386
  303MPD2    C5 4616   1.280   0.708   9.853  0.5191  0.7231  0.1089
  303MPD2     H 4617   0.943   0.649  10.013  1.0048 -0.7630  0.9928
  303MPD2    H1 4618   1.208   0.626   9.677 -0.4979 -1.1836 -0.3873
  303MPD2    H2 4619   1.358   0.756  10.042 -0.4998  2.3378 -1.0183
  303MPD2    H3 4620   1.380   0.718   9.814  1.0902  1.7669  1.8531
  303MPD2     N 4621   0.956   0.592   9.746 -0.1719 -0.2989  0.0442
  303MPD2    H5 4622   0.986   0.555   9.657 -1.9038  1.7927 -1.4017
  303MPD2    N1 4623   1.127   0.738  10.179  0.1676 -0.0010  0.1298
  303MPD2    H7 4624   1.210   0.770  10.228  0.5361  1.8192 -1.6855
  304TMC3    C1 4625   1.048   0.815  10.375  0.2058  0.8209 -0.1421
  304TMC3    C2 4626   0.946   0.899  10.418  0.1403  0.4445 -0.7953
  304TMC3    C3 4627   0.918   0.904  10.555  0.1397  0.0169  0.3774
  304TMC3    C4 4628   1.118   0.735  10.461  0.8901  0.0820 -0.1286
  304TMC3    C5 4629   1.092   0.746  10.595  0.0298 -0.1625 -0.0563
  304TMC3    C6 4630   0.995   0.836  10.644 -0.3941  0.3684  0.1916
  304TMC3     C 4631   1.012   0.760  10.251 -0.3373  0.3379 -0.2482
  304TMC3     O 4632   0.894   0.740  10.225  0.0206  0.6590  0.7326
  304TMC3     H 4633   0.882   0.949  10.346 -1.2722  0.7672  0.6862
  304TMC3    H1 4634   1.183   0.659  10.419  0.6042  1.3392 -2.8487
  304TMC3    H2 4635   0.973   0.833  10.750  0.9785 -0.7124  0.4531
  304TMC3    C7 4636   1.095   0.616  10.662  0.3471  0.0330 -0.5875
  304TMC3    C8 4637   0.775   0.892  10.591 -0.0748 -0.5094 -0.2249
  304TMC3    O1 4638   1.188   0.543  10.627  0.0955  0.1456  0.0334
  304TMC3    O2 4639   0.752   0.824  10.688 -0.2510  0.0672  0.4500
  305MPD2     C 4640   3.912   2.681  14.089 -0.0728 -0.6522 -0.1137
  305MPD2    C1 4641   4.044   2.644  14.084  0.7374 -0.5748 -0.4740
  305MPD2    C2 4642   4.092   2.590  13.965 -0.5896  0.0978  0.2330
  305MPD2    C3 4643   4.000   2.566  13.857  0.1885 -0.1133  0.4025
  305MPD2    C4 4644   3.869   2.601  13.871 -0.4140 -0.1501 -0.5163
  305MPD2    C5 4645   3.826   2.661  13.984  0.3839  0.5967 -0.3320
  305MPD2     H 4646   4.193   2.552  13.950 -1.1371 -0.5606 -1.8587
  305MPD2    H1 4647   3.802   2.577  13.789 -0.2965  0.4309 -0.7864
  305MPD2    H2 4648   3.867   2.723  14.178 -0.3122  0.4399 -0.7536
  305MPD2    H3 4649   3.723   2.691  13.992  1.0980  2.6856  0.7594
  305MPD2     N 4650   4.035   2.526  13.729 -0.2254  0.0375 -0.4015
  305MPD2    H5 4651   3.959   2.515  13.662  1.5049  1.1299 -2.5117
  305MPD2    N1 4652   4.122   2.658  14.205 -0.3772 -0.1596  0.6878
  305MPD2    H7 4653   4.082   2.704  14.287  2.1518 -1.7059  2.7663
  306TMC3    C1 4654   4.291   2.651  14.363 -0.1236  0.0367 -0.3428
  306TMC3    C2 4655   4.387   2.577  14.421 -0.0578 -0.1387 -0.6299
  306TMC3    C3 4656   4.430   2.626  14.546  0.4383 -0.3798 -0.3954
  306TMC3    C4 4657   4.247   2.767  14.419  0.2659  0.5610 -0.2058
  306TMC3    C5 4658   4.306   2.820  14.533 -0.1000  0.1845  0.2694
  306TMC3    C6 4659   4.404   2.748  14.603  0.4500 -0.8251 -0.4943
  306TMC3     C 4660   4.246   2.613  14.232 -0.7584 -0.4534  0.4061
  306TMC3     O 4661   4.307   2.540  14.161 -0.9151  0.0419 -0.0721
  306TMC3     H 4662   4.418   2.486  14.373 -0.9653 -1.2690  0.9278
  306TMC3    H1 4663   4.174   2.831  14.371  1.8654  3.0818  0.7546
  306TMC3    H2 4664   4.461   2.793  14.684  0.8203 -0.7809 -0.7788
  306TMC3    C7 4665   4.258   2.949  14.585 -0.2640 -0.2059 -0.1160
  306TMC3    C8 4666   4.496   2.523  14.627 -0.5753 -0.8961  0.4803
  306TMC3    O1 4667   4.136   2.969  14.582 -0.0176  0.6103 -0.0351
  306TMC3    O2 4668   4.537   2.425  14.562  0.9457 -0.1501  0.3204
  307MPD2     C 4669   2.670   1.229   0.545 -0.2919  0.6560  0.5575
  307MPD2    C1 4670   2.559   1.293   0.496  0.5035  0.2986  0.4375
  307MPD2    C2 4671   2.439   1.260   0.554 -0.3079 -0.5330  0.1858
  307MPD2    C3 4672   2.435   1.167   0.654 -0.0046  0.5280  0.4026
  307MPD2    C4 4673   2.547   1.123   0.721  0.9782 -0.1553 -0.4462
  307MPD2    C5 4674   2.663   1.161   0.664 -1.0942 -0.0150  0.2703
  307MPD2     H 4675   2.350   1.307   0.515 -0.1591  0.4721  1.0437
  307MPD2    H1 4676   2.545   1.065   0.812  0.0901  1.3056  0.4575
  307MPD2    H2 4677   2.772   1.243   0.511 -1.2064  0.5727 -2.2799
  307MPD2    H3 4678   2.754   1.123   0.709  0.8229  0.1605 -3.4874
  307MPD2     N 4679   2.308   1.145   0.710  0.4727 -0.1296 -0.2463
  307MPD2    H5 4680   2.232   1.204   0.677  0.1917  0.5200  1.5399
  307MPD2    N1 4681   2.561   1.389   0.392  0.2204  0.1858 -0.0665
  307MPD2    H7 4682   2.469   1.415   0.360 -1.2195 -1.5754  2.6756
  308TMC3    C1 4683   1.938   0.956   0.894 -0.4969  0.0998  1.2060
  308TMC3    C2 4684   1.886   1.073   0.919  0.1121  0.9337 -0.1132
  308TMC3    C3 4685   1.967   1.183   0.924  0.6096  0.3198 -0.7201
  308TMC3    C4 4686   2.076   0.937   0.878  0.2738  0.4381  0.2701
  308TMC3    C5 4687   2.150   1.049   0.872  0.7126 -0.4294 -0.0673
  308TMC3    C6 4688   2.103   1.175   0.891  0.5405  0.3217  0.2333
  308TMC3     C 4689   1.846   0.843   0.872  0.2398  0.1102 -0.0860
  308TMC3     O 4690   1.889   0.731   0.870  0.5283 -0.1723  0.5075
  308TMC3     H 4691   1.787   1.088   0.960 -0.1396  1.4900 -0.9267
  308TMC3    H1 4692   2.121   0.841   0.856  2.2188  1.5106 -0.3601
  308TMC3    H2 4693   2.162   1.266   0.887  1.3298 -0.3220 -2.3525
  308TMC3    C7 4694   2.271   1.039   0.792 -0.8009  0.3168  0.5087
  308TMC3    C8 4695   1.905   1.315   0.927 -0.6247  0.1763 -0.6213
  308TMC3    O1 4696   2.336   0.934   0.804 -0.0961 -0.3761 -0.5159
  308TMC3    O2 4697   1.792   1.322   0.880  0.1184 -0.4673 -0.3672
  309MPD2     C 4698   1.207   1.499  17.225  0.0967  0.1495 -0.5126
  309MPD2    C1 4699   1.153   1.419  17.127  0.4670 -0.1225 -0.8727
  309MPD2    C2 4700   1.024   1.372  17.145  0.0501 -0.2743  0.2384
  309MPD2    C3 4701   0.954   1.383  17.262  0.5192  0.1964  0.6865
  309MPD2    C4 4702   1.024   1.438  17.366 -0.5912  0.0575  0.3544
  309MPD2    C5 4703   1.141   1.499  17.347 -0.0006 -0.6582  0.6218
  309MPD2     H 4704   0.984   1.311  17.065 -1.2717  1.2213 -0.2187
  309MPD2    H1 4705   0.980   1.437  17.465 -0.5475  0.9806  0.3838
  309MPD2    H2 4706   1.305   1.545  17.213 -0.9398  1.9801 -1.7830
  309MPD2    H3 4707   1.192   1.540  17.434 -0.1718 -0.6339  0.7111
  309MPD2     N 4708   0.829   1.315  17.288  0.1195  0.0302  0.5011
  309MPD2    H5 4709   0.796   1.305  17.384 -4.3882  1.7817 -0.8732
  309MPD2    N1 4710   1.220   1.406  17.000 -0.5675 -0.4522  0.1359
  309MPD2    H7 4711   1.163   1.363  16.928 -0.6380  0.5608 -0.4150
  310TMC3    C1 4712   1.388   1.385  16.850 -0.5117 -0.5951  0.5739
  310TMC3    C2 4713   1.316   1.424  16.734  0.3461  0.3059 -0.0117
  310TMC3    C3 4714   1.369   1.391  16.609  0.0441 -0.1116 -0.1059
  310TMC3    C4 4715   1.522   1.348  16.832  0.0438  0.3110 -0.4719
  310TMC3    C5 4716   1.567   1.318  16.708  0.4289  0.4636  0.0268
  310TMC3    C6 4717   1.493   1.331  16.593 -0.5044 -0.7255 -0.4096
  310TMC3     C 4718   1.353   1.420  16.989  0.2905 -0.1064 -0.0977
  310TMC3     O 4719   1.442   1.462  17.058  0.5128  0.1046  0.3202
  310TMC3     H 4720   1.222   1.477  16.738  0.6971  0.9034  0.2214
  310TMC3    H1 4721   1.588   1.351  16.918 -0.0930  0.0250 -0.3585
  310TMC3    H2 4722   1.532   1.318  16.493  1.4606 -1.8093  0.4863
  310TMC3    C7 4723   1.677   1.223  16.704  0.5925 -0.4301  0.2165
  310TMC3    C8 4724   1.292   1.421  16.488  0.3299 -0.4025 -0.6272
  310TMC3    O1 4725   1.678   1.145  16.609 -0.4016  0.5854  0.0971
  310TMC3    O2 4726   1.173   1.392  16.491  0.0391  0.1317  0.3417
  311MPD2     C 4727   3.135   2.799  12.346  0.0711 -0.6465  0.1991
  311MPD2    C1 4728   3.193   2.782  12.469  0.0342  0.0639  0.2253
  311MPD2    C2 4729   3.120   2.728  12.569 -0.3133 -0.6601  0.4727
  311MPD2    C3 4730   2.996   2.669  12.547  0.4870  0.1885 -0.3353
  311MPD2    C4 4731   2.942   2.680  12.418 -0.4317 -0.1821 -0.1146
  311MPD2    C5 4732   3.011   2.746  12.325 -0.0428 -1.6223 -0.3030
  311MPD2     H 4733   3.179   2.724  12.660 -0.6795  1.0244  0.7827
  311MPD2    H1 4734   2.837   2.658  12.403 -0.6378  1.1092 -0.5562
  311MPD2    H2 4735   3.176   2.868  12.273 -0.6658 -1.7366 -1.2177
  311MPD2    H3 4736   2.970   2.747  12.225  1.3136 -0.1834 -0.8558
  311MPD2     N 4737   2.924   2.614  12.654  0.2521 -0.2609  0.3122
  311MPD2    H5 4738   2.968   2.613  12.746 -1.9063 -0.8385  1.3523
  311MPD2    N1 4739   3.321   2.835  12.499 -0.3719 -0.3627  0.1421
  311MPD2    H7 4740   3.341   2.860  12.596 -1.3909 -2.7122  0.9536
  312TMC3    C1 4741   2.771   2.465  12.758 -0.4794 -0.2147  0.5074
  312TMC3    C2 4742   2.685   2.356  12.737 -0.0207  0.3805 -0.2519
  312TMC3    C3 4743   2.606   2.315  12.841  0.0821  0.1957 -0.2642
  312TMC3    C4 4744   2.738   2.556  12.859 -0.6799  0.2231 -0.3979
  312TMC3    C5 4745   2.643   2.516  12.949 -0.4724  0.1053 -0.4483
  312TMC3    C6 4746   2.583   2.393  12.947 -0.2231  0.0874 -0.8232
  312TMC3     C 4747   2.818   2.528  12.635 -0.2684  0.3080 -0.4523
  312TMC3     O 4748   2.771   2.485  12.531 -0.2570  0.2255 -0.2949
  312TMC3     H 4749   2.695   2.287  12.654  2.1400  0.9904 -0.5022
  312TMC3    H1 4750   2.795   2.647  12.875 -1.0946  0.6395 -1.3111
  312TMC3    H2 4751   2.506   2.363  13.017  0.2678 -0.7992 -0.6634
  312TMC3    C7 4752   2.615   2.607  13.061  0.5260 -0.1923  0.0435
  312TMC3    C8 4753   2.479   2.263  12.801  0.9833  0.1809  0.8363
  312TMC3    O1 4754   2.594   2.726  13.036  0.2909  0.2957 -0.3792
  312TMC3    O2 4755   2.431   2.174  12.869 -0.0918  0.0858  0.2680
  313MPD2     C 4756   1.861   1.992  11.490  0.0716 -0.0355 -0.0801
  313MPD2    C1 4757   1.920   2.005  11.367 -0.3039 -0.2726 -0.5206
  313MPD2    C2 4758   1.946   1.886  11.295  1.0095  0.2217  0.1090
  313MPD2    C3 4759   1.924   1.763  11.342  0.7831  0.1542 -0.5666
  313MPD2    C4 4760   1.870   1.751  11.469  0.2767  0.1366 -0.8508
  313MPD2    C5 4761   1.843   1.867  11.541 -0.4916  0.0553 -0.5390
  313MPD2     H 4762   1.983   1.892  11.193  0.3651 -1.1113 -0.2073
  313MPD2    H1 4763   1.855   1.658  11.524  0.2544  1.7322  1.8702
  313MPD2    H2 4764   1.845   2.083  11.547  2.5650  1.4661 -1.7295
  313MPD2    H3 4765   1.806   1.853  11.642  0.2837 -0.5323 -0.3342
  313MPD2     N 4766   1.943   1.657  11.260 -0.3036  0.2215 -0.3499
  313MPD2    H5 4767   1.975   1.681  11.167 -0.1789 -1.4899 -0.7414
  313MPD2    N1 4768   1.940   2.130  11.305 -0.6248  0.0058  0.1159
  313MPD2    H7 4769   1.989   2.125  11.217 -1.0662  0.1039 -0.1393
  314TMC3    C1 4770   1.940   2.363  11.269  0.0790 -0.0784 -0.2139
  314TMC3    C2 4771   2.046   2.452  11.294 -0.3650 -0.6226 -0.2079
  314TMC3    C3 4772   2.111   2.509  11.188 -0.3549 -0.9629 -0.1587
  314TMC3    C4 4773   1.899   2.340  11.141 -0.6100 -0.5801 -0.0136
  314TMC3    C5 4774   1.963   2.407  11.039 -0.0614  0.1226  0.4802
  314TMC3    C6 4775   2.070   2.497  11.054  0.4214 -0.7808 -0.8100
  314TMC3     C 4776   1.913   2.256  11.362 -0.6254  0.5980 -0.0564
  314TMC3     O 4777   1.882   2.288  11.476  0.3072 -0.3688 -0.6193
  314TMC3     H 4778   2.058   2.470  11.401 -1.1733 -0.4490 -0.1487
  314TMC3    H1 4779   1.820   2.267  11.128 -0.2631 -0.7295 -1.3158
  314TMC3    H2 4780   2.119   2.549  10.972 -2.6803  0.1222 -2.1142
  314TMC3    C7 4781   1.914   2.375  10.902 -0.1738 -0.2634  0.0160
  314TMC3    C8 4782   2.249   2.568  11.198  0.4022  0.0528 -0.4444
  314TMC3    O1 4783   1.807   2.321  10.899 -0.1302  0.2642  0.4051
  314TMC3    O2 4784   2.311   2.575  11.091  0.1483  0.1964  0.9001
  315MPD2     C 4785   2.409   0.754  17.081  0.1811 -0.5054  0.2498
  315MPD2    C1 4786   2.527   0.776  17.151  0.1496  0.5530 -0.1648
  315MPD2    C2 4787   2.577   0.900  17.166  0.8204 -0.2467  0.0362
  315MPD2    C3 4788   2.515   1.013  17.112 -0.2164  0.5198  0.1373
  315MPD2    C4 4789   2.390   0.989  17.038 -0.0670 -0.2077 -1.1923
  315MPD2    C5 4790   2.346   0.857  17.026 -0.2545 -1.6182  0.0365
  315MPD2     H 4791   2.665   0.923  17.226  0.7924  2.2184 -0.8711
  315MPD2    H1 4792   2.326   1.070  17.006 -1.3139 -0.1925  1.3735
  315MPD2    H2 4793   2.368   0.654  17.070  0.9720 -0.8074  0.0190
  315MPD2    H3 4794   2.260   0.839  16.963 -1.3381 -1.8936  1.6264
  315MPD2     N 4795   2.571   1.144  17.137  0.4547 -0.1285 -0.0028
  315MPD2    H5 4796   2.649   1.147  17.202 -1.0930  0.1924  1.8287
  315MPD2    N1 4797   2.595   0.667  17.216 -0.6354  0.1376  0.3396
  315MPD2    H7 4798   2.682   0.693  17.262 -1.8907  2.1315  1.6284
  316TMC3    C1 4799   2.589   1.380  17.142  0.1034 -0.1947 -0.0442
  316TMC3    C2 4800   2.701   1.368  17.224 -0.0939  0.3527 -1.0455
  316TMC3    C3 4801   2.737   1.473  17.306 -0.4861 -0.3814 -0.4718
  316TMC3    C4 4802   2.503   1.485  17.156  0.3499 -0.1679  0.0350
  316TMC3    C5 4803   2.540   1.590  17.243 -0.2262  0.8168  0.0115
  316TMC3    C6 4804   2.650   1.583  17.324 -1.4698 -0.1480 -0.3725
  316TMC3     C 4805   2.539   1.261  17.074 -0.0465  0.1984  0.3814
  316TMC3     O 4806   2.450   1.267  16.989 -0.1662 -0.2512  0.6514
  316TMC3     H 4807   2.772   1.293  17.192  1.0858  0.8403  0.4208
  316TMC3    H1 4808   2.405   1.487  17.109 -0.0493 -2.0308  0.8041
  316TMC3    H2 4809   2.682   1.664  17.388  1.9873 -1.3315 -0.5951
  316TMC3    C7 4810   2.489   1.725  17.221 -0.2300 -0.0359  0.1310
  316TMC3    C8 4811   2.865   1.478  17.374  0.0357 -0.0616  0.3854
  316TMC3    O1 4812   2.482   1.793  17.324 -0.8196 -0.5869  0.0686
  316TMC3    O2 4813   2.882   1.577  17.442 -0.1934  0.6073 -0.2585
  317MPD2     C 4814   4.404   4.425  12.397 -1.4958  0.2011  0.3511
  317MPD2    C1 4815   4.475   4.308  12.364  0.4450 -0.4939 -0.6689
  317MPD2    C2 4816   4.512   4.224  12.464 -0.5213 -0.1810  0.6693
  317MPD2    C3 4817   4.479   4.261  12.596  0.3595  0.4784  0.1068
  317MPD2    C4 4818   4.406   4.374  12.625  1.0259  0.2401  0.3614
  317MPD2    C5 4819   4.365   4.454  12.526 -0.1887 -0.3085  0.2210
  317MPD2     H 4820   4.562   4.130  12.440  1.7709  0.3910  3.2100
  317MPD2    H1 4821   4.373   4.397  12.726  0.0540 -0.9910  0.3385
  317MPD2    H2 4822   4.372   4.484  12.313 -1.0999  0.1728  0.1817
  317MPD2    H3 4823   4.300   4.538  12.545  0.3412  0.0619  0.4098
  317MPD2     N 4824   4.527   4.171  12.700  0.0032 -0.1664  0.1637
  317MPD2    H5 4825   4.548   4.084  12.653 -1.0513  0.2187 -1.0043
  317MPD2    N1 4826   4.485   4.262  12.225  0.3787  0.0637  0.3889
  317MPD2    H7 4827   4.542   4.180  12.213  1.5377  0.9675 -0.3091
  318TMC3    C1 4828   4.528   4.073  12.924  0.0780  0.0461  0.0517
  318TMC3    C2 4829   4.466   3.956  12.877  0.1726  0.2961 -0.3880
  318TMC3    C3 4830   4.437   3.857  12.963  0.0664  0.0362  0.1593
  318TMC3    C4 4831   4.564   4.086  13.059 -0.2811  0.6446 -0.6331
  318TMC3    C5 4832   4.547   3.978  13.137  0.7202  0.2724 -1.2311
  318TMC3    C6 4833   4.483   3.863  13.095  0.1874  0.0270  0.2596
  318TMC3     C 4834   4.509   4.195  12.836  0.1666 -0.4304  0.2474
  318TMC3     O 4835   4.515   4.303  12.898  0.5546 -0.5340  0.5449
  318TMC3     H 4836   4.430   3.938  12.776  1.8689 -3.5596 -0.3275
  318TMC3    H1 4837   4.603   4.176  13.106  1.5925 -0.0429 -0.8926
  318TMC3    H2 4838   4.447   3.789  13.166  1.7113  0.0490  1.0431
  318TMC3    C7 4839   4.586   3.985  13.275 -0.1304 -0.1110  0.1662
  318TMC3    C8 4840   4.336   3.770  12.930 -0.2079 -0.0803  0.1696
  318TMC3    O1 4841   4.555   4.090  13.332 -0.4543 -0.3293  0.4213
  318TMC3    O2 4842   4.335   3.656  12.976  0.0925  0.0621  0.1752
  319MPD2     C 4843   0.550   0.782  16.775  0.4922 -0.0449 -0.6786
  319MPD2    C1 4844   0.589   0.660  16.735 -0.0606 -0.6351 -0.0171
  319MPD2    C2 4845   0.507   0.594  16.653  0.1842  0.6201 -0.4218
  319MPD2    C3 4846   0.391   0.644  16.608 -0.1879 -0.4212 -0.4101
  319MPD2    C4 4847   0.343   0.758  16.675  0.1431 -0.3288  0.0547
  319MPD2    C5 4848   0.423   0.828  16.757  0.1449  0.3151 -0.1610
  319MPD2     H 4849   0.551   0.505  16.609  1.0986  0.8227  0.0942
  319MPD2    H1 4850   0.257   0.808  16.633 -0.4483 -2.3058 -1.1301
  319MPD2    H2 4851   0.608   0.848  16.838 -1.1182 -0.1674  0.9473
  319MPD2    H3 4852   0.385   0.927  16.780  1.5656  1.1168 -1.2803
  319MPD2     N 4853   0.321   0.595  16.492 -0.1812 -0.6660  0.7040
  319MPD2    H5 4854   0.231   0.639  16.476  1.1425  2.3937  1.6208
  319MPD2    N1 4855   0.717   0.602  16.759  0.2856 -1.0594  0.7464
  319MPD2    H7 4856   0.736   0.510  16.720 -0.6186 -0.5373 -0.9434
  320TMC3    C1 4857   0.234   0.469  16.309  0.0006 -0.3459  0.0353
  320TMC3    C2 4858   0.191   0.577  16.230 -0.5233  0.1136 -0.1885
  320TMC3    C3 4859   0.123   0.561  16.114  0.1536 -0.4171  0.6115
  320TMC3    C4 4860   0.196   0.340  16.271 -0.0959 -0.1496  0.2848
  320TMC3    C5 4861   0.115   0.325  16.158 -0.2365 -0.1785  1.0374
  320TMC3    C6 4862   0.080   0.435  16.079 -0.2241  0.0104  0.0109
  320TMC3     C 4863   0.335   0.485  16.410  0.1704  0.4826  0.0594
  320TMC3     O 4864   0.414   0.389  16.429 -0.3192 -0.4699  0.5835
  320TMC3     H 4865   0.221   0.679  16.253  0.6091 -0.5994  1.5302
  320TMC3    H1 4866   0.233   0.260  16.335 -2.0438 -1.2239  0.0624
  320TMC3    H2 4867   0.033   0.406  15.986 -0.9470 -0.2544  0.4589
  320TMC3    C7 4868   0.085   0.187  16.115 -0.1575 -0.0741  0.5766
  320TMC3    C8 4869   0.033   0.673  16.087 -0.9913 -0.2204 -0.0961
  320TMC3    O1 4870   0.074   0.163  15.998  0.2376  0.0321 -0.0099
  320TMC3    O2 4871   0.071   0.781  16.125 -0.0315  0.2758  0.1418
  321TMC3    C1 4872   0.929   0.574  16.856 -0.8327  0.8914  0.0105
  321TMC3    C2 4873   0.917   0.442  16.823  0.6583 -0.1299 -0.4572
  321TMC3    C3 4874   1.023   0.362  16.863  0.1100 -1.2185  0.4132
  321TMC3    C4 4875   1.032   0.623  16.934 -0.4156  0.0901 -0.0987
  321TMC3    C5 4876   1.140   0.540  16.959  0.3745 -0.0575  0.2332
  321TMC3    C6 4877   1.132   0.408  16.925 -0.4656  0.2619  0.6843
  321TMC3     C 4878   0.814   0.667  16.834 -0.4903  0.3566 -0.1857
  321TMC3     O 4879   0.826   0.782  16.869  0.5461 -0.6583 -0.3247
  321TMC3     H 4880   0.830   0.390  16.784  1.0305  0.3271 -1.9041
  321TMC3    H1 4881   1.039   0.722  16.977 -2.2720  1.6672 -3.4269
  321TMC3    H2 4882   1.216   0.344  16.953  1.2608  1.1410 -2.4509
  321TMC3    C7 4883   1.177   0.548  17.100  0.1590 -0.6597 -0.3681
  321TMC3    C8 4884   0.969   0.236  16.917 -0.0756  0.4693  0.2253
  321TMC3    O1 4885   1.190   0.437  17.153  0.1697 -0.2268 -0.0883
  321TMC3    O2 4886   0.900   0.155  16.859  0.5286  0.0191  0.4786
  322MPD2     C 4887   4.012   2.040  13.663  0.6364  0.5880 -0.3790
  322MPD2    C1 4888   4.142   2.054  13.692 -0.0901 -0.6172  0.2338
  322MPD2    C2 4889   4.237   2.005  13.602 -0.7496 -0.2459  0.2766
  322MPD2    C3 4890   4.200   1.927  13.496 -0.4764 -0.3170  0.2280
  322MPD2    C4 4891   4.066   1.909  13.471 -0.4371  0.1508  0.6407
  322MPD2    C5 4892   3.973   1.972  13.547 -0.1355 -0.2969  0.0133
  322MPD2     H 4893   4.344   2.013  13.616 -0.8017  0.7023  0.1287
  322MPD2    H1 4894   4.043   1.842  13.389  1.5161  0.5228 -0.2135
  322MPD2    H2 4895   3.939   2.089  13.726 -0.8823 -2.3226  0.1206
  322MPD2    H3 4896   3.868   1.961  13.520  0.6279 -1.6701 -2.4872
  322MPD2     N 4897   4.300   1.854  13.425 -0.3977  0.9450  0.0179
  322MPD2    H5 4898   4.392   1.897  13.428  0.1893 -0.4654  1.8864
  322MPD2    N1 4899   4.174   2.135  13.804 -0.0882  0.3206  0.4430
  322MPD2    H7 4900   4.098   2.148  13.870 -0.7796  0.2933 -0.3477
  323TMC3    C1 4901   4.327   2.197  13.974 -0.0032 -0.0270  0.3990
  323TMC3    C2 4902   4.424   2.292  14.003  0.2714  0.3629 -0.0481
  323TMC3    C3 4903   4.489   2.276  14.119  0.5483 -0.8965 -0.0490
  323TMC3    C4 4904   4.312   2.078  14.049  0.1949  0.0568 -0.5399
  323TMC3    C5 4905   4.378   2.072  14.169 -0.3393  0.3964 -0.1197
  323TMC3    C6 4906   4.464   2.170  14.207  0.2817 -0.3567  0.1332
  323TMC3     C 4907   4.307   2.170  13.834 -0.3493  0.1503  0.3123
  323TMC3     O 4908   4.406   2.159  13.766  0.7439 -0.0872  0.6295
  323TMC3     H 4909   4.448   2.377  13.939 -0.7218  1.4884  1.0937
  323TMC3    H1 4910   4.253   1.999  14.005 -0.5726  0.1866  0.2654
  323TMC3    H2 4911   4.536   2.157  14.286 -0.4728 -0.3022  0.8241
  323TMC3    C7 4912   4.395   1.942  14.226  0.5970 -0.3304 -0.5638
  323TMC3    C8 4913   4.609   2.348  14.140 -0.1795  0.9790  1.0029
  323TMC3    O1 4914   4.338   1.851  14.173 -0.0988 -0.9161  0.5364
  323TMC3    O2 4915   4.696   2.304  14.214  0.1042  0.2513  0.1336
  324MPD2     C 4916   1.141   2.971  14.707 -0.5365 -0.1188 -0.1827
  324MPD2    C1 4917   1.190   3.054  14.606 -0.3034  1.1006 -0.4640
  324MPD2    C2 4918   1.107   3.082  14.502 -0.0377  1.3889  0.1578
  324MPD2    C3 4919   0.979   3.039  14.498  0.3686 -0.0348  1.3659
  324MPD2    C4 4920   0.936   2.959  14.601  0.2829 -0.4110  1.1362
  324MPD2    C5 4921   1.017   2.913  14.699  0.3543  0.0275  0.3388
  324MPD2     H 4922   1.143   3.160  14.436 -1.7239  2.7920  0.9082
  324MPD2    H1 4923   0.830   2.935  14.604 -0.2876  1.8186 -1.0955
  324MPD2    H2 4924   1.192   2.958  14.802 -0.6015  1.5978  0.0939
  324MPD2    H3 4925   0.970   2.867  14.786  0.2402  0.4320  0.4897
  324MPD2     N 4926   0.886   3.056  14.392 -0.3691  0.2434 -0.4509
  324MPD2    H5 4927   0.791   3.022  14.407  0.4717 -2.0715 -0.3954
  324MPD2    N1 4928   1.315   3.120  14.619  0.0618 -0.2857  0.2709
  324MPD2    H7 4929   1.352   3.168  14.537  1.3464  1.9720  2.1798
  325TMC3    C1 4930   0.774   3.162  14.206  0.8723  0.4874  0.3969
  325TMC3    C2 4931   0.685   3.060  14.194  0.0241 -0.7142  0.2904
  325TMC3    C3 4932   0.558   3.090  14.154  0.8723 -0.1480 -0.1961
  325TMC3    C4 4933   0.747   3.289  14.165  0.2521  0.5457 -0.0899
  325TMC3    C5 4934   0.618   3.317  14.129 -0.3131  0.7847  0.0750
  325TMC3    C6 4935   0.522   3.220  14.121  0.1900 -0.6038 -0.2512
  325TMC3     C 4936   0.898   3.144  14.287  0.8131 -0.0888 -0.2388
  325TMC3     O 4937   0.998   3.211  14.257 -0.1272 -0.0720 -0.0570
  325TMC3     H 4938   0.701   2.960  14.232 -2.5128 -0.6448  1.5291
  325TMC3    H1 4939   0.818   3.370  14.164  0.2652  0.5015 -2.8958
  325TMC3    H2 4940   0.427   3.241  14.074 -0.4784 -0.9681  0.9603
  325TMC3    C7 4941   0.600   3.447  14.062 -0.7920  0.3711 -0.2731
  325TMC3    C8 4942   0.481   2.983  14.095 -0.2654 -0.7294 -0.9168
  325TMC3    O1 4943   0.696   3.488  13.999 -0.0968  0.4109 -0.4725
  325TMC3    O2 4944   0.541   2.874  14.094  0.6657 -0.2710 -0.0391
  326MPD2     C 4945   2.065   4.377  10.940  0.0572 -0.2913 -0.8587
  326MPD2    C1 4946   2.091   4.361  10.809 -0.0223 -0.3106  0.1035
  326MPD2    C2 4947   2.223   4.390  10.768 -1.0948 -0.2764 -0.5301
  326MPD2    C3 4948   2.323   4.431  10.848 -0.3350  0.9293 -0.5924
  326MPD2    C4 4949   2.291   4.461  10.978  0.4568  0.0546  0.3420
  326MPD2    C5 4950   2.171   4.422  11.023  0.7254 -0.4397  0.2510
  326MPD2     H 4951   2.243   4.370  10.664 -0.6833  0.9211 -0.6855
  326MPD2    H1 4952   2.360   4.491  11.057 -0.5632 -1.8005  1.9223
  326MPD2    H2 4953   1.970   4.350  10.985  1.0199 -0.7701  0.9007
  326MPD2    H3 4954   2.140   4.435  11.126 -1.7264  1.4524 -0.7025
  326MPD2     N 4955   2.451   4.476  10.811 -0.0516 -0.2491 -0.1113
  326MPD2    H5 4956   2.508   4.521  10.881 -1.3206  0.0349  0.7453
  326MPD2    N1 4957   2.005   4.292  10.714  0.1493  0.3021 -0.1833
  326MPD2    H7 4958   2.038   4.288  10.619  2.2861  2.8225  0.4390
  327TMC3    C1 4959   1.816   4.183  10.630 -1.0541 -0.0433  0.1726
  327TMC3    C2 4960   1.705   4.254  10.590  0.4467  0.7123 -0.2289
  327TMC3    C3 4961   1.698   4.284  10.458  0.0930  1.0597 -0.2880
  327TMC3    C4 4962   1.907   4.137  10.540  0.3522  0.0956 -0.2027
  327TMC3    C5 4963   1.881   4.161  10.406 -0.6249 -0.2278  0.1800
  327TMC3    C6 4964   1.789   4.245  10.369 -0.1916 -0.8817  0.0276
  327TMC3     C 4965   1.881   4.243  10.747  0.0530  0.1414  0.9063
  327TMC3     O 4966   1.822   4.243  10.853  0.0809  0.3804  0.3586
  327TMC3     H 4967   1.639   4.294  10.666 -1.7653  0.6839 -2.1388
  327TMC3    H1 4968   1.976   4.062  10.578  1.3691  2.5300  2.7281
  327TMC3    H2 4969   1.764   4.255  10.264  1.4388  0.4084 -0.2437
  327TMC3    C7 4970   1.998   4.157  10.321  0.4118  0.1679  0.2112
  327TMC3    C8 4971   1.603   4.375  10.398 -0.1477  0.5443 -0.0066
  327TMC3    O1 4972   1.996   4.224  10.221 -0.1827 -0.0934 -0.2130
  327TMC3    O2 4973   1.626   4.426  10.288 -0.0438 -0.0875  0.5761
  328MPD2     C 4974   0.295   4.032  17.359  0.2843 -0.3298  0.0308
  328MPD2    C1 4975   0.255   3.906  17.322 -0.6873  0.3980 -0.2958
  328MPD2    C2 4976   0.155   3.894  17.230 -0.0667 -0.7562  0.6347
  328MPD2    C3 4977   0.100   4.004  17.166  0.3400  0.4974 -0.7162
  328MPD2    C4 4978   0.152   4.128  17.194 -0.7153  0.2503 -0.8702
  328MPD2    C5 4979   0.249   4.138  17.293  0.1482  0.0211 -0.2954
  328MPD2     H 4980   0.109   3.798  17.212  2.6554 -1.8757 -0.3157
  328MPD2    H1 4981   0.099   4.213  17.154 -0.8828 -0.3948 -2.0011
  328MPD2    H2 4982   0.363   4.053  17.441 -0.3785  0.1454  0.4606
  328MPD2    H3 4983   0.283   4.235  17.328 -0.1798  0.0770 -0.1265
  328MPD2     N 4984   4.726   4.002  17.077  0.3165  0.4222  0.7346
  328MPD2    H5 4985   4.692   4.094  17.052  3.3420  1.2980 -0.2103
  328MPD2    N1 4986   0.310   3.798  17.395  0.2294 -0.5298 -0.1593
  328MPD2    H7 4987   0.341   3.818  17.490 -0.2797 -2.5191  0.4277
  329TMC3    C1 4988   0.242   3.592  17.483 -0.3479  0.2849  0.8035
  329TMC3    C2 4989   0.308   3.618  17.606 -0.0669  0.3416  0.5991
  329TMC3    C3 4990   0.224   3.633  17.713 -0.0418 -0.4853 -0.4456
  329TMC3    C4 4991   0.108   3.566  17.471 -0.3925 -0.0958  0.1185
  329TMC3    C5 4992   0.031   3.575  17.590 -0.0556 -0.0515  0.4684
  329TMC3    C6 4993   0.087   3.605  17.710  0.0862 -0.4686  0.0129
  329TMC3     C 4994   0.284   3.664  17.367  0.0888 -0.4836 -1.0161
  329TMC3     O 4995   0.254   3.626  17.254  0.0578  0.0900 -0.2746
  329TMC3     H 4996   0.415   3.634  17.609 -0.2787  1.4589  2.2141
  329TMC3    H1 4997   0.059   3.545  17.377 -0.0429  1.2629 -0.3717
  329TMC3    H2 4998   0.020   3.617   0.050 -0.3442  0.3011 -0.4362
  329TMC3    C7 4999   4.623   3.596  17.577  0.4153  1.0705  0.1275
  329TMC3    C8 5000   0.280   3.610   0.100  0.4286 -0.3738 -0.6647
  329TMC3    O1 5001   4.568   3.629  17.679 -0.6151  0.3546  0.3809
  329TMC3    O2 5002   0.397   3.576   0.107  0.1077 -0.2905 -0.5129
  330TMC3    C1 5003   2.564   3.746   9.287 -0.3607  0.3135  0.2448
  330TMC3    C2 5004   2.449   3.673   9.303 -0.0437 -0.7490 -0.6315
  330TMC3    C3 5005   2.455   3.548   9.362  0.2246 -0.1531  0.1526
  330TMC3    C4 5006   2.679   3.712   9.359 -0.2644  0.1120 -0.1802
  330TMC3    C5 5007   2.681   3.589   9.431  0.3152 -0.2849  0.1421
  330TMC3    C6 5008   2.575   3.505   9.411 -0.0238  0.1555  0.7294
  330TMC3     C 5009   2.554   3.888   9.233 -0.1886 -0.1956  0.2770
  330TMC3     O 5010   2.638   3.969   9.269 -0.1421  0.6994  0.6843
  330TMC3     H 5011   2.355   3.701   9.256  0.3632  0.5282 -0.6912
  330TMC3    H1 5012   2.765   3.777   9.354 -0.4673  0.3680 -0.3044
  330TMC3    H2 5013   2.587   3.398   9.425  2.2333  0.0694 -1.9544
  330TMC3    C7 5014   2.802   3.554   9.501 -0.2972  0.4599 -0.4403
  330TMC3    C8 5015   2.328   3.474   9.368 -0.3300 -0.1760  0.8031
  330TMC3    O1 5016   2.906   3.616   9.483 -0.1738  0.3517 -0.2585
  330TMC3    O2 5017   2.249   3.503   9.278  0.4723  0.5169  0.5114
  331MPD2     C 5018   1.244   2.876  12.835  0.4850 -0.3238 -0.0137
  331MPD2    C1 5019   1.186   2.820  12.720 -0.2063  0.2331  0.0063
  331MPD2    C2 5020   1.100   2.720  12.727 -0.2023  0.4041  0.1457
  331MPD2    C3 5021   1.056   2.685  12.862 -0.8491 -0.1111 -0.5602
  331MPD2    C4 5022   1.104   2.748  12.976 -0.3406 -0.8843  0.5100
  331MPD2    C5 5023   1.204   2.839  12.954 -0.0431 -0.7842 -0.3789
  331MPD2     H 5024   1.057   2.674  12.639  1.7487 -2.7169  0.8332
  331MPD2    H1 5025   1.079   2.719  13.077 -1.6320 -0.8152  0.2028
  331MPD2    H2 5026   1.328   2.944  12.827 -0.9399  1.2122 -2.0076
  331MPD2    H3 5027   1.255   2.880  13.041  1.5562  0.3203 -1.8355
  331MPD2     N 5028   0.946   2.595  12.868  0.0186 -0.0302  0.3841
  331MPD2    H5 5029   0.915   2.565  12.776 -0.3009  0.2985  0.3846
  331MPD2    N1 5030   1.228   2.880  12.600 -0.2103  1.0583  0.1413
  331MPD2    H7 5031   1.291   2.960  12.603  1.1766  0.1373 -4.1114
  332TMC3    C1 5032   0.787   2.446  12.938 -0.8466  0.2372  0.0044
  332TMC3    C2 5033   0.725   2.488  12.825 -0.7427  0.4099  0.7000
  332TMC3    C3 5034   0.657   2.382  12.758 -0.2143 -0.3160  0.2098
  332TMC3    C4 5035   0.811   2.315  12.977 -0.8902 -0.8985 -0.7333
  332TMC3    C5 5036   0.759   2.224  12.893 -0.0555  0.8293  0.2169
  332TMC3    C6 5037   0.672   2.250  12.799 -1.1806  0.1434  0.4494
  332TMC3     C 5038   0.890   2.536  12.983  0.8527 -0.3614  0.9792
  332TMC3     O 5039   0.945   2.514  13.088 -0.5866 -0.4254 -0.2895
  332TMC3     H 5040   0.726   2.592  12.795  1.9965  1.0738  3.0337
  332TMC3    H1 5041   0.883   2.277  13.049 -1.0811  2.8948  1.4407
  332TMC3    H2 5042   0.643   2.167  12.735 -0.1603  1.1131 -1.2653
  332TMC3    C7 5043   0.806   2.094  12.901 -0.6666 -0.6540  0.3214
  332TMC3    C8 5044   0.589   2.416  12.632  0.5902  0.2942 -0.1460
  332TMC3    O1 5045   0.734   2.003  12.858 -0.2623  0.4091 -0.2721
  332TMC3    O2 5046   0.623   2.525  12.590  0.6556 -0.3481  0.3115
  333MPD2     C 5047   0.641   2.673  11.305 -0.2320  0.5633 -0.5704
  333MPD2    C1 5048   0.595   2.652  11.180  0.1348  0.2564  0.1155
  333MPD2    C2 5049   0.527   2.534  11.157 -0.0649  0.5383  0.4235
  333MPD2    C3 5050   0.506   2.440  11.258  0.1370 -0.1857  1.1653
  333MPD2    C4 5051   0.557   2.465  11.386  0.4159  0.9637  0.4190
  333MPD2    C5 5052   0.603   2.593  11.412 -0.2972 -0.6618  0.1892
  333MPD2     H 5053   0.499   2.507  11.056  0.2689  1.0011  0.2065
  333MPD2    H1 5054   0.544   2.391  11.465 -1.2293 -0.5925 -1.2948
  333MPD2    H2 5055   0.699   2.762  11.326 -3.6843  2.5773  0.5175
  333MPD2    H3 5056   0.648   2.612  11.509 -1.0151  2.1168 -0.0435
  333MPD2     N 5057   0.448   2.322  11.225 -0.1670 -0.6291 -0.5978
  333MPD2    H5 5058   0.435   2.318  11.125 -0.7637  2.2675 -0.6445
  333MPD2    N1 5059   0.652   2.743  11.089  0.3484 -0.1417  0.4419
  333MPD2    H7 5060   0.714   2.816  11.122  2.8922 -2.1581  0.1419
  334TMC3    C1 5061   0.737   2.818  10.885 -0.2172  0.6677  0.0455
  334TMC3    C2 5062   0.861   2.810  10.937 -0.1351 -0.0442 -0.4770
  334TMC3    C3 5063   0.956   2.893  10.878 -0.2598  0.3503  0.8569
  334TMC3    C4 5064   0.690   2.903  10.784  0.3787 -0.3722 -0.7104
  334TMC3    C5 5065   0.789   2.981  10.738 -0.0173  0.3887 -0.7412
  334TMC3    C6 5066   0.921   2.983  10.785 -0.0848 -0.1668 -0.3846
  334TMC3     C 5067   0.640   2.734  10.951 -0.1610  0.5143  0.6962
  334TMC3     O 5068   0.543   2.706  10.885  0.2425 -0.0783  0.4512
  334TMC3     H 5069   0.891   2.734  11.008 -0.0196  1.2330  0.8504
  334TMC3    H1 5070   0.584   2.906  10.762  0.1997  0.6561  0.2586
  334TMC3    H2 5071   0.994   3.055  10.748 -0.3872  0.5094  0.3119
  334TMC3    C7 5072   0.753   3.101  10.666 -0.5374  0.1304 -0.0114
  334TMC3    C8 5073   1.080   2.924  10.951 -0.6310 -0.1144 -0.4348
  334TMC3    O1 5074   0.857   3.156  10.619  0.0752 -0.5085  0.4009
  334TMC3    O2 5075   1.077   2.911  11.070  0.1157  0.8216 -0.5194
  335TMC3    C1 5076   0.753   4.157  17.462 -0.2611 -0.7275 -0.0377
  335TMC3    C2 5077   0.660   4.132  17.360 -0.9398 -0.0931  0.2488
  335TMC3    C3 5078   0.701   4.168  17.236 -0.0314 -0.2893  0.2653
  335TMC3    C4 5079   0.878   4.214  17.445 -0.0047 -0.6471 -0.2361
  335TMC3    C5 5080   0.902   4.243  17.314  0.1026 -0.3007  0.1515
  335TMC3    C6 5081   0.821   4.220  17.212 -0.4070 -1.0210  0.6023
  335TMC3     C 5082   0.698   4.139  17.595 -0.5161 -0.2294  0.2357
  335TMC3     O 5083   0.612   4.050  17.606  0.2565  0.4777  0.0003
  335TMC3     H 5084   0.569   4.079  17.385 -1.3526  1.1097  1.3173
  335TMC3    H1 5085   0.938   4.231  17.534 -2.2928  2.8119  0.6384
  335TMC3    H2 5086   0.846   4.260  17.114  0.4607 -0.0124  1.2375
  335TMC3    C7 5087   1.038   4.292  17.290  0.2284  0.7996  0.5505
  335TMC3    C8 5088   0.623   4.139  17.116  0.6406  0.7387 -0.2634
  335TMC3    O1 5089   1.083   4.268  17.180  0.3877 -0.2967  0.7396
  335TMC3    O2 5090   0.631   4.222  17.023 -0.3624  0.3128  0.7972
  336MPD2     C 5091   0.284   1.911  16.162  0.8875 -0.7452  0.5046
  336MPD2    C1 5092   0.238   1.833  16.062  0.7387 -0.5789 -1.2554
  336MPD2    C2 5093   0.274   1.700  16.056 -0.2748 -0.5010  0.0444
  336MPD2    C3 5094   0.371   1.658  16.146  1.1148 -0.4884  0.3338
  336MPD2    C4 5095   0.428   1.741  16.238 -1.1186  0.1981 -1.1753
  336MPD2    C5 5096   0.370   1.866  16.256 -0.0769  0.3877  0.0747
  336MPD2     H 5097   0.233   1.630  15.983 -3.1530 -1.1013  2.2482
  336MPD2    H1 5098   0.505   1.706  16.307 -2.1659 -1.8576 -1.0351
  336MPD2    H2 5099   0.255   2.014  16.179 -0.7235 -1.0045 -0.6653
  336MPD2    H3 5100   0.392   1.929  16.341  2.3875 -0.4201  0.0367
  336MPD2     N 5101   0.418   1.529  16.145 -0.0463  0.4563 -0.0729
  336MPD2    H5 5102   0.490   1.502  16.212  0.3252  2.6765  0.4472
  336MPD2    N1 5103   0.152   1.881  15.963  0.1361  0.1038 -0.0657
  336MPD2    H7 5104   0.115   1.812  15.899 -0.4481 -0.8240  1.2845
  337TMC3    C1 5105   0.043   2.052  15.835  0.8520 -0.1440 -0.4053
  337TMC3    C2 5106   4.674   1.968  15.815 -0.3654 -0.4124  0.4664
  337TMC3    C3 5107   4.594   1.985  15.702 -0.4614 -0.5047  0.7468
  337TMC3    C4 5108   0.061   2.165  15.757 -0.2452  0.2329 -0.1914
  337TMC3    C5 5109   4.715   2.176  15.649 -0.1491  0.4596 -0.1754
  337TMC3    C6 5110   4.620   2.088  15.613 -0.2271 -0.5380  0.1141
  337TMC3     C 5111   0.137   2.014  15.937 -0.0147 -0.4303  0.3319
  337TMC3     O 5112   0.205   2.109  15.964  0.0266  0.1438 -0.7150
  337TMC3     H 5113   4.663   1.881  15.879 -0.1270  0.5745  1.8583
  337TMC3    H1 5114   0.161   2.209  15.754 -0.6402  0.9133 -3.0532
  337TMC3    H2 5115   4.555   2.113  15.529 -0.2098  0.3811  0.3674
  337TMC3    C7 5116   4.730   2.292  15.563 -0.4176 -0.4941 -0.0283
  337TMC3    C8 5117   4.479   1.894  15.691 -0.4303  0.2655  0.3891
  337TMC3    O1 5118   4.665   2.284  15.462  0.4715  0.6446 -0.5793
  337TMC3    O2 5119   4.462   1.803  15.769  0.1248 -0.4945 -0.5022
  338MPD2     C 5120   0.839   1.493   0.855  0.1980  0.1840  0.2123
  338MPD2    C1 5121   0.780   1.422   0.748 -0.0388 -0.6956 -0.2205
  338MPD2    C2 5122   0.643   1.415   0.737 -0.3631  0.8786  0.6701
  338MPD2    C3 5123   0.563   1.492   0.824 -0.6995  0.4224 -0.1895
  338MPD2    C4 5124   0.623   1.569   0.923 -0.0128  0.5890  0.3871
  338MPD2    C5 5125   0.760   1.558   0.939  0.2887 -0.2802 -0.3709
  338MPD2     H 5126   0.589   1.373   0.653  2.9308 -1.0961 -0.4798
  338MPD2    H1 5127   0.557   1.626   0.988 -0.4432 -1.0719  1.4089
  338MPD2    H2 5128   0.946   1.498   0.872  0.2062  0.9840 -0.0884
  338MPD2    H3 5129   0.800   1.635   1.005  0.1612 -0.1549 -0.4401
  338MPD2     N 5130   0.424   1.477   0.810  0.1218  0.4361  0.4019
  338MPD2    H5 5131   0.387   1.425   0.732 -0.6994  0.7554  0.5773
  338MPD2    N1 5132   0.853   1.340   0.656 -0.6773 -0.0225  0.0420
  338MPD2    H7 5133   0.803   1.286   0.587 -0.7561  0.2546 -0.1179
  339TMC3    C1 5134   0.198   1.457   0.881  0.9254 -0.0814 -0.4987
  339TMC3    C2 5135   0.128   1.383   0.979  0.3934  0.1620 -0.0301
  339TMC3    C3 5136   0.022   1.304   0.945 -0.0180  0.2292  0.0486
  339TMC3    C4 5137   0.159   1.444   0.750 -0.6090  0.6705  0.0147
  339TMC3    C5 5138   0.054   1.356   0.724 -0.5233 -0.1002  0.4855
  339TMC3    C6 5139   4.717   1.284   0.821  0.1413 -0.2359  0.2404
  339TMC3     C 5140   0.333   1.501   0.918 -0.3415  0.5342  0.9120
  339TMC3     O 5141   0.343   1.537   1.034  0.0803 -0.5473 -0.3420
  339TMC3     H 5142   0.169   1.380   1.079 -2.0211  0.6660  0.9693
  339TMC3    H1 5143   0.204   1.497   0.666 -1.0188 -0.9620 -1.2390
  339TMC3    H2 5144   4.640   1.209   0.807 -0.7031  1.0126 -1.8252
  339TMC3    C7 5145   0.031   1.313   0.584  0.0028  0.4191  0.3753
  339TMC3    C8 5146   4.710   1.204   1.044  0.1234 -0.8149  0.0939
  339TMC3    O1 5147   0.122   1.350   0.513  0.6473 -0.2018  0.2427
  339TMC3    O2 5148   4.593   1.173   1.038  0.0688  0.0594  0.1704
  340MPD2     C 5149   0.650   0.177  10.505 -0.1243  0.6861  0.4850
  340MPD2    C1 5150   0.674   0.045  10.492 -0.3538  0.5883 -0.2741
  340MPD2    C2 5151   0.800   0.004  10.448  0.2189  0.1244 -0.1238
  340MPD2    C3 5152   0.901   0.095  10.418 -0.3534 -0.4456 -0.3507
  340MPD2    C4 5153   0.880   0.226  10.458  0.8258 -0.1381 -0.1359
  340MPD2    C5 5154   0.749   0.257  10.486  0.5350 -0.3789  0.0735
  340MPD2     H 5155   0.826   4.635  10.448 -2.4657 -0.5364 -0.8105
  340MPD2    H1 5156   0.951   0.306  10.445  1.9398 -1.3288 -1.4202
  340MPD2    H2 5157   0.555   0.225  10.526 -2.2363 -3.9412  1.3925
  340MPD2    H3 5158   0.715   0.360  10.487 -3.0880 -1.5653 -1.6882
  340MPD2     N 5159   1.019   0.059  10.354  0.0809  0.2922  0.2925
  340MPD2    H5 5160   1.093   0.128  10.347 -1.4814  2.0582  1.0436
  340MPD2    N1 5161   0.569   4.696  10.525 -0.0056  0.0323 -0.2568
  340MPD2    H7 5162   0.484   0.003  10.561  1.0842  2.3878 -0.5154
  341TMC3    C1 5163   0.633   4.496  10.404 -0.1026 -0.6365  0.4126
  341TMC3    C2 5164   0.682   4.377  10.440  1.1324 -0.1737 -0.1990
  341TMC3    C3 5165   0.747   4.303  10.343 -0.2699 -0.2869  0.0527
  341TMC3    C4 5166   0.645   4.543  10.277  0.5684 -0.0402 -0.1646
  341TMC3    C5 5167   0.724   4.473  10.185 -1.0022 -0.7546 -0.0658
  341TMC3    C6 5168   0.774   4.352  10.218 -0.7017 -0.2424 -0.1016
  341TMC3     C 5169   0.555   4.562  10.511 -0.0386 -0.3772 -0.2129
  341TMC3     O 5170   0.481   4.483  10.566  0.4200  0.6405 -0.1010
  341TMC3     H 5171   0.655   4.335  10.536  0.2899  1.0186  0.0816
  341TMC3    H1 5172   0.593   4.632  10.241 -1.4315 -0.8095  0.7979
  341TMC3    H2 5173   0.842   4.306  10.146 -1.2442 -0.6380 -0.3638
  341TMC3    C7 5174   0.779   4.546  10.071 -0.1929 -0.3233  0.2683
  341TMC3    C8 5175   0.742   4.162  10.357  0.8802 -0.5215  0.0569
  341TMC3    O1 5176   0.835   4.480   9.985 -0.4927  0.4162 -0.2436
  341TMC3    O2 5177   0.655   4.110  10.430 -0.4906  0.3305 -0.3906
  342MPD2     C 5178   3.086   2.233  17.234 -0.0950 -0.4607 -0.0524
  342MPD2    C1 5179   3.219   2.198  17.255  0.8824  0.3597  0.1439
  342MPD2    C2 5180   3.290   2.292  17.330  0.7621  0.1370 -0.5569
  342MPD2    C3 5181   3.229   2.407  17.395  0.3481 -0.0733  0.6319
  342MPD2    C4 5182   3.096   2.427  17.362  0.3640 -0.0760  0.2620
  342MPD2    C5 5183   3.027   2.348  17.279 -0.0681  0.0567 -0.1248
  342MPD2     H 5184   3.397   2.275  17.335  0.6315 -1.0972 -1.8166
  342MPD2    H1 5185   3.048   2.521  17.388  0.3846  0.0990 -0.3383
  342MPD2    H2 5186   3.016   2.175  17.175 -2.6070  1.2807  1.2462
  342MPD2    H3 5187   2.924   2.371  17.252  0.0552 -0.9070 -1.4280
  342MPD2     N 5188   3.300   2.498  17.474 -0.3958  0.1047  0.4784
  342MPD2    H5 5189   3.235   2.561  17.520  2.3697  1.2502  2.8145
  342MPD2    N1 5190   3.282   2.091  17.190  0.1199 -0.1628 -0.2644
  342MPD2    H7 5191   3.383   2.087  17.182 -0.0270  0.2223 -2.2858
  343TMC3    C1 5192   3.286   1.855  17.136 -0.9480  0.3740 -0.2422
  343TMC3    C2 5193   3.422   1.868  17.135 -0.1626  0.1580  0.2697
  343TMC3    C3 5194   3.497   1.748  17.117 -0.3472  0.0222  0.0957
  343TMC3    C4 5195   3.225   1.732  17.140  0.1256  0.2024 -0.5830
  343TMC3    C5 5196   3.302   1.620  17.126 -0.6319 -0.1275  0.2002
  343TMC3    C6 5197   3.436   1.622  17.107 -0.7630  0.3474  0.2864
  343TMC3     C 5198   3.208   1.981  17.144  0.3391 -0.1201 -0.1663
  343TMC3     O 5199   3.088   1.961  17.150 -0.0557 -0.6261 -0.0496
  343TMC3     H 5200   3.474   1.955  17.097  1.0414 -0.7292 -0.1196
  343TMC3    H1 5201   3.117   1.726  17.152  0.1317 -0.4423 -0.8681
  343TMC3    H2 5202   3.492   1.530  17.094 -0.5192  0.5199  0.1345
  343TMC3    C7 5203   3.236   1.495  17.145 -0.4695  0.2603 -0.4915
  343TMC3    C8 5204   3.645   1.762  17.117  0.1405 -0.2121  0.4586
  343TMC3    O1 5205   3.116   1.497  17.124  0.1684  0.1548 -0.5696
  343TMC3    O2 5206   3.693   1.866  17.158 -0.1530 -0.3411  0.1215
  344MPD2     C 5207   3.963   2.054  10.908  0.1409 -0.4763  0.1929
  344MPD2    C1 5208   3.919   1.987  10.796 -0.6204 -0.1184 -0.8432
  344MPD2    C2 5209   3.967   2.019  10.671  0.5531  0.1458  0.2427
  344MPD2    C3 5210   4.078   2.100  10.663  0.0311  0.4514  0.2721
  344MPD2    C4 5211   4.120   2.167  10.779 -0.1653  0.5245  0.1484
  344MPD2    C5 5212   4.057   2.152  10.899  0.0570  0.1364  0.0353
  344MPD2     H 5213   3.927   1.968  10.585  0.5487  0.6989 -0.0818
  344MPD2    H1 5214   4.210   2.227  10.780 -1.0024  1.7391  1.8075
  344MPD2    H2 5215   3.922   2.042  11.008  0.7311  1.4324  0.6640
  344MPD2    H3 5216   4.083   2.195  10.995 -1.7097  0.3160  0.4330
  344MPD2     N 5217   4.151   2.115  10.549 -0.1106  0.9488  0.3051
  344MPD2    H5 5218   4.230   2.178  10.559 -0.3622  1.3648 -0.2916
  344MPD2    N1 5219   3.821   1.885  10.802 -0.3315  0.2233 -0.0506
  344MPD2    H7 5220   3.805   1.841  10.712  0.9568 -0.0266 -0.1614
  345TMC3    C1 5221   4.235   2.111  10.346 -0.7830  0.3579 -0.0069
  345TMC3    C2 5222   4.346   2.159  10.417 -0.1249  0.9482  0.4201
  345TMC3    C3 5223   4.395   2.281  10.384 -0.0716 -1.5465  0.0942
  345TMC3    C4 5224   4.189   2.175  10.234 -1.1917 -0.1560 -0.0634
  345TMC3    C5 5225   4.254   2.288  10.194  0.4198  0.5044 -0.1518
  345TMC3    C6 5226   4.353   2.338  10.270  0.4254  0.3433 -0.2490
  345TMC3     C 5227   4.137   2.052  10.428 -0.5067  0.1406  0.0188
  345TMC3     O 5228   4.035   2.005  10.379 -0.9431 -0.2419 -0.7522
  345TMC3     H 5229   4.387   2.112  10.506  2.4013 -1.6311 -2.1163
  345TMC3    H1 5230   4.096   2.139  10.191  0.2008 -2.0123 -1.5302
  345TMC3    H2 5231   4.407   2.426  10.238 -1.0098  0.9114 -1.1193
  345TMC3    C7 5232   4.186   2.403  10.130 -0.1200 -0.1652  0.3073
  345TMC3    C8 5233   4.366   2.374  10.490  0.7826 -0.3941  0.4958
  345TMC3    O1 5234   4.214   2.514  10.177  0.0771  0.4876  0.1492
  345TMC3    O2 5235   4.329   2.313  10.589 -0.7287  0.0095  0.2824
  346MPD2     C 5236   4.067   3.326  13.798 -1.0145  0.1689 -0.1426
  346MPD2    C1 5237   4.125   3.439  13.736 -0.5229  0.2419  0.3774
  346MPD2    C2 5238   4.193   3.536  13.811  0.3573  0.2819 -0.0008
  346MPD2    C3 5239   4.213   3.515  13.947  0.3610  0.2838  0.3431
  346MPD2    C4 5240   4.150   3.409  14.008  0.3450  0.3222  0.1580
  346MPD2    C5 5241   4.083   3.312  13.935 -0.4078  0.2960 -0.5309
  346MPD2     H 5242   4.244   3.622  13.769  0.8459  0.1374  0.2979
  346MPD2    H1 5243   4.156   3.397  14.115 -0.0756 -2.5737 -0.1417
  346MPD2    H2 5244   4.019   3.239  13.754 -0.8427 -1.0399  2.0156
  346MPD2    H3 5245   4.031   3.228  13.978 -0.1559 -0.1871 -1.1670
  346MPD2     N 5246   4.299   3.608  14.008  0.2605  0.3607 -0.1587
  346MPD2    H5 5247   4.336   3.678  13.944  0.3679  2.4604  2.1756
  346MPD2    N1 5248   4.112   3.468  13.600 -0.5275  0.0685  0.3619
  346MPD2    H7 5249   4.152   3.556  13.568 -1.3554  0.7358  1.1618
  347TMC3    C1 5250   4.432   3.711  14.170  0.3766 -0.9582  0.3042
  347TMC3    C2 5251   4.526   3.740  14.076  0.1794  0.1257 -0.1495
  347TMC3    C3 5252   4.642   3.802  14.110  0.2528 -0.3743  0.3754
  347TMC3    C4 5253   4.440   3.774  14.288 -0.5298 -0.6618 -0.2086
  347TMC3    C5 5254   4.556   3.843  14.326 -0.1610 -1.1320  0.5014
  347TMC3    C6 5255   4.654   3.861  14.232 -0.6448  0.0176  0.3787
  347TMC3     C 5256   4.327   3.613  14.143 -0.5915 -0.4750 -0.1130
  347TMC3     O 5257   4.279   3.548  14.236 -0.2312  0.0112  0.0122
  347TMC3     H 5258   4.518   3.682  13.985 -1.1036 -0.5076  0.3752
  347TMC3    H1 5259   4.371   3.734  14.362 -0.5479  1.1625  0.7483
  347TMC3    H2 5260   0.016   3.895  14.263 -0.5101  2.3684 -2.6701
  347TMC3    C7 5261   4.592   3.853  14.463  0.4425  0.4278 -0.1058
  347TMC3    C8 5262   0.018   3.744  14.051 -0.9037  0.3983 -0.8919
  347TMC3    O1 5263   4.710   3.850  14.489  0.3766 -0.2250  1.0201
  347TMC3    O2 5264   0.015   3.625  14.039  0.4889 -0.5039 -0.0989
  348MPD2     C 5265   3.437   3.569  11.652 -0.0313 -0.2215  0.3573
  348MPD2    C1 5266   3.310   3.544  11.595  1.0937 -0.5780 -0.1366
  348MPD2    C2 5267   3.269   3.633  11.498  0.0450  0.2169  0.1149
  348MPD2    C3 5268   3.351   3.731  11.448 -0.4621  0.0389 -0.3986
  348MPD2    C4 5269   3.481   3.748  11.497  0.3543  0.2068 -0.3606
  348MPD2    C5 5270   3.518   3.667  11.599 -0.2580  0.2823 -0.1105
  348MPD2     H 5271   3.175   3.605  11.451  0.4946  1.1282 -1.3134
  348MPD2    H1 5272   3.555   3.822  11.469  0.7258  0.0038  0.0886
  348MPD2    H2 5273   3.486   3.508  11.726 -0.3420 -0.2236  0.5611
  348MPD2    H3 5274   3.619   3.675  11.636  0.4192  1.3414 -2.1958
  348MPD2     N 5275   3.301   3.815  11.346 -0.6921 -0.5785 -0.4111
  348MPD2    H5 5276   3.208   3.796  11.310 -0.8856 -3.1128  1.3932
  348MPD2    N1 5277   3.221   3.431  11.616  0.1225 -0.0785  0.1033
  348MPD2    H7 5278   3.154   3.406  11.545  2.2851  2.1417 -2.7210
  349TMC3    C1 5279   3.164   3.212  11.707  0.5236  0.4881 -0.2232
  349TMC3    C2 5280   3.210   3.106  11.786 -0.2935 -0.2728  0.4574
  349TMC3    C3 5281   3.124   3.008  11.811 -0.2768  0.3383  0.4907
  349TMC3    C4 5282   3.038   3.215  11.647  0.3589  0.4822  0.0608
  349TMC3    C5 5283   2.959   3.106  11.672  0.8728  0.5111  0.2743
  349TMC3    C6 5284   2.999   3.001  11.754  0.1130 -0.0003 -0.0941
  349TMC3     C 5285   3.250   3.328  11.708 -0.3183 -0.1997  0.3016
  349TMC3     O 5286   3.350   3.331  11.776  0.2378  0.6050 -0.2948
  349TMC3     H 5287   3.306   3.107  11.838 -0.1296 -1.1498  0.1607
  349TMC3    H1 5288   2.999   3.301  11.595 -0.4212  0.1147  0.0466
  349TMC3    H2 5289   2.929   2.918  11.765  0.8000 -0.5650  0.0688
  349TMC3    C7 5290   2.825   3.103  11.612  0.4661  0.3157  0.4956
  349TMC3    C8 5291   3.171   2.912  11.910 -1.4058  0.0264 -0.1868
  349TMC3    O1 5292   2.741   3.038  11.672 -0.5839  0.2479  0.4553
  349TMC3    O2 5293   3.252   2.947  11.998 -0.0867 -0.2097 -0.3108
  350MPD2     C 5294   2.347   1.475  10.395  0.1226  0.2217  0.0064
  350MPD2    C1 5295   2.228   1.411  10.374  0.3670 -0.0250  0.1110
  350MPD2    C2 5296   2.141   1.406  10.482 -0.0030 -0.2509 -0.3532
  350MPD2    C3 5297   2.183   1.461  10.608 -0.1901 -0.3365 -0.0935
  350MPD2    C4 5298   2.304   1.528  10.619  0.1675 -0.6284  0.3385
  350MPD2    C5 5299   2.386   1.538  10.509  0.2698 -0.1443 -0.3814
  350MPD2     H 5300   2.049   1.352  10.467  0.7395 -1.0604 -2.0202
  350MPD2    H1 5301   2.346   1.568  10.710  0.2215 -1.1801  0.5589
  350MPD2    H2 5302   2.419   1.493  10.315  1.0717 -0.5608  0.6838
  350MPD2    H3 5303   2.482   1.587  10.524 -0.1237  0.2431  0.8705
  350MPD2     N 5304   2.093   1.436  10.720  0.4193 -0.0161  0.3143
  350MPD2    H5 5305   2.005   1.398  10.688  0.2553  0.7991 -0.1966
  350MPD2    N1 5306   2.203   1.344  10.249 -0.1627  0.1002  0.1472
  350MPD2    H7 5307   2.117   1.292  10.234 -1.4035  2.0398  0.5280
  351TMC3    C1 5308   2.240   1.261  10.037  0.7881 -0.5142 -0.3154
  351TMC3    C2 5309   2.330   1.189   9.970 -0.0191 -0.0626 -0.8525
  351TMC3    C3 5310   2.283   1.129   9.858 -0.1519  0.1988 -0.3666
  351TMC3    C4 5311   2.106   1.276  10.016  0.4372 -0.3424 -0.7182
  351TMC3    C5 5312   2.067   1.206   9.904 -0.7149  0.6490  0.2869
  351TMC3    C6 5313   2.156   1.135   9.821 -0.3128 -0.5474 -0.1271
  351TMC3     C 5314   2.296   1.324  10.149 -0.1501 -0.3614 -0.0605
  351TMC3     O 5315   2.418   1.363  10.144  0.1514  0.7247  0.4772
  351TMC3     H 5316   2.437   1.202   9.986 -0.6582  4.4294 -0.1853
  351TMC3    H1 5317   2.041   1.348  10.065  0.0866 -0.2177 -1.3640
  351TMC3    H2 5318   2.124   1.100   9.723 -1.5906  0.1466  0.0364
  351TMC3    C7 5319   1.928   1.191   9.878 -0.2668  0.2191  0.1356
  351TMC3    C8 5320   2.378   1.048   9.774 -0.0959 -0.1115 -0.7927
  351TMC3    O1 5321   1.905   1.106   9.795 -0.0968 -0.2676  0.2664
  351TMC3    O2 5322   2.329   1.002   9.674 -0.3403  0.6536 -0.2339
  352MPD2     C 5323   0.250   3.427   1.261  0.1566 -0.5600 -0.4941
  352MPD2    C1 5324   0.233   3.345   1.150  0.3317 -0.4503 -0.3437
  352MPD2    C2 5325   0.322   3.236   1.128 -0.6125 -0.1864  0.2046
  352MPD2    C3 5326   0.426   3.215   1.216 -0.1257 -0.0881  0.0353
  352MPD2    C4 5327   0.447   3.293   1.328  0.1888 -0.9218 -0.1068
  352MPD2    C5 5328   0.360   3.404   1.342  0.3729 -0.3826  0.3533
  352MPD2     H 5329   0.326   3.185   1.033  0.0647  0.1687  0.0409
  352MPD2    H1 5330   0.526   3.285   1.402  0.8340  2.5828 -0.3856
  352MPD2    H2 5331   0.187   3.515   1.275 -1.5750 -2.3284  2.8650
  352MPD2    H3 5332   0.369   3.478   1.422  0.2873 -1.2498  1.1656
  352MPD2     N 5333   0.519   3.109   1.203 -0.0549 -0.3807  0.1646
  352MPD2    H5 5334   0.604   3.117   1.257  0.1842  0.9435 -0.4028
  352MPD2    N1 5335   0.124   3.372   1.060 -0.6443 -0.9818 -0.0258
  352MPD2    H7 5336   0.053   3.425   1.109 -0.1958  0.1742 -0.6242
  353TMC3    C1 5337   0.610   2.912   1.105  0.1589 -0.0045 -0.8614
  353TMC3    C2 5338   0.736   2.960   1.125  1.0078  0.1426  0.5811
  353TMC3    C3 5339   0.842   2.888   1.091  0.4243 -0.2040 -0.0532
  353TMC3    C4 5340   0.592   2.775   1.080 -0.7331 -0.1465 -0.0303
  353TMC3    C5 5341   0.701   2.699   1.063 -0.3279 -0.7511 -0.4967
  353TMC3    C6 5342   0.831   2.753   1.067 -0.0355 -0.0804  0.3008
  353TMC3     C 5343   0.493   2.994   1.131  0.1497 -0.9997 -0.2973
  353TMC3     O 5344   0.391   2.963   1.075 -0.2000  0.1304 -0.4697
  353TMC3     H 5345   0.744   3.068   1.123 -1.1754  0.3180  1.8311
  353TMC3    H1 5346   0.491   2.736   1.081 -1.1777  0.9640 -2.3774
  353TMC3    H2 5347   0.915   2.688   1.045  0.0893 -0.3236  1.5101
  353TMC3    C7 5348   0.688   2.553   1.018  0.7914 -0.2396  0.0307
  353TMC3    C8 5349   0.976   2.932   1.123 -0.3189  0.5764 -0.2019
  353TMC3    O1 5350   0.787   2.505   0.967  0.0715  0.0934 -0.3982
  353TMC3    O2 5351   0.983   3.025   1.199 -0.4369  0.0439  1.0179
  354TMC3    C1 5352   2.110   4.262  13.679 -0.7142  0.4437 -0.2814
  354TMC3    C2 5353   2.166   4.387  13.663 -0.0068 -0.2243  0.4807
  354TMC3    C3 5354   2.124   4.471  13.571  0.1385 -0.4320 -0.4083
  354TMC3    C4 5355   2.004   4.222  13.598 -0.4931  0.1445 -0.1624
  354TMC3    C5 5356   1.969   4.304  13.493 -0.0404  0.1854 -0.5471
  354TMC3    C6 5357   2.022   4.433  13.489  0.4154  0.5527 -0.1685
  354TMC3     C 5358   2.104   4.194  13.808 -0.3892 -0.4836 -0.5392
  354TMC3     O 5359   2.015   4.108  13.819  0.2712  0.3168 -0.0727
  354TMC3     H 5360   2.262   4.394  13.713  0.7848  0.0841 -1.0901
  354TMC3    H1 5361   1.976   4.117  13.595 -1.5584  0.4377 -0.3173
  354TMC3    H2 5362   1.983   4.491  13.405 -1.3560 -0.7144 -0.2270
  354TMC3    C7 5363   1.978   4.241  13.356 -0.0535 -0.0860  0.3697
  354TMC3    C8 5364   2.232   4.560  13.515  0.1942 -0.7348 -0.2293
  354TMC3    O1 5365   1.914   4.140  13.335 -0.0986  0.2517  0.3961
  354TMC3    O2 5366   2.341   4.565  13.571 -0.1884  0.3652 -0.1233
  355MPD2     C 5367   2.156   0.484  11.630  0.6456  0.7421 -0.1688
  355MPD2    C1 5368   2.283   0.487  11.580 -0.4157 -0.3427  0.2299
  355MPD2    C2 5369   2.387   0.423  11.641 -0.2636  0.0009  0.3761
  355MPD2    C3 5370   2.369   0.352  11.756  0.6299  0.7539  0.2734
  355MPD2    C4 5371   2.248   0.355  11.813 -0.3785 -0.2008 -0.4908
  355MPD2    C5 5372   2.140   0.417  11.751  0.2942  0.4647  0.2967
  355MPD2     H 5373   2.482   0.407  11.592  0.8890  0.1205  2.5677
  355MPD2    H1 5374   2.228   0.310  11.910 -2.7626  1.0322 -0.4042
  355MPD2    H2 5375   2.077   0.528  11.572  1.7631  0.8808 -1.5891
  355MPD2    H3 5376   2.047   0.393  11.801  1.1484 -0.3510  1.4822
  355MPD2     N 5377   2.481   0.296  11.827  0.0010  0.4142  0.0401
  355MPD2    H5 5378   2.470   0.261  11.922  0.5388 -0.8125 -0.3472
  355MPD2    N1 5379   2.295   0.546  11.455 -0.2211  0.1464 -0.4115
  355MPD2    H7 5380   2.225   0.611  11.422 -2.2016 -2.2094 -0.8058
  356TMC3    C1 5381   2.704   0.331  11.798 -0.2024 -0.1352 -0.0856
  356TMC3    C2 5382   2.745   0.399  11.681 -0.2185 -0.2504  0.0905
  356TMC3    C3 5383   2.791   0.530  11.698 -0.2939 -0.5420  0.7134
  356TMC3    C4 5384   2.697   0.384  11.915  0.5674 -0.9652  0.0927
  356TMC3    C5 5385   2.757   0.508  11.932  0.9143 -0.6768  0.0332
  356TMC3    C6 5386   2.809   0.583  11.822 -0.4688  0.9000 -0.3177
  356TMC3     C 5387   2.593   0.247  11.757  0.4986 -0.5061  0.3493
  356TMC3     O 5388   2.589   0.196  11.642 -0.2044  0.9600 -0.3244
  356TMC3     H 5389   2.734   0.357  11.582 -0.3680 -1.7253  0.7357
  356TMC3    H1 5390   2.657   0.328  11.999 -0.0394  0.8655  1.0283
  356TMC3    H2 5391   2.890   0.652  11.843  0.9530 -0.8227 -0.1113
  356TMC3    C7 5392   2.797   0.546  12.072 -0.4511 -0.2179 -0.5926
  356TMC3    C8 5393   2.825   0.611  11.579  0.3152 -0.2182  0.4894
  356TMC3    O1 5394   2.769   0.467  12.157 -0.2137 -0.2335 -0.7530
  356TMC3    O2 5395   2.791   0.559  11.471  0.0058  0.4518  0.0634
  357MPD2     C 5396   2.227   0.874   0.438 -0.0949 -0.4974  0.3376
  357MPD2    C1 5397   2.219   0.736   0.421  0.1210 -0.6590 -0.1158
  357MPD2    C2 5398   2.103   0.689   0.360 -0.0938 -0.0568 -0.5284
  357MPD2    C3 5399   1.998   0.780   0.325  0.6433 -0.2753  0.0388
  357MPD2    C4 5400   2.013   0.914   0.350 -0.2427 -0.0819 -0.5856
  357MPD2    C5 5401   2.127   0.961   0.406  0.5386 -0.4973 -0.6190
  357MPD2     H 5402   2.112   0.592   0.311 -0.7669  0.1010 -0.9635
  357MPD2    H1 5403   1.936   0.986   0.326  1.0851  1.6599  0.4444
  357MPD2    H2 5404   2.320   0.913   0.479  0.2572 -0.8021 -0.1740
  357MPD2    H3 5405   2.136   1.068   0.419 -1.5968 -0.7224  2.4924
  357MPD2     N 5406   1.876   0.728   0.263  0.1698 -0.0507  0.4967
  357MPD2    H5 5407   1.818   0.799   0.219 -0.6084 -2.5168 -2.4210
  357MPD2    N1 5408   2.328   0.663   0.464  0.5862 -0.2323 -0.1241
  357MPD2    H7 5409   2.388   0.712   0.529 -0.2913 -0.5183  0.8854
  358TMC3    C1 5410   2.457   0.467   0.519  0.1511 -0.1207 -0.2173
  358TMC3    C2 5411   2.450   0.335   0.559  1.1275  0.2062 -1.0466
  358TMC3    C3 5412   2.569   0.276   0.590 -0.3047 -0.3004  0.1491
  358TMC3    C4 5413   2.576   0.538   0.524  0.3927 -0.6220 -0.0834
  358TMC3    C5 5414   2.690   0.471   0.568 -0.0177  0.3383  0.1961
  358TMC3    C6 5415   2.686   0.338   0.612  0.2376 -0.0999  0.1250
  358TMC3     C 5416   2.347   0.526   0.444 -0.2918 -0.3843  0.2210
  358TMC3     O 5417   2.275   0.443   0.394 -0.6897  0.7777  0.6758
  358TMC3     H 5418   2.359   0.282   0.533  2.3681 -1.0457 -2.8596
  358TMC3    H1 5419   2.579   0.636   0.477 -0.1549 -1.1031 -1.1185
  358TMC3    H2 5420   2.785   0.292   0.612  0.8359  1.1649 -0.5209
  358TMC3    C7 5421   2.809   0.550   0.574 -0.4704  0.0141 -0.1587
  358TMC3    C8 5422   2.588   0.135   0.552 -0.0462  0.1840  0.1607
  358TMC3    O1 5423   2.801   0.659   0.520  0.0105  0.3938  0.4879
  358TMC3    O2 5424   2.703   0.098   0.544 -0.2990 -0.0836 -0.5913
  359MPD2     C 5425   2.523   4.093  12.207  0.6859  0.6409 -0.3430
  359MPD2    C1 5426   2.518   3.968  12.138  0.9686  0.1149  0.1378
  359MPD2    C2 5427   2.404   3.892  12.142  0.8239 -0.4285 -0.3535
  359MPD2    C3 5428   2.295   3.927  12.221  0.0907  0.2635  0.3138
  359MPD2    C4 5429   2.294   4.054  12.279 -0.4560 -0.2140  0.0875
  359MPD2    C5 5430   2.409   4.132  12.270  0.0064 -0.5689  0.1757
  359MPD2     H 5431   2.406   3.799  12.087  3.3684 -0.2854 -0.5018
  359MPD2    H1 5432   2.201   4.079  12.328 -0.1754  2.4095 -0.7216
  359MPD2    H2 5433   2.610   4.159  12.204  0.2261  1.2823  0.4320
  359MPD2    H3 5434   2.421   4.223  12.327  0.5107 -1.3608  1.3410
  359MPD2     N 5435   2.189   3.840  12.247  0.2134 -0.4843  0.2680
  359MPD2    H5 5436   2.106   3.862  12.302  0.7462 -0.0902  0.9199
  359MPD2    N1 5437   2.630   3.928  12.069  0.0130 -0.5782 -0.4627
  359MPD2    H7 5438   2.693   4.007  12.055  1.0966 -0.9551  2.2943
  360TMC3    C1 5439   2.777   3.787  11.943  0.5711 -0.2225 -0.1927
  360TMC3    C2 5440   2.897   3.834  11.982 -0.0493 -1.1901  0.2666
  360TMC3    C3 5441   2.993   3.840  11.882  0.1046  0.0945 -0.5686
  360TMC3    C4 5442   2.755   3.726  11.827 -0.2884 -0.7586  0.3568
  360TMC3    C5 5443   2.862   3.713  11.739 -0.1234  0.2355 -0.0088
  360TMC3    C6 5444   2.983   3.781  11.759 -0.4920  0.2722  0.6355
  360TMC3     C 5445   2.655   3.799  12.022 -0.5337 -0.7858 -0.7494
  360TMC3     O 5446   2.598   3.692  12.027 -0.5592 -0.1848 -0.3351
  360TMC3     H 5447   2.898   3.900  12.068 -0.4137 -1.5658  0.5585
  360TMC3    H1 5448   2.653   3.709  11.794 -0.0819 -0.1590 -0.5961
  360TMC3    H2 5449   3.060   3.785  11.683 -1.6316  0.7361 -0.4884
  360TMC3    C7 5450   2.823   3.698  11.600 -0.4999 -0.1380  0.4675
  360TMC3    C8 5451   3.100   3.940  11.911  0.1638  0.5917  0.3318
  360TMC3    O1 5452   2.876   3.775  11.523 -0.1905  0.0141  0.3471
  360TMC3    O2 5453   3.092   3.994  12.020  0.3813 -0.3326 -0.0218
  361MPD2     C 5454   4.599   2.547  16.412  0.1269 -0.3489 -0.4214
  361MPD2    C1 5455   4.573   2.597  16.540 -0.4357  0.5640  0.1431
  361MPD2    C2 5456   4.641   2.540  16.645  0.6065  0.5272  0.1140
  361MPD2    C3 5457   4.728   2.432  16.633 -0.3086 -0.5873  0.0306
  361MPD2    C4 5458   0.016   2.382  16.508  0.3485 -0.0847  0.1232
  361MPD2    C5 5459   4.689   2.444  16.401  0.3201 -0.4475  0.0733
  361MPD2     H 5460   4.630   2.594  16.739 -0.4414 -1.8997  1.3698
  361MPD2    H1 5461   0.079   2.295  16.490 -1.3902 -1.3353  0.1453
  361MPD2    H2 5462   4.555   2.589  16.323 -1.1116  0.0858  0.3887
  361MPD2    H3 5463   4.704   2.409  16.299  0.7936  0.9651 -0.3345
  361MPD2     N 5464   0.048   2.365  16.745 -0.2881 -0.1346 -0.3211
  361MPD2    H5 5465   0.111   2.289  16.718  3.1525  2.4417  0.4696
  361MPD2    N1 5466   4.494   2.710  16.561 -0.3500 -0.0235  0.6269
  361MPD2    H7 5467   4.483   2.740  16.657  2.1336  0.0731  0.8680
  362TMC3    C1 5468   4.321   2.871  16.546 -0.8210  0.6447 -0.1878
  362TMC3    C2 5469   4.351   2.917  16.672 -0.2203  0.3691 -0.3474
  362TMC3    C3 5470   4.251   2.989  16.739  0.1025 -0.2757  0.0514
  362TMC3    C4 5471   4.201   2.901  16.489  0.5175 -0.3540  0.4366
  362TMC3    C5 5472   4.108   2.968  16.559  0.5741 -0.3745  0.2580
  362TMC3    C6 5473   4.126   3.011  16.691  0.9558  0.6618  0.6944
  362TMC3     C 5474   4.408   2.774  16.480 -0.6281 -0.7271  0.3182
  362TMC3     O 5475   4.389   2.740  16.365 -0.3183  0.2248 -0.7606
  362TMC3     H 5476   4.450   2.920  16.716 -0.3222  0.6138 -0.1296
  362TMC3    H1 5477   4.192   2.885  16.382 -1.3440  0.1541  0.5143
  362TMC3    H2 5478   4.057   3.078  16.741 -4.1591 -2.9507 -1.4936
  362TMC3    C7 5479   4.005   3.043  16.487 -0.0640  0.5101  0.1225
  362TMC3    C8 5480   4.277   3.007  16.885  0.2430 -0.2404  0.1361
  362TMC3    O1 5481   3.997   3.163  16.524 -0.0913 -0.0015  0.2217
  362TMC3    O2 5482   4.368   2.941  16.927  0.2115 -0.8179 -0.4869
  363TMC3    C1 5483   2.625   0.973   9.226 -0.4247  0.1309  0.5179
  363TMC3    C2 5484   2.754   0.983   9.265 -0.0324 -0.0415 -0.2539
  363TMC3    C3 5485   2.790   1.052   9.375 -0.6935 -0.1804 -0.1221
  363TMC3    C4 5486   2.530   1.055   9.288 -0.1478  0.5395  0.6444
  363TMC3    C5 5487   2.571   1.144   9.380 -0.2725  0.0866 -0.4873
  363TMC3    C6 5488   2.699   1.135   9.431  0.3420 -0.2915  0.4148
  363TMC3     C 5489   2.595   0.912   9.098  0.2838  0.6433 -0.1929
  363TMC3     O 5490   2.477   0.932   9.061  0.4549 -0.3021  0.2628
  363TMC3     H 5491   2.831   0.935   9.206 -0.2887 -0.5441 -0.1859
  363TMC3    H1 5492   2.431   1.069   9.245  0.0264 -1.6392 -0.4598
  363TMC3    H2 5493   2.723   1.183   9.526  0.3331  0.4534  0.0369
  363TMC3    C7 5494   2.479   1.253   9.412  0.3141  0.0212 -0.1367
  363TMC3    C8 5495   2.925   1.051   9.427 -0.5338 -0.7041 -0.0679
  363TMC3    O1 5496   2.389   1.280   9.338  0.7063  0.3256 -0.3995
  363TMC3    O2 5497   2.953   1.157   9.484  0.3503  0.3461  0.0295
  364MPD2     C 5498   1.273   4.732  10.573  0.1238  0.2578  0.2577
  364MPD2    C1 5499   1.384   4.734  10.490 -0.6055  0.4180 -0.0618
  364MPD2    C2 5500   1.456   4.621  10.457 -0.3132  0.1212  0.0360
  364MPD2    C3 5501   1.423   4.498  10.509  0.7417 -0.5160  0.0262
  364MPD2    C4 5502   1.330   4.502  10.615  0.0882 -0.3589  0.1208
  364MPD2    C5 5503   1.248   4.612  10.640  0.7725 -0.1246  0.2057
  364MPD2     H 5504   1.536   4.631  10.385 -0.2440 -0.5226  0.0231
  364MPD2    H1 5505   1.321   4.410  10.670 -0.3734  0.1153  0.8398
  364MPD2    H2 5506   1.216   0.085  10.595  2.1420  1.3868  0.8998
  364MPD2    H3 5507   1.187   4.599  10.729 -0.0211  0.4817 -0.2403
  364MPD2     N 5508   1.501   4.385  10.483 -0.1703 -0.2328 -0.2143
  364MPD2    H5 5509   1.496   4.300  10.539  0.9908 -0.5667 -0.6333
  364MPD2    N1 5510   1.409   0.121  10.425 -0.2284  0.5202  0.6066
  364MPD2    H7 5511   1.355   0.201  10.455  0.7969  1.8037 -0.9216
  365TMC3    C1 5512   1.504   0.288  10.272  0.0079 -0.0451 -0.3365
  365TMC3    C2 5513   1.573   0.315  10.152 -0.1993 -0.5393  0.0781
  365TMC3    C3 5514   1.625   0.444  10.137  0.7979  0.2169 -0.7553
  365TMC3    C4 5515   1.499   0.385  10.372  0.4547 -0.0145  0.5299
  365TMC3    C5 5516   1.549   0.510  10.347  0.5996 -0.2972 -0.0921
  365TMC3    C6 5517   1.597   0.542  10.226  0.5587  0.0999 -0.1439
  365TMC3     C 5518   1.497   0.146  10.316  0.6875  0.4202  0.1555
  365TMC3     O 5519   1.576   0.070  10.258  0.5442 -0.3599  0.5201
  365TMC3     H 5520   1.579   0.234  10.081  0.3510 -1.3593  1.0565
  365TMC3    H1 5521   1.452   0.365  10.467 -2.2910  4.4311  0.0810
  365TMC3    H2 5522   1.650   0.636  10.223  0.7285  0.0696  1.7363
  365TMC3    C7 5523   1.559   0.609  10.455  0.5069 -0.5346  0.2827
  365TMC3    C8 5524   1.733   0.469  10.040 -0.2691  0.8095  0.1328
  365TMC3    O1 5525   1.591   0.720  10.424  0.0455  0.0811  0.0682
  365TMC3    O2 5526   1.816   0.550  10.072  0.1483 -0.1296 -0.1078
  366MPD2     C 5527   4.346   0.955  15.516  0.3198  0.1862  0.4015
  366MPD2    C1 5528   4.463   1.030  15.513  0.7214 -0.7365 -0.7872
  366MPD2    C2 5529   4.576   0.963  15.473 -0.6028 -0.1137  0.6355
  366MPD2    C3 5530   4.567   0.829  15.423 -0.1933 -0.6682  0.0613
  366MPD2    C4 5531   4.455   0.763  15.428  0.5046  0.5846  0.3315
  366MPD2    C5 5532   4.343   0.827  15.479  0.0520  0.1088  0.3777
  366MPD2     H 5533   4.673   1.013  15.471 -1.0138  0.6705  0.2759
  366MPD2    H1 5534   4.445   0.659  15.400  1.7489  0.6239 -0.2513
  366MPD2    H2 5535   4.257   1.004  15.553  0.1193 -1.2814  1.8407
  366MPD2    H3 5536   4.246   0.779  15.476  1.2460 -2.3778  0.8084
  366MPD2     N 5537   4.687   0.775  15.371  0.1283  0.3330  0.6869
  366MPD2    H5 5538   0.035   0.830  15.366  0.7364 -0.4810  2.1938
  366MPD2    N1 5539   4.472   1.167  15.531 -0.4425 -0.1378  0.1835
  366MPD2    H7 5540   4.566   1.205  15.534 -0.6286  0.2898  0.5510
  367TMC3    C1 5541   4.399   1.392  15.516 -0.3815  0.3161  0.1513
  367TMC3    C2 5542   4.511   1.431  15.583 -0.3284  0.1217 -0.0368
  367TMC3    C3 5543   4.579   1.547  15.543 -0.1600 -0.6114 -0.0470
  367TMC3    C4 5544   4.339   1.467  15.421 -0.0125  0.3188  0.8402
  367TMC3    C5 5545   4.417   1.576  15.383  0.3482  0.4189 -0.3180
  367TMC3    C6 5546   4.529   1.627  15.444 -0.2979 -0.4169  0.6254
  367TMC3     C 5547   4.363   1.252  15.527  0.1712 -0.4114  0.7661
  367TMC3     O 5548   4.241   1.234  15.520 -0.0598  0.1476 -0.5368
  367TMC3     H 5549   4.549   1.370  15.664 -1.8384 -0.9527 -0.1540
  367TMC3    H1 5550   4.253   1.437  15.362 -0.8565  0.6373  1.9287
  367TMC3    H2 5551   4.582   1.708  15.396 -3.0590  1.2860  0.4182
  367TMC3    C7 5552   4.383   1.632  15.254 -0.3605 -0.2482  0.1316
  367TMC3    C8 5553   4.695   1.590  15.623  0.7432  0.3443 -0.1191
  367TMC3    O1 5554   4.401   1.751  15.231  0.0021  0.0014  0.0560
  367TMC3    O2 5555   4.722   1.517  15.717  0.2170 -0.6205 -0.2916
  368MPD2     C 5556   1.623   2.907  13.336 -0.2595  0.1691  0.2664
  368MPD2    C1 5557   1.555   2.927  13.218  0.0779  0.4575  0.4539
  368MPD2    C2 5558   1.608   2.881  13.098  0.6026  0.2244 -0.0316
  368MPD2    C3 5559   1.741   2.836  13.093 -0.6590  1.2341 -0.2988
  368MPD2    C4 5560   1.810   2.827  13.207  0.6119  0.5374  0.3677
  368MPD2    C5 5561   1.754   2.859  13.328 -0.5879 -0.1279  0.2823
  368MPD2     H 5562   1.545   2.881  13.009  1.8020 -0.3969 -0.8955
  368MPD2    H1 5563   1.914   2.796  13.218  0.9207  1.2619 -0.5259
  368MPD2    H2 5564   1.588   2.940  13.433 -0.5604 -1.2590  0.6460
  368MPD2    H3 5565   1.812   2.836  13.416  1.3879  0.0822 -0.9688
  368MPD2     N 5566   1.811   2.804  12.969 -0.8255 -0.0045  0.5965
  368MPD2    H5 5567   1.909   2.786  12.988 -1.0240 -0.8527  0.8420
  368MPD2    N1 5568   1.431   2.992  13.214  0.3661 -0.1241  0.3576
  368MPD2    H7 5569   1.378   2.991  13.301  0.7215 -2.3384  0.5378
  369TMC3    C1 5570   1.271   3.158  13.139 -0.1525  0.3871 -0.1949
  369TMC3    C2 5571   1.259   3.266  13.058 -0.3593  0.1686 -0.4431
  369TMC3    C3 5572   1.137   3.303  13.008 -0.3008  0.7168  0.8350
  369TMC3    C4 5573   1.168   3.078  13.167 -0.0286 -0.3845  0.4092
  369TMC3    C5 5574   1.051   3.118  13.113  0.0075  0.2262 -0.4005
  369TMC3    C6 5575   1.026   3.229  13.035  0.9739 -0.7645  0.0784
  369TMC3     C 5576   1.393   3.082  13.113  0.2841 -0.5003  0.1109
  369TMC3     O 5577   1.468   3.129  13.027  0.4027  0.4914  0.0842
  369TMC3     H 5578   1.350   3.313  13.022  1.3386 -1.5936  1.5338
  369TMC3    H1 5579   1.175   2.983  13.219 -2.2670 -0.0876  1.2600
  369TMC3    H2 5580   0.928   3.251  12.993  0.8200 -2.7334 -0.5683
  369TMC3    C7 5581   0.949   3.027  13.141 -0.2564 -0.4383 -0.4788
  369TMC3    C8 5582   1.111   3.434  12.940 -0.2420  0.3892 -0.0104
  369TMC3    O1 5583   0.955   2.962  13.244  0.5313 -0.6324  0.0410
  369TMC3    O2 5584   0.997   3.474  12.924  0.4579 -0.4007 -0.6633
  370TMC3    C1 5585   0.979   3.591  16.121  0.1700  0.1288  0.7399
  370TMC3    C2 5586   0.920   3.525  16.224  0.5212 -0.1799 -0.0517
  370TMC3    C3 5587   0.858   3.409  16.188  0.0561 -0.2874  0.9341
  370TMC3    C4 5588   0.983   3.537  15.987 -0.1461  0.9514 -0.2338
  370TMC3    C5 5589   0.935   3.419  15.964 -0.5283  0.3940 -0.2959
  370TMC3    C6 5590   0.881   3.347  16.067  0.0871 -0.0130  0.2577
  370TMC3     C 5591   1.095   3.676  16.153 -0.5461  0.5124 -0.6135
  370TMC3     O 5592   1.133   3.694  16.266  0.0097 -0.2025 -0.1678
  370TMC3     H 5593   0.922   3.561  16.326 -0.2988 -0.2883  0.0031
  370TMC3    H1 5594   1.039   3.585  15.907 -2.6568  0.9741 -1.9677
  370TMC3    H2 5595   0.839   3.249  16.051 -0.4381  0.0451  1.2329
  370TMC3    C7 5596   0.995   3.346  15.850  0.2913 -0.3103 -0.3435
  370TMC3    C8 5597   0.815   3.321  16.289 -0.5495  0.8249 -0.5730
  370TMC3    O1 5598   1.000   3.396  15.737 -0.0890 -0.6451 -0.6440
  370TMC3    O2 5599   0.834   3.203  16.277  0.5043 -0.0565 -0.3297
  371TMC3    C1 5600   2.205   1.658  15.637 -0.1076 -0.0558  0.3734
  371TMC3    C2 5601   2.154   1.684  15.761 -0.0931 -1.1710 -0.3984
  371TMC3    C3 5602   2.148   1.812  15.809  0.3243  0.1923 -0.3954
  371TMC3    C4 5603   2.250   1.757  15.551  0.2278 -0.2959 -0.7278
  371TMC3    C5 5604   2.249   1.886  15.605  0.3173 -0.0486  0.9678
  371TMC3    C6 5605   2.199   1.916  15.729  0.4262  0.1798 -0.5935
  371TMC3     C 5606   2.196   1.522  15.579 -0.6900  0.1620  0.6791
  371TMC3     O 5607   2.272   1.492  15.485  0.0530 -0.3590  0.7335
  371TMC3     H 5608   2.133   1.597  15.822 -1.0474  0.2571  1.3027
  371TMC3    H1 5609   2.308   1.732  15.463 -0.0018  1.7307 -1.4446
  371TMC3    H2 5610   2.197   2.019  15.762 -0.1686  0.2941 -0.9811
  371TMC3    C7 5611   2.270   1.997  15.523  1.5391  0.4594 -0.6647
  371TMC3    C8 5612   2.097   1.840  15.946  0.4923  0.1970 -0.1474
  371TMC3    O1 5613   2.264   2.108  15.575 -0.0399 -0.7703  0.2794
  371TMC3    O2 5614   2.095   1.754  16.028 -0.0744  0.0812  0.2210
  372MPD2     C 5615   1.454   3.287  13.541  0.4315  0.0580 -0.7275
  372MPD2    C1 5616   1.573   3.222  13.552 -0.1818 -0.2024  0.2464
  372MPD2    C2 5617   1.578   3.141  13.661 -0.1075  0.4861  0.2863
  372MPD2    C3 5618   1.472   3.116  13.746  0.9545  0.1834  0.1441
  372MPD2    C4 5619   1.351   3.187  13.734 -0.4476  0.0178  0.0848
  372MPD2    C5 5620   1.354   3.280  13.633 -0.0309  0.4634 -0.4203
  372MPD2     H 5621   1.666   3.079  13.668 -1.1556 -1.2156 -1.4026
  372MPD2    H1 5622   1.264   3.171  13.796 -0.2108 -0.9627  0.1674
  372MPD2    H2 5623   1.434   3.343  13.451 -2.4512 -0.9522 -0.7215
  372MPD2    H3 5624   1.260   3.331  13.610 -1.3690 -2.6694 -1.8606
  372MPD2     N 5625   1.488   3.015  13.839  0.1933 -0.3399  0.2001
  372MPD2    H5 5626   1.581   2.976  13.854  0.8878  0.0819 -3.1020
  372MPD2    N1 5627   1.675   3.225  13.456  0.2121 -0.7925  0.4254
  372MPD2    H7 5628   1.759   3.170  13.472 -0.4570 -1.2196  2.5978
  373TMC3    C1 5629   1.460   2.875  14.006  0.4451 -0.3959 -0.3568
  373TMC3    C2 5630   1.482   2.901  14.140 -0.2712  0.1654 -0.2773
  373TMC3    C3 5631   1.547   2.807  14.206  0.4113 -0.1458 -0.4398
  373TMC3    C4 5632   1.494   2.755  13.944 -1.2661  0.0683  0.0203
  373TMC3    C5 5633   1.553   2.657  14.021  0.0423  0.1916  0.2598
  373TMC3    C6 5634   1.571   2.681  14.156  0.5171  0.2515  0.3191
  373TMC3     C 5635   1.390   2.968  13.924  0.3585  0.2143 -0.0290
  373TMC3     O 5636   1.299   3.028  13.975  0.0329 -0.4118 -0.0806
  373TMC3     H 5637   1.475   3.000  14.183 -1.5869  0.1501 -0.4721
  373TMC3    H1 5638   1.482   2.743  13.837  0.3956  1.8590 -0.3580
  373TMC3    H2 5639   1.621   2.606  14.216  0.7790  0.0047 -0.2110
  373TMC3    C7 5640   1.628   2.556  13.948 -0.1675  0.0154 -0.0656
  373TMC3    C8 5641   1.595   2.846  14.333  0.3087 -0.4396  0.7399
  373TMC3    O1 5642   1.583   2.524  13.836 -0.0168  0.0793 -0.3637
  373TMC3    O2 5643   1.562   2.770  14.425 -0.2063  0.3007 -0.8829
  374TMC3    C1 5644   2.040   3.382   9.878  0.1907 -0.4110 -0.1294
  374TMC3    C2 5645   2.140   3.472   9.835  0.2826  0.1507  0.7757
  374TMC3    C3 5646   2.105   3.557   9.732 -0.4611  0.4582 -0.3128
  374TMC3    C4 5647   1.922   3.367   9.813 -0.3805  0.2614 -0.1500
  374TMC3    C5 5648   1.900   3.445   9.701 -0.2950  0.2070  0.0679
  374TMC3    C6 5649   1.985   3.545   9.665  0.7268  0.2540 -0.6135
  374TMC3     C 5650   2.075   3.298   9.992 -0.2351  0.1442 -0.5562
  374TMC3     O 5651   2.195   3.301  10.020  0.4159  0.1208  0.4998
  374TMC3     H 5652   2.225   3.491   9.900  1.8194  1.4439 -1.5812
  374TMC3    H1 5653   1.843   3.308   9.859  1.6760 -1.7013  0.8927
  374TMC3    H2 5654   1.954   3.617   9.591  3.3292  1.5473 -0.4374
  374TMC3    C7 5655   1.774   3.438   9.634 -0.0405  0.5506  0.0043
  374TMC3    C8 5656   2.199   3.652   9.680 -0.0684 -0.6140  0.0035
  374TMC3    O1 5657   1.671   3.428   9.698 -0.1704  0.0983  0.5342
  374TMC3    O2 5658   2.156   3.726   9.597 -0.2581  0.0337  0.1931
  375MPD2     C 5659   2.241   3.980  17.204  0.1307  0.5473 -0.4213
  375MPD2    C1 5660   2.186   4.011  17.079 -0.1295 -0.7709 -0.7149
  375MPD2    C2 5661   2.215   3.931  16.967  0.9670 -0.4833 -0.2927
  375MPD2    C3 5662   2.308   3.832  16.976  0.8014  0.6789  0.5317
  375MPD2    C4 5663   2.357   3.804  17.100  0.3929  0.2380 -0.1803
  375MPD2    C5 5664   2.323   3.869  17.213  0.2475  0.6866  0.2607
  375MPD2     H 5665   2.184   3.955  16.867 -0.4637 -0.2363  0.2107
  375MPD2    H1 5666   2.431   3.725  17.108 -0.1024 -0.4042 -2.0869
  375MPD2    H2 5667   2.224   4.044  17.290 -2.9342  1.0895 -1.4201
  375MPD2    H3 5668   2.370   3.835  17.305  0.3591  1.9386  0.6577
  375MPD2     N 5669   2.351   3.749  16.873 -0.4472  0.2660  0.6175
  375MPD2    H5 5670   2.429   3.688  16.894 -0.6604 -0.7436 -1.5916
  375MPD2    N1 5671   2.105   4.127  17.060 -0.3888 -0.2715  0.7502
  375MPD2    H7 5672   2.056   4.141  16.972  0.2729 -0.7546  0.2970
  376TMC3    C1 5673   2.360   3.683  16.645  0.0561  0.0271  0.2616
  376TMC3    C2 5674   2.498   3.708  16.650 -0.4878  0.4930  0.0830
  376TMC3    C3 5675   2.556   3.718  16.528 -0.0858 -0.1766  0.0760
  376TMC3    C4 5676   2.295   3.649  16.531  0.2409  0.0215  0.0757
  376TMC3    C5 5677   2.352   3.672  16.412 -0.0149 -0.3149  0.4425
  376TMC3    C6 5678   2.488   3.709  16.410 -0.5007 -0.5957  0.5307
  376TMC3     C 5679   2.283   3.742  16.751 -0.0912 -0.0115  0.4239
  376TMC3     O 5680   2.167   3.771  16.718 -0.0729 -0.0059  0.2277
  376TMC3     H 5681   2.551   3.726  16.743 -0.1186 -1.1252  0.1738
  376TMC3    H1 5682   2.190   3.622  16.530  0.2207  0.0485  1.3994
  376TMC3    H2 5683   2.534   3.712  16.312 -2.8030 -1.8190 -0.5993
  376TMC3    C7 5684   2.295   3.640  16.281 -0.6544  0.4646  0.1034
  376TMC3    C8 5685   2.689   3.767  16.513 -0.3446 -0.0612 -0.2814
  376TMC3    O1 5686   2.236   3.532  16.268  0.3177 -0.1375  0.1354
  376TMC3    O2 5687   2.716   3.828  16.410 -0.5328  0.4866 -0.8682
  377MPD2     C 5688   0.715   3.404  13.028 -0.1085 -0.1577 -0.3737
  377MPD2    C1 5689   0.675   3.369  12.906 -0.0479 -0.0748 -0.7827
  377MPD2    C2 5690   0.582   3.267  12.894 -0.6950 -0.2447 -0.5847
  377MPD2    C3 5691   0.521   3.215  13.004 -0.0490  0.2559 -0.3576
  377MPD2    C4 5692   0.548   3.258  13.130 -0.1326  0.0150  0.2083
  377MPD2    C5 5693   0.652   3.353  13.138 -0.1724 -1.0551 -1.1034
  377MPD2     H 5694   0.543   3.237  12.797  0.8874 -1.1416 -0.9315
  377MPD2    H1 5695   0.514   3.218  13.225 -2.5270  3.4075  0.7670
  377MPD2    H2 5696   0.799   3.470  13.040  0.4396 -1.3644  2.4421
  377MPD2    H3 5697   0.669   3.391  13.238  0.9748 -2.3598 -0.8050
  377MPD2     N 5698   0.431   3.103  12.984  0.4583 -0.2012  0.0712
  377MPD2    H5 5699   0.406   3.085  12.888  1.2291  2.1714 -0.5562
  377MPD2    N1 5700   0.739   3.429  12.792  0.3476 -0.1253 -0.4850
  377MPD2    H7 5701   0.819   3.486  12.817  0.2506  0.7151 -2.0554
  378TMC3    C1 5702   0.726   3.528  12.343 -0.2895 -0.2638 -0.6231
  378TMC3    C2 5703   0.673   3.527  12.464  0.5281 -0.3931 -0.3375
  378TMC3    C3 5704   0.755   3.503  12.574 -0.3670 -0.3533  0.2615
  378TMC3    C4 5705   0.865   3.507  12.319 -0.7619  0.6084 -0.1221
  378TMC3    C5 5706   0.948   3.493  12.427 -0.1953 -0.3387  0.4718
  378TMC3    C6 5707   0.888   3.484  12.558 -0.2140  0.0557  0.1023
  378TMC3     C 5708   0.636   3.538  12.237  0.4073  0.0710  0.0335
  378TMC3     O 5709   0.520   3.555  12.273  0.0824 -0.2986  0.4641
  378TMC3     H 5710   0.569   3.504  12.484  0.3253  0.8006  0.0353
  378TMC3    H1 5711   0.912   3.506  12.221  0.6929  0.0689  0.5886
  378TMC3    H2 5712   0.948   3.464  12.646  2.1462  0.9023 -1.3233
  378TMC3    C7 5713   1.089   3.466  12.416 -0.6440 -0.1270 -0.3243
  378TMC3    C8 5714   0.697   3.410  12.662  0.2190 -0.1425  0.5535
  378TMC3    O1 5715   1.143   3.417  12.517  0.0157 -0.6964  0.5138
  378TMC3    O2 5716   0.617   3.333  12.613 -0.2810 -1.5181 -0.0062
  379MPD2     C 5717   1.214   1.693  16.064  0.9216 -0.5594  0.1726
  379MPD2    C1 5718   1.140   1.591  16.114 -0.2627  0.1974  0.3502
  379MPD2    C2 5719   1.196   1.519  16.218 -0.3699  0.4276  0.8269
  379MPD2    C3 5720   1.314   1.553  16.278 -0.4859 -0.3561 -0.0555
  379MPD2    C4 5721   1.388   1.657  16.225  0.0180  0.5250  0.1677
  379MPD2    C5 5722   1.333   1.728  16.121 -0.4460 -0.1712  0.0892
  379MPD2     H 5723   1.140   1.439  16.267 -0.3874 -0.2728 -0.3420
  379MPD2    H1 5724   1.487   1.687  16.258  1.2642 -1.0499 -2.2131
  379MPD2    H2 5725   1.173   1.768  15.997 -0.1371 -1.4465 -0.1712
  379MPD2    H3 5726   1.388   1.812  16.079 -0.9572  1.0461  1.8464
  379MPD2     N 5727   1.361   1.497  16.399  0.0239  0.3541  0.7546
  379MPD2    H5 5728   1.455   1.531  16.419 -0.2096  0.2907  1.9244
  379MPD2    N1 5729   1.013   1.573  16.062  0.5013  0.5506 -0.5657
  379MPD2    H7 5730   0.992   1.636  15.985 -2.5093 -1.7068 -1.6173
  380TMC3    C1 5731   0.830   1.463  15.974 -0.4903  0.4931  0.2659
  380TMC3    C2 5732   0.804   1.344  15.906  0.4359  0.4338 -0.4566
  380TMC3    C3 5733   0.724   1.344  15.793  1.0585  0.2973  0.1780
  380TMC3    C4 5734   0.758   1.578  15.950  0.4202 -0.0737  0.5716
  380TMC3    C5 5735   0.657   1.565  15.858  0.6650  0.1672 -0.4830
  380TMC3    C6 5736   0.644   1.455  15.769 -0.2043  0.5388 -0.2079
  380TMC3     C 5737   0.933   1.462  16.075  0.4719 -0.1470  0.0711
  380TMC3     O 5738   0.968   1.355  16.123 -0.5453 -0.6572  0.5104
  380TMC3     H 5739   0.862   1.258  15.937 -2.6591 -0.6069  2.3593
  380TMC3    H1 5740   0.761   1.657  16.024 -0.3859 -0.1607  0.6922
  380TMC3    H2 5741   0.599   1.472  15.671 -2.5208  2.7071  1.2022
  380TMC3    C7 5742   0.580   1.685  15.827 -0.4069 -0.2478 -0.4281
  380TMC3    C8 5743   0.787   1.299  15.668 -0.4907 -0.7821 -0.1599
  380TMC3    O1 5744   0.640   1.790  15.833  0.6294  0.2784  1.0396
  380TMC3    O2 5745   0.908   1.307  15.674 -0.1827  0.0193 -0.4667
  381TMC3    C1 5746   0.895   2.582  16.168 -0.0934  0.2780  0.3181
  381TMC3    C2 5747   0.960   2.693  16.128 -0.3377  0.1504 -0.2013
  381TMC3    C3 5748   0.959   2.805  16.208  0.3945  0.0160  0.3213
  381TMC3    C4 5749   0.814   2.589  16.281  0.1056  0.2787 -0.0031
  381TMC3    C5 5750   0.796   2.701  16.346 -0.5421  0.7071 -0.1919
  381TMC3    C6 5751   0.874   2.812  16.315 -0.6454  0.3161  0.3061
  381TMC3     C 5752   0.927   2.450  16.110  0.5550  0.4114 -0.5032
  381TMC3     O 5753   0.966   2.450  15.993  0.1018 -0.3579 -0.5735
  381TMC3     H 5754   1.027   2.692  16.043  2.1701  1.0085  1.7868
  381TMC3    H1 5755   0.750   2.506  16.309  0.4267  0.1926  0.4821
  381TMC3    H2 5756   0.881   2.896  16.382  0.2088  0.2837  0.2588
  381TMC3    C7 5757   0.764   2.688  16.491  0.2648 -0.1454 -0.3323
  381TMC3    C8 5758   1.089   2.868  16.219 -0.1556  0.0319 -0.4621
  381TMC3    O1 5759   0.802   2.587  16.547  0.2358  0.1856  0.8856
  381TMC3    O2 5760   1.176   2.827  16.146 -0.1192  0.2957 -0.0224
  382MPD2     C 5761   0.235   0.287  16.990  0.7649  0.0024 -0.6551
  382MPD2    C1 5762   0.199   0.308  17.123  0.4328  0.4508 -0.2664
  382MPD2    C2 5763   0.183   0.203  17.213 -0.1069 -0.3257  0.5312
  382MPD2    C3 5764   0.215   0.079  17.166 -0.0174 -0.7303  0.2467
  382MPD2    C4 5765   0.256   0.057  17.036 -0.2847  1.2591  0.5449
  382MPD2    C5 5766   0.264   0.158  16.948  0.2176  0.5291  0.0150
  382MPD2     H 5767   0.135   0.222  17.309 -0.1547 -0.1710  0.4771
  382MPD2    H1 5768   0.283   4.701  16.987 -0.6660  1.9824 -1.0379
  382MPD2    H2 5769   0.244   0.360  16.910 -0.5337 -1.6903 -2.3697
  382MPD2    H3 5770   0.278   0.146  16.841  0.0841  3.2439 -0.3044
  382MPD2     N 5771   0.211   4.706  17.254  0.0128 -0.3832 -1.0062
  382MPD2    H5 5772   0.231   4.614  17.217  1.2003 -1.3465  1.9790
  382MPD2    N1 5773   0.176   0.437  17.169 -0.0140  0.3156  0.0152
  382MPD2    H7 5774   0.128   0.452  17.257  0.9365 -1.2887  0.8078
  383TMC3    C1 5775   0.156   4.572  17.450 -0.6375 -0.5840 -0.0836
  383TMC3    C2 5776   0.099   4.466  17.382  0.4341  0.1287  0.3491
  383TMC3    C3 5777   0.036   4.375  17.464 -0.0315 -0.4244 -0.3775
  383TMC3    C4 5778   0.168   4.580  17.587 -0.2751 -0.3637  0.0797
  383TMC3    C5 5779   0.114   4.484  17.657 -0.6433 -0.1733 -0.0915
  383TMC3    C6 5780   0.049   4.372  17.602  0.0564 -0.1633 -0.6859
  383TMC3     C 5781   0.162   4.702  17.386  0.0092 -0.1219  0.5079
  383TMC3     O 5782   0.115   0.055  17.456  0.5476  0.6609  0.1147
  383TMC3     H 5783   0.065   4.479  17.280 -1.2032  2.4892  1.2052
  383TMC3    H1 5784   0.214   4.668  17.632 -0.2140  0.1388 -0.9794
  383TMC3    H2 5785   4.735   4.303  17.669  1.2714 -0.8726 -0.5090
  383TMC3    C7 5786   0.108   4.479   0.057 -0.3553  0.5664 -0.1304
  383TMC3    C8 5787   4.675   4.298  17.404  0.1666 -0.2067  0.9417
  383TMC3    O1 5788   0.157   4.379   0.107  0.3507  0.1285  0.1253
  383TMC3    O2 5789   4.636   4.342  17.296 -0.0159 -0.0429 -0.3686
  384MPD2     C 5790   0.943   1.505  11.764  0.5047 -0.9018  0.4690
  384MPD2    C1 5791   0.869   1.455  11.869 -0.3467  0.1720  0.1769
  384MPD2    C2 5792   0.891   1.322  11.912 -0.3770 -0.2311 -0.8273
  384MPD2    C3 5793   0.972   1.238  11.839  0.4912 -0.4737 -0.5915
  384MPD2    C4 5794   1.041   1.287  11.733  0.5332  0.2874  0.1675
  384MPD2    C5 5795   1.019   1.421  11.698 -1.0590 -0.7936  0.3686
  384MPD2     H 5796   0.835   1.284  11.996  1.4168 -1.0443  0.0040
  384MPD2    H1 5797   1.109   1.220  11.682  0.0769  1.2292 -1.6664
  384MPD2    H2 5798   0.954   1.610  11.740 -0.3748 -1.4850 -2.3797
  384MPD2    H3 5799   1.075   1.457  11.613 -0.4355 -2.1509  0.1901
  384MPD2     N 5800   1.003   1.111  11.891  0.0486  0.4306  0.5387
  384MPD2    H5 5801   0.971   1.097  11.986 -2.0572  0.0281 -0.2247
  384MPD2    N1 5802   0.797   1.550  11.943 -0.9195  0.3646 -0.2900
  384MPD2    H7 5803   0.811   1.647  11.915 -1.5380  0.3921 -0.5140
  385TMC3    C1 5804   1.143   0.940  11.958  0.0799 -0.2728  0.1830
  385TMC3    C2 5805   1.269   0.891  11.935 -0.5136 -0.1372 -0.1454
  385TMC3    C3 5806   1.370   0.924  12.022  0.2780 -0.3463  0.5734
  385TMC3    C4 5807   1.126   1.009  12.075 -0.2022 -0.2708 -0.0700
  385TMC3    C5 5808   1.233   1.058  12.147  0.0900 -0.6483  0.4500
  385TMC3    C6 5809   1.359   1.014  12.127 -0.5914  0.3011  0.3213
  385TMC3     C 5810   1.091   1.013  11.849 -0.1132 -0.4920  0.3179
  385TMC3     O 5811   1.168   1.012  11.753  0.4792 -0.0401  0.4879
  385TMC3     H 5812   1.276   0.814  11.860  1.8017 -0.5985  0.5163
  385TMC3    H1 5813   1.024   1.007  12.112  0.2282 -1.1648  1.0687
  385TMC3    H2 5814   1.448   1.049  12.179 -0.1349 -0.0064 -0.2505
  385TMC3    C7 5815   1.198   1.186  12.186  0.1882 -0.4685 -0.6983
  385TMC3    C8 5816   1.512   0.899  11.974 -0.7683  0.5475  0.4958
  385TMC3    O1 5817   1.076   1.205  12.187 -0.8624  0.4523 -0.1157
  385TMC3    O2 5818   1.590   0.992  11.991 -0.0813  0.2744 -0.7989
  386TMC3    C1 5819   1.486   3.701  11.569  0.2107  0.7983  0.3411
  386TMC3    C2 5820   1.453   3.679  11.435  0.2431  0.3066 -0.1929
  386TMC3    C3 5821   1.324   3.709  11.395 -0.5120  0.4962 -0.0082
  386TMC3    C4 5822   1.383   3.727  11.661 -0.9418 -0.0559 -0.7058
  386TMC3    C5 5823   1.256   3.742  11.612 -0.6433 -0.5841 -0.4598
  386TMC3    C6 5824   1.225   3.747  11.475  0.3198  0.9383 -0.0657
  386TMC3     C 5825   1.622   3.672  11.622  0.2180  0.3512  0.0898
  386TMC3     O 5826   1.630   3.650  11.742  0.0597 -0.1333 -0.4241
  386TMC3     H 5827   1.534   3.663  11.364  1.8778  0.2471  1.6906
  386TMC3    H1 5828   1.411   3.737  11.765  0.4525  2.0078 -1.2629
  386TMC3    H2 5829   1.126   3.748  11.431  0.2472 -1.2082  0.0796
  386TMC3    C7 5830   1.163   3.784  11.712  0.0224 -0.1808 -0.5934
  386TMC3    C8 5831   1.299   3.721  11.252  0.1652 -0.8212 -0.0900
  386TMC3    O1 5832   1.183   3.776  11.832  0.4394  0.0562 -0.2883
  386TMC3    O2 5833   1.214   3.807  11.223  0.3203  0.8183  0.3977
  387MPD2     C 5834   4.253   3.902   9.658 -0.3615  0.2172  0.8932
  387MPD2    C1 5835   4.223   3.855   9.782  0.1103 -0.2337 -0.1666
  387MPD2    C2 5836   4.182   3.724   9.797 -0.5270 -0.2884  0.4854
  387MPD2    C3 5837   4.170   3.639   9.694 -0.0068 -0.7610  0.3509
  387MPD2    C4 5838   4.193   3.689   9.571 -0.8127 -0.3581 -0.5078
  387MPD2    C5 5839   4.234   3.815   9.550  0.3575  0.4219  0.5555
  387MPD2     H 5840   4.167   3.670   9.889  0.8897 -0.0199  0.8636
  387MPD2    H1 5841   4.188   3.628   9.482  2.0181  0.7802 -1.4555
  387MPD2    H2 5842   4.302   3.995   9.631  0.5516 -0.1228  1.3908
  387MPD2    H3 5843   4.255   3.847   9.449 -0.5775  0.6140  0.4165
  387MPD2     N 5844   4.159   3.499   9.733  0.6128  0.3331  0.5027
  387MPD2    H5 5845   4.143   3.479   9.831  1.0515  1.4595  0.8120
  387MPD2    N1 5846   4.248   3.934   9.897  0.3744 -0.3800  0.5089
  387MPD2    H7 5847   4.229   3.884   9.983 -0.1997  0.2569  0.7587
  388TMC3    C1 5848   4.375   4.067  10.046  1.7750 -0.6166 -0.2699
  388TMC3    C2 5849   4.364   4.188  10.108 -0.0246 -1.1425 -0.6169
  388TMC3    C3 5850   4.381   4.196  10.244  0.1385  0.4586 -0.2589
  388TMC3    C4 5851   4.396   3.948  10.117  0.6389 -0.3603  0.7136
  388TMC3    C5 5852   4.413   3.958  10.253 -0.6104 -0.0510 -0.1778
  388TMC3    C6 5853   4.410   4.080  10.313 -0.0855 -0.4066  0.3748
  388TMC3     C 5854   4.326   4.047   9.905  0.2647 -0.1749  0.2486
  388TMC3     O 5855   4.383   4.124   9.827  0.9376 -0.3579 -0.3595
  388TMC3     H 5856   4.336   4.276  10.051  1.7531  2.4266  4.0340
  388TMC3    H1 5857   4.413   3.855  10.064  2.0811 -0.4128  1.2703
  388TMC3    H2 5858   4.424   4.081  10.420  0.1369 -0.4468  0.3447
  388TMC3    C7 5859   4.441   3.839  10.334  0.4851  0.5934  0.7839
  388TMC3    C8 5860   4.365   4.320  10.312 -0.0367  0.6362  0.5080
  388TMC3    O1 5861   4.532   3.842  10.413  0.2826 -0.0197 -0.3210
  388TMC3    O2 5862   4.336   4.410  10.237 -0.3581  0.3284 -0.1332
  389MPD2     C 5863   3.228   2.303  10.855 -0.0507  0.1787 -0.6629
  389MPD2    C1 5864   3.125   2.223  10.812 -0.1215 -0.2856 -0.4197
  389MPD2    C2 5865   3.063   2.144  10.900  0.2814 -0.5783 -0.2636
  389MPD2    C3 5866   3.097   2.145  11.029  0.8529 -0.1638  1.0276
  389MPD2    C4 5867   3.199   2.226  11.075 -0.1239 -0.0237  0.5138
  389MPD2    C5 5868   3.270   2.297  10.981  0.5932  0.5844 -0.5552
  389MPD2     H 5869   2.992   2.069  10.867  0.6909 -2.1499  2.3886
  389MPD2    H1 5870   3.236   2.236  11.176  0.4853  0.3936  0.2477
  389MPD2    H2 5871   3.272   2.368  10.780  1.4528  0.1575  0.2175
  389MPD2    H3 5872   3.341   2.372  11.014  1.5057 -0.8246  0.7026
  389MPD2     N 5873   3.038   2.062  11.124  0.6131  0.3367 -0.4582
  389MPD2    H5 5874   3.084   2.065  11.214  0.0816 -1.5974 -0.1360
  389MPD2    N1 5875   3.097   2.223  10.675 -0.4133  0.7499 -0.0154
  389MPD2    H7 5876   3.164   2.273  10.617  1.1514  0.5315  1.6009
  390TMC3    C1 5877   2.876   1.917  11.230  0.1826 -0.1179  0.0271
  390TMC3    C2 5878   2.825   1.796  11.223  0.0234  0.2517 -0.3324
  390TMC3    C3 5879   2.775   1.742  11.348  0.5414 -0.4207 -0.4706
  390TMC3    C4 5880   2.891   1.988  11.345  0.2847  0.2647 -0.6545
  390TMC3    C5 5881   2.850   1.934  11.457  0.2208 -0.4174  0.5976
  390TMC3    C6 5882   2.807   1.811  11.465  0.5453  0.1374  0.3108
  390TMC3     C 5883   2.923   1.984  11.108 -0.9046  0.3916  0.4159
  390TMC3     O 5884   2.852   1.962  11.013 -0.0044  0.0884  0.3481
  390TMC3     H 5885   2.800   1.768  11.121 -2.3856 -0.2527  0.3755
  390TMC3    H1 5886   2.951   2.078  11.349  0.4544  0.0987  0.3347
  390TMC3    H2 5887   2.779   1.761  11.557 -0.7677 -2.5900 -1.5647
  390TMC3    C7 5888   2.866   2.010  11.580 -0.4218 -0.4908  0.5172
  390TMC3    C8 5889   2.735   1.606  11.353 -0.1586  0.0749 -0.1434
  390TMC3    O1 5890   2.926   2.120  11.576 -0.1988  0.4397  0.0219
  390TMC3    O2 5891   2.796   1.523  11.283 -0.1542 -0.2757 -0.5028
  391MPD2     C 5892   3.145   3.494  10.809 -0.0608 -0.1115 -0.2227
  391MPD2    C1 5893   3.131   3.628  10.784 -0.1968 -0.8176 -0.4659
  391MPD2    C2 5894   3.109   3.678  10.653 -0.7485  0.8270  0.5507
  391MPD2    C3 5895   3.116   3.591  10.547  0.3805  0.9070 -0.0356
  391MPD2    C4 5896   3.129   3.451  10.573 -0.1118 -0.6623 -0.0354
  391MPD2    C5 5897   3.133   3.402  10.705 -0.3235 -0.3704 -0.5670
  391MPD2     H 5898   3.102   3.785  10.637  0.8423  1.2938  2.9339
  391MPD2    H1 5899   3.115   3.381  10.492 -0.8075 -1.6779  0.9737
  391MPD2    H2 5900   3.160   3.449  10.906 -1.1032 -1.7936 -0.8277
  391MPD2    H3 5901   3.150   3.297  10.723 -1.3320 -0.3725  0.3413
  391MPD2     N 5902   3.101   3.649  10.418 -0.2850 -0.3584  0.3146
  391MPD2    H5 5903   3.099   3.751  10.411 -0.3648 -0.4450 -0.8260
  391MPD2    N1 5904   3.128   3.715  10.894 -0.1306 -0.0960 -0.1680
  391MPD2    H7 5905   3.159   3.672  10.980 -1.3315  3.4697  2.0682
  392TMC3    C1 5906   3.061   3.663  10.183 -0.4809 -0.3447 -0.2371
  392TMC3    C2 5907   2.972   3.622  10.088  0.4994 -0.5493 -0.2791
  392TMC3    C3 5908   2.952   3.699   9.976  1.0755 -1.0164 -1.0413
  392TMC3    C4 5909   3.131   3.778  10.181 -0.4832  0.2164  0.1074
  392TMC3    C5 5910   3.108   3.860  10.074  0.4622 -0.5319  0.0470
  392TMC3    C6 5911   3.010   3.827   9.979 -0.8204 -0.0189  0.2862
  392TMC3     C 5912   3.071   3.580  10.304 -0.9789 -0.1024 -0.9810
  392TMC3     O 5913   3.047   3.460  10.294 -0.3607  0.1203  0.4147
  392TMC3     H 5914   2.943   3.518  10.079 -1.2693 -0.0490 -0.3398
  392TMC3    H1 5915   3.203   3.804  10.258 -0.5343 -0.1386  0.2738
  392TMC3    H2 5916   2.997   3.898   9.898  1.6669 -0.4304 -0.4740
  392TMC3    C7 5917   3.194   3.982  10.074 -0.2713 -0.6912  0.4334
  392TMC3    C8 5918   2.821   3.677   9.911  0.9962  0.3836  0.1570
  392TMC3    O1 5919   3.298   3.974  10.138 -0.2683 -0.4637 -0.0943
  392TMC3    O2 5920   2.744   3.602   9.971  0.3585 -0.2888  0.1256
  393TMC3    C1 5921   1.002   1.770  11.054 -0.4041 -0.1874  0.3510
  393TMC3    C2 5922   0.887   1.750  11.122 -0.8737 -0.5227  0.4469
  393TMC3    C3 5923   0.810   1.638  11.096  0.6487 -0.0502  0.3464
  393TMC3    C4 5924   1.046   1.674  10.962 -0.2430  0.5173 -0.1935
  393TMC3    C5 5925   0.972   1.555  10.961  0.4388 -0.2749  1.0348
  393TMC3    C6 5926   0.859   1.532  11.026 -0.4574  0.5928 -0.0030
  393TMC3     C 5927   1.078   1.897  11.063  0.1607 -0.2651 -0.2192
  393TMC3     O 5928   1.180   1.905  11.002  0.3269  0.2894  1.0044
  393TMC3     H 5929   0.841   1.828  11.181 -1.1430  0.8477 -1.5737
  393TMC3    H1 5930   1.122   1.697  10.887  0.4365  0.8090  0.5902
  393TMC3    H2 5931   0.813   1.434  11.021 -0.8721  0.7555  0.5993
  393TMC3    C7 5932   1.041   1.442  10.892  0.1269 -0.1325 -0.3990
  393TMC3    C8 5933   0.709   1.618  11.196  0.8515  0.3731  0.0646
  393TMC3    O1 5934   0.971   1.358  10.837  0.0259  0.1581  0.2318
  393TMC3    O2 5935   0.724   1.666  11.307  0.0158 -0.4005 -0.3652
  394TMC3    C1 5936   2.969   2.210  10.474 -0.2480  0.4154 -0.1508
  394TMC3    C2 5937   2.839   2.187  10.432 -0.5152  0.1298 -0.3329
  394TMC3    C3 5938   2.821   2.186  10.293 -0.7150 -0.1618 -0.1419
  394TMC3    C4 5939   3.073   2.211  10.391 -0.3629  0.6259  0.6102
  394TMC3    C5 5940   3.042   2.212  10.257  0.6632 -0.1631 -0.1019
  394TMC3    C6 5941   2.917   2.207  10.205 -0.3173 -0.8971 -0.3382
  394TMC3     C 5942   2.986   2.169  10.614  0.4457 -0.4124  0.9454
  394TMC3     O 5943   2.895   2.119  10.674 -0.2073 -0.2182 -0.0824
  394TMC3     H 5944   2.757   2.171  10.501 -0.0627  1.2874  0.4820
  394TMC3    H1 5945   3.176   2.196  10.421 -0.6024 -1.1629  0.5237
  394TMC3    H2 5946   2.904   2.209  10.097 -0.6905 -2.4240 -0.3149
  394TMC3    C7 5947   3.140   2.248  10.158  0.0957  0.0218 -0.2693
  394TMC3    C8 5948   2.703   2.115  10.262  0.3468 -0.2740  0.1504
  394TMC3    O1 5949   3.097   2.321  10.074  0.2637 -0.3807  0.1377
  394TMC3    O2 5950   2.612   2.134  10.339 -0.4574  0.2313  0.1261
  395TMC3    C1 5951   3.456   3.705  14.474  0.1534  0.4962  0.1898
  395TMC3    C2 5952   3.414   3.702  14.344 -0.0406  0.3263  0.7201
  395TMC3    C3 5953   3.493   3.776  14.255  0.3916 -0.3616 -0.0699
  395TMC3    C4 5954   3.563   3.778  14.514  0.3549 -0.6330 -0.0828
  395TMC3    C5 5955   3.631   3.852  14.425 -0.5353 -0.0516  0.4873
  395TMC3    C6 5956   3.588   3.857  14.295  0.7980  0.1590  0.5182
  395TMC3     C 5957   3.399   3.635  14.584  0.5940  0.8072 -0.4462
  395TMC3     O 5958   3.410   3.692  14.689 -0.3387 -0.0194 -0.0988
  395TMC3     H 5959   3.332   3.640  14.309  1.9536 -0.1941 -3.0180
  395TMC3    H1 5960   3.596   3.780  14.617  0.2522 -1.4102 -0.0372
  395TMC3    H2 5961   3.614   3.946  14.238 -0.9537  0.7465  0.6414
  395TMC3    C7 5962   3.702   3.966  14.483  0.6950  0.1586  0.1178
  395TMC3    C8 5963   3.419   3.847  14.155  0.3925 -0.6360 -0.1355
  395TMC3    O1 5964   3.657   4.016  14.588  0.4426 -0.5824  0.1184
  395TMC3    O2 5965   3.468   3.868  14.048  0.1621  0.3214  0.1692
  396MPD2     C 5966   3.071   4.556  16.875 -0.1462  0.0159  0.2144
  396MPD2    C1 5967   3.205   4.542  16.904 -0.5733 -1.2906  0.1041
  396MPD2    C2 5968   3.289   4.646  16.861  0.0034  0.1719 -0.9802
  396MPD2    C3 5969   3.249   0.013  16.779 -0.2896 -0.2999 -0.1879
  396MPD2    C4 5970   3.109   0.014  16.740  0.1658  0.0674 -0.2477
  396MPD2    C5 5971   3.028   4.647  16.789  0.3794 -0.6749  0.0435
  396MPD2     H 5972   3.392   4.638  16.893 -0.3493 -1.5898 -0.2947
  396MPD2    H1 5973   3.069   0.103  16.692 -0.9551  0.6545  1.7662
  396MPD2    H2 5974   3.001   4.477  16.898  0.6466 -1.0840 -1.1291
  396MPD2    H3 5975   2.923   4.641  16.765  0.6312  1.3106 -1.5068
  396MPD2     N 5976   3.340   0.115  16.731  0.0897  0.2993 -0.3594
  396MPD2    H5 5977   3.436   0.102  16.763  0.3955  2.1041 -0.5454
  396MPD2    N1 5978   3.258   4.429  16.980 -0.1665  0.1541 -1.0386
  396MPD2    H7 5979   3.356   4.442  17.004 -0.4657 -0.8420  0.6800
  397TMC3    C1 5980   3.265   4.227  17.097 -0.1339 -0.7435 -0.0454
  397TMC3    C2 5981   3.348   4.175  17.007 -1.1076 -0.5260 -0.4188
  397TMC3    C3 5982   3.335   4.046  16.966 -0.4328  0.3397  0.6728
  397TMC3    C4 5983   3.194   4.139  17.181  0.0180 -0.5261  0.0698
  397TMC3    C5 5984   3.215   4.005  17.163 -1.1003  0.2833 -0.4161
  397TMC3    C6 5985   3.281   3.960  17.052  0.0302 -0.5778 -0.5991
  397TMC3     C 5986   3.180   4.332  17.045 -0.3423 -0.0797 -0.6033
  397TMC3     O 5987   3.063   4.337  17.079  0.4067 -0.0834 -1.2362
  397TMC3     H 5988   3.387   4.237  16.927 -2.3861 -2.7164 -2.7635
  397TMC3    H1 5989   3.118   4.170  17.252  0.2526  1.4997 -0.5734
  397TMC3    H2 5990   3.282   3.853  17.034  2.2334 -0.7771  0.7798
  397TMC3    C7 5991   3.116   3.917  17.228 -0.2182 -0.0313 -0.5318
  397TMC3    C8 5992   3.258   4.051  16.842 -0.4861  0.4654  0.7034
  397TMC3    O1 5993   3.077   3.812  17.167 -0.2471 -0.0669 -0.2277
  397TMC3    O2 5994   3.305   4.110  16.748  0.4259 -0.2449 -0.6490
  398MPD2     C 5995   1.055   1.638   0.159 -0.2059 -0.3394  0.0105
  398MPD2    C1 5996   1.174   1.566   0.185 -0.4049  0.6781 -0.4588
  398MPD2    C2 5997   1.287   1.624   0.246 -0.0368 -0.5699 -0.2866
  398MPD2    C3 5998   1.288   1.760   0.266  0.7047  0.3634 -0.5568
  398MPD2    C4 5999   1.174   1.831   0.240 -0.1597 -0.3178 -0.4234
  398MPD2    C5 6000   1.060   1.775   0.185  0.7611 -0.5049  0.2107
  398MPD2     H 6001   1.364   1.560   0.289  2.5199  3.3053  0.9154
  398MPD2    H1 6002   1.169   1.933   0.276  2.0784  0.0688 -1.2332
  398MPD2    H2 6003   0.972   1.584   0.115  0.2237  0.0383 -1.2887
  398MPD2    H3 6004   0.988   1.847   0.147  0.5395 -2.0718 -2.2971
  398MPD2     N 6005   1.402   1.813   0.325  0.3484 -0.0183  0.6981
  398MPD2    H5 6006   1.479   1.747   0.335  1.0369  0.7248  0.3824
  398MPD2    N1 6007   1.185   1.426   0.155 -1.0193 -0.3162 -0.2500
  398MPD2    H7 6008   1.272   1.391   0.195 -1.4464 -1.4617 -0.3124
  399TMC3    C1 6009   1.138   1.220   0.059  0.5098 -0.1497 -0.0938
  399TMC3    C2 6010   1.213   1.164   0.170  0.3443  0.6713  0.8519
  399TMC3    C3 6011   1.220   1.024   0.183  0.1996 -0.8720  0.4520
  399TMC3    C4 6012   1.090   1.143  17.708 -0.1217 -0.6453 -0.5556
  399TMC3    C5 6013   1.095   1.009  17.728  0.0040 -0.2374  0.5736
  399TMC3    C6 6014   1.150   0.946   0.093  0.4744 -0.6510  0.2521
  399TMC3     C 6015   1.105   1.358   0.062 -0.1804 -0.7511 -0.5181
  399TMC3     O 6016   1.026   1.394  17.722 -0.0699  0.4395 -0.3745
  399TMC3     H 6017   1.265   1.221   0.246 -0.3751  0.5420  1.4457
  399TMC3    H1 6018   1.038   1.185  17.623 -2.4478  2.8049  2.5115
  399TMC3    H2 6019   1.143   0.840   0.111 -0.6917 -0.4710  0.8563
  399TMC3    C7 6020   1.030   0.923  17.637 -0.3070  0.3515  0.7247
  399TMC3    C8 6021   1.327   0.972   0.272  1.0807 -0.2082 -0.1720
  399TMC3    O1 6022   0.997   0.812  17.682  0.3494  0.0576  0.1665
  399TMC3    O2 6023   1.372   1.053   0.353 -0.3065 -0.1520 -0.1561
  400TMC3    C1 6024   4.562   3.920  16.925  0.0451 -1.0955  1.0570
  400TMC3    C2 6025   4.460   3.831  16.907  0.2007 -0.1547 -0.3022
  400TMC3    C3 6026   4.363   3.860  16.820  0.4702 -0.5532 -0.1807
  400TMC3    C4 6027   4.565   4.045  16.855 -0.1714 -0.2373  0.0602
  400TMC3    C5 6028   4.469   4.055  16.755 -0.0253 -0.5303 -0.1205
  400TMC3    C6 6029   4.365   3.972  16.748 -0.0254  0.1546  0.0467
  400TMC3     C 6030   4.660   3.889  17.024  0.4107  0.2615 -0.8101
  400TMC3     O 6031   4.664   3.771  17.058 -0.1925 -0.0810  0.2389
  400TMC3     H 6032   4.470   3.738  16.962  1.7324  0.4054  0.3590
  400TMC3    H1 6033   4.652   4.110  16.843 -0.9825  0.5888 -1.3176
  400TMC3    H2 6034   4.281   4.007  16.689 -0.6767 -1.5859 -0.0728
  400TMC3    C7 6035   4.436   4.183  16.693  0.2633 -0.2515  0.7085
  400TMC3    C8 6036   4.254   3.767  16.814  0.6184 -0.0487  0.5241
  400TMC3    O1 6037   4.356   4.176  16.600 -0.7509 -0.4762  0.1989
  400TMC3    O2 6038   4.261   3.674  16.893  0.3305 -0.1917  0.3727
  401MPD2     C 6039   3.643   3.096   1.691 -0.7963  0.1058 -0.7836
  401MPD2    C1 6040   3.587   3.071   1.570 -0.2891 -0.0538  0.2230
  401MPD2    C2 6041   3.485   2.977   1.573  0.0411  0.0599 -0.5418
  401MPD2    C3 6042   3.443   2.911   1.682  0.2919 -0.7600 -0.6391
  401MPD2    C4 6043   3.505   2.937   1.805 -0.2237  0.0789  0.4725
  401MPD2    C5 6044   3.598   3.033   1.806  0.7642 -0.0758  0.7761
  401MPD2     H 6045   3.428   2.961   1.483 -0.0587  1.2827 -0.6995
  401MPD2    H1 6046   3.475   2.895   1.900  0.8182 -0.3270  0.6226
  401MPD2    H2 6047   3.726   3.164   1.707  0.3497 -1.0869 -1.6876
  401MPD2    H3 6048   3.638   3.062   1.902  0.7494  0.4343  0.6284
  401MPD2     N 6049   3.330   2.827   1.668  0.1929  0.2191  0.1567
  401MPD2    H5 6050   3.279   2.817   1.580  2.1300 -2.2287 -0.6943
  401MPD2    N1 6051   3.623   3.131   1.441 -0.2541  0.0418 -0.1975
  401MPD2    H7 6052   3.580   3.091   1.358  0.0504  0.0646 -0.3655
  402TMC3    C1 6053   3.183   2.662   1.730 -0.4251  0.1154 -0.5207
  402TMC3    C2 6054   3.202   2.527   1.730  0.8912  0.2146 -0.3184
  402TMC3    C3 6055   3.131   2.444   1.646 -0.3530  0.6849 -0.0016
  402TMC3    C4 6056   3.095   2.711   1.646 -0.2011 -0.5423  0.0926
  402TMC3    C5 6057   3.023   2.625   1.559 -0.0868 -1.0774 -0.0445
  402TMC3    C6 6058   3.042   2.491   1.553 -0.6287 -0.2319 -0.4805
  402TMC3     C 6059   3.295   2.744   1.771 -0.9155  0.4403 -0.2576
  402TMC3     O 6060   3.331   2.723   1.885  0.0389 -0.1289 -0.1997
  402TMC3     H 6061   3.284   2.487   1.789  1.3149 -0.5102 -1.4034
  402TMC3    H1 6062   3.075   2.817   1.653 -0.2562 -0.6391  1.3229
  402TMC3    H2 6063   2.987   2.432   1.480 -1.2393  0.2498 -0.4142
  402TMC3    C7 6064   2.976   2.689   1.449  0.2834  0.5275  0.5663
  402TMC3    C8 6065   3.191   2.315   1.621 -0.1883  0.0699  0.0612
  402TMC3    O1 6066   2.926   2.799   1.462 -0.4914 -0.2055 -0.1957
  402TMC3    O2 6067   3.314   2.311   1.628 -0.4155 -0.1722  0.0939
  403MPD2     C 6068   1.019   1.360  13.006 -0.1701  0.6324  0.3590
  403MPD2    C1 6069   0.975   1.359  13.135 -0.2280 -0.0263 -0.0896
  403MPD2    C2 6070   1.073   1.397  13.223  0.1677 -0.4826 -0.1395
  403MPD2    C3 6071   1.201   1.423  13.184 -0.5769 -0.0259  0.5646
  403MPD2    C4 6072   1.247   1.403  13.058 -0.5685  0.2224  0.7934
  403MPD2    C5 6073   1.148   1.377  12.971  0.1492 -0.0633  0.1921
  403MPD2     H 6074   1.044   1.397  13.327  0.8397 -4.4662  0.0667
  403MPD2    H1 6075   1.350   1.407  13.025 -1.0226  2.0172 -0.4139
  403MPD2    H2 6076   0.951   1.344  12.923  0.8432  0.7688 -0.5012
  403MPD2    H3 6077   1.172   1.373  12.866 -0.3634 -0.9255  0.1101
  403MPD2     N 6078   1.303   1.438  13.288  0.3821  0.0984  0.8998
  403MPD2    H5 6079   1.394   1.433  13.243 -0.2050 -0.9592 -0.1621
  403MPD2    N1 6080   0.838   1.341  13.162 -0.0201 -0.2864  0.8524
  403MPD2    H7 6081   0.780   1.321  13.082  0.4923 -1.9246  0.8911
  404TMC3    C1 6082   0.640   1.299  13.267  0.0460  0.2784  0.0447
  404TMC3    C2 6083   0.637   1.172  13.310  0.1142  0.1377 -0.2660
  404TMC3    C3 6084   0.556   1.082  13.248  0.4446 -0.5721 -0.3407
  404TMC3    C4 6085   0.577   1.336  13.155  1.0182  0.4105  0.1425
  404TMC3    C5 6086   0.520   1.236  13.075  1.2541  0.0774 -0.1002
  404TMC3    C6 6087   0.500   1.109  13.133  0.2182  0.3117 -0.0911
  404TMC3     C 6088   0.781   1.347  13.288 -0.0609  0.2713 -0.4275
  404TMC3     O 6089   0.845   1.333  13.388 -0.2049  0.7549 -0.5415
  404TMC3     H 6090   0.688   1.147  13.402  0.4029 -0.6277 -0.6408
  404TMC3    H1 6091   0.596   1.437  13.121 -3.0855  1.6852  1.6596
  404TMC3    H2 6092   0.462   1.029  13.070  2.3395 -0.0059 -0.9695
  404TMC3    C7 6093   0.574   1.243  12.945 -0.0367  0.2075  0.7669
  404TMC3    C8 6094   0.524   0.946  13.293  0.0789 -0.7150  0.9355
  404TMC3    O1 6095   0.687   1.289  12.940  0.5855  0.0827  0.3205
  404TMC3    O2 6096   0.487   0.862  13.215 -0.3132 -0.0136  0.2592
  405MPD2     C 6097   1.210   2.175  14.969  0.8170 -0.4345 -0.6180
  405MPD2    C1 6098   1.273   2.094  14.879 -0.2979 -0.0726  0.1325
  405MPD2    C2 6099   1.210   2.048  14.764 -0.3914 -0.1519 -0.2155
  405MPD2    C3 6100   1.079   2.082  14.734 -0.8154 -0.1224 -0.0288
  405MPD2    C4 6101   1.012   2.155  14.835  0.0017 -0.3531 -0.2051
  405MPD2    C5 6102   1.078   2.204  14.946 -0.0811 -0.3672 -0.2778
  405MPD2     H 6103   1.255   1.970  14.705 -0.0407 -0.4087  0.3865
  405MPD2    H1 6104   0.907   2.177  14.821 -0.0877 -0.8876 -0.3672
  405MPD2    H2 6105   1.262   2.222  15.051 -0.6453 -0.8633  0.5409
  405MPD2    H3 6106   1.033   2.276  15.014  2.6187  0.9305  0.1300
  405MPD2     N 6107   1.023   2.019  14.613 -0.1081  0.1459 -0.2795
  405MPD2    H5 6108   1.099   1.983  14.557 -0.6962 -2.2217  0.4373
  405MPD2    N1 6109   1.404   2.047  14.918  0.3702  0.1956  0.3188
  405MPD2    H7 6110   1.455   2.097  14.991  0.8821  0.7931 -0.4476
  406TMC3    C1 6111   0.738   1.817  14.311  0.1980  0.4049  0.7191
  406TMC3    C2 6112   0.825   1.708  14.295 -0.2236 -0.2415 -0.2975
  406TMC3    C3 6113   0.945   1.715  14.365  0.3108 -0.2085 -0.1194
  406TMC3    C4 6114   0.765   1.920  14.396  0.0949 -0.0577  0.6112
  406TMC3    C5 6115   0.885   1.921  14.456 -0.9078 -0.4603 -0.3731
  406TMC3    C6 6116   0.978   1.820  14.445 -0.3114  0.1397  0.3708
  406TMC3     C 6117   0.598   1.780  14.317  0.2817  0.1785 -0.1305
  406TMC3     O 6118   0.586   1.697  14.405 -0.4744  0.0030  0.5938
  406TMC3     H 6119   0.783   1.622  14.245 -0.1607  0.3727 -1.4029
  406TMC3    H1 6120   0.693   2.001  14.409  0.0195 -0.6193  3.6423
  406TMC3    H2 6121   1.074   1.822  14.497  0.1466  1.0616 -0.5129
  406TMC3    C7 6122   0.898   2.011  14.574  0.2360 -0.0647  0.4511
  406TMC3    C8 6123   1.042   1.606  14.342  0.5049 -0.9893 -0.2799
  406TMC3    O1 6124   0.804   2.063  14.629 -0.1410 -0.6694  0.2528
  406TMC3    O2 6125   1.036   1.536  14.235  0.7100 -0.5544 -0.3977
  407MPD2     C 6126   3.795   3.623   9.223 -0.1373 -0.5245  0.2928
  407MPD2    C1 6127   3.861   3.590   9.342 -0.1897 -0.5206  0.6184
  407MPD2    C2 6128   3.823   3.643   9.467  0.4902  0.0476  0.5545
  407MPD2    C3 6129   3.719   3.732   9.469 -0.2680 -0.3377 -0.2839
  407MPD2    C4 6130   3.656   3.770   9.348 -0.5073 -0.1045 -0.7002
  407MPD2    C5 6131   3.698   3.716   9.228 -0.3440  0.1594  0.4557
  407MPD2     H 6132   3.884   3.624   9.555  0.3563 -0.3766  0.5566
  407MPD2    H1 6133   3.577   3.844   9.348 -1.0838 -0.7291  1.5711
  407MPD2    H2 6134   3.817   3.577   9.128  1.3037  0.2371  0.2478
  407MPD2    H3 6135   3.644   3.744   9.138  1.7196  2.4125 -0.0744
  407MPD2     N 6136   3.674   3.792   9.588 -0.2893  0.0595  0.6463
  407MPD2    H5 6137   3.596   3.854   9.572  0.1662  0.0709 -1.5411
  407MPD2    N1 6138   3.971   3.494   9.335  0.4177  0.0288 -0.1375
  407MPD2    H7 6139   4.038   3.480   9.410 -2.2434 -1.6014  1.9279
  408TMC3    C1 6140   4.118   3.342   9.226 -0.1566  0.4813  0.0978
  408TMC3    C2 6141   4.124   3.207   9.206  0.0790  0.5427 -0.2761
  408TMC3    C3 6142   4.249   3.151   9.212  0.4409 -1.1095  0.1947
  408TMC3    C4 6143   4.219   3.428   9.235  0.0102 -0.0349 -0.1645
  408TMC3    C5 6144   4.338   3.366   9.238 -0.4481  0.4735 -1.0250
  408TMC3    C6 6145   4.358   3.233   9.209 -0.4577  0.1576  0.2065
  408TMC3     C 6146   3.983   3.401   9.241  0.3325  0.7402 -0.0490
  408TMC3     O 6147   3.895   3.362   9.163  0.9612 -0.8745  0.2552
  408TMC3     H 6148   4.037   3.142   9.216  0.7485 -0.2606  0.3268
  408TMC3    H1 6149   4.191   3.533   9.246  2.8307  0.6475  0.5589
  408TMC3    H2 6150   4.460   3.197   9.221  0.6733  2.4174 -2.4035
  408TMC3    C7 6151   4.447   3.425   9.310 -0.7046 -0.2766  0.3629
  408TMC3    C8 6152   4.256   3.030   9.297  0.1938  0.7500  0.3059
  408TMC3    O1 6153   4.518   3.347   9.371 -0.3231 -0.0556  0.4757
  408TMC3    O2 6154   4.176   2.939   9.282 -0.7710  0.4031  0.6929
  409MPD2     C 6155   3.423   3.573  16.970 -0.4255 -0.4269 -0.5473
  409MPD2    C1 6156   3.502   3.611  17.073 -0.2839 -0.3833 -0.0412
  409MPD2    C2 6157   3.582   3.723  17.066 -0.0035  0.5438 -0.5390
  409MPD2    C3 6158   3.600   3.795  16.945  0.0130 -0.4059  0.1577
  409MPD2    C4 6159   3.528   3.749  16.837 -0.2882  0.1430  0.2555
  409MPD2    C5 6160   3.448   3.645  16.854  0.1306 -0.2073 -0.2879
  409MPD2     H 6161   3.628   3.754  17.160 -0.0289 -1.4011  0.1248
  409MPD2    H1 6162   3.550   3.798  16.743  0.1904  0.5116  0.5547
  409MPD2    H2 6163   3.353   3.490  16.964  1.3022 -1.9084 -0.2278
  409MPD2    H3 6164   3.385   3.599  16.778 -0.6397  0.8393 -0.2723
  409MPD2     N 6165   3.699   3.893  16.919  0.2749 -0.5044 -0.4025
  409MPD2    H5 6166   3.711   3.931  16.826  0.4563  1.1825  0.3078
  409MPD2    N1 6167   3.476   3.538  17.191 -0.0618 -0.3367 -0.4734
  409MPD2    H7 6168   3.425   3.452  17.177 -2.6358  1.1404 -0.2296
  410TMC3    C1 6169   3.912   4.005  16.967  0.3269  0.3934  0.5473
  410TMC3    C2 6170   4.011   4.024  17.056 -0.2088 -0.3510 -0.5846
  410TMC3    C3 6171   4.111   4.110  17.027  0.2784  0.3345  0.8234
  410TMC3    C4 6172   3.915   4.066  16.844 -0.1280 -0.6761  0.4583
  410TMC3    C5 6173   4.019   4.156  16.820  0.1051 -0.6792  0.2544
  410TMC3    C6 6174   4.118   4.180  16.909  0.4493 -0.2427 -0.1710
  410TMC3     C 6175   3.805   3.914  17.004 -0.4778 -0.0875  1.2971
  410TMC3     O 6176   3.814   3.881  17.121  0.1340  0.2294  0.6754
  410TMC3     H 6177   3.999   3.981  17.155 -1.5085 -0.0470 -0.6082
  410TMC3    H1 6178   3.839   4.055  16.767 -1.2576 -1.3376  1.6851
  410TMC3    H2 6179   4.191   4.259  16.896  0.6331 -0.4556 -0.4128
  410TMC3    C7 6180   4.043   4.171  16.672 -0.4277 -0.7528 -1.1303
  410TMC3    C8 6181   4.236   4.122  17.112  0.3703  0.3693  0.1493
  410TMC3    O1 6182   3.999   4.075  16.605 -0.0965  0.1614 -0.1591
  410TMC3    O2 6183   4.322   4.204  17.083 -0.0513  0.9603 -0.1740
  411MPD2     C 6184   3.929   0.302  14.313  0.4856 -0.2165 -0.6487
  411MPD2    C1 6185   3.821   0.254  14.397 -0.0257  1.0762 -0.9167
  411MPD2    C2 6186   3.797   0.120  14.404  0.1213  0.3694  0.2030
  411MPD2    C3 6187   3.860   0.034  14.315  0.2331  0.4916 -0.3703
  411MPD2    C4 6188   3.970   0.077  14.247 -0.0235  0.2485  0.4495
  411MPD2    C5 6189   4.003   0.209  14.247 -0.0744 -0.5574 -0.0355
  411MPD2     H 6190   3.714   0.089  14.468  0.6472 -0.8348  0.3079
  411MPD2    H1 6191   4.021   0.011  14.178 -0.4473  0.8213 -0.4122
  411MPD2    H2 6192   3.964   0.403  14.297 -1.2018  0.2622 -1.2760
  411MPD2    H3 6193   4.088   0.241  14.188  0.2296 -0.0649  0.6650
  411MPD2     N 6194   3.822   4.638  14.290 -0.0233  0.0419  0.6920
  411MPD2    H5 6195   3.878   4.585  14.223  0.9620 -0.4538  1.9237
  411MPD2    N1 6196   3.734   0.350  14.452  0.8121  0.7075 -0.0467
  411MPD2    H7 6197   3.749   0.441  14.410 -1.2456  1.4776  0.8898
  412TMC3    C1 6198   3.708   4.432  14.308  0.5758  1.3090  0.1242
  412TMC3    C2 6199   3.599   4.376  14.365  0.1372 -0.4321  0.6344
  412TMC3    C3 6200   3.527   4.275  14.298  0.2501 -0.1755  0.7199
  412TMC3    C4 6201   3.750   4.398  14.179  0.4362 -0.6782  0.0795
  412TMC3    C5 6202   3.677   4.302  14.114  0.5404  0.1633  0.7983
  412TMC3    C6 6203   3.583   4.236  14.178 -0.4484 -0.1070  0.6507
  412TMC3     C 6204   3.742   4.564  14.360  0.8458 -0.2366  0.4000
  412TMC3     O 6205   3.681   4.595  14.463 -0.0178  0.4326 -0.2695
  412TMC3     H 6206   3.556   4.418  14.455 -0.9327 -0.9414  0.3689
  412TMC3    H1 6207   3.837   4.447  14.137  1.7199 -3.1680 -0.1796
  412TMC3    H2 6208   3.533   4.162  14.115  0.1388 -0.5289  0.6818
  412TMC3    C7 6209   3.649   4.341  13.978  0.2052 -0.1365  0.3259
  412TMC3    C8 6210   3.387   4.298  14.287  0.3888  0.2708  0.3795
  412TMC3    O1 6211   3.742   4.392  13.914  0.3482 -0.4178 -0.0487
  412TMC3    O2 6212   3.344   4.293  14.171 -0.3242  0.0869 -0.2132
  413MPD2     C 6213   0.658   3.243  15.310 -0.4525  0.0563  0.3667
  413MPD2    C1 6214   0.553   3.205  15.228  0.1277 -0.2711  0.3443
  413MPD2    C2 6215   0.548   3.071  15.189 -0.6488  0.0693  0.4229
  413MPD2    C3 6216   0.630   2.970  15.235  0.8125  0.5420 -0.6320
  413MPD2    C4 6217   0.735   3.014  15.305  0.5451 -0.1069 -0.4862
  413MPD2    C5 6218   0.749   3.147  15.346  0.0206 -0.8408 -0.7319
  413MPD2     H 6219   0.471   3.039  15.120  1.1838 -1.1238 -1.0852
  413MPD2    H1 6220   0.813   2.947  15.338 -2.2268 -3.0718  0.0887
  413MPD2    H2 6221   0.687   3.346  15.326 -1.8205  0.7056 -1.2996
  413MPD2    H3 6222   0.841   3.177  15.396  1.1431 -2.6714 -1.6959
  413MPD2     N 6223   0.612   2.841  15.187  0.1136  0.7459 -0.7232
  413MPD2    H5 6224   0.531   2.831  15.127 -0.6762  0.8485  0.3301
  413MPD2    N1 6225   0.457   3.305  15.194  0.2318  0.0239 -0.5511
  413MPD2    H7 6226   0.482   3.400  15.220 -0.6894  0.8550 -2.7231
  414TMC3    C1 6227   0.665   2.616  15.155 -0.5928  0.2005  0.3424
  414TMC3    C2 6228   0.679   2.494  15.207 -0.1969 -0.6434 -0.2924
  414TMC3    C3 6229   0.706   2.393  15.120 -0.4881 -0.0605 -0.3675
  414TMC3    C4 6230   0.695   2.641  15.020 -0.4414  0.3934  0.4833
  414TMC3    C5 6231   0.729   2.537  14.933 -0.2793  0.0086 -0.6065
  414TMC3    C6 6232   0.721   2.407  14.981 -0.4689  0.6370  0.9949
  414TMC3     C 6233   0.666   2.726  15.243  0.4195  0.0068  0.0660
  414TMC3     O 6234   0.729   2.705  15.349  0.7885  0.0791  0.1699
  414TMC3     H 6235   0.678   2.473  15.313 -1.2466 -1.1910 -0.4079
  414TMC3    H1 6236   0.710   2.742  14.986  1.7217 -0.0139  0.2320
  414TMC3    H2 6237   0.748   2.322  14.920 -2.5929  0.4730  0.2745
  414TMC3    C7 6238   0.849   2.571  14.862  0.3191 -0.1075 -0.6921
  414TMC3    C8 6239   0.775   2.284  15.175 -0.1518  0.2962  0.2383
  414TMC3    O1 6240   0.926   2.650  14.915  0.2083  0.3340  0.4843
  414TMC3    O2 6241   0.746   2.180  15.118  0.1687  0.7404  0.1303
  415TMC3    C1 6242   0.752   0.475   9.714 -0.8274 -0.7561  0.1585
  415TMC3    C2 6243   0.776   0.451   9.581 -0.0200 -0.7299  0.8000
  415TMC3    C3 6244   0.730   0.333   9.527 -0.2279 -0.2247  0.0754
  415TMC3    C4 6245   0.677   0.393   9.799  0.1383  0.4979 -0.0303
  415TMC3    C5 6246   0.629   0.284   9.739 -0.5089 -0.3764  0.1492
  415TMC3    C6 6247   0.656   0.251   9.607 -0.3167 -0.1440  0.0725
  415TMC3     C 6248   0.822   0.580   9.784 -0.0316  0.0324  0.2869
  415TMC3     O 6249   0.768   0.624   9.884  0.2048 -0.4705 -0.6140
  415TMC3     H 6250   0.835   0.520   9.522 -1.6139  1.4355  1.7304
  415TMC3    H1 6251   0.663   0.417   9.904  5.0074  0.8782  0.5229
  415TMC3    H2 6252   0.625   0.158   9.563 -0.7565 -0.1978  0.4997
  415TMC3    C7 6253   0.524   0.207   9.800  0.2147  0.0623  0.1404
  415TMC3    C8 6254   0.762   0.286   9.389 -0.1969 -0.2777 -0.4324
  415TMC3    O1 6255   0.470   0.126   9.730 -0.1416 -0.0083  0.1581
  415TMC3    O2 6256   0.725   0.175   9.354  0.2736 -0.3272  0.2157
  416MPD2     C 6257   2.590   4.697  11.241 -0.4742  0.2197 -0.3198
  416MPD2    C1 6258   2.538   4.584  11.298 -0.9710 -0.1106 -0.0585
  416MPD2    C2 6259   2.578   4.463  11.246  0.0816  0.5136 -0.1687
  416MPD2    C3 6260   2.644   4.461  11.119 -0.1204 -0.6809  0.2283
  416MPD2    C4 6261   2.687   4.580  11.054 -0.0947  0.2114 -0.6775
  416MPD2    C5 6262   2.666   4.693  11.125 -0.2821  0.3609 -0.0851
  416MPD2     H 6263   2.555   4.371  11.299  0.3440  0.7724  0.3884
  416MPD2    H1 6264   2.756   4.578  10.971 -2.4797 -1.1951 -2.6295
  416MPD2    H2 6265   2.582   0.064  11.274  0.8070  0.5504 -1.0345
  416MPD2    H3 6266   2.716   0.045  11.087  0.3443 -0.6192 -1.5559
  416MPD2     N 6267   2.668   4.330  11.077  0.2313 -0.4149 -0.1412
  416MPD2    H5 6268   2.631   4.251  11.129  1.3845 -0.3781  0.7429
  416MPD2    N1 6269   2.454   4.598  11.410 -0.0767 -0.6740 -0.5179
  416MPD2    H7 6270   2.426   4.693  11.432  2.1440 -0.9230  3.4456
  417TMC3    C1 6271   2.292   4.545  11.569 -0.0688 -0.1990 -0.0160
  417TMC3    C2 6272   2.328   4.593  11.695 -0.1492  0.3068  0.5831
  417TMC3    C3 6273   2.239   4.680  11.751 -1.1486  0.2473 -0.0085
  417TMC3    C4 6274   2.178   4.570  11.504  0.3260  0.1403 -0.2925
  417TMC3    C5 6275   2.111   4.679  11.554 -0.7381 -0.2186 -0.0667
  417TMC3    C6 6276   2.139   4.730  11.678 -0.4137  0.1168  0.3992
  417TMC3     C 6277   2.397   4.489  11.478 -0.0598  0.8862 -0.2881
  417TMC3     O 6278   2.411   4.366  11.473  0.4272 -0.7280  0.0233
  417TMC3     H 6279   2.426   4.567  11.732  0.4136  0.8599 -0.5117
  417TMC3    H1 6280   2.160   4.522  11.408  1.6906 -1.8258  0.4399
  417TMC3    H2 6281   2.077   0.076  11.712 -0.0157 -0.0740  1.5586
  417TMC3    C7 6282   2.038   0.020  11.454 -0.7284  0.6596  0.3280
  417TMC3    C8 6283   2.237   4.697  11.898  0.3206  0.0346 -0.1276
  417TMC3    O1 6284   2.002   0.133  11.481  0.1866 -0.5591 -0.4960
  417TMC3    O2 6285   2.164   0.049  11.943  0.3182 -0.7070 -0.6282
  418TMC3    C1 6286   1.762   2.047   0.424 -0.1179  0.1155  0.8250
  418TMC3    C2 6287   1.640   2.048   0.359 -0.3424 -0.2954 -0.3322
  418TMC3    C3 6288   1.554   1.951   0.401 -0.6388 -0.2825 -0.1423
  418TMC3    C4 6289   1.803   1.962   0.518  0.9485  0.3524  0.0868
  418TMC3    C5 6290   1.711   1.870   0.561  0.2091  0.3271 -0.7919
  418TMC3    C6 6291   1.587   1.857   0.494 -0.3644  0.1825  0.1048
  418TMC3     C 6292   1.860   2.114   0.349  0.3996 -0.4955  0.1742
  418TMC3     O 6293   1.833   2.229   0.321 -0.4510  0.3925  0.0245
  418TMC3     H 6294   1.618   2.120   0.282 -0.1504  1.1311  0.9523
  418TMC3    H1 6295   1.882   1.992   0.585  0.7353  1.0140  0.0367
  418TMC3    H2 6296   1.498   1.815   0.538 -0.5216 -0.5159 -0.8764
  418TMC3    C7 6297   1.747   1.766   0.658  0.3659  0.2654  0.9809
  418TMC3    C8 6298   1.421   1.945   0.355  0.1664  0.6742  0.2080
  418TMC3    O1 6299   1.703   1.652   0.648  0.6826  0.2303  0.0029
  418TMC3    O2 6300   1.369   2.040   0.309 -0.4730 -0.9891  0.1814
  419MPD2     C 6301   0.168   4.348  11.947 -0.6792  0.3370 -0.2400
  419MPD2    C1 6302   0.076   4.448  11.975  0.3581 -0.3808  0.0205
  419MPD2    C2 6303   0.041   4.470  12.103 -0.5017 -0.2299 -0.0450
  419MPD2    C3 6304   0.101   4.400  12.205 -0.0722  0.4674  0.3268
  419MPD2    C4 6305   0.190   4.297  12.179 -0.3333 -0.1056 -0.3348
  419MPD2    C5 6306   0.217   4.261  12.041  0.2525 -0.1373  0.2552
  419MPD2     H 6307   4.695   4.536  12.126 -0.7896 -0.2818 -0.9653
  419MPD2    H1 6308   0.231   4.232  12.255 -0.9977  1.9762  1.8197
  419MPD2    H2 6309   0.176   4.315  11.844  0.6360 -0.3305  0.0761
  419MPD2    H3 6310   0.278   4.179  12.005 -0.6948 -0.6222 -0.2698
  419MPD2     N 6311   0.059   4.437  12.339 -1.0302 -0.1740  0.4004
  419MPD2    H5 6312   4.730   4.515  12.340 -0.8550 -0.0526  2.4766
  419MPD2    N1 6313   0.009   4.522  11.880  0.2978 -0.0682  0.4692
  419MPD2    H7 6314   4.669   4.582  11.907 -0.8937  0.4795 -4.0939
  420TMC3    C1 6315   0.040   4.449  12.569 -0.4715 -0.9061  0.4526
  420TMC3    C2 6316   4.687   4.553  12.568  0.3470  0.1676 -0.6695
  420TMC3    C3 6317   4.665   4.614  12.693  0.8372  0.2453 -1.1776
  420TMC3    C4 6318   0.093   4.397  12.688  0.3996 -0.8022  0.2145
  420TMC3    C5 6319   0.066   4.461  12.808  0.5924  0.9298  0.3861
  420TMC3    C6 6320   4.714   4.563  12.809  0.3520 -0.0721  0.0475
  420TMC3     C 6321   0.081   4.367  12.457  0.3800 -0.6518  0.1141
  420TMC3     O 6322   0.137   4.261  12.465  0.0599 -0.1053  0.5172
  420TMC3     H 6323   4.632   4.582  12.479  2.6588  0.5843 -1.9627
  420TMC3    H1 6324   0.188   4.345  12.684  0.6339 -0.4537  1.3270
  420TMC3    H2 6325   4.709   4.612  12.906 -3.1953 -0.2706 -0.0517
  420TMC3    C7 6326   0.115   4.414  12.939 -0.3735 -0.9557 -0.1885
  420TMC3    C8 6327   4.541   4.682  12.698  0.2843  0.8791 -0.3230
  420TMC3    O1 6328   0.113   4.494  13.030 -0.0018  0.6908 -0.0479
  420TMC3    O2 6329   4.513   0.033  12.613  0.5692 -0.2043 -0.6338
  421TMC3    C1 6330   1.404   1.423  13.490 -0.7876  0.0668  0.0083
  421TMC3    C2 6331   1.439   1.512  13.592  0.4566  0.1778 -0.2862
  421TMC3    C3 6332   1.547   1.480  13.667 -0.2629 -0.0317  0.7468
  421TMC3    C4 6333   1.470   1.308  13.456 -1.0538 -0.7942 -0.3535
  421TMC3    C5 6334   1.585   1.290  13.526  0.2624  0.9870  0.4590
  421TMC3    C6 6335   1.629   1.370  13.634  1.2183 -0.1764 -0.2619
  421TMC3     C 6336   1.286   1.469  13.416 -0.6389 -0.0782 -0.1514
  421TMC3     O 6337   1.202   1.550  13.459 -0.0773  0.1234  0.4136
  421TMC3     H 6338   1.376   1.599  13.605  0.2354  0.0252 -0.3341
  421TMC3    H1 6339   1.436   1.241  13.377 -0.6105  0.1154 -1.3156
  421TMC3    H2 6340   1.701   1.330  13.705 -0.0355  1.8407  2.1284
  421TMC3    C7 6341   1.683   1.183  13.498 -0.7864 -0.0268  0.6089
  421TMC3    C8 6342   1.555   1.544  13.802 -0.4195  0.2243  0.0808
  421TMC3    O1 6343   1.789   1.183  13.555 -0.7286  0.2065  0.3361
  421TMC3    O2 6344   1.666   1.539  13.857  0.1013  0.1125  0.4112
  422TMC3    C1 6345   3.724   3.060  12.388  0.5013  0.4391 -0.2756
  422TMC3    C2 6346   3.709   3.164  12.472 -0.6533  0.3422 -0.3982
  422TMC3    C3 6347   3.589   3.161  12.535  0.3909 -0.0749  0.0027
  422TMC3    C4 6348   3.642   2.951  12.372  0.2942  0.4041 -0.7015
  422TMC3    C5 6349   3.532   2.950  12.446 -0.0670 -0.2199 -0.0170
  422TMC3    C6 6350   3.502   3.055  12.525 -0.0637 -0.3555 -0.3168
  422TMC3     C 6351   3.834   3.069  12.299  0.0646  0.9001  0.2816
  422TMC3     O 6352   3.919   3.151  12.324  0.3956 -0.2315  0.1331
  422TMC3     H 6353   3.782   3.245  12.470 -1.3634  0.9733 -0.8624
  422TMC3    H1 6354   3.673   2.870  12.307  1.2432  0.8451 -0.8112
  422TMC3    H2 6355   3.415   3.040  12.588 -1.4812  1.2680 -1.8946
  422TMC3    C7 6356   3.416   2.868  12.402 -0.3625  0.5347 -0.2558
  422TMC3    C8 6357   3.529   3.295  12.577 -0.5797  0.6590  1.0613
  422TMC3    O1 6358   3.412   2.830  12.289  0.2072  0.1682  0.2574
  422TMC3    O2 6359   3.609   3.371  12.629  0.1920  0.0856 -0.3568
  423MPD2     C 6360   4.552   3.383   0.259 -0.1067  0.3669 -1.1766
  423MPD2    C1 6361   4.646   3.340   0.348  0.4013 -0.2128 -0.4163
  423MPD2    C2 6362   0.021   3.287   0.288  0.2709 -0.8051  0.2667
  423MPD2    C3 6363   0.043   3.277   0.149 -0.0181  0.8770  0.1155
  423MPD2    C4 6364   4.672   3.314   0.070 -0.9861 -0.1310 -0.2150
  423MPD2    C5 6365   4.556   3.362   0.123 -1.0807  0.6301 -0.2518
  423MPD2     H 6366   0.100   3.268   0.361 -0.0615  0.4346  0.9571
  423MPD2    H1 6367   4.683   3.320  17.707 -0.4981  0.1917 -0.1488
  423MPD2    H2 6368   4.463   3.434   0.296  0.0445  0.4695 -0.9580
  423MPD2    H3 6369   4.474   3.398   0.063 -0.8447  0.9498 -0.3843
  423MPD2     N 6370   0.161   3.235   0.087  0.1485 -0.8956  0.7488
  423MPD2    H5 6371   0.170   3.251  17.732 -1.2745 -1.6594  0.4966
  423MPD2    N1 6372   4.640   3.336   0.495  0.5725  0.1540 -0.2345
  423MPD2    H7 6373   4.727   3.301   0.536  0.5340 -1.2593 -1.3442
  424TMC3    C1 6374   4.557   3.365   0.718  0.1811  0.3952  0.1924
  424TMC3    C2 6375   4.678   3.327   0.759  0.5004  0.6319 -0.1806
  424TMC3    C3 6376   4.706   3.334   0.888  0.1752 -0.0761  0.1154
  424TMC3    C4 6377   4.454   3.403   0.805 -0.2997  0.2326 -0.0225
  424TMC3    C5 6378   4.482   3.389   0.940  0.0976  0.2155  0.4983
  424TMC3    C6 6379   4.612   3.362   0.985 -0.2766  0.1934  0.1682
  424TMC3     C 6380   4.530   3.360   0.572 -0.1748  0.3058 -0.4948
  424TMC3     O 6381   4.432   3.426   0.529 -0.3895  0.7492 -0.1632
  424TMC3     H 6382   0.020   3.301   0.690  0.4328  0.9643 -0.3821
  424TMC3    H1 6383   4.360   3.440   0.766 -0.5195  1.4864  1.6572
  424TMC3    H2 6384   4.622   3.343   1.091  2.4808 -1.0619 -0.3299
  424TMC3    C7 6385   4.374   3.388   1.032 -0.5368 -1.2243 -0.3986
  424TMC3    C8 6386   0.103   3.302   0.937 -0.7620 -0.4791 -0.2414
  424TMC3    O1 6387   4.392   3.318   1.132 -0.3212 -0.0891  0.0635
  424TMC3    O2 6388   0.166   3.224   0.872 -0.3425 -0.5019 -0.4762
  425MPD2     C 6389   4.158   2.437   0.222  0.0348  0.2665 -0.6555
  425MPD2    C1 6390   4.078   2.363   0.143 -0.2197  0.0362  0.8369
  425MPD2    C2 6391   3.956   2.411   0.090 -0.0112  0.6249  0.5871
  425MPD2    C3 6392   3.919   2.534   0.121 -0.0927 -0.8618 -1.0806
  425MPD2    C4 6393   4.001   2.615   0.198 -0.6303 -0.1167  0.7581
  425MPD2    C5 6394   4.119   2.564   0.248 -0.2595  0.0781 -0.9035
  425MPD2     H 6395   3.898   2.354   0.019  0.0194 -0.3952  1.3881
  425MPD2    H1 6396   3.973   2.717   0.224 -0.1594  0.6091 -1.6284
  425MPD2    H2 6397   4.252   2.401   0.263 -1.0867 -0.1818  1.4778
  425MPD2    H3 6398   4.192   2.629   0.294 -3.6987  2.6987  0.8183
  425MPD2     N 6399   3.806   2.586   0.057 -0.5062 -0.8852  0.1981
  425MPD2    H5 6400   3.759   2.521  17.739  0.3249 -1.6009  0.3276
  425MPD2    N1 6401   4.121   2.229   0.128  0.5841 -0.2128 -0.3528
  425MPD2    H7 6402   4.218   2.211   0.153 -0.0917 -0.9816  1.7059
  426TMC3    C1 6403   4.121   2.000   0.046  0.0764  0.2339 -0.0858
  426TMC3    C2 6404   4.227   2.029  17.710  0.4060 -0.3558  0.1048
  426TMC3    C3 6405   4.260   1.939  17.611  0.5744  0.0250 -0.2541
  426TMC3    C4 6406   4.041   1.889   0.034  0.0496  0.6648  0.2494
  426TMC3    C5 6407   4.086   1.798  17.682  0.1360 -0.3380 -0.1516
  426TMC3    C6 6408   4.194   1.819  17.599 -0.6267 -0.0369  0.1909
  426TMC3     C 6409   4.044   2.117   0.092  0.3474  0.2408  0.0873
  426TMC3     O 6410   3.922   2.100   0.095 -0.3099  0.3743 -0.1159
  426TMC3     H 6411   4.289   2.116  17.726  0.0615 -0.3334  1.2719
  426TMC3    H1 6412   3.949   1.875   0.090 -0.8339 -0.8321 -1.5738
  426TMC3    H2 6413   4.204   1.750  17.516 -1.5506 -0.2622  0.2702
  426TMC3    C7 6414   3.973   1.726  17.617 -0.3883  0.4484  0.6922
  426TMC3    C8 6415   4.338   1.977  17.497  0.0471 -0.1182 -0.0115
  426TMC3    O1 6416   4.000   1.620  17.556 -0.4434 -0.0914 -0.3272
  426TMC3    O2 6417   4.357   1.882  17.424 -0.5528  0.1592 -0.1962
  427MPD2     C 6418   2.798   0.024  14.599 -0.2038  0.2731  0.6326
  427MPD2    C1 6419   2.762   0.036  14.730 -0.0351 -0.5930  0.5747
  427MPD2    C2 6420   2.634   0.068  14.766  0.2631  0.2212  0.3660
  427MPD2    C3 6421   2.540   0.083  14.667 -0.2059  0.1300  0.0506
  427MPD2    C4 6422   2.567   0.056  14.537  0.3557  0.2437 -0.3984
  427MPD2    C5 6423   2.701   0.035  14.506  0.4883  0.5244  1.2931
  427MPD2     H 6424   2.607   0.075  14.871  1.1456  0.3945  0.5742
  427MPD2    H1 6425   2.488   0.050  14.462 -0.9134 -2.3730  1.1401
  427MPD2    H2 6426   2.899   4.734  14.569 -1.8838 -1.7066 -3.2232
  427MPD2    H3 6427   2.733   4.733  14.411 -0.8884  1.8016  0.3054
  427MPD2     N 6428   2.406   0.103  14.702 -0.5603 -0.0916 -0.5668
  427MPD2    H5 6429   2.344   0.108  14.621  2.0555 -1.9912 -2.6935
  427MPD2    N1 6430   2.852   0.006  14.834 -0.5590 -0.0079  0.1341
  427MPD2    H7 6431   2.818   4.733  14.929 -0.8212  1.5635  0.1999
  428TMC3    C1 6432   3.044   4.686  14.947  0.4623  0.1676 -0.1391
  428TMC3    C2 6433   2.992   4.578  15.017 -0.1124  0.3511 -0.2526
  428TMC3    C3 6434   3.064   4.530  15.115 -0.2931  0.4242 -0.2610
  428TMC3    C4 6435   3.170   0.000  14.979  0.6412 -0.6728 -0.5639
  428TMC3    C5 6436   3.236   4.686  15.087 -0.9100 -0.1821  0.5344
  428TMC3    C6 6437   3.186   4.579  15.157  0.7297 -0.5153 -0.3049
  428TMC3     C 6438   2.985   4.722  14.822  0.1787  0.7570  0.3315
  428TMC3     O 6439   3.052   4.717  14.724 -0.5102 -0.0170  0.5905
  428TMC3     H 6440   2.900   4.528  14.987 -0.0081 -0.3820  0.6294
  428TMC3    H1 6441   3.200   0.094  14.933 -0.1567 -0.2692 -0.2735
  428TMC3    H2 6442   3.255   4.528  15.223 -1.2655 -0.1607  2.0329
  428TMC3    C7 6443   3.331   0.032  15.146  0.2653  0.1000 -0.0323
  428TMC3    C8 6444   3.034   4.396  15.164 -0.0578 -0.2265  0.9590
  428TMC3    O1 6445   3.336   0.024  15.271  0.6452  0.4284  0.1241
  428TMC3    O2 6446   2.944   4.330  15.113 -0.3999  0.3395  0.0816
  429MPD2     C 6447   4.494   4.595   0.106  0.2882 -0.0541  0.3186
  429MPD2    C1 6448   4.470   4.512   0.000 -0.3821 -0.6955  0.3424
  429MPD2    C2 6449   4.446   4.569  17.617  0.1641 -0.6847  0.6703
  429MPD2    C3 6450   4.457   4.704  17.603 -0.9687  0.9451  0.0275
  429MPD2    C4 6451   4.506   0.045  17.708 -0.7131  0.6423 -0.5805
  429MPD2    C5 6452   4.506   4.732   0.092 -0.0235 -0.3141 -0.8485
  429MPD2     H 6453   4.426   4.508  17.529 -0.8463  3.0608 -1.6753
  429MPD2    H1 6454   4.526   0.150  17.688  1.2559  0.4244  0.2848
  429MPD2    H2 6455   4.503   4.550   0.205  2.1373 -2.7421 -1.0808
  429MPD2    H3 6456   4.525   0.073   0.165  0.4759  0.0268 -1.3417
  429MPD2     N 6457   4.479   0.019  17.471  0.9713  0.4393  0.3497
  429MPD2    H5 6458   4.467   4.688  17.397  1.2772 -1.3996  1.9773
  429MPD2    N1 6459   4.461   4.372   0.009 -0.1987  0.3162  0.5549
  429MPD2    H7 6460   4.441   4.327  17.665 -2.3755 -0.7448  1.5714
  430TMC3    C1 6461   4.544   0.167  17.301 -0.9797 -0.2856 -0.3001
  430TMC3    C2 6462   4.529   0.293  17.250 -0.1786 -0.0564  0.0822
  430TMC3    C3 6463   4.566   0.310  17.120  0.5295 -0.4372 -0.4549
  430TMC3    C4 6464   4.595   0.059  17.230  0.2318  0.0779 -0.0311
  430TMC3    C5 6465   4.634   0.088  17.106 -0.5330 -0.4739 -0.5560
  430TMC3    C6 6466   4.622   0.212  17.050 -0.1097  0.7138 -0.1541
  430TMC3     C 6467   4.494   0.156  17.437 -0.0937  1.1608  0.0236
  430TMC3     O 6468   4.476   0.261  17.498 -0.3113  0.2082  0.0021
  430TMC3     H 6469   4.468   0.369  17.297 -1.8960 -1.8160  0.7084
  430TMC3    H1 6470   4.610   4.699  17.277  0.2159  0.0284 -0.1282
  430TMC3    H2 6471   4.654   0.235  16.949 -0.1596  1.2389 -0.0529
  430TMC3    C7 6472   4.636   4.709  17.023  0.6764 -0.0856 -0.3930
  430TMC3    C8 6473   4.460   0.354  17.043 -0.6106 -0.0731 -0.3466
  430TMC3    O1 6474   4.658   4.599  17.074  0.6460 -0.3064  0.6091
  430TMC3    O2 6475   4.397   0.264  16.987 -0.1606 -0.5644 -0.3326
  431MPD2     C 6476   4.518   0.529  12.124 -0.0375 -0.1526  0.4672
  431MPD2    C1 6477   4.630   0.543  12.051  0.5401 -0.3701  0.7163
  431MPD2    C2 6478   4.658   0.453  11.953  0.2338  0.0987  0.0114
  431MPD2    C3 6479   4.574   0.352  11.926  0.2383 -0.3033  0.9648
  431MPD2    C4 6480   4.464   0.330  12.008 -0.0799  0.5650  0.5816
  431MPD2    C5 6481   4.434   0.420  12.108 -0.0058 -0.1363 -0.0868
  431MPD2     H 6482   0.010   0.473  11.895 -0.4238  1.0003 -0.6859
  431MPD2    H1 6483   4.400   0.246  11.983 -1.4275  1.6265  0.4958
  431MPD2    H2 6484   4.487   0.599  12.200  0.7148  0.9254 -0.2281
  431MPD2    H3 6485   4.347   0.401  12.170 -0.7693  0.1468 -1.0894
  431MPD2     N 6486   4.597   0.252  11.834  0.5446  0.3265  0.1781
  431MPD2    H5 6487   4.530   0.176  11.842 -0.4513  1.3074  1.2135
  431MPD2    N1 6488   4.724   0.644  12.071 -0.7410 -0.1487 -0.4758
  431MPD2    H7 6489   0.076   0.632  12.024  0.8400  3.0039  1.6916
  432TMC3    C1 6490   4.709   0.130  11.662  0.1336 -0.0907  0.5930
  432TMC3    C2 6491   0.011   0.130  11.530  0.8817 -0.0253  0.4240
  432TMC3    C3 6492   0.038   0.016  11.465 -0.3140 -0.6554  0.3707
  432TMC3    C4 6493   4.696   0.014  11.735  0.6997 -0.4590 -0.8193
  432TMC3    C5 6494   4.718   4.634  11.669 -0.2210  0.2023 -0.3188
  432TMC3    C6 6495   0.032   4.638  11.541  0.5545  0.1643  0.3550
  432TMC3     C 6496   4.692   0.257  11.734 -0.7462 -0.4167 -0.2738
  432TMC3     O 6497   0.011   0.359  11.697  0.1864 -0.3826 -0.4902
  432TMC3     H 6498   0.009   0.224  11.476 -0.3550 -0.7287 -0.7776
  432TMC3    H1 6499   4.683   0.016  11.843  0.7929 -1.9920 -0.7822
  432TMC3    H2 6500   0.043   4.542  11.492  1.5360  1.1190 -1.3003
  432TMC3    C7 6501   0.051   4.534  11.753 -0.4446 -0.2393  0.0659
  432TMC3    C8 6502   0.148   0.039  11.369 -0.3979  0.5743 -0.4420
  432TMC3    O1 6503   0.141   4.477  11.699 -0.2764 -0.7644 -0.3031
  432TMC3    O2 6504   0.154   0.141  11.302  0.0607  0.6057 -0.5293
  433MPD2     C 6505   3.544   4.173  10.631  0.7184 -0.7212 -0.5093
  433MPD2    C1 6506   3.540   4.055  10.693 -0.4939  1.0227  0.3426
  433MPD2    C2 6507   3.590   4.049  10.827 -0.0718 -0.4016  0.3489
  433MPD2    C3 6508   3.632   4.164  10.891  0.2171 -0.0624  0.0104
  433MPD2    C4 6509   3.622   4.285  10.831  0.4996 -0.3033 -0.3823
  433MPD2    C5 6510   3.581   4.285  10.699  0.7237  0.0187 -0.2230
  433MPD2     H 6511   3.597   3.955  10.880 -0.6583  0.5252  2.0529
  433MPD2    H1 6512   3.661   4.377  10.872 -0.1655 -0.4604  0.6010
  433MPD2    H2 6513   3.525   4.177  10.524  2.6128  2.2052 -0.7566
  433MPD2    H3 6514   3.600   4.374  10.639 -0.8229  0.6060  0.1579
  433MPD2     N 6515   3.664   4.145  11.028  0.1538 -0.2255  0.9745
  433MPD2    H5 6516   3.662   4.046  11.049  2.3803 -0.4866 -0.0224
  433MPD2    N1 6517   3.495   3.937  10.620 -0.1064 -0.1652  0.5560
  433MPD2    H7 6518   3.501   3.935  10.519  1.5669 -0.4382  0.6523
  434TMC3    C1 6519   3.449   3.700  10.609 -0.7224  0.1466 -0.0392
  434TMC3    C2 6520   3.474   3.587  10.684  0.3729 -0.1078  0.3497
  434TMC3    C3 6521   3.472   3.468  10.615  0.1360 -0.1388  0.3149
  434TMC3    C4 6522   3.436   3.695  10.471 -0.0282  0.3122 -0.4134
  434TMC3    C5 6523   3.440   3.571  10.411 -0.6553 -0.3315 -0.5100
  434TMC3    C6 6524   3.466   3.458  10.481  0.0979 -1.2846  0.8723
  434TMC3     C 6525   3.462   3.821  10.688 -0.2233  0.1383  0.3876
  434TMC3     O 6526   3.461   3.806  10.809 -0.0582  0.6155  0.5255
  434TMC3     H 6527   3.497   3.588  10.790 -1.2240 -0.8517  0.7017
  434TMC3    H1 6528   3.416   3.788  10.418  0.1289 -0.8381 -2.4915
  434TMC3    H2 6529   3.481   3.362  10.433 -1.0770  0.1927 -2.3933
  434TMC3    C7 6530   3.452   3.568  10.264 -1.1583  0.0214 -0.0928
  434TMC3    C8 6531   3.510   3.354  10.693  0.5316 -0.0897 -0.2156
  434TMC3    O1 6532   3.480   3.666  10.196  0.1921  0.0532 -0.7019
  434TMC3    O2 6533   3.485   3.357  10.815  0.6295  0.4005 -0.0399
  435MPD2     C 6534   1.243   3.541  15.318 -0.8232 -0.1590  0.0491
  435MPD2    C1 6535   1.190   3.509  15.439 -0.4943 -0.2936 -0.1429
  435MPD2    C2 6536   1.270   3.461  15.538  0.0999  0.2558 -0.2391
  435MPD2    C3 6537   1.406   3.456  15.527 -0.4503  0.0495  0.3616
  435MPD2    C4 6538   1.461   3.511  15.419 -0.0821 -0.2471 -0.0657
  435MPD2    C5 6539   1.382   3.542  15.311  0.2415 -0.1458  0.3907
  435MPD2     H 6540   1.232   3.432  15.635  0.8739  1.0250  0.3012
  435MPD2    H1 6541   1.568   3.522  15.414 -0.0580  0.2066  1.5199
  435MPD2    H2 6542   1.185   3.564  15.230  0.1335 -2.4680 -1.1902
  435MPD2    H3 6543   1.437   3.595  15.234 -0.2986 -1.2533 -0.7588
  435MPD2     N 6544   1.482   3.397  15.627 -0.7220  0.2049 -0.3105
  435MPD2    H5 6545   1.434   3.372  15.713  1.7717  0.3004  1.0946
  435MPD2    N1 6546   1.045   3.511  15.458 -0.3555  0.1913  0.5868
  435MPD2    H7 6547   1.013   3.491  15.553  0.2947 -2.5362  0.2464
  436TMC3    C1 6548   0.684   3.666  15.589  0.1854  0.0853 -0.1768
  436TMC3    C2 6549   0.809   3.614  15.553  0.5199  0.9585  0.3799
  436TMC3    C3 6550   0.821   3.579  15.420  0.2410 -0.0978  0.1115
  436TMC3    C4 6551   0.590   3.706  15.500  0.1300 -0.1230 -0.3881
  436TMC3    C5 6552   0.618   3.681  15.367  0.0144  0.1265  0.1743
  436TMC3    C6 6553   0.726   3.608  15.326  0.1605  0.6636 -0.0652
  436TMC3     C 6554   0.659   3.689  15.732  0.6400  0.2476 -0.3887
  436TMC3     O 6555   0.754   3.667  15.812 -0.1947  0.1040 -0.1348
  436TMC3     H 6556   0.877   3.582  15.631  0.5371 -1.2619 -0.5277
  436TMC3    H1 6557   0.521   3.784  15.528  1.1329 -0.1327  2.0927
  436TMC3    H2 6558   0.742   3.598  15.220 -3.3624  2.3244 -0.7524
  436TMC3    C7 6559   0.509   3.683  15.273 -0.2277  0.7121 -0.9944
  436TMC3    C8 6560   0.956   3.561  15.367  0.1683 -0.3161 -0.3294
  436TMC3    O1 6561   0.516   3.600  15.183  0.4836 -0.4711  0.3659
  436TMC3    O2 6562   0.973   3.584  15.248  0.4257  0.1498  0.0634
  437TMC3    C1 6563   3.741   0.964  12.693 -0.5202 -1.1319  0.0200
  437TMC3    C2 6564   3.611   0.987  12.727 -0.4679  0.7337  0.2171
  437TMC3    C3 6565   3.568   1.117  12.714 -0.3154  1.1134  1.1989
  437TMC3    C4 6566   3.824   1.068  12.656  0.1467  1.3147 -0.2906
  437TMC3    C5 6567   3.779   1.193  12.651  0.2466 -0.1717  0.2792
  437TMC3    C6 6568   3.651   1.225  12.686 -0.1131  0.0690 -0.3905
  437TMC3     C 6569   3.787   0.827  12.720  0.3037  0.4385 -0.6502
  437TMC3     O 6570   3.697   0.742  12.732 -0.5604 -0.5574 -0.1705
  437TMC3     H 6571   3.545   0.906  12.755 -2.2534  1.5680 -1.5371
  437TMC3    H1 6572   3.921   1.040  12.617 -0.1936  0.4453 -0.5293
  437TMC3    H2 6573   3.621   1.325  12.657 -0.0018  0.7558  1.8851
  437TMC3    C7 6574   3.864   1.301  12.606 -0.5627  0.0550 -0.1510
  437TMC3    C8 6575   3.429   1.140  12.750  0.1528 -0.4112  0.4799
  437TMC3    O1 6576   3.817   1.395  12.544 -0.6945 -0.2973 -0.3083
  437TMC3    O2 6577   3.357   1.039  12.752 -0.3538 -0.0850  0.0098
  438MPD2     C 6578   2.041   1.847  16.737 -0.5641  0.0159  0.0080
  438MPD2    C1 6579   2.081   1.737  16.798  1.2091  0.2713  0.0273
  438MPD2    C2 6580   2.104   1.740  16.933  0.3755  0.2178  0.8243
  438MPD2    C3 6581   2.062   1.843  17.012 -0.1036 -0.1021  0.1172
  438MPD2    C4 6582   2.022   1.951  16.942 -0.4928 -0.1717 -0.9220
  438MPD2    C5 6583   2.010   1.959  16.811  0.2058 -0.1326 -0.6436
  438MPD2     H 6584   2.146   1.648  16.972  0.7303  0.0617  0.0724
  438MPD2    H1 6585   1.989   2.039  16.997 -0.1943 -0.2078 -0.6873
  438MPD2    H2 6586   2.011   1.857  16.633 -1.4056 -0.6562  0.1816
  438MPD2    H3 6587   1.951   2.036  16.764 -1.3760 -1.4682 -0.8462
  438MPD2     N 6588   2.066   1.836  17.157  0.5306  0.2070  0.1270
  438MPD2    H5 6589   2.038   1.913  17.217  0.1469 -0.0959  0.3371
  438MPD2    N1 6590   2.099   1.614  16.727  0.6719  0.6646 -0.2817
  438MPD2    H7 6591   2.137   1.535  16.778  1.3345  0.6418 -0.8061
  439TMC3    C1 6592   2.114   1.465  16.546 -0.1600 -0.0864  0.3113
  439TMC3    C2 6593   2.174   1.449  16.432  0.3008  0.0821 -0.0418
  439TMC3    C3 6594   2.197   1.326  16.381 -0.1511  0.6459  0.0088
  439TMC3    C4 6595   2.078   1.364  16.625 -0.1374  0.6104 -0.0766
  439TMC3    C5 6596   2.098   1.240  16.577 -0.3909  0.4293 -0.1633
  439TMC3    C6 6597   2.146   1.217  16.451 -0.0550  0.4031  0.5721
  439TMC3     C 6598   2.086   1.599  16.589  0.7084  0.3337 -0.3046
  439TMC3     O 6599   2.088   1.683  16.507  0.2553 -0.2071  0.2379
  439TMC3     H 6600   2.216   1.532  16.375 -0.0403  0.1002 -0.2624
  439TMC3    H1 6601   2.028   1.372  16.721 -0.8227  1.7442 -0.5307
  439TMC3    H2 6602   2.153   1.115  16.413 -0.5936  1.0530 -1.2512
  439TMC3    C7 6603   2.123   1.131  16.664  0.1494  0.4636  0.1102
  439TMC3    C8 6604   2.270   1.302  16.256  0.1553  0.4609  0.0023
  439TMC3    O1 6605   2.176   1.156  16.769 -0.0636  0.4260  0.8058
  439TMC3    O2 6606   2.293   1.187  16.224  0.6868 -0.6622  0.3742
  440MPD2     C 6607   0.512   1.861  14.783 -0.1512  0.4077 -0.1527
  440MPD2    C1 6608   0.568   1.921  14.893 -0.1883 -0.4938  0.1355
  440MPD2    C2 6609   0.688   1.872  14.939 -0.1356  0.3636  0.2658
  440MPD2    C3 6610   0.751   1.764  14.877  0.5475 -0.6686 -0.5422
  440MPD2    C4 6611   0.686   1.699  14.779 -0.6593  0.2613 -0.6844
  440MPD2    C5 6612   0.566   1.741  14.747  0.2043 -0.3450 -0.5096
  440MPD2     H 6613   0.745   1.932  15.011  0.5014 -0.0485  0.1054
  440MPD2    H1 6614   0.729   1.612  14.731 -0.4586 -1.0911  1.9104
  440MPD2    H2 6615   0.422   1.900  14.737 -0.5856  1.5963  1.6863
  440MPD2    H3 6616   0.511   1.690  14.669 -1.2722  1.7134 -0.8174
  440MPD2     N 6617   0.874   1.705  14.915  0.0729 -0.0762  0.2667
  440MPD2    H5 6618   0.908   1.625  14.863  1.8126  0.2089  0.9844
  440MPD2    N1 6619   0.520   2.041  14.953 -0.0510  0.2961 -0.2858
  440MPD2    H7 6620   0.580   2.076  15.027 -0.7192  0.2920  0.2463
  441TMC3    C1 6621   1.082   1.690  15.023 -0.4809  0.5996 -0.2376
  441TMC3    C2 6622   1.169   1.782  15.073 -0.1577 -0.0723 -0.2512
  441TMC3    C3 6623   1.238   1.748  15.185  0.5328 -0.2697 -0.4925
  441TMC3    C4 6624   1.065   1.568  15.070 -0.1998 -0.8554  0.5922
  441TMC3    C5 6625   1.132   1.539  15.193  0.3890  0.2678  0.7981
  441TMC3    C6 6626   1.218   1.625  15.249  0.2938 -0.2835  0.3002
  441TMC3     C 6627   0.959   1.759  15.009  0.3501 -0.8716 -0.4597
  441TMC3     O 6628   0.939   1.831  15.103 -0.4328 -0.5667 -0.2449
  441TMC3     H 6629   1.194   1.875  15.024  1.4103 -0.3894 -0.0540
  441TMC3    H1 6630   1.009   1.491  15.019  2.7593 -1.7057 -1.3339
  441TMC3    H2 6631   1.255   1.603  15.348  0.4307 -0.0286  0.3052
  441TMC3    C7 6632   1.085   1.429  15.274  0.2210 -0.3738  0.1536
  441TMC3    C8 6633   1.246   1.858  15.267 -0.0096 -0.3206  0.4746
  441TMC3    O1 6634   1.129   1.410  15.389  0.6672  0.7203  0.1919
  441TMC3    O2 6635   1.332   1.864  15.353 -0.3471  0.0544  0.1931
  442MPD2     C 6636   4.065   2.224  17.380  0.9833  0.2824  0.3651
  442MPD2    C1 6637   4.071   2.293  17.259 -0.7158  0.1985 -0.5417
  442MPD2    C2 6638   4.042   2.231  17.136 -0.7473 -0.1289 -0.0290
  442MPD2    C3 6639   4.012   2.097  17.127 -0.8075 -0.1321 -0.3610
  442MPD2    C4 6640   4.009   2.030  17.247  0.5442  0.1667  0.1320
  442MPD2    C5 6641   4.037   2.090  17.371  0.6959  0.3326  0.5636
  442MPD2     H 6642   4.035   2.306  17.058 -2.2765 -1.6978 -1.3907
  442MPD2    H1 6643   3.979   1.927  17.264  0.8078 -0.2948 -2.1821
  442MPD2    H2 6644   4.083   2.262  17.479 -1.0436 -1.6165  1.4711
  442MPD2    H3 6645   4.042   2.046  17.470 -0.6088  0.7353  0.8052
  442MPD2     N 6646   3.984   2.019  17.010  0.0135 -0.0944  0.9427
  442MPD2    H5 6647   3.962   1.922  17.031 -0.0166 -0.4820 -0.8943
  442MPD2    N1 6648   4.086   2.435  17.256  0.1645  0.4734  0.1955
  442MPD2    H7 6649   4.090   2.469  17.160 -3.1734  1.9441  0.5961
  443TMC3    C1 6650   4.091   2.657  17.320 -0.1124 -0.9201  0.3219
  443TMC3    C2 6651   4.108   2.681  17.183  0.3283 -0.0482 -0.1995
  443TMC3    C3 6652   4.022   2.771  17.126  0.8561 -0.7461  0.0355
  443TMC3    C4 6653   4.013   2.743  17.393  0.0318  0.4627 -0.3509
  443TMC3    C5 6654   3.934   2.837  17.336  0.4583 -0.1632  0.1844
  443TMC3    C6 6655   3.932   2.845  17.199  0.3144 -0.7895 -0.3656
  443TMC3     C 6656   4.096   2.521  17.360  0.6634 -0.1691 -0.5862
  443TMC3     O 6657   4.075   2.505  17.480  0.0224  0.1285  0.7464
  443TMC3     H 6658   4.176   2.624  17.119  1.0807  1.7195 -0.9778
  443TMC3    H1 6659   4.005   2.710  17.496  0.5322 -0.4201 -0.5913
  443TMC3    H2 6660   3.874   2.915  17.141  2.5203  0.6971 -0.8037
  443TMC3    C7 6661   3.808   2.860  17.401 -0.2175  0.0404 -0.6214
  443TMC3    C8 6662   4.002   2.751  16.976 -0.1223 -0.8767 -0.3000
  443TMC3    O1 6663   3.797   2.899  17.518  0.2087  0.6025  0.5836
  443TMC3    O2 6664   4.076   2.670  16.914  0.0948 -0.2462  0.2173
  444MPD2     C 6665   3.927   1.700  17.180  0.2593  0.5956  0.0776
  444MPD2    C1 6666   3.856   1.631  17.090  0.0439  0.1440  0.0118
  444MPD2    C2 6667   3.925   1.548  17.007 -0.4442  0.0195 -0.4905
  444MPD2    C3 6668   4.059   1.539  17.007  0.5782  0.1810  0.1913
  444MPD2    C4 6669   4.126   1.607  17.104  0.3863  0.1495  0.2341
  444MPD2    C5 6670   4.064   1.693  17.181  0.4997  0.3860 -0.8729
  444MPD2     H 6671   3.871   1.483  16.940  0.7440 -0.4883 -0.9415
  444MPD2    H1 6672   4.234   1.605  17.113  0.0869  0.9068  3.9349
  444MPD2    H2 6673   3.880   1.753  17.262  0.1803  1.8510 -0.7816
  444MPD2    H3 6674   4.119   1.759  17.247 -1.3734  1.8927 -0.8175
  444MPD2     N 6675   4.123   1.458  16.914  0.3884 -0.1810  0.0038
  444MPD2    H5 6676   4.064   1.393  16.864  1.3285 -0.8511 -0.2423
  444MPD2    N1 6677   3.712   1.645  17.076 -0.2449  0.0279 -0.1392
  444MPD2    H7 6678   3.661   1.577  17.021  2.6406 -1.5046 -0.8973
  445TMC3    C1 6679   4.304   1.345  16.793 -0.9137  0.3573  0.1925
  445TMC3    C2 6680   4.203   1.288  16.715  0.9405 -0.2385 -0.7140
  445TMC3    C3 6681   4.248   1.188  16.631 -0.1752 -0.4437 -0.1603
  445TMC3    C4 6682   4.438   1.310  16.786 -0.6252  0.4348 -0.5449
  445TMC3    C5 6683   4.471   1.211  16.703  0.3782  0.4297  0.6161
  445TMC3    C6 6684   4.377   1.148  16.623 -0.9116 -0.5137  0.3370
  445TMC3     C 6685   4.261   1.455  16.883  0.4954 -0.0670  0.2329
  445TMC3     O 6686   4.353   1.517  16.940 -0.4685 -0.7809  0.2178
  445TMC3     H 6687   4.098   1.316  16.721  1.0497 -0.2011  0.9918
  445TMC3    H1 6688   4.513   1.355  16.851 -0.0797 -0.7274 -0.3771
  445TMC3    H2 6689   4.403   1.087  16.537 -1.5243  1.0867 -0.9922
  445TMC3    C7 6690   4.606   1.176  16.665  0.0178  0.7310  0.8378
  445TMC3    C8 6691   4.152   1.100  16.570 -1.1725  0.5475 -0.1430
  445TMC3    O1 6692   4.626   1.109  16.566 -0.0594  0.3721  0.0600
  445TMC3    O2 6693   4.199   1.001  16.516 -0.1839 -0.7975 -0.8587
  446MPD2     C 6694   3.308   3.249  11.326 -0.2664 -0.5926 -0.4449
  446MPD2    C1 6695   3.298   3.226  11.192  0.5759 -0.2736  0.0117
  446MPD2    C2 6696   3.390   3.284  11.110 -0.4527 -0.4540 -0.3597
  446MPD2    C3 6697   3.498   3.359  11.154 -0.2754 -0.3005  0.1976
  446MPD2    C4 6698   3.500   3.387  11.287 -0.2048 -0.0425  0.6641
  446MPD2    C5 6699   3.409   3.330  11.371  0.0619  0.3679  0.3494
  446MPD2     H 6700   3.394   3.254  11.006 -0.7086  2.0430 -1.0991
  446MPD2    H1 6701   3.579   3.449  11.329  0.4452 -1.3616  1.3781
  446MPD2    H2 6702   3.256   3.203  11.409 -0.6072 -1.0951 -0.9344
  446MPD2    H3 6703   3.427   3.345  11.477  2.3787 -1.9784  0.2866
  446MPD2     N 6704   3.593   3.397  11.056  0.0198 -0.1979  0.1785
  446MPD2    H5 6705   3.559   3.389  10.961 -0.5792  2.9221  0.1452
  446MPD2    N1 6706   3.196   3.144  11.137 -0.1074  0.1911 -1.0532
  446MPD2    H7 6707   3.207   3.114  11.041 -0.1606 -0.8125 -0.7526
  447TMC3    C1 6708   3.829   3.414  10.979 -0.4141  0.1890  0.4006
  447TMC3    C2 6709   3.780   3.455  10.856  0.0637  0.3879  1.4211
  447TMC3    C3 6710   3.855   3.414  10.745  0.0799  0.4332 -0.0259
  447TMC3    C4 6711   3.935   3.326  10.991 -0.1139  0.3314 -0.3984
  447TMC3    C5 6712   4.007   3.291  10.880  0.0387  0.5293 -0.1714
  447TMC3    C6 6713   3.965   3.336  10.761 -0.3582 -0.1219  0.0090
  447TMC3     C 6714   3.728   3.425  11.087 -0.7593 -0.0804 -0.1955
  447TMC3     O 6715   3.775   3.430  11.194 -0.4378 -0.5607  0.3235
  447TMC3     H 6716   3.703   3.530  10.842 -1.3761 -1.4860 -0.7110
  447TMC3    H1 6717   3.966   3.304  11.093  0.9098 -1.4473 -1.1077
  447TMC3    H2 6718   4.026   3.333  10.672  1.7551 -0.6730  1.4745
  447TMC3    C7 6719   4.130   3.207  10.886 -0.3621  0.0901 -0.3436
  447TMC3    C8 6720   3.840   3.487  10.627 -0.0757  0.1403  0.1089
  447TMC3    O1 6721   4.182   3.184  10.777  0.1622 -0.3056 -0.2026
  447TMC3    O2 6722   3.850   3.432  10.518 -0.4509 -0.2553 -0.2107
  448TMC3    C1 6723   1.780   3.020  16.919 -0.7729  0.3451 -0.3736
  448TMC3    C2 6724   1.745   2.905  16.853 -0.5997 -0.1682 -0.5853
  448TMC3    C3 6725   1.827   2.796  16.875 -0.1728 -0.4643  0.1501
  448TMC3    C4 6726   1.886   3.031  17.002  0.4802  1.0404 -0.8572
  448TMC3    C5 6727   1.962   2.920  17.020  1.1808 -0.8844 -0.6243
  448TMC3    C6 6728   1.939   2.799  16.958 -0.1051  0.0644 -0.2307
  448TMC3     C 6729   1.701   3.140  16.897 -0.1680 -0.1615 -0.5961
  448TMC3     O 6730   1.644   3.161  16.790  0.1456  0.1476 -0.3597
  448TMC3     H 6731   1.648   2.894  16.804  0.2629  1.7550 -2.7304
  448TMC3    H1 6732   1.922   3.118  17.055 -1.0001 -0.0870  1.9867
  448TMC3    H2 6733   2.002   2.711  16.963 -0.5974 -0.3028 -0.3859
  448TMC3    C7 6734   2.086   2.944  17.100  0.3083  0.1131  0.4975
  448TMC3    C8 6735   1.821   2.701  16.771  0.0025  0.3206 -0.2663
  448TMC3    O1 6736   2.160   3.038  17.071  0.4717 -0.1975 -0.3070
  448TMC3    O2 6737   1.877   2.595  16.797  0.2265 -0.0708  0.6252
  449MPD2     C 6738   3.358   1.474  14.000  0.0773  0.0249  0.0188
  449MPD2    C1 6739   3.228   1.507  13.968 -0.2227 -0.1677  0.0928
  449MPD2    C2 6740   3.129   1.410  13.956 -0.1073  0.2355  0.9106
  449MPD2    C3 6741   3.152   1.283  13.991  0.1820  0.6351 -0.1177
  449MPD2    C4 6742   3.281   1.246  14.027  0.8901 -0.5766  0.4140
  449MPD2    C5 6743   3.385   1.339  14.020  1.0387 -0.3340  0.1600
  449MPD2     H 6744   3.025   1.432  13.934  0.0326  1.0800  1.1183
  449MPD2    H1 6745   3.299   1.139  14.033 -1.6469 -0.8700  2.5850
  449MPD2    H2 6746   3.442   1.543  14.003  1.2688 -1.3803 -1.4402
  449MPD2    H3 6747   3.481   1.296  14.048  0.4424 -0.1567  2.4586
  449MPD2     N 6748   3.049   1.193  13.969  0.1845  0.0629  0.2055
  449MPD2    H5 6749   2.977   1.237  13.912  0.2112  2.8112  2.2640
  449MPD2    N1 6750   3.185   1.640  13.954  0.9051  0.5094  0.5469
  449MPD2    H7 6751   3.085   1.635  13.938  1.0285 -0.2233  0.0085
  450TMC3    C1 6752   3.163   1.859  13.930  0.1146  0.0696 -0.0161
  450TMC3    C2 6753   3.201   1.928  13.818  0.5535 -0.4928 -0.7445
  450TMC3    C3 6754   3.101   1.959  13.726  0.9531  0.4161 -0.0213
  450TMC3    C4 6755   3.029   1.839  13.962  0.7814 -0.5572  0.3415
  450TMC3    C5 6756   2.931   1.865  13.866  0.0030 -0.2415  1.0758
  450TMC3    C6 6757   2.966   1.932  13.751 -0.4620  0.5026 -0.2002
  450TMC3     C 6758   3.254   1.758  13.968 -0.0032  0.5380  0.2623
  450TMC3     O 6759   3.372   1.782  13.969  0.0889  0.3703  0.1303
  450TMC3     H 6760   3.304   1.918  13.787  0.3526 -0.9585 -1.2740
  450TMC3    H1 6761   3.003   1.780  14.049  2.1175 -2.3654 -0.4844
  450TMC3    H2 6762   2.890   1.958  13.678 -2.6578  0.4943  2.0764
  450TMC3    C7 6763   2.850   1.750  13.845 -0.4454  1.1928 -0.1735
  450TMC3    C8 6764   3.126   2.060  13.627  0.6291  0.0449  0.1654
  450TMC3    O1 6765   2.885   1.647  13.903  0.2364  0.4756  0.5360
  450TMC3    O2 6766   3.052   2.158  13.620  0.1242  0.6647 -0.3825
  451MPD2     C 6767   0.455   0.659   0.635  0.8049  0.7190 -0.4963
  451MPD2    C1 6768   0.371   0.577   0.712  0.8788 -0.1758  0.0041
  451MPD2    C2 6769   0.384   0.437   0.704 -0.4332 -0.0635  0.0236
  451MPD2    C3 6770   0.473   0.384   0.613  0.2452 -0.6015  0.0862
  451MPD2    C4 6771   0.548   0.468   0.538 -0.3669 -0.1771  0.7400
  451MPD2    C5 6772   0.540   0.602   0.543  0.2360 -0.4681 -0.5522
  451MPD2     H 6773   0.324   0.370   0.764 -3.4118  1.4068 -1.3103
  451MPD2    H1 6774   0.617   0.426   0.465  1.1847  0.1932  1.9938
  451MPD2    H2 6775   0.458   0.767   0.631 -1.5154  0.7908  0.2287
  451MPD2    H3 6776   0.607   0.671   0.493 -1.1881  0.8483 -0.6319
  451MPD2     N 6777   0.486   0.250   0.593 -0.0818  0.3867  0.0895
  451MPD2    H5 6778   0.555   0.209   0.530  1.4374  2.4577  0.4191
  451MPD2    N1 6779   0.274   0.639   0.792  0.2428 -0.6366 -0.4268
  451MPD2    H7 6780   0.261   0.739   0.784  0.6215 -0.5965 -0.5222
  452TMC3    C1 6781   0.422   0.022   0.583  0.5434  1.0668 -0.6768
  452TMC3    C2 6782   0.385   4.641   0.648 -0.0627 -0.6834 -0.0106
  452TMC3    C3 6783   0.376   4.530   0.573 -0.3096  1.0589 -0.1392
  452TMC3    C4 6784   0.446   0.019   0.449 -0.0053  0.0923 -0.7772
  452TMC3    C5 6785   0.421   4.647   0.370  0.0795 -0.6854 -0.1186
  452TMC3    C6 6786   0.393   4.528   0.437  0.2811  0.2106 -0.4192
  452TMC3     C 6787   0.407   0.151   0.648  0.3747  0.1196  0.6580
  452TMC3     O 6788   0.306   0.143   0.718  0.3059  0.6208 -0.2059
  452TMC3     H 6789   0.375   4.639   0.756  0.5707 -0.0166  0.0589
  452TMC3    H1 6790   0.461   0.115   0.400  0.3061  0.2138 -0.4455
  452TMC3    H2 6791   0.387   4.439   0.375  2.2731  1.1388 -1.9436
  452TMC3    C7 6792   0.455   4.661   0.224  0.0547 -0.2758  0.6157
  452TMC3    C8 6793   0.344   4.412   0.648  0.2635 -0.3701  0.0223
  452TMC3    O1 6794   0.490   0.033   0.184  0.2449  0.1519 -0.3784
  452TMC3    O2 6795   0.349   4.428   0.767 -0.1548  0.0989 -0.0009
  453TMC3    C1 6796   0.642   2.247  12.278  0.2235  0.0327  0.6088
  453TMC3    C2 6797   0.569   2.133  12.280  0.0330 -0.4330  0.2197
  453TMC3    C3 6798   0.498   2.110  12.173  0.5634 -0.8478  0.6279
  453TMC3    C4 6799   0.630   2.340  12.172 -0.4246  0.9707  0.1788
  453TMC3    C5 6800   0.555   2.308  12.064 -0.5696 -0.1291  0.6504
  453TMC3    C6 6801   0.483   2.185  12.058 -0.5543  0.8751  0.4115
  453TMC3     C 6802   0.779   2.236  12.323 -0.0711  0.2283 -0.0803
  453TMC3     O 6803   0.852   2.303  12.251  0.1584  0.4731 -0.4238
  453TMC3     H 6804   0.567   2.061  12.361  4.5784 -1.6181 -0.6758
  453TMC3    H1 6805   0.680   2.435  12.183 -0.5944  0.8586  1.9073
  453TMC3    H2 6806   0.424   2.163  11.969 -1.7702 -0.8915  1.6466
  453TMC3    C7 6807   0.616   2.344  11.934  0.6459  0.0874  0.0508
  453TMC3    C8 6808   0.419   1.986  12.171  0.0197  0.1039  0.0786
  453TMC3    O1 6809   0.554   2.301  11.836  0.4262 -0.2992  0.3766
  453TMC3    O2 6810   0.390   1.942  12.281  0.2331 -0.3496  0.0934
  454MPD2     C 6811   0.095   1.623  16.331  0.0811  0.3166 -0.2599
  454MPD2    C1 6812   4.715   1.674  16.280  0.7698 -0.2619 -0.2067
  454MPD2    C2 6813   4.647   1.764  16.354 -0.4241  0.2157  0.6681
  454MPD2    C3 6814   4.694   1.798  16.476  0.6302 -0.0785 -0.2445
  454MPD2    C4 6815   0.071   1.747  16.529 -0.8211 -0.5707 -0.2036
  454MPD2    C5 6816   0.141   1.658  16.455 -0.9944 -0.1684  0.3437
  454MPD2     H 6817   4.558   1.805  16.307 -0.8172 -0.1902  1.0603
  454MPD2    H1 6818   0.110   1.771  16.627 -1.9002 -1.9645  0.5509
  454MPD2    H2 6819   0.154   1.551  16.277 -0.1328  1.1152 -1.5457
  454MPD2    H3 6820   0.226   1.601  16.491 -0.4376  0.9751  0.8296
  454MPD2     N 6821   4.610   1.878  16.565 -0.1759  0.4259  0.0128
  454MPD2    H5 6822   4.625   1.881  16.665  1.7091 -0.4430 -0.2431
  454MPD2    N1 6823   4.661   1.629  16.159 -0.4593  0.1473  0.2622
  454MPD2    H7 6824   4.593   1.696  16.125 -0.5824 -1.5585 -2.8036
  455TMC3    C1 6825   4.399   1.981  16.612 -0.4475  0.0282  0.0555
  455TMC3    C2 6826   4.430   1.990  16.746  0.4592 -0.0469 -0.7849
  455TMC3    C3 6827   4.350   1.920  16.836  0.1075  0.0664 -0.1478
  455TMC3    C4 6828   4.311   1.882  16.574 -0.2273  0.2041 -0.4812
  455TMC3    C5 6829   4.242   1.799  16.665  0.0021 -0.0787 -0.0914
  455TMC3    C6 6830   4.259   1.817  16.800  0.0676 -0.0038 -0.0225
  455TMC3     C 6831   4.513   1.966  16.526 -0.6053  0.6623  0.1912
  455TMC3     O 6832   4.489   2.003  16.411  0.5382  0.1197  0.7945
  455TMC3     H 6833   4.496   2.066  16.787 -0.1026  0.2842 -0.4926
  455TMC3    H1 6834   4.294   1.872  16.467  2.5203  1.2244 -1.0231
  455TMC3    H2 6835   4.211   1.758  16.877  0.5010 -0.0828  0.1848
  455TMC3    C7 6836   4.238   1.667  16.605 -0.1160  0.3908 -0.4811
  455TMC3    C8 6837   4.362   1.957  16.977  0.4278  0.1208  0.5254
  455TMC3    O1 6838   4.128   1.638  16.559 -0.4030  0.2425  0.0493
  455TMC3    O2 6839   4.342   1.871  17.054 -0.2558  0.2409 -0.9288
  456MPD2     C 6840   2.634   1.878  15.848  0.0707  0.1722  0.3507
  456MPD2    C1 6841   2.617   1.800  15.964  0.6304  0.2772  0.5346
  456MPD2    C2 6842   2.517   1.838  16.047 -0.4983 -1.0110  0.3557
  456MPD2    C3 6843   2.439   1.945  16.029 -0.9261 -0.0913 -0.3208
  456MPD2    C4 6844   2.447   2.023  15.913  0.0008 -0.0124 -0.0730
  456MPD2    C5 6845   2.538   1.982  15.818  0.4739  0.3689  0.0067
  456MPD2     H 6846   2.499   1.783  16.139 -1.3782 -3.1028 -1.0622
  456MPD2    H1 6847   2.379   2.103  15.885 -0.7681 -0.5885  0.1459
  456MPD2    H2 6848   2.723   1.878  15.786 -1.1267  1.4452 -1.3815
  456MPD2    H3 6849   2.544   2.039  15.726 -2.8665 -1.9046 -1.6194
  456MPD2     N 6850   2.355   1.969  16.140  0.0019  0.4604 -0.0103
  456MPD2    H5 6851   2.345   1.902  16.216 -0.2807  1.1001  0.5232
  456MPD2    N1 6852   2.717   1.703  16.000  0.4862 -0.4580  0.4156
  456MPD2    H7 6853   2.785   1.675  15.931 -2.0447 -0.9017 -1.8937
  457TMC3    C1 6854   2.257   2.105  16.300  0.2434  0.5633  0.2517
  457TMC3    C2 6855   2.163   2.201  16.325  0.4383 -0.5528  0.3635
  457TMC3    C3 6856   2.140   2.232  16.448  0.0296 -1.0256 -0.0423
  457TMC3    C4 6857   2.335   2.050  16.397 -0.7364  0.7206 -0.4034
  457TMC3    C5 6858   2.302   2.081  16.528 -0.2175 -0.4098  0.0844
  457TMC3    C6 6859   2.193   2.161  16.553 -0.2073  0.5087 -0.7603
  457TMC3     C 6860   2.291   2.089  16.163  0.3766 -1.0235  0.1058
  457TMC3     O 6861   2.273   2.179  16.082  0.3859  0.1375  0.1699
  457TMC3     H 6862   2.087   2.235  16.257  0.1284 -0.0770  0.9536
  457TMC3    H1 6863   2.411   1.973  16.387  0.3314  1.6953  0.2118
  457TMC3    H2 6864   2.167   2.189  16.654 -0.1366  1.3611 -0.9839
  457TMC3    C7 6865   2.353   2.005  16.635  0.5478  0.5092  0.4296
  457TMC3    C8 6866   2.086   2.366  16.476 -0.1371 -0.0435  0.8096
  457TMC3    O1 6867   2.390   1.889  16.616  0.6756  0.6600  0.4820
  457TMC3    O2 6868   2.078   2.392  16.596 -0.4371  0.1885  0.0127
  458MPD2     C 6869   4.319   1.505  12.519 -0.7718  0.0362 -0.2916
  458MPD2    C1 6870   4.336   1.388  12.585 -0.5502 -0.0987 -0.1957
  458MPD2    C2 6871   4.228   1.319  12.642  0.4139  0.1084  0.0506
  458MPD2    C3 6872   4.103   1.363  12.608  0.7998 -0.5734 -0.4182
  458MPD2    C4 6873   4.088   1.484  12.543  0.2844  0.1788 -0.2331
  458MPD2    C5 6874   4.191   1.555  12.502 -0.5321  0.0889  0.2071
  458MPD2     H 6875   4.249   1.230  12.699 -1.3596 -2.1640 -2.8421
  458MPD2    H1 6876   3.996   1.538  12.525  0.8896  0.6020 -2.0937
  458MPD2    H2 6877   4.406   1.555  12.480  0.3345 -1.6433 -0.0045
  458MPD2    H3 6878   4.169   1.647  12.450 -2.2904 -1.0422 -1.0680
  458MPD2     N 6879   3.997   1.280  12.639  0.4717  0.4364  0.2579
  458MPD2    H5 6880   4.030   1.190  12.673  1.0814  0.7282  0.4242
  458MPD2    N1 6881   4.472   1.341  12.609  0.4104 -0.8830 -0.0100
  458MPD2    H7 6882   4.547   1.390  12.561 -0.9248  0.3347 -0.8815
  459TMC3    C1 6883   4.645   1.256  12.746  0.6401 -0.2773 -0.0574
  459TMC3    C2 6884   4.703   1.382  12.741 -0.0309  0.0606  0.0878
  459TMC3    C3 6885   0.083   1.407  12.813 -0.2004 -0.7639  0.2304
  459TMC3    C4 6886   4.696   1.153  12.818 -0.5154  0.6461  0.8198
  459TMC3    C5 6887   0.077   1.179  12.883 -0.9204 -0.0506  0.2457
  459TMC3    C6 6888   0.138   1.303  12.879  0.3063  0.0760  0.9335
  459TMC3     C 6889   4.509   1.237  12.691  0.3669 -0.2497 -0.6974
  459TMC3     O 6890   4.441   1.143  12.729 -0.2751 -0.3517 -0.4149
  459TMC3     H 6891   4.658   1.460  12.681  0.1391  0.0335 -0.0746
  459TMC3    H1 6892   4.636   1.063  12.828 -0.6808  0.7075  0.3434
  459TMC3    H2 6893   0.240   1.303  12.916  0.8859  1.4145 -0.6455
  459TMC3    C7 6894   0.157   1.066  12.911  0.1691  0.1988 -0.3328
  459TMC3    C8 6895   0.175   1.514  12.769 -0.5360 -0.5764  0.6459
  459TMC3    O1 6896   0.263   1.099  12.961 -0.2301  0.1967  0.1436
  459TMC3    O2 6897   0.158   1.577  12.668 -0.8977 -0.7827  0.2005
  460MPD2     C 6898   3.869   3.848  10.632 -0.9178 -0.2419  0.1179
  460MPD2    C1 6899   3.834   3.725  10.575  0.9617 -0.4329  0.6148
  460MPD2    C2 6900   3.795   3.720  10.443 -0.7724 -0.2076  0.5444
  460MPD2    C3 6901   3.777   3.840  10.375  0.0438 -0.0970  0.4613
  460MPD2    C4 6902   3.791   3.960  10.437 -0.2299  0.4379 -0.6393
  460MPD2    C5 6903   3.850   3.966  10.558  0.1146 -0.0522  0.7759
  460MPD2     H 6904   3.767   3.624  10.400  0.9068  1.4023 -4.1257
  460MPD2    H1 6905   3.752   4.055  10.401  0.0218 -0.0580 -2.2293
  460MPD2    H2 6906   3.898   3.848  10.736 -1.9849 -0.5505  0.4163
  460MPD2    H3 6907   3.857   4.058  10.614  0.9036  0.0012  0.6000
  460MPD2     N 6908   3.721   3.833  10.242 -0.2415 -1.0713 -0.5201
  460MPD2    H5 6909   3.690   3.745  10.203  0.1309 -0.3957 -2.3500
  460MPD2    N1 6910   3.841   3.618  10.662  0.3116  0.2131 -0.4892
  460MPD2    H7 6911   3.857   3.634  10.761  1.2579  1.5835 -0.8621
  461TMC3    C1 6912   3.643   3.927  10.038 -0.1457  0.3552  0.4388
  461TMC3    C2 6913   3.652   3.820   9.957  0.1815  0.2438  0.4091
  461TMC3    C3 6914   3.646   3.850   9.821  0.3207 -0.2989  0.5039
  461TMC3    C4 6915   3.587   4.046   9.996  0.8299 -0.8998  0.1609
  461TMC3    C5 6916   3.584   4.066   9.863 -0.0535  0.4593 -0.2823
  461TMC3    C6 6917   3.606   3.978   9.772  0.5628  0.6161 -0.5122
  461TMC3     C 6918   3.709   3.948  10.167  0.4191  1.1933 -0.3522
  461TMC3     O 6919   3.758   4.059  10.180  0.1496 -0.1768  0.0494
  461TMC3     H 6920   3.696   3.726   9.989 -1.8431 -0.4671  1.0970
  461TMC3    H1 6921   3.566   4.127  10.065 -1.2742 -2.0858  0.9222
  461TMC3    H2 6922   3.641   4.020   9.679  1.9971 -0.5707 -0.5018
  461TMC3    C7 6923   3.580   4.207   9.823 -0.2078 -0.0980 -1.0633
  461TMC3    C8 6924   3.715   3.767   9.724 -0.1420 -0.0901 -0.0852
  461TMC3    O1 6925   3.537   4.234   9.713 -0.2694 -0.4304 -0.5176
  461TMC3    O2 6926   3.793   3.680   9.759 -0.0351  0.0201 -0.8363
  462TMC3    C1 6927   4.485   3.815   0.993  0.0149 -0.3220 -0.5253
  462TMC3    C2 6928   4.613   3.771   0.949  0.0174 -0.3202  0.0117
  462TMC3    C3 6929   4.647   3.782   0.819 -0.2460  0.5795 -0.0658
  462TMC3    C4 6930   4.391   3.866   0.911 -0.3912  0.2463 -0.8856
  462TMC3    C5 6931   4.422   3.865   0.781  0.5363 -0.4205  0.1025
  462TMC3    C6 6932   4.550   3.829   0.735 -0.0952 -0.0886 -0.1240
  462TMC3     C 6933   4.447   3.776   1.124 -0.8021  0.3732  0.0111
  462TMC3     O 6934   4.526   3.709   1.188  0.0378 -0.0062  0.2620
  462TMC3     H 6935   4.681   3.726   1.021 -0.7212  1.3362  1.7423
  462TMC3    H1 6936   4.294   3.898   0.948  0.0669 -0.0836  0.5804
  462TMC3    H2 6937   4.554   3.801   0.630 -1.2983  1.7846 -0.6601
  462TMC3    C7 6938   4.321   3.879   0.679  0.0734 -0.1666 -0.0876
  462TMC3    C8 6939   0.016   3.696   0.776 -0.1118  0.4179 -0.0300
  462TMC3    O1 6940   4.205   3.841   0.704  0.2080  0.1541 -0.7638
  462TMC3    O2 6941   0.078   3.628   0.857 -0.0398  0.7391  0.4352
  463MPD2     C 6942   1.268   3.037   1.535 -0.0132 -0.1084 -0.1499
  463MPD2    C1 6943   1.134   3.068   1.563 -0.0110 -0.1031 -0.0963
  463MPD2    C2 6944   1.100   3.187   1.624  0.0221 -0.4636  0.0704
  463MPD2    C3 6945   1.200   3.283   1.653 -0.0358 -0.3549  0.1753
  463MPD2    C4 6946   1.335   3.242   1.642  0.7325  0.5775 -0.5326
  463MPD2    C5 6947   1.366   3.124   1.582  0.2499 -0.1942  0.4428
  463MPD2     H 6948   0.995   3.196   1.647  0.1149  1.8790 -0.3626
  463MPD2    H1 6949   1.417   3.302   1.681  1.3424  0.3084 -1.3937
  463MPD2    H2 6950   1.303   2.947   1.487 -2.0094 -0.3456 -1.1617
  463MPD2    H3 6951   1.467   3.088   1.570  0.4675  1.2596 -2.0477
  463MPD2     N 6952   1.168   3.409   1.713  0.0789 -0.3344  0.5312
  463MPD2    H5 6953   1.240   3.458   1.765 -0.6049  0.2165  0.9502
  463MPD2    N1 6954   1.030   2.971   1.531  0.1240  0.0794 -0.6897
  463MPD2    H7 6955   0.936   3.009   1.532  0.8430  1.8608  0.3707
  464TMC3    C1 6956   0.920   2.781   1.456  0.2873  0.1139  0.2425
  464TMC3    C2 6957   0.804   2.845   1.486  0.2255 -0.3178 -0.2437
  464TMC3    C3 6958   0.692   2.768   1.465  0.4232 -0.0310 -0.6813
  464TMC3    C4 6959   0.930   2.653   1.404 -0.0828  0.3861 -0.4134
  464TMC3    C5 6960   0.819   2.587   1.382  0.1308 -0.6403  0.4470
  464TMC3    C6 6961   0.692   2.638   1.411  0.2363 -0.1254 -0.5549
  464TMC3     C 6962   1.044   2.841   1.499  0.2160  0.0867  0.8442
  464TMC3     O 6963   1.147   2.776   1.486  0.5601 -0.2668 -0.9518
  464TMC3     H 6964   0.794   2.950   1.512  0.3851 -0.2797 -0.3370
  464TMC3    H1 6965   1.028   2.613   1.380  0.2307  1.0672 -0.2475
  464TMC3    H2 6966   0.600   2.592   1.378  1.0664 -2.0586 -0.1588
  464TMC3    C7 6967   0.832   2.454   1.326  0.8785 -0.5832 -0.0977
  464TMC3    C8 6968   0.554   2.837   1.456  0.3099  0.0155  0.1849
  464TMC3    O1 6969   0.914   2.441   1.238  0.3372 -0.0562  0.4677
  464TMC3    O2 6970   0.462   2.777   1.403  0.2969  0.4982  0.0833
  465MPD2     C 6971   1.654   2.286  17.086  0.3886 -0.2803  0.0897
  465MPD2    C1 6972   1.604   2.165  17.131  0.7208 -0.2129 -0.7108
  465MPD2    C2 6973   1.589   2.065  17.041 -0.2936 -0.0831  0.0672
  465MPD2    C3 6974   1.626   2.077  16.909 -0.3257  0.4002  0.2968
  465MPD2    C4 6975   1.670   2.200  16.871 -0.1548  0.2957 -0.2734
  465MPD2    C5 6976   1.683   2.302  16.958  0.2467 -0.2547 -0.4999
  465MPD2     H 6977   1.537   1.973  17.066  1.1338 -0.1261  2.8711
  465MPD2    H1 6978   1.706   2.224  16.772  0.6006  1.9038  0.3904
  465MPD2    H2 6979   1.668   2.379  17.141 -1.0514  1.6496 -2.7775
  465MPD2    H3 6980   1.723   2.398  16.927 -0.4105  0.6518  1.4128
  465MPD2     N 6981   1.604   1.973  16.812 -0.4523 -0.7149 -0.5504
  465MPD2    H5 6982   1.554   1.891  16.844  0.5429 -1.2300 -0.2980
  465MPD2    N1 6983   1.558   2.143  17.263  0.5522 -0.1330 -0.4852
  465MPD2    H7 6984   1.533   2.046  17.274  1.3946 -0.3316 -0.3598
  466TMC3    C1 6985   1.357   1.815  16.602  0.3744  0.1698 -0.1924
  466TMC3    C2 6986   1.332   1.871  16.483 -0.0127  0.1893 -0.3094
  466TMC3    C3 6987   1.446   1.918  16.422  0.5456  0.0874  0.7306
  466TMC3    C4 6988   1.480   1.803  16.655 -0.4473  0.2374 -0.0038
  466TMC3    C5 6989   1.591   1.870  16.596 -0.0715 -0.1595  0.1212
  466TMC3    C6 6990   1.574   1.913  16.465  0.0859  0.3956 -0.3584
  466TMC3     C 6991   1.249   1.773  16.684 -0.4537 -0.3226  0.0078
  466TMC3     O 6992   1.288   1.747  16.799 -0.0331 -0.4834  0.4366
  466TMC3     H 6993   1.233   1.891  16.445  0.0866 -1.0900 -1.2265
  466TMC3    H1 6994   1.509   1.766  16.753 -2.0245 -1.6879 -0.2785
  466TMC3    H2 6995   1.646   1.974  16.412 -0.1533 -0.2657 -1.4320
  466TMC3    C7 6996   1.626   1.984  16.677 -0.1850 -0.3853  1.1616
  466TMC3    C8 6997   1.402   2.030  16.330  0.0754  0.3468  0.0724
  466TMC3    O1 6998   1.673   2.075  16.613 -0.3174  0.3330 -0.5548
  466TMC3    O2 6999   1.460   2.052  16.226  0.8885  0.1097  0.1402
  467TMC3    C1 7000   2.276   0.263  13.288  0.1874  0.0780  0.2658
  467TMC3    C2 7001   2.193   0.289  13.188  0.2874  0.5095  0.1927
  467TMC3    C3 7002   2.056   0.294  13.226  0.0435  0.0738  0.6589
  467TMC3    C4 7003   2.226   0.236  13.417 -0.0620  0.1101 -0.3927
  467TMC3    C5 7004   2.092   0.229  13.446  0.3709 -0.4705 -0.2520
  467TMC3    C6 7005   2.007   0.275  13.353 -0.5149  0.8324 -0.3932
  467TMC3     C 7006   2.418   0.282  13.273 -0.7055  0.6245 -0.5782
  467TMC3     O 7007   2.487   0.281  13.376  0.1524  0.4263  0.5260
  467TMC3     H 7008   2.226   0.302  13.086 -0.8262  0.4420 -0.1774
  467TMC3    H1 7009   2.303   0.206  13.488 -0.4224  0.5037  0.1550
  467TMC3    H2 7010   1.901   0.274  13.376 -0.4312  2.3832  0.0620
  467TMC3    C7 7011   2.061   0.174  13.573  0.3657 -0.2828  0.5098
  467TMC3    C8 7012   1.995   0.398  13.147 -0.0721  0.0621 -0.0070
  467TMC3    O1 7013   2.142   0.107  13.634  0.2434 -0.2638 -0.3574
  467TMC3    O2 7014   1.873   0.418  13.132 -0.1945  0.3524  0.3258
  468MPD2     C 7015   0.504   3.546  10.690  0.0427 -0.1586  0.1462
  468MPD2    C1 7016   0.631   3.512  10.634 -0.1998  0.2156 -0.1712
  468MPD2    C2 7017   0.666   3.378  10.629 -0.6727  0.1396  0.6888
  468MPD2    C3 7018   0.581   3.280  10.683  0.9474 -0.4166 -0.1267
  468MPD2    C4 7019   0.455   3.318  10.742  0.2314 -0.8609 -0.7527
  468MPD2    C5 7020   0.427   3.453  10.757 -0.2465 -0.2137 -0.2129
  468MPD2     H 7021   0.768   3.356  10.600 -0.5322  0.0605  1.2410
  468MPD2    H1 7022   0.402   3.256  10.813  0.1155  0.2158  0.1029
  468MPD2    H2 7023   0.474   3.650  10.684  2.5743  0.5043 -0.9939
  468MPD2    H3 7024   0.339   3.488  10.811 -1.1514  0.1283 -1.8944
  468MPD2     N 7025   0.629   3.149  10.704 -0.0443 -0.7999  0.0090
  468MPD2    H5 7026   0.565   3.085  10.751 -1.6131  0.2681 -0.6386
  468MPD2    N1 7027   0.733   3.600  10.595 -0.1557 -0.2012  0.4045
  468MPD2    H7 7028   0.821   3.551  10.581  1.1457  2.4321 -0.5220
  469TMC3    C1 7029   0.850   3.804  10.581  0.0276  0.1784  0.3729
  469TMC3    C2 7030   0.963   3.731  10.557  0.5499 -1.2817 -0.2046
  469TMC3    C3 7031   1.082   3.804  10.560 -0.0384 -0.0919  0.3993
  469TMC3    C4 7032   0.843   3.938  10.612 -0.1587  0.2454  0.2052
  469TMC3    C5 7033   0.963   3.993  10.637  0.6645  0.0411 -0.0149
  469TMC3    C6 7034   1.082   3.932  10.607 -0.5162 -0.0774  0.2853
  469TMC3     C 7035   0.721   3.740  10.589 -0.0934 -0.5591 -0.0261
  469TMC3     O 7036   0.626   3.809  10.618 -0.0620  0.1666 -0.2285
  469TMC3     H 7037   0.956   3.633  10.511  0.1876 -1.3764  0.0514
  469TMC3    H1 7038   0.749   3.992  10.623  0.8290  1.8526  0.6504
  469TMC3    H2 7039   1.177   3.982  10.617 -1.2413  1.4157 -0.2994
  469TMC3    C7 7040   0.958   4.141  10.651  0.2064  0.8539 -0.2122
  469TMC3    C8 7041   1.195   3.722  10.595  0.2350 -0.0500  0.6300
  469TMC3    O1 7042   1.054   4.203  10.607 -0.0914  0.2864  0.4015
  469TMC3    O2 7043   1.209   3.617  10.539  0.1594 -0.3448 -0.2561
  470TMC3    C1 7044   3.191   4.108   0.753 -0.1043 -0.5393 -0.5715
  470TMC3    C2 7045   3.307   4.177   0.729  0.0142  0.1586  0.6335
  470TMC3    C3 7046   3.356   4.254   0.822  0.2079  0.3869 -0.2762
  470TMC3    C4 7047   3.140   4.090   0.875  0.6814 -0.5597  0.0920
  470TMC3    C5 7048   3.206   4.160   0.971 -0.6166  0.1432 -0.6366
  470TMC3    C6 7049   3.307   4.254   0.949 -0.4042 -0.2130 -0.0208
  470TMC3     C 7050   3.152   3.999   0.661  0.1572  0.5114  0.2459
  470TMC3     O 7051   3.062   3.922   0.701  0.2131 -0.6742  0.4675
  470TMC3     H 7052   3.367   4.166   0.640  1.1807 -0.7014  1.5166
  470TMC3    H1 7053   3.063   4.021   0.906 -0.2368 -0.0497 -1.0949
  470TMC3    H2 7054   3.361   4.302   1.029 -1.1338 -2.2752  1.7308
  470TMC3    C7 7055   3.110   4.185   1.073 -0.9326  0.2261 -0.4919
  470TMC3    C8 7056   3.491   4.307   0.808  0.6681 -0.0756  0.2773
  470TMC3    O1 7057   3.039   4.087   1.097 -0.3242  0.3848  0.5511
  470TMC3    O2 7058   3.538   4.349   0.916 -0.2279 -0.0742  0.5405
  471MPD2     C 7059   4.293   0.690  16.698  0.0681  1.0290  0.2487
  471MPD2    C1 7060   4.263   0.557  16.710  0.2114 -0.3968  0.0009
  471MPD2    C2 7061   4.319   0.487  16.813  0.0559 -0.5409 -0.2453
  471MPD2    C3 7062   4.394   0.551  16.911  0.0373 -1.0709 -0.5137
  471MPD2    C4 7063   4.424   0.687  16.893  0.1814  0.3410  0.4025
  471MPD2    C5 7064   4.371   0.752  16.784 -0.3691 -0.3859  0.0809
  471MPD2     H 7065   4.295   0.382  16.824 -0.4272 -0.2920  1.1174
  471MPD2    H1 7066   4.496   0.734  16.960  0.4567 -1.1264  1.1197
  471MPD2    H2 7067   4.247   0.753  16.622  1.4046  0.9228 -0.6523
  471MPD2    H3 7068   4.390   0.859  16.776 -0.5604 -0.1696  2.5279
  471MPD2     N 7069   4.462   0.490  17.018 -0.6351  0.3014  0.8211
  471MPD2    H5 7070   4.509   0.555  17.080 -0.6296  0.8745  0.2186
  471MPD2    N1 7071   4.187   0.481  16.618 -0.7034 -0.1620 -0.2680
  471MPD2    H7 7072   4.166   0.386  16.644 -3.2832  0.8819  1.5068
  472TMC3    C1 7073   4.085   0.406  16.430  0.1133 -0.4724 -0.0388
  472TMC3    C2 7074   3.980   0.426  16.341  0.8161 -0.0070 -0.2726
  472TMC3    C3 7075   3.917   0.315  16.290  0.1076  0.0933  0.0242
  472TMC3    C4 7076   4.121   0.280  16.466 -0.1575  0.8286  0.4798
  472TMC3    C5 7077   4.064   0.172  16.401 -0.3488 -0.0550 -0.4038
  472TMC3    C6 7078   3.952   0.186  16.323 -1.1973 -0.0225  0.6884
  472TMC3     C 7079   4.130   0.525  16.500 -0.4165  0.4951 -0.0627
  472TMC3     O 7080   4.129   0.637  16.447 -0.6882 -0.0027 -0.4907
  472TMC3     H 7081   3.952   0.525  16.308 -1.4821 -1.2618 -2.0510
  472TMC3    H1 7082   4.200   0.257  16.537  0.2923 -0.8135 -0.5308
  472TMC3    H2 7083   3.892   0.100  16.298  1.1534 -2.4047  3.1479
  472TMC3    C7 7084   4.090   0.037  16.446  0.2712 -0.4094  0.7048
  472TMC3    C8 7085   3.808   0.339  16.204 -0.0297 -0.4232  0.5025
  472TMC3    O1 7086   4.134   0.031  16.560 -0.0564 -0.3995 -0.0313
  472TMC3    O2 7087   3.798   0.454  16.164 -0.3517  0.2198 -0.5380
  473MPD2     C 7088   3.372   2.715  13.857 -0.2850 -0.1353  0.4088
  473MPD2    C1 7089   3.361   2.819  13.765  0.2504  0.1753 -0.1633
  473MPD2    C2 7090   3.422   2.937  13.794  0.3739  0.4751  0.2509
  473MPD2    C3 7091   3.496   2.951  13.912  0.5132  0.6674 -0.0587
  473MPD2    C4 7092   3.513   2.839  13.994 -0.3418  0.2368  0.1102
  473MPD2    C5 7093   3.461   2.719  13.962 -0.0884 -0.3681 -0.1003
  473MPD2     H 7094   3.412   3.022  13.727 -0.6000  0.3775  0.2726
  473MPD2    H1 7095   3.568   2.847  14.088 -0.5535  0.6198  0.2022
  473MPD2    H2 7096   3.320   2.621  13.841  1.8695 -0.5381 -4.2280
  473MPD2    H3 7097   3.476   2.635  14.028  0.6365 -0.0450  0.1431
  473MPD2     N 7098   3.578   3.059  13.939 -0.3145  0.0053  0.2764
  473MPD2    H5 7099   3.642   3.040  14.015 -1.3182 -2.4440  0.5109
  473MPD2    N1 7100   3.281   2.805  13.644  0.3054  0.0575  0.6431
  473MPD2    H7 7101   3.258   2.891  13.596 -1.7049 -1.5240 -1.2478
  474TMC3    C1 7102   3.654   3.285  13.947 -0.0508 -0.4104  0.4402
  474TMC3    C2 7103   3.701   3.388  13.867  0.5190  0.4447  0.1402
  474TMC3    C3 7104   3.752   3.495  13.932  0.1999  0.3204 -0.0197
  474TMC3    C4 7105   3.642   3.293  14.081 -0.8091  0.1425 -0.5915
  474TMC3    C5 7106   3.695   3.398  14.142  0.2665 -0.4500  0.4802
  474TMC3    C6 7107   3.749   3.499  14.070 -0.6638 -0.0976  0.1083
  474TMC3     C 7108   3.570   3.183  13.880 -0.4087 -0.7581 -0.0491
  474TMC3     O 7109   3.518   3.215  13.772 -0.2303 -0.7141  0.1459
  474TMC3     H 7110   3.686   3.379  13.760 -0.3250  0.7764  0.2321
  474TMC3    H1 7111   3.587   3.215  14.131  0.0369  0.1979  0.4290
  474TMC3    H2 7112   3.810   3.578  14.111  0.0611 -0.9643  0.7182
  474TMC3    C7 7113   3.688   3.423  14.287 -0.5337 -0.1273  0.8763
  474TMC3    C8 7114   3.782   3.618  13.854 -0.2240  0.2712  0.1916
  474TMC3    O1 7115   3.742   3.528  14.330  0.1528  0.3831  0.2077
  474TMC3    O2 7116   3.849   3.706  13.906 -0.3169 -0.3719 -0.4653
  475MPD2     C 7117   1.473   1.221  10.707 -0.2132 -0.0572 -0.4123
  475MPD2    C1 7118   1.505   1.296  10.819 -0.7968  0.2250  0.4538
  475MPD2    C2 7119   1.404   1.366  10.877  0.3273  0.5070  0.8625
  475MPD2    C3 7120   1.270   1.364  10.832  0.6718 -0.4159  0.4901
  475MPD2    C4 7121   1.237   1.288  10.726 -0.1178  0.3096  0.2807
  475MPD2    C5 7122   1.344   1.216  10.668 -0.3700 -0.7942 -0.1938
  475MPD2     H 7123   1.422   1.423  10.967 -0.3096  0.7194  0.8585
  475MPD2    H1 7124   1.137   1.279  10.684 -0.3637  0.4046  0.8470
  475MPD2    H2 7125   1.544   1.155  10.659 -0.1183 -0.7884  0.7241
  475MPD2    H3 7126   1.318   1.156  10.581 -0.7631  1.8146 -1.8618
  475MPD2     N 7127   1.180   1.452  10.897 -0.4640 -0.0781 -0.4515
  475MPD2    H5 7128   1.223   1.527  10.950  2.3234 -2.3395  0.4741
  475MPD2    N1 7129   1.641   1.298  10.866  0.0577  0.2579 -0.5937
  475MPD2    H7 7130   1.706   1.251  10.805 -0.9365 -1.4940 -0.3182
  476TMC3    C1 7131   1.815   1.320  11.007 -0.4156  0.5786  0.0818
  476TMC3    C2 7132   1.901   1.363  10.907  0.2785  0.2271 -0.1308
  476TMC3    C3 7133   2.009   1.442  10.947  0.3040 -0.1211  0.2902
  476TMC3    C4 7134   1.838   1.350  11.136  0.7307 -0.3752  0.8992
  476TMC3    C5 7135   1.935   1.446  11.167  0.1496  0.2274  0.7463
  476TMC3    C6 7136   2.028   1.486  11.075 -1.0048 -0.0526 -0.2859
  476TMC3     C 7137   1.678   1.340  10.986  0.6056  0.4545  0.2390
  476TMC3     O 7138   1.615   1.394  11.077  0.2472  0.6701 -0.5293
  476TMC3     H 7139   1.908   1.317  10.809 -0.9292 -0.3287  0.0446
  476TMC3    H1 7140   1.770   1.316  11.213 -0.2938  1.5527  0.8420
  476TMC3    H2 7141   2.103   1.560  11.101  0.3747 -1.0840 -1.3931
  476TMC3    C7 7142   1.906   1.532  11.278 -0.5209 -0.3748 -0.7099
  476TMC3    C8 7143   2.114   1.484  10.853  0.0025  0.5830  0.3516
  476TMC3    O1 7144   1.845   1.473  11.364 -0.1659  0.5850  0.0373
  476TMC3    O2 7145   2.204   1.557  10.891 -0.8916 -0.5593  0.2911
  477MPD2     C 7146   3.667   2.690  11.898 -0.0648  0.0916 -0.2699
  477MPD2    C1 7147   3.757   2.696  11.792  0.4367 -0.1374 -1.1683
  477MPD2    C2 7148   3.887   2.644  11.812 -0.4961  0.3281 -0.3906
  477MPD2    C3 7149   3.928   2.595  11.932 -0.5702 -0.1483  0.1814
  477MPD2    C4 7150   3.834   2.593  12.035 -0.3339 -0.2542  0.5247
  477MPD2    C5 7151   3.704   2.629  12.021  0.0806 -0.0222  0.6938
  477MPD2     H 7152   3.964   2.654  11.736 -0.5968  2.1099 -0.2676
  477MPD2    H1 7153   3.862   2.556  12.133 -0.9207 -1.5071  0.2230
  477MPD2    H2 7154   3.564   2.722  11.888 -0.4016 -0.9691 -0.2563
  477MPD2    H3 7155   3.633   2.610  12.100  0.9504 -0.5848  1.3421
  477MPD2     N 7156   4.061   2.556  11.944  0.2044  0.3786 -0.0677
  477MPD2    H5 7157   4.126   2.563  11.867 -0.2576 -0.2294 -0.5104
  477MPD2    N1 7158   3.711   2.761  11.675  1.1223 -0.2953  0.2911
  477MPD2    H7 7159   3.624   2.812  11.691  1.4345  0.3353 -0.0235
  478TMC3    C1 7160   3.723   2.887  11.465 -0.0603  1.2856  0.7287
  478TMC3    C2 7161   3.682   3.004  11.522 -0.4970  0.8537 -0.1006
  478TMC3    C3 7162   3.683   3.117  11.449  0.5030 -1.3566  0.0551
  478TMC3    C4 7163   3.747   2.879  11.334  0.8006  0.4303 -0.6252
  478TMC3    C5 7164   3.739   2.992  11.257 -0.1006 -0.4375 -0.4424
  478TMC3    C6 7165   3.706   3.116  11.311  0.5936  0.1068  0.0356
  478TMC3     C 7166   3.781   2.784  11.555 -0.7659  0.1166 -0.3983
  478TMC3     O 7167   3.882   2.729  11.521 -0.0791 -0.2528  0.1648
  478TMC3     H 7168   3.654   3.004  11.627 -1.2868  1.5355 -0.3192
  478TMC3    H1 7169   3.779   2.788  11.283  0.6825  0.5480 -0.9076
  478TMC3    H2 7170   3.703   3.209  11.256 -1.3898 -0.3865 -0.6856
  478TMC3    C7 7171   3.799   2.979  11.127  0.0958  0.4980 -0.7628
  478TMC3    C8 7172   3.713   3.231  11.534  0.2773  0.9463  0.0031
  478TMC3    O1 7173   3.876   2.888  11.111 -0.0260 -0.0657 -0.0880
  478TMC3    O2 7174   3.688   3.217  11.653 -0.1556 -0.2367 -0.2225
  479MPD2     C 7175   3.538   0.305  15.012 -0.2124 -0.0520  0.6055
  479MPD2    C1 7176   3.489   0.214  15.105 -0.4294 -0.6297 -0.9782
  479MPD2    C2 7177   3.525   0.235  15.240 -0.1950 -0.0291 -0.0405
  479MPD2    C3 7178   3.606   0.338  15.278 -0.4001 -0.0047 -0.3461
  479MPD2    C4 7179   3.645   0.422  15.180 -0.0235 -0.2008 -0.4703
  479MPD2    C5 7180   3.611   0.407  15.049 -0.7075  0.5319  0.0538
  479MPD2     H 7181   3.493   0.171  15.321  1.1712 -1.1903 -0.4262
  479MPD2    H1 7182   3.702   0.511  15.205 -2.0200  0.9204  0.0778
  479MPD2    H2 7183   3.522   0.292  14.905  1.8876  1.2415  0.1334
  479MPD2    H3 7184   3.649   0.482  14.981 -3.6135 -0.3756 -2.5497
  479MPD2     N 7185   3.618   0.381  15.414  0.7040  0.0561  0.2767
  479MPD2    H5 7186   3.671   0.467  15.426  0.0713  0.7096 -1.5600
  479MPD2    N1 7187   3.405   0.114  15.061  0.0511  0.3498  0.3080
  479MPD2    H7 7188   3.382   0.118  14.962 -0.9101 -1.1571  0.4617
  480TMC3    C1 7189   3.266   0.171  15.671 -0.6140 -0.5819  0.2991
  480TMC3    C2 7190   3.166   0.238  15.607 -0.2813 -1.4996 -0.0058
  480TMC3    C3 7191   3.200   0.317  15.500 -0.6267  0.0644  0.6060
  480TMC3    C4 7192   3.399   0.194  15.634 -0.5632 -0.0812  0.3707
  480TMC3    C5 7193   3.425   0.283  15.531  0.3011 -0.5857  0.1758
  480TMC3    C6 7194   3.327   0.350  15.464 -0.5936 -0.0456 -1.0060
  480TMC3     C 7195   3.241   0.077  15.775  0.5734  0.9198 -0.3773
  480TMC3     O 7196   3.335   0.023  15.824 -0.2576  0.2388  0.2418
  480TMC3     H 7197   3.062   0.222  15.633 -0.9827  1.8958 -0.6154
  480TMC3    H1 7198   3.475   0.152  15.698 -2.1134 -1.3785  1.3383
  480TMC3    H2 7199   3.340   0.438  15.402  0.0209 -1.6895 -3.1995
  480TMC3    C7 7200   3.565   0.320  15.525  0.0164  0.2030  0.2997
  480TMC3    C8 7201   3.099   0.318  15.397 -0.1361 -0.6805 -0.0745
  480TMC3    O1 7202   3.618   0.320  15.637  0.2808  0.5622 -0.2631
  480TMC3    O2 7203   2.986   0.292  15.432  0.0215  0.3973 -0.0871
  481MPD2     C 7204   0.314   4.350  14.017 -0.0129  0.5903  0.2433
  481MPD2    C1 7205   0.203   4.270  14.036 -0.8527 -0.7130  0.3671
  481MPD2    C2 7206   0.173   4.227  14.167 -0.0609  0.2276 -0.0081
  481MPD2    C3 7207   0.257   4.258  14.275 -0.2004 -0.1092  0.2979
  481MPD2    C4 7208   0.375   4.327  14.242  0.3908  0.9490 -0.2526
  481MPD2    C5 7209   0.408   4.370  14.116 -0.0860 -0.4078 -0.5545
  481MPD2     H 7210   0.083   4.169  14.181 -0.9055  1.0451 -2.1519
  481MPD2    H1 7211   0.457   4.341  14.312 -0.0778  0.8643  0.3044
  481MPD2    H2 7212   0.335   4.392  13.919 -0.6442 -0.5680 -0.3775
  481MPD2    H3 7213   0.503   4.419  14.094 -1.8935  2.2680 -2.3556
  481MPD2     N 7214   0.227   4.221  14.409 -0.3161  0.2659 -0.8732
  481MPD2    H5 7215   0.292   4.259  14.477 -0.4094  0.0671 -0.6711
  481MPD2    N1 7216   0.111   4.252  13.923 -0.6179 -0.0319  0.3618
  481MPD2    H7 7217   0.138   4.302  13.840 -0.8303  0.4356  0.5748
  482TMC3    C1 7218   4.687   4.173  13.781 -0.4598  0.1154 -0.3532
  482TMC3    C2 7219   4.552   4.167  13.775 -0.1329  0.4627  0.0787
  482TMC3    C3 7220   4.482   4.224  13.672 -0.4963  0.2058  0.1204
  482TMC3    C4 7221   0.018   4.237  13.682  0.0940  0.0307 -0.3073
  482TMC3    C5 7222   4.685   4.287  13.574  0.0132 -0.1745  0.4364
  482TMC3    C6 7223   4.549   4.291  13.567 -0.2986 -0.1275 -0.7397
  482TMC3     C 7224   0.009   4.159  13.911 -0.4733  0.0207  0.1178
  482TMC3     O 7225   4.709   4.074  13.991  0.0732 -0.3070 -0.2527
  482TMC3     H 7226   4.494   4.123  13.856  0.4544  1.5575  1.1013
  482TMC3    H1 7227   0.126   4.232  13.672  0.0347 -1.8937  0.1085
  482TMC3    H2 7228   4.502   4.323  13.475  0.4157 -2.3845 -1.8888
  482TMC3    C7 7229   0.014   4.299  13.444 -1.1268 -1.4906  0.1282
  482TMC3    C8 7230   4.359   4.162  13.637  0.0735 -0.4594 -0.5403
  482TMC3    O1 7231   4.700   4.383  13.369 -0.0399  0.8635  0.2792
  482TMC3    O2 7232   4.355   4.051  13.684  0.2962 -0.3247 -0.2411
  483TMC3    C1 7233   3.759   3.236   1.281 -0.1719  0.4498 -0.7316
  483TMC3    C2 7234   3.708   3.322   1.191 -0.1528 -0.4421  0.3136
  483TMC3    C3 7235   3.713   3.294   1.061  0.0234 -0.0795  0.8222
  483TMC3    C4 7236   3.818   3.121   1.244  0.2867  0.2480  0.0946
  483TMC3    C5 7237   3.826   3.098   1.109  0.1017 -0.1861 -0.6683
  483TMC3    C6 7238   3.776   3.182   1.015  0.4315 -0.5861  0.2497
  483TMC3     C 7239   3.708   3.241   1.416 -0.8187 -0.0272  0.0189
  483TMC3     O 7240   3.764   3.317   1.488  0.5759  0.4207 -0.2561
  483TMC3     H 7241   3.662   3.416   1.221  3.2204  0.9607  1.0738
  483TMC3    H1 7242   3.859   3.054   1.319 -2.4285  0.7994  2.0716
  483TMC3    H2 7243   3.783   3.155   0.910 -3.2830  1.0613 -0.4165
  483TMC3    C7 7244   3.847   2.960   1.054 -0.0140 -0.0655 -0.8463
  483TMC3    C8 7245   3.678   3.392   0.955  0.1265 -0.1511  0.0402
  483TMC3    O1 7246   3.795   2.931   0.950  0.0487 -0.1057  0.4500
  483TMC3    O2 7247   3.704   3.371   0.840  0.4230  0.5430 -0.5306
  484MPD2     C 7248   0.486   1.600  12.959 -0.0270  0.3317  0.1191
  484MPD2    C1 7249   0.406   1.585  12.850 -0.9417 -0.6453  0.0015
  484MPD2    C2 7250   0.455   1.630  12.729  0.4056 -0.1817  0.2602
  484MPD2    C3 7251   0.587   1.660  12.716  0.2469 -0.0211  0.3510
  484MPD2    C4 7252   0.671   1.659  12.827  0.1869  1.2193  0.1111
  484MPD2    C5 7253   0.619   1.630  12.945  0.0682 -0.6863 -0.6308
  484MPD2     H 7254   0.382   1.621  12.649  0.1383 -0.3853  0.5272
  484MPD2    H1 7255   0.779   1.669  12.825  0.2795  0.9901  3.0653
  484MPD2    H2 7256   0.449   1.587  13.060 -2.6185  0.2476 -0.8508
  484MPD2    H3 7257   0.683   1.634  13.032  0.5590  1.3059 -1.0890
  484MPD2     N 7258   0.641   1.695  12.592  0.7107 -0.4079  0.3448
  484MPD2    H5 7259   0.739   1.721  12.585  0.6955  0.3624  2.9502
  484MPD2    N1 7260   0.277   1.525  12.861 -0.1261 -0.0085 -0.4048
  484MPD2    H7 7261   0.266   1.494  12.957 -1.1309  0.0615 -0.5051
  485TMC3    C1 7262   0.671   1.677  12.357 -0.0411  0.4575 -0.5742
  485TMC3    C2 7263   0.782   1.767  12.356  0.1908 -0.0767 -0.6603
  485TMC3    C3 7264   0.850   1.795  12.245  0.2214 -0.0930  0.5615
  485TMC3    C4 7265   0.634   1.614  12.247 -0.4710 -0.4535  0.0273
  485TMC3    C5 7266   0.704   1.639  12.133  0.1754  0.2484 -0.3560
  485TMC3    C6 7267   0.812   1.723  12.134  0.0420  0.2579  0.5262
  485TMC3     C 7268   0.582   1.660  12.471 -0.1925 -0.0991  0.1806
  485TMC3     O 7269   0.465   1.634  12.438  0.0258  0.4942 -0.0056
  485TMC3     H 7270   0.806   1.820  12.448 -0.5999 -0.7567 -0.0567
  485TMC3    H1 7271   0.560   1.535  12.243 -0.1001 -0.7988  0.0329
  485TMC3    H2 7272   0.883   1.733  12.052 -0.0995 -0.6362  0.2927
  485TMC3    C7 7273   0.717   1.529  12.055 -0.2105  0.5454 -0.4966
  485TMC3    C8 7274   0.990   1.802  12.251  0.0106  0.4797  0.4118
  485TMC3    O1 7275   0.682   1.417  12.099  0.4535 -0.1368 -0.1556
  485TMC3    O2 7276   1.043   1.894  12.188  0.3194 -0.4160  0.1086
  486MPD2     C 7277   2.858   4.655  12.414  0.0776 -0.5094  0.0137
  486MPD2    C1 7278   2.785   4.702  12.521 -0.3679  0.4897  0.3107
  486MPD2    C2 7279   2.704   0.077  12.512 -0.6567  0.2219 -0.4993
  486MPD2    C3 7280   2.694   0.135  12.386 -0.0873 -0.5016  0.4959
  486MPD2    C4 7281   2.767   0.087  12.279  0.2520 -0.3047  0.0302
  486MPD2    C5 7282   2.850   4.718  12.293 -0.7101 -0.5191  0.2667
  486MPD2     H 7283   2.649   0.117  12.596  0.2658  1.2644 -0.3908
  486MPD2    H1 7284   2.763   0.135  12.181  0.2242 -1.3249 -0.4664
  486MPD2    H2 7285   2.906   4.559  12.434 -1.0772 -0.9958  0.4319
  486MPD2    H3 7286   2.910   4.690  12.207  0.4659 -0.1963  0.9725
  486MPD2     N 7287   2.608   0.243  12.356 -0.1629  0.1021 -0.3222
  486MPD2    H5 7288   2.612   0.277  12.260 -2.2284  4.7212  1.1998
  486MPD2    N1 7289   2.783   4.611  12.630 -0.6864  0.2347 -0.3020
  486MPD2    H7 7290   2.827   4.521  12.611  0.2210  0.4650  0.6806
  487TMC3    C1 7291   2.708   4.507  12.814 -0.3415  0.2523  0.1733
  487TMC3    C2 7292   2.619   4.429  12.744  0.1491 -0.5260  0.0246
  487TMC3    C3 7293   2.574   4.309  12.796 -0.0106  0.3481  0.5500
  487TMC3    C4 7294   2.756   4.467  12.935  0.4257 -0.1548  0.1120
  487TMC3    C5 7295   2.713   4.352  12.987 -0.6252  0.0234  0.0634
  487TMC3    C6 7296   2.619   4.276  12.923 -0.2195 -0.3113 -0.5300
  487TMC3     C 7297   2.733   4.637  12.753 -0.1593  0.3107  0.4039
  487TMC3     O 7298   2.661   4.732  12.777 -0.3728  0.4076  0.0875
  487TMC3     H 7299   2.558   4.467  12.663  0.2119 -0.0320  0.2067
  487TMC3    H1 7300   2.824   4.534  12.986 -1.3946  2.0582 -0.3725
  487TMC3    H2 7301   2.608   4.171  12.945 -0.3673  0.0399  1.0832
  487TMC3    C7 7302   2.695   4.344  13.138 -0.5603  0.3910  0.0791
  487TMC3    C8 7303   2.434   4.287  12.790  0.4294 -0.2237  0.4497
  487TMC3    O1 7304   2.742   4.441  13.204  0.2512  0.0115  0.8675
  487TMC3    O2 7305   2.384   4.286  12.680 -0.0679  0.1322  0.0668
  488MPD2     C 7306   3.385   2.000  16.578 -0.6185 -0.0479  0.3729
  488MPD2    C1 7307   3.457   2.117  16.610  0.2639  0.3025 -0.3282
  488MPD2    C2 7308   3.405   2.207  16.705  0.2618  0.0887  0.3607
  488MPD2    C3 7309   3.284   2.182  16.771 -0.1755  0.3937  0.8367
  488MPD2    C4 7310   3.220   2.066  16.737  0.1346 -0.5751  0.1038
  488MPD2    C5 7311   3.270   1.982  16.644 -0.0952  0.7333  0.3917
  488MPD2     H 7312   3.461   2.297  16.728 -2.2682  1.4528  1.1871
  488MPD2    H1 7313   3.126   2.032  16.779 -0.6171 -1.2914 -2.1468
  488MPD2    H2 7314   3.409   1.926  16.502 -1.0023  1.2022 -0.9613
  488MPD2    H3 7315   3.214   1.893  16.617  1.4711  0.0298 -0.5355
  488MPD2     N 7316   3.220   2.281  16.851 -0.2030 -0.2036  0.3592
  488MPD2    H5 7317   3.276   2.366  16.858 -1.9682  0.9909  0.0639
  488MPD2    N1 7318   3.579   2.150  16.548  0.0737  0.5430  0.1040
  488MPD2    H7 7319   3.632   2.230  16.580  2.1840 -1.6616  2.0982
  489TMC3    C1 7320   3.059   2.411  16.951 -0.2063 -0.1612  0.2107
  489TMC3    C2 7321   3.169   2.469  17.011  0.3466 -0.1200 -0.1289
  489TMC3    C3 7322   3.153   2.603  17.037  0.0404  0.2169 -0.9642
  489TMC3    C4 7323   2.952   2.470  16.908 -0.3370  0.6601 -0.5475
  489TMC3    C5 7324   2.943   2.607  16.928 -0.7554 -0.2659 -0.2348
  489TMC3    C6 7325   3.044   2.679  16.995 -0.6042 -0.3986 -0.7178
  489TMC3     C 7326   3.087   2.287  16.885  0.3498  0.6156  0.6169
  489TMC3     O 7327   2.996   2.221  16.843 -0.5041 -0.0274  0.2240
  489TMC3     H 7328   3.250   2.409  17.049  0.4448 -0.2300 -0.5104
  489TMC3    H1 7329   2.863   2.413  16.884 -0.3154  0.7318 -0.7900
  489TMC3    H2 7330   3.045   2.785  17.020 -0.2523 -0.3654 -0.8772
  489TMC3    C7 7331   2.814   2.676  16.891  0.2084  0.3690 -0.0360
  489TMC3    C8 7332   3.267   2.659  17.102  0.0073  0.4002 -0.3804
  489TMC3    O1 7333   2.718   2.612  16.852 -0.4156 -0.2646 -0.4295
  489TMC3    O2 7334   3.372   2.599  17.094  0.0123 -0.4424 -0.4324
  490MPD2     C 7335   4.016   1.066  17.243 -0.2327  0.3289  0.4826
  490MPD2    C1 7336   4.076   1.038  17.366 -0.0222  0.0990  0.0371
  490MPD2    C2 7337   4.081   1.131  17.466  0.2617  0.0066  0.3725
  490MPD2    C3 7338   4.034   1.257  17.447 -0.4278  0.6126 -0.1904
  490MPD2    C4 7339   3.970   1.285  17.333 -0.7352  0.2928 -0.0361
  490MPD2    C5 7340   3.958   1.195  17.227 -0.4489  0.3136 -0.0891
  490MPD2     H 7341   4.136   1.086  17.548  0.9930 -1.5756 -0.9993
  490MPD2    H1 7342   3.929   1.384  17.318  1.8566  1.1586 -1.4209
  490MPD2    H2 7343   4.030   0.997  17.160 -0.0670  0.1044  0.6965
  490MPD2    H3 7344   3.918   1.230  17.132  1.9633 -0.0481 -1.2367
  490MPD2     N 7345   4.052   1.355  17.552 -0.3351 -0.3831  0.0397
  490MPD2    H5 7346   4.017   1.448  17.531  1.1412 -0.1573 -1.4084
  490MPD2    N1 7347   4.136   0.914  17.394  0.8210 -0.0494  0.0569
  490MPD2    H7 7348   4.166   0.910  17.491  0.8509  1.6080  0.1041
  491TMC3    C1 7349   4.223   0.685  17.361 -0.8216  0.5711 -0.4845
  491TMC3    C2 7350   4.167   0.648  17.482 -0.5432 -0.4542 -0.1384
  491TMC3    C3 7351   4.112   0.518  17.478 -0.4042  0.4032 -0.2849
  491TMC3    C4 7352   4.232   0.602  17.252  0.4490  0.4580  0.7535
  491TMC3    C5 7353   4.160   0.491  17.246  0.4152  0.2118  0.3498
  491TMC3    C6 7354   4.110   0.434  17.367  0.2443 -0.3016  0.1992
  491TMC3     C 7355   4.175   0.814  17.304 -0.1902  0.1289 -0.1474
  491TMC3     O 7356   4.202   0.835  17.187  0.4029  0.1792 -0.4922
  491TMC3     H 7357   4.157   0.718  17.564  0.1883  0.3132 -0.7138
  491TMC3    H1 7358   4.293   0.638  17.170 -1.1554  0.3272 -0.5031
  491TMC3    H2 7359   4.050   0.344  17.368 -2.2075  1.3195 -0.5235
  491TMC3    C7 7360   4.071   0.490  17.128  0.5983 -0.7675 -0.5317
  491TMC3    C8 7361   4.016   0.497  17.589  0.1664 -0.4404  0.1970
  491TMC3    O1 7362   3.978   0.406  17.130 -0.1812  0.8052  0.5597
  491TMC3    O2 7363   3.915   0.429  17.556 -0.5120 -0.3840  0.0657
  492MPD2     C 7364   3.501   1.677  11.510  0.3518 -0.5432  0.2261
  492MPD2    C1 7365   3.490   1.572  11.417 -0.4251  0.3841  0.0394
  492MPD2    C2 7366   3.454   1.445  11.464 -0.0265 -0.4449 -0.1053
  492MPD2    C3 7367   3.429   1.425  11.596 -0.0709  0.0467  0.0858
  492MPD2    C4 7368   3.440   1.531  11.684 -0.4902 -0.1047  0.1338
  492MPD2    C5 7369   3.470   1.654  11.640 -0.4939 -0.4937 -0.3997
  492MPD2     H 7370   3.446   1.362  11.395 -2.0363 -0.0141 -0.3903
  492MPD2    H1 7371   3.413   1.523  11.789  0.2777 -0.5694  0.2956
  492MPD2    H2 7372   3.527   1.773  11.466  0.4031 -0.4329  0.4961
  492MPD2    H3 7373   3.472   1.736  11.711  0.3022 -0.9175  0.0526
  492MPD2     N 7374   3.399   1.300  11.655  0.2405 -0.1486 -0.3248
  492MPD2    H5 7375   3.410   1.294  11.755  0.1345  0.3411 -0.2852
  492MPD2    N1 7376   3.514   1.601  11.281  0.5315 -0.0291 -0.3029
  492MPD2    H7 7377   3.540   1.697  11.259 -0.2922  0.1347 -0.5727
  493TMC3    C1 7378   3.517   1.594  11.035 -0.9575  0.1060 -0.4082
  493TMC3    C2 7379   3.628   1.677  11.033 -0.0659 -0.3655 -0.1885
  493TMC3    C3 7380   3.653   1.744  10.911  0.2510 -0.2424  0.1911
  493TMC3    C4 7381   3.458   1.541  10.921 -0.1635  0.7920  0.2034
  493TMC3    C5 7382   3.480   1.613  10.806 -0.3062  0.0242 -0.0671
  493TMC3    C6 7383   3.585   1.702  10.795  0.5366 -0.5542  0.1396
  493TMC3     C 7384   3.478   1.532  11.168  0.1223 -0.3868  0.1572
  493TMC3     O 7385   3.405   1.435  11.164  0.4924 -0.4695  0.2968
  493TMC3     H 7386   3.682   1.701  11.123 -1.1789 -0.2678  0.4626
  493TMC3    H1 7387   3.372   1.477  10.933  0.7428 -0.3922  0.3608
  493TMC3    H2 7388   3.605   1.768  10.712 -2.2084 -0.3104 -0.3217
  493TMC3    C7 7389   3.405   1.585  10.683 -0.9071 -0.0763  0.9622
  493TMC3    C8 7390   3.754   1.846  10.920  0.3245 -0.2511  0.0767
  493TMC3    O1 7391   3.312   1.504  10.690 -0.7546 -0.1984  0.2031
  493TMC3    O2 7392   3.771   1.868  11.038  0.5799 -0.3375 -0.0363
  494TMC3    C1 7393   0.086   2.872   0.366  0.2898 -0.2063  0.3364
  494TMC3    C2 7394   0.184   2.781   0.381 -0.0542  0.5925  0.2397
  494TMC3    C3 7395   0.216   2.709   0.271  0.3904 -0.3013  0.0643
  494TMC3    C4 7396   0.036   2.911   0.250 -0.6090 -0.2762 -0.0801
  494TMC3    C5 7397   0.086   2.844   0.139  1.3530 -0.9529  0.7150
  494TMC3    C6 7398   0.181   2.745   0.148  0.5936  0.3281  0.2271
  494TMC3     C 7399   0.009   2.907   0.482 -0.2293  0.0853 -0.3958
  494TMC3     O 7400   0.066   2.921   0.591  0.7330  0.0641 -0.3369
  494TMC3     H 7401   0.210   2.742   0.479  0.8290 -2.1641 -1.0750
  494TMC3    H1 7402   4.708   2.998   0.241 -0.5934 -0.2106  0.4229
  494TMC3    H2 7403   0.197   2.685   0.059  0.7745 -1.2466  1.3349
  494TMC3    C7 7404   0.071   2.894   0.006  0.1588  1.0832  0.0345
  494TMC3    C8 7405   0.310   2.592   0.291 -0.2367  0.4444  0.8288
  494TMC3    O1 7406   0.138   2.847  17.658  0.6845 -0.4664  0.5347
  494TMC3    O2 7407   0.359   2.580   0.403  0.3551 -0.1033 -0.2468
  495TMC3    C1 7408   3.542   0.427  14.539 -0.5470  0.0721  0.0777
  495TMC3    C2 7409   3.466   0.417  14.419 -0.1305 -0.4592 -0.2685
  495TMC3    C3 7410   3.333   0.446  14.427  0.1437 -0.1801  0.1144
  495TMC3    C4 7411   3.480   0.452  14.657  0.2877 -0.2402 -0.2462
  495TMC3    C5 7412   3.350   0.472  14.665  0.4580 -0.5974 -0.7715
  495TMC3    C6 7413   3.273   0.468  14.548 -0.0343  0.3466  0.0321
  495TMC3     C 7414   3.638   0.322  14.544 -0.1835 -0.0060  0.0237
  495TMC3     O 7415   3.608   0.213  14.598 -0.1908  1.1213 -0.9038
  495TMC3     H 7416   3.517   0.401  14.324  1.8940  3.1003  0.1866
  495TMC3    H1 7417   3.536   0.434  14.749 -0.0476  0.8005  0.1690
  495TMC3    H2 7418   3.167   0.481  14.563 -0.0872 -0.1138  0.0479
  495TMC3    C7 7419   3.286   0.462  14.797 -0.8239 -1.1926 -0.1554
  495TMC3    C8 7420   3.235   0.396  14.326 -0.5875  0.5462 -0.2549
  495TMC3    O1 7421   3.350   0.514  14.883  0.1371  0.1110  0.7333
  495TMC3    O2 7422   3.116   0.410  14.349 -0.5935 -0.5089  0.0737
  496MPD2     C 7423   0.715   0.538  15.530 -0.5120 -0.0648  0.6065
  496MPD2    C1 7424   0.665   0.477  15.414 -0.4074  0.3737 -0.5763
  496MPD2    C2 7425   0.533   0.430  15.417 -0.4205  0.3816 -0.4188
  496MPD2    C3 7426   0.457   0.443  15.531  0.3007  0.3670 -0.7812
  496MPD2    C4 7427   0.518   0.494  15.644  1.1279 -0.2435  0.3329
  496MPD2    C5 7428   0.641   0.549  15.641  0.1039 -0.0269  1.0027
  496MPD2     H 7429   0.491   0.386  15.328 -3.0419  1.4950  0.2484
  496MPD2    H1 7430   0.469   0.508  15.740 -0.9500 -1.6115 -0.5238
  496MPD2    H2 7431   0.818   0.570  15.537 -0.6362  0.1912  1.2447
  496MPD2    H3 7432   0.681   0.589  15.734  1.7179  1.1938 -0.2212
  496MPD2     N 7433   0.330   0.385  15.531  0.0690 -0.1851 -0.4074
  496MPD2    H5 7434   0.321   0.326  15.449  1.3024  1.3598 -1.6435
  496MPD2    N1 7435   0.757   0.448  15.312 -0.0269 -0.1318  0.4908
  496MPD2    H7 7436   0.858   0.460  15.315  0.0801 -0.4443 -1.9817
  497TMC3    C1 7437   0.149   0.261  15.619  0.0746 -0.6811  0.2128
  497TMC3    C2 7438   0.111   0.253  15.487 -0.0704 -0.8013  0.0720
  497TMC3    C3 7439   0.080   0.126  15.445  0.3368 -0.2018 -0.1908
  497TMC3    C4 7440   0.168   0.159  15.711  0.1837  0.1862  0.7891
  497TMC3    C5 7441   0.138   0.034  15.664  0.5451 -0.4283  0.0034
  497TMC3    C6 7442   0.105   0.022  15.533  0.2405  0.1142 -0.3891
  497TMC3     C 7443   0.250   0.360  15.640 -0.5100  0.6440  0.7829
  497TMC3     O 7444   0.252   0.421  15.747 -0.0757 -1.0227  0.6079
  497TMC3     H 7445   0.120   0.337  15.419  1.5339 -0.4318  0.7473
  497TMC3    H1 7446   0.213   0.185  15.807 -0.7923 -0.4663  1.4248
  497TMC3    H2 7447   0.091   4.661  15.487  0.8316  1.6984 -3.9875
  497TMC3    C7 7448   0.213   4.654  15.713  0.1365 -0.1587  0.9946
  497TMC3    C8 7449   0.099   0.095  15.308 -0.0804  0.1683  0.6506
  497TMC3    O1 7450   0.239   4.570  15.631  0.1811  0.1200  0.3637
  497TMC3    O2 7451   0.174   0.004  15.281 -0.4459  0.0583  0.3621
  498MPD2     C 7452   0.966   0.389   8.923 -0.5270  0.1225 -0.2519
  498MPD2    C1 7453   1.019   0.479   9.020 -0.3074  0.9540 -0.7856
  498MPD2    C2 7454   0.982   0.467   9.153  0.3603  0.0836  0.1016
  498MPD2    C3 7455   0.884   0.372   9.191 -0.4328  0.2377 -0.4991
  498MPD2    C4 7456   0.834   0.282   9.092  0.1955  0.8262  0.2457
  498MPD2    C5 7457   0.880   0.293   8.960 -0.3094  0.4910  0.7438
  498MPD2     H 7458   1.013   0.544   9.222 -0.4459  0.2994  0.2233
  498MPD2    H1 7459   0.774   0.196   9.119  0.6538 -0.7538 -3.6765
  498MPD2    H2 7460   0.998   0.380   8.820  3.4954  0.6180  0.9693
  498MPD2    H3 7461   0.852   0.228   8.878  1.9157 -0.7059  0.9223
  498MPD2     N 7462   0.836   0.380   9.324  0.2630 -0.0528 -0.9299
  498MPD2    H5 7463   0.861   0.461   9.380 -1.8656 -0.2523  0.3052
  498MPD2    N1 7464   1.117   0.580   8.996  0.0401  0.3631  0.4328
  498MPD2    H7 7465   1.145   0.625   9.083  0.4512 -2.1783  1.6402
  499TMC3    C1 7466   1.276   0.711   8.874  0.3218  0.2178 -0.0168
  499TMC3    C2 7467   1.366   0.722   8.780 -0.2338  0.5459  0.3921
  499TMC3    C3 7468   1.483   0.799   8.797  0.6187 -0.5797  0.6168
  499TMC3    C4 7469   1.290   0.788   8.981 -0.4842  0.7811  0.2429
  499TMC3    C5 7470   1.394   0.875   8.994  0.0050  0.2674 -0.6169
  499TMC3    C6 7471   1.494   0.880   8.901  0.6434 -0.0389 -0.2711
  499TMC3     C 7472   1.169   0.611   8.870  0.1344 -0.1876  0.0063
  499TMC3     O 7473   1.156   0.554   8.764  0.4908 -0.0023  0.7277
  499TMC3     H 7474   1.369   0.654   8.696  2.2395  1.3603 -0.1868
  499TMC3    H1 7475   1.210   0.809   9.051 -0.1185 -1.1410  1.2346
  499TMC3    H2 7476   1.569   0.958   8.897  2.2245 -1.5307  0.2220
  499TMC3    C7 7477   1.390   0.988   9.087 -0.2775 -0.1942  0.1709
  499TMC3    C8 7478   1.592   0.791   8.705  0.0778 -0.1388 -0.9315
  499TMC3    O1 7479   1.478   1.069   9.072  0.4107  0.6653  0.4182
  499TMC3    O2 7480   1.563   0.744   8.593 -0.3081 -0.2164  0.2228
  500MPD2     C 7481   2.865   2.737  10.252  0.1041  0.4498 -0.8839
  500MPD2    C1 7482   2.898   2.625  10.176 -0.0570  0.5175 -0.1780
  500MPD2    C2 7483   2.803   2.528  10.153 -1.3256 -0.2166 -0.0151
  500MPD2    C3 7484   2.673   2.552  10.183 -0.5246 -0.9108  0.5273
  500MPD2    C4 7485   2.639   2.663  10.260 -0.3610  0.4647 -0.1420
  500MPD2    C5 7486   2.741   2.759  10.283  0.3184 -0.2508  0.0267
  500MPD2     H 7487   2.827   2.437  10.098  1.1329  0.2139  0.3420
  500MPD2    H1 7488   2.535   2.689  10.278 -0.0714  1.6658 -0.1882
  500MPD2    H2 7489   2.935   2.815  10.278  0.1510  0.7665 -1.9415
  500MPD2    H3 7490   2.723   2.848  10.341 -1.6113 -1.5527  1.4562
  500MPD2     N 7491   2.564   2.456  10.161 -0.2944 -0.5751 -0.1955
  500MPD2    H5 7492   2.472   2.492  10.184  0.0232 -0.8325  1.4523
  500MPD2    N1 7493   3.028   2.606  10.129  0.2238  0.4806 -0.0653
  500MPD2    H7 7494   3.059   2.516  10.094 -0.2006 -0.0554  0.9259
  501TMC3    C1 7495   3.240   2.694  10.046 -0.4733 -0.3310 -0.6575
  501TMC3    C2 7496   3.306   2.804   9.989 -0.3511 -0.0925  0.4220
  501TMC3    C3 7497   3.437   2.820  10.021 -0.2771  0.5610 -0.3585
  501TMC3    C4 7498   3.311   2.604  10.122  0.0280 -0.4334 -0.3479
  501TMC3    C5 7499   3.438   2.626  10.155 -0.4782  0.0269 -0.3843
  501TMC3    C6 7500   3.508   2.734  10.102  0.0390  0.5168  0.2103
  501TMC3     C 7501   3.110   2.720  10.098 -0.2815  0.3196  1.0577
  501TMC3     O 7502   3.085   2.842  10.107 -0.1355 -0.6733 -0.2743
  501TMC3     H 7503   3.254   2.875   9.925  1.5847 -0.1391 -1.2101
  501TMC3    H1 7504   3.254   2.532  10.180  0.0112 -0.8398 -0.8777
  501TMC3    H2 7505   3.610   2.758  10.128  0.2466 -0.1950  0.0636
  501TMC3    C7 7506   3.491   2.556  10.273  0.4932  0.2502 -1.0023
  501TMC3    C8 7507   3.472   2.955  10.049 -0.6415  0.6509 -0.0853
  501TMC3    O1 7508   3.414   2.534  10.366 -0.3692 -0.6882 -0.1548
  501TMC3    O2 7509   3.544   2.975  10.145  0.0096 -0.6921  0.2521
  502TMC3    C1 7510   2.863   1.191  14.902 -0.5353 -0.2011  0.0802
  502TMC3    C2 7511   2.832   1.321  14.935  0.3697 -0.0123 -0.0759
  502TMC3    C3 7512   2.730   1.343  15.019  0.1453  0.4817 -0.2403
  502TMC3    C4 7513   2.775   1.094  14.924  0.0998 -1.0393 -0.4464
  502TMC3    C5 7514   2.660   1.125  14.993 -0.7041  0.1764 -0.1090
  502TMC3    C6 7515   2.644   1.246  15.048 -0.0147  0.0319  0.7135
  502TMC3     C 7516   2.994   1.160  14.955  0.3650 -0.2062  0.0041
  502TMC3     O 7517   3.090   1.185  14.887  0.0332 -0.0225  0.7726
  502TMC3     H 7518   2.910   1.395  14.921 -0.6174  1.2000  0.7539
  502TMC3    H1 7519   2.792   0.995  14.884  0.4087 -0.6728 -1.2312
  502TMC3    H2 7520   2.571   1.257  15.127  0.8693  2.1616  1.2424
  502TMC3    C7 7521   2.553   1.024  15.003 -0.2425  0.6629 -0.0548
  502TMC3    C8 7522   2.727   1.473  15.089 -0.5116  0.5477  0.1347
  502TMC3    O1 7523   2.548   0.932  14.925 -0.1046  0.8097 -0.6909
  502TMC3    O2 7524   2.789   1.566  15.045 -0.6327  0.0888  0.0986
  503MPD2     C 7525   4.701   1.626  17.052  0.7426 -0.5152 -0.4835
  503MPD2    C1 7526   0.096   1.677  17.067 -0.1503  0.1278  0.0040
  503MPD2    C2 7527   0.200   1.592  17.110 -0.0037  0.1574  0.4620
  503MPD2    C3 7528   0.166   1.458  17.134 -0.2621 -0.0172 -0.5284
  503MPD2    C4 7529   0.041   1.411  17.110  0.2682 -0.2693  0.5178
  503MPD2    C5 7530   4.671   1.493  17.077  0.4382 -0.1893  0.9009
  503MPD2     H 7531   0.304   1.618  17.127  0.6632 -1.6208 -0.8524
  503MPD2    H1 7532   0.024   1.305  17.126 -0.2822 -0.4275 -1.1127
  503MPD2    H2 7533   4.619   1.697  17.047 -0.9986 -2.3066  3.0405
  503MPD2    H3 7534   4.567   1.464  17.077 -0.3441  2.6671  2.2607
  503MPD2     N 7535   0.272   1.371  17.163  0.5557 -0.3645  0.2146
  503MPD2    H5 7536   0.366   1.409  17.168  0.8153 -1.0580  0.6862
  503MPD2    N1 7537   0.134   1.813  17.045 -0.7217  0.0793  0.2069
  503MPD2    H7 7538   0.221   1.840  17.089 -0.3617 -0.4833 -0.1705
  504TMC3    C1 7539   0.397   1.173  17.219 -0.3505 -0.6789  0.1395
  504TMC3    C2 7540   0.400   1.086  17.327 -0.4578  0.9134  0.7044
  504TMC3    C3 7541   0.524   1.066  17.385  0.3398 -0.5791 -0.3638
  504TMC3    C4 7542   0.504   1.237  17.179  0.3820 -0.1182  0.0021
  504TMC3    C5 7543   0.620   1.209  17.244 -0.3323  0.0190  0.3870
  504TMC3    C6 7544   0.642   1.125  17.350 -0.4722 -0.0221 -0.1657
  504TMC3     C 7545   0.265   1.237  17.196  0.1147 -0.0855  0.3387
  504TMC3     O 7546   0.171   1.166  17.226 -0.4007  0.7296  0.4102
  504TMC3     H 7547   0.318   1.032  17.371  0.3556  0.7057  1.9543
  504TMC3    H1 7548   0.511   1.305  17.095  1.7452 -0.9541 -0.5530
  504TMC3    H2 7549   0.736   1.094  17.393 -0.8988 -0.4587  0.4482
  504TMC3    C7 7550   0.736   1.282  17.188  0.3049 -1.0162  0.0596
  504TMC3    C8 7551   0.528   0.953  17.480 -0.0112 -0.4058  0.2605
  504TMC3    O1 7552   0.737   1.288  17.070  0.1062 -0.4968 -0.0804
  504TMC3    O2 7553   0.442   0.867  17.473 -0.4284 -0.2443 -0.4834
  505MPD2     C 7554   0.270   0.848  10.487 -0.0645 -0.0484 -0.0999
  505MPD2    C1 7555   0.356   0.783  10.574 -0.1020 -0.5091  0.1519
  505MPD2    C2 7556   0.489   0.823  10.585  0.3052 -0.7237 -0.0248
  505MPD2    C3 7557   0.550   0.917  10.507  0.5823 -0.9024 -0.0417
  505MPD2    C4 7558   0.463   0.984  10.422  0.2232 -0.2163 -0.3653
  505MPD2    C5 7559   0.327   0.949  10.412 -0.3692  0.0457 -0.2520
  505MPD2     H 7560   0.555   0.760  10.643  0.0795 -0.1323  0.8704
  505MPD2    H1 7561   0.497   1.062  10.356 -3.0123  0.7295 -0.8994
  505MPD2    H2 7562   0.168   0.817  10.465 -0.0814  0.6338 -1.0317
  505MPD2    H3 7563   0.266   0.995  10.335  2.2149  3.6866 -0.1584
  505MPD2     N 7564   0.685   0.953  10.503 -0.3586 -0.1718  0.4799
  505MPD2    H5 7565   0.716   1.020  10.434  0.7117  0.2657  1.4085
  505MPD2    N1 7566   0.297   0.670  10.635  0.1621  0.1928  0.5884
  505MPD2    H7 7567   0.196   0.664  10.626  0.4958 -1.8033 -1.8533
  506TMC3    C1 7568   0.301   0.450  10.721  0.2951  0.3599 -0.6152
  506TMC3    C2 7569   0.275   0.381  10.600  0.7190 -0.3447 -0.6175
  506TMC3    C3 7570   0.281   0.245  10.613  0.4012 -0.2185 -0.2635
  506TMC3    C4 7571   0.363   0.393  10.827  0.5539  0.2644  1.0614
  506TMC3    C5 7572   0.385   0.259  10.822 -0.2860 -0.5360  0.0698
  506TMC3    C6 7573   0.338   0.184  10.726  0.1007 -0.7004 -0.1874
  506TMC3     C 7574   0.366   0.581  10.714  0.5831 -0.7553 -0.2707
  506TMC3     O 7575   0.485   0.580  10.741 -0.1311  0.1153 -0.1896
  506TMC3     H 7576   0.231   0.429  10.513  1.5178  2.4203  0.5370
  506TMC3    H1 7577   0.376   0.444  10.922  0.7332 -1.1079  1.7730
  506TMC3    H2 7578   0.368   0.079  10.729  0.9915 -0.4519 -0.3055
  506TMC3    C7 7579   0.521   0.220  10.849  0.5130  0.0284 -0.4661
  506TMC3    C8 7580   0.282   0.169  10.490 -0.2353 -0.0472  0.5317
  506TMC3    O1 7581   0.553   0.101  10.856  0.4371  0.3016  0.1384
  506TMC3    O2 7582   0.285   0.050  10.510  0.2733  0.7533  0.1230
  507TMC3    C1 7583   1.638   1.717  15.046 -0.2261 -0.2395  0.7798
  507TMC3    C2 7584   1.694   1.652  14.942 -0.4365  0.0735 -0.3260
  507TMC3    C3 7585   1.700   1.721  14.823  0.2323 -0.5592 -0.5409
  507TMC3    C4 7586   1.587   1.841  15.039  0.1426  0.4838  0.1456
  507TMC3    C5 7587   1.590   1.907  14.922 -0.1579  0.0863  0.5396
  507TMC3    C6 7588   1.655   1.848  14.813  0.0042 -0.7336 -0.8819
  507TMC3     C 7589   1.594   1.640  15.163  0.2076  0.0815  0.9535
  507TMC3     O 7590   1.595   1.698  15.270 -0.0487  0.0909  0.3010
  507TMC3     H 7591   1.714   1.546  14.933  1.9112  0.3204  1.9071
  507TMC3    H1 7592   1.538   1.893  15.120 -0.9997 -0.0586 -0.1930
  507TMC3    H2 7593   1.651   1.902  14.719  0.4916  2.4727  0.9197
  507TMC3    C7 7594   1.461   1.932  14.864 -0.3594 -0.3340 -0.5626
  507TMC3    C8 7595   1.676   1.634  14.705 -0.3852  0.7982  0.2735
  507TMC3    O1 7596   1.414   1.850  14.787  0.1263 -0.4185 -0.5076
  507TMC3    O2 7597   1.753   1.551  14.672 -1.1961  0.2823 -0.2692
  508MPD2     C 7598   2.174   3.669  16.027 -0.4713  0.8199 -0.0392
  508MPD2    C1 7599   2.253   3.762  16.078 -0.2413 -0.5853 -0.2203
  508MPD2    C2 7600   2.284   3.875  16.008  0.6031  0.6588 -0.0094
  508MPD2    C3 7601   2.236   3.888  15.876 -0.0879  0.2031  0.5471
  508MPD2    C4 7602   2.158   3.790  15.820  0.0114  0.1141  0.1967
  508MPD2    C5 7603   2.129   3.685  15.896 -0.1712 -0.9773 -0.2360
  508MPD2     H 7604   2.362   3.937  16.052  0.6148 -0.4122  1.4983
  508MPD2    H1 7605   2.098   3.798  15.731  0.3566 -1.7794 -0.1877
  508MPD2    H2 7606   2.142   3.578  16.078 -0.1136  1.0569  0.6088
  508MPD2    H3 7607   2.058   3.613  15.856 -0.5247 -0.3504 -0.7448
  508MPD2     N 7608   2.260   4.009  15.809 -0.4228  0.3162 -0.1635
  508MPD2    H5 7609   2.329   4.065  15.857  0.0673 -1.8267  1.6249
  508MPD2    N1 7610   2.314   3.744  16.204 -0.4881  0.4436  0.2071
  508MPD2    H7 7611   2.365   3.823  16.241 -0.1401  1.0186 -1.5144
  509TMC3    C1 7612   2.249   4.374  15.548  0.2539 -0.0098  0.2491
  509TMC3    C2 7613   2.335   4.443  15.632 -0.0485 -0.6849  0.3224
  509TMC3    C3 7614   2.403   4.363  15.720  0.4004 -0.2184  0.1087
  509TMC3    C4 7615   2.226   4.239  15.544 -0.4281 -0.8284  0.3205
  509TMC3    C5 7616   2.296   4.169  15.639  0.7094 -0.5512 -0.0879
  509TMC3    C6 7617   2.394   4.226  15.717 -0.4494  0.1504  0.0859
  509TMC3     C 7618   2.164   4.452  15.465  0.0276 -0.0525  0.1461
  509TMC3     O 7619   2.152   4.410  15.353  0.1234  0.5103  0.0268
  509TMC3     H 7620   2.354   4.550  15.628  2.8020 -1.2590 -1.7022
  509TMC3    H1 7621   2.135   4.203  15.498 -1.7525 -0.0949  2.3592
  509TMC3    H2 7622   2.442   4.156  15.784 -2.5605 -0.0417  1.4112
  509TMC3    C7 7623   2.225   4.048  15.681 -0.0145  0.9197  0.5407
  509TMC3    C8 7624   2.494   4.421  15.821  0.5440 -0.2525 -0.4525
  509TMC3    O1 7625   2.139   4.000  15.603  0.5733 -0.4918  0.3690
  509TMC3    O2 7626   2.567   4.343  15.885 -0.4237 -0.4300  0.1328
  510MPD2     C 7627   4.283   1.020  14.575 -0.1678 -0.8725  0.0714
  510MPD2    C1 7628   4.342   0.909  14.622  0.1119 -0.3182  0.7151
  510MPD2    C2 7629   4.458   0.866  14.558 -0.1583  0.0894  0.6284
  510MPD2    C3 7630   4.507   0.933  14.445 -0.1823 -0.0610  0.4521
  510MPD2    C4 7631   4.451   1.049  14.402 -0.1857 -0.4433  0.1685
  510MPD2    C5 7632   4.343   1.095  14.480 -0.2080  0.2993 -0.1177
  510MPD2     H 7633   4.500   0.772  14.591  2.3968  0.2383 -2.1514
  510MPD2    H1 7634   4.493   1.122  14.334 -1.2128  0.7757  0.8449
  510MPD2    H2 7635   4.202   1.066  14.631 -0.5887  0.7100 -1.8533
  510MPD2    H3 7636   4.304   1.196  14.470  1.2237  0.6667 -2.0943
  510MPD2     N 7637   4.625   0.880  14.384 -0.4568  0.6240  0.1926
  510MPD2    H5 7638   4.678   0.814  14.439 -2.1678  0.6766  1.9032
  510MPD2    N1 7639   4.301   0.839  14.737  0.3482  0.9261  0.7812
  510MPD2    H7 7640   4.363   0.764  14.766  0.8453  0.4867 -1.4149
  511TMC3    C1 7641   4.171   0.750  14.900 -0.3843  0.1049  0.6798
  511TMC3    C2 7642   4.109   0.778  15.016  0.6068  0.5749  0.1344
  511TMC3    C3 7643   4.124   0.687  15.118  0.5036  1.1160  0.7425
  511TMC3    C4 7644   4.250   0.641  14.877 -0.4330  0.8910 -0.5202
  511TMC3    C5 7645   4.264   0.556  14.983 -0.1184 -0.0087  0.7602
  511TMC3    C6 7646   4.207   0.578  15.105 -0.0626 -0.0490 -0.0373
  511TMC3     C 7647   4.182   0.850  14.806 -0.1435  0.1484  0.1906
  511TMC3     O 7648   4.105   0.946  14.806 -0.1798  0.2832  0.1108
  511TMC3     H 7649   4.071   0.874  15.047  0.0055  0.3338  0.1456
  511TMC3    H1 7650   4.288   0.611  14.780 -0.9075  0.7789 -0.6710
  511TMC3    H2 7651   4.236   0.515  15.188 -1.4253  0.0869  0.5425
  511TMC3    C7 7652   4.341   0.436  14.957 -0.5040 -0.0115  0.1707
  511TMC3    C8 7653   4.081   0.728  15.253  0.4580  0.0273 -0.7801
  511TMC3    O1 7654   4.434   0.452  14.883 -0.0440 -0.2442  0.1209
  511TMC3    O2 7655   4.076   0.848  15.278  0.3460  0.6206  0.5493
  512TMC3    C1 7656   3.368   0.278  13.304  0.2803 -0.0025  1.0311
  512TMC3    C2 7657   3.496   0.241  13.326  0.0116 -0.0330 -1.0047
  512TMC3    C3 7658   3.557   0.161  13.233  0.0611 -0.2276  0.2337
  512TMC3    C4 7659   3.292   0.238  13.195 -0.2892  0.0313 -0.5377
  512TMC3    C5 7660   3.347   0.143  13.117  0.1486  0.5135  0.5209
  512TMC3    C6 7661   3.480   0.119  13.129 -0.4340 -0.9301  1.0359
  512TMC3     C 7662   3.298   0.352  13.411  0.3827 -0.1830  0.0064
  512TMC3     O 7663   3.360   0.437  13.476  0.1900  0.2731 -0.0171
  512TMC3     H 7664   3.532   0.253  13.428 -2.0930 -2.6912  0.0545
  512TMC3    H1 7665   3.187   0.262  13.187 -0.3528  0.0981  0.4919
  512TMC3    H2 7666   3.531   0.043  13.071 -0.8062 -1.2609  1.1408
  512TMC3    C7 7667   3.264   0.099  13.009 -0.2212  0.1919  0.5164
  512TMC3    C8 7668   3.702   0.137  13.241 -0.3732 -0.2281  0.5161
  512TMC3    O1 7669   3.145   0.129  13.001 -0.6342 -0.0686 -0.3102
  512TMC3    O2 7670   3.740   0.039  13.183  0.1458  0.5167  0.1400
  513MPD2     C 7671   0.302   4.567  13.307  0.0205  0.0402 -0.4676
  513MPD2    C1 7672   0.396   4.606  13.217 -1.4414  0.0737  0.2649
  513MPD2    C2 7673   0.523   4.663  13.260  0.3064 -1.1926  0.1025
  513MPD2    C3 7674   0.548   4.675  13.396 -0.6665 -0.1045 -0.0588
  513MPD2    C4 7675   0.456   4.628  13.485  0.3489 -0.3165 -0.2945
  513MPD2    C5 7676   0.332   4.577  13.441  0.3907  0.2536  0.8248
  513MPD2     H 7677   0.596   4.706  13.193 -1.1882  2.7057  0.9210
  513MPD2    H1 7678   0.478   4.642  13.591  1.0654 -2.8159 -0.1164
  513MPD2    H2 7679   0.209   4.524  13.271 -0.2932 -0.6502  1.1836
  513MPD2    H3 7680   0.259   4.552  13.517 -2.6825  1.1323 -1.8222
  513MPD2     N 7681   0.665   0.010  13.435  0.3818 -0.3408  0.2767
  513MPD2    H5 7682   0.729   0.048  13.365 -1.4965 -2.3882 -2.5590
  513MPD2    N1 7683   0.362   4.592  13.078 -0.5501 -0.1729  0.3668
  513MPD2    H7 7684   0.276   4.539  13.065 -1.0134  0.8471 -0.6478
  514TMC3    C1 7685   0.429   4.509  12.869  0.2780 -0.2178 -0.0882
  514TMC3    C2 7686   0.375   4.557  12.754 -0.3641 -0.2397  0.6459
  514TMC3    C3 7687   0.430   4.516  12.634  0.2607 -0.8473  1.3539
  514TMC3    C4 7688   0.531   4.417  12.866 -0.0585  0.4831 -0.2734
  514TMC3    C5 7689   0.594   4.391  12.749 -0.4721 -0.5088 -0.4683
  514TMC3    C6 7690   0.539   4.435  12.633  0.6901 -0.1839  0.0845
  514TMC3     C 7691   0.450   4.597  12.977 -0.7582 -0.7000 -0.5417
  514TMC3     O 7692   0.568   4.621  12.977 -0.0363  0.2993  0.0336
  514TMC3     H 7693   0.284   4.617  12.756 -0.6632 -0.6113 -1.8565
  514TMC3    H1 7694   0.567   4.391  12.965  0.3375 -2.0210 -1.0656
  514TMC3    H2 7695   0.590   4.401  12.544  0.7686  0.3317 -0.0711
  514TMC3    C7 7696   0.747   4.393  12.753  0.6504 -0.7546  0.5020
  514TMC3    C8 7697   0.397   4.591  12.511  0.2517  0.2424 -0.8405
  514TMC3    O1 7698   0.820   4.346  12.665  0.2000  0.3869 -0.4037
  514TMC3    O2 7699   0.296   4.658  12.519  0.4343 -0.7331 -0.6108
  515MPD2     C 7700   3.698   1.620  14.308  0.2335 -0.2324  0.8742
  515MPD2    C1 7701   3.622   1.627  14.423  0.4467 -0.8019  0.8379
  515MPD2    C2 7702   3.645   1.711  14.530  0.1438 -0.2802  0.3385
  515MPD2    C3 7703   3.759   1.790  14.519  0.3591  0.2001  0.3005
  515MPD2    C4 7704   3.841   1.779  14.407  0.4718  0.4289 -0.1208
  515MPD2    C5 7705   3.807   1.700  14.299 -0.3839 -0.1703 -0.3221
  515MPD2     H 7706   3.570   1.714  14.608 -0.5465 -0.1927 -0.3227
  515MPD2    H1 7707   3.938   1.824  14.396 -0.5476  2.8149  0.7488
  515MPD2    H2 7708   3.669   1.560  14.222 -0.7392 -1.4711  2.0741
  515MPD2    H3 7709   3.879   1.682  14.219  1.0985  1.8660  0.5637
  515MPD2     N 7710   3.816   1.863  14.625  0.0537 -0.4462 -0.9421
  515MPD2    H5 7711   3.908   1.899  14.603  1.3497 -2.3194  1.4327
  515MPD2    N1 7712   3.499   1.555  14.430  0.4356  0.2869  0.3315
  515MPD2    H7 7713   3.431   1.567  14.505 -0.3658 -1.0951 -0.1670
  516TMC3    C1 7714   3.354   1.390  14.381  0.5132  0.6710 -0.8470
  516TMC3    C2 7715   3.244   1.476  14.385 -0.0053  0.9173  0.1503
  516TMC3    C3 7716   3.121   1.416  14.376 -0.7124  0.2534  0.1437
  516TMC3    C4 7717   3.343   1.255  14.385 -0.2957  0.1001 -0.0805
  516TMC3    C5 7718   3.221   1.199  14.377  0.4354  0.0158 -0.0584
  516TMC3    C6 7719   3.109   1.277  14.365  0.1075 -0.6008 -0.3593
  516TMC3     C 7720   3.485   1.440  14.363  0.0507 -0.6105  0.1187
  516TMC3     O 7721   3.570   1.369  14.321  0.6800 -0.4119 -0.1275
  516TMC3     H 7722   3.249   1.584  14.378  0.0372  0.7302 -2.6007
  516TMC3    H1 7723   3.429   1.198  14.420 -0.5639  0.9926  2.0508
  516TMC3    H2 7724   3.016   1.225  14.347 -0.5479  0.1263  0.9385
  516TMC3    C7 7725   3.205   1.079  14.468 -0.0171  0.1058  0.7395
  516TMC3    C8 7726   3.017   1.497  14.314  0.4160 -0.1804  0.1240
  516TMC3    O1 7727   3.286   1.058  14.556 -0.0356 -0.0607  0.2957
  516TMC3    O2 7728   2.938   1.443  14.235  0.1132  0.0588 -0.1614
  517MPD2     C 7729   3.206   3.192   0.041  0.4381  0.4229 -0.6019
  517MPD2    C1 7730   3.338   3.174   0.050  0.3874  0.4503  0.6276
  517MPD2    C2 7731   3.417   3.279   0.101 -0.3610  0.0964  0.1190
  517MPD2    C3 7732   3.356   3.395   0.146 -0.2789 -0.3189  0.0094
  517MPD2    C4 7733   3.223   3.408   0.131 -0.1356  0.6220  0.1923
  517MPD2    C5 7734   3.151   3.314   0.077 -0.0076  0.1230 -0.1753
  517MPD2     H 7735   3.522   3.266   0.124 -0.4168 -1.0749 -0.2883
  517MPD2    H1 7736   3.184   3.506   0.154 -1.1515  0.2925 -0.1518
  517MPD2    H2 7737   3.139   3.115   0.005  2.5975 -1.2610 -0.9903
  517MPD2    H3 7738   3.048   3.335   0.053  0.5065  0.4378 -2.1737
  517MPD2     N 7739   3.420   3.514   0.196 -0.3389 -0.1598 -0.1260
  517MPD2    H5 7740   3.360   3.590   0.225 -2.0665 -1.6604  0.1511
  517MPD2    N1 7741   3.400   3.051   0.027  0.3153  0.1750 -0.8184
  517MPD2    H7 7742   3.502   3.054   0.033  0.4706 -0.5542 -2.9123
  518TMC3    C1 7743   3.430   2.822  17.696  0.7662  0.3252  0.7178
  518TMC3    C2 7744   3.379   2.724  17.607  0.3060  0.6861 -0.5151
  518TMC3    C3 7745   3.470   2.621  17.588 -0.4154  0.0305  0.5239
  518TMC3    C4 7746   3.549   2.821   0.011  0.1533 -1.3369  0.3077
  518TMC3    C5 7747   3.632   2.714  17.736  0.4243 -0.0745 -0.3401
  518TMC3    C6 7748   3.596   2.614  17.649 -0.0610  0.1092  0.2950
  518TMC3     C 7749   3.340   2.934  17.727 -0.0485 -0.4618  0.6514
  518TMC3     O 7750   3.227   2.922  17.691 -0.2121 -0.1340 -0.7819
  518TMC3     H 7751   3.282   2.728  17.559 -0.2392 -1.9480  0.3478
  518TMC3    H1 7752   3.565   2.884   0.098  2.8886 -1.3143 -0.2217
  518TMC3    H2 7753   3.660   2.532  17.622 -0.5387  0.3996 -1.7192
  518TMC3    C7 7754   3.752   2.710   0.071 -0.4856 -0.5393 -0.0665
  518TMC3    C8 7755   3.438   2.503  17.498  0.5092  1.0151 -0.0862
  518TMC3    O1 7756   3.789   2.809   0.133 -0.3335  0.4054 -0.6170
  518TMC3    O2 7757   3.523   2.412  17.488 -0.4490 -0.6410  0.1328
  519MPD2     C 7758   0.282   1.585  14.183  0.3490 -0.7591  0.1346
  519MPD2    C1 7759   0.286   1.669  14.073  0.6888  0.2693  0.0031
  519MPD2    C2 7760   0.406   1.696  14.006  0.8648  0.1307  0.0564
  519MPD2    C3 7761   0.517   1.616  14.035 -0.8974 -0.1641  0.2076
  519MPD2    C4 7762   0.510   1.514  14.133 -0.2127 -0.2378 -0.3290
  519MPD2    C5 7763   0.399   1.514  14.213  0.0475 -0.1658 -0.4472
  519MPD2     H 7764   0.404   1.768  13.925 -1.1855  2.6250  2.3480
  519MPD2    H1 7765   0.602   1.464  14.158 -1.3902 -2.5147 -0.5195
  519MPD2    H2 7766   0.197   1.585  14.250 -0.6828 -1.4991 -1.1762
  519MPD2    H3 7767   0.401   1.444  14.296 -0.5404 -0.8658 -1.0303
  519MPD2     N 7768   0.639   1.626  13.962 -0.1470 -0.0152 -0.4277
  519MPD2    H5 7769   0.700   1.545  13.969  0.1122  0.1450 -0.8219
  519MPD2    N1 7770   0.172   1.733  14.024  0.0902 -0.4092 -0.6957
  519MPD2    H7 7771   0.194   1.801  13.952  1.3644 -1.0356 -0.9114
  520TMC3    C1 7772   0.768   1.704  13.779 -0.5201  0.2076 -0.2030
  520TMC3    C2 7773   0.746   1.753  13.654 -0.6700 -0.8517  0.3764
  520TMC3    C3 7774   0.816   1.701  13.549 -0.0510 -0.5394 -0.5213
  520TMC3    C4 7775   0.858   1.602  13.805  0.3664  0.2166 -0.5615
  520TMC3    C5 7776   0.919   1.546  13.694 -0.6497 -0.0983 -0.5434
  520TMC3    C6 7777   0.905   1.600  13.569  0.2507 -0.5191  0.3151
  520TMC3     C 7778   0.654   1.725  13.866  0.8326  0.3093 -0.4140
  520TMC3     O 7779   0.592   1.826  13.844  0.0434  0.3468  0.2576
  520TMC3     H 7780   0.666   1.825  13.636  1.2005  1.2167  0.3187
  520TMC3    H1 7781   0.868   1.564  13.907 -0.3912  1.6664  0.0572
  520TMC3    H2 7782   0.967   1.564  13.487  0.2081  0.4751 -0.1651
  520TMC3    C7 7783   1.021   1.448  13.721  0.7609 -0.5211  0.7082
  520TMC3    C8 7784   0.739   1.692  13.426  0.4416  0.2758  0.7850
  520TMC3    O1 7785   1.075   1.448  13.832 -0.0479 -0.0688 -0.0101
  520TMC3    O2 7786   0.800   1.678  13.320  0.2969  0.4449  0.7170
  521MPD2     C 7787   1.259   4.480  17.512  0.1410 -0.5009 -0.5612
  521MPD2    C1 7788   1.225   4.412  17.399  0.0494  0.3783 -0.3404
  521MPD2    C2 7789   1.317   4.405  17.295 -0.1345 -0.1640 -0.2423
  521MPD2    C3 7790   1.446   4.468  17.310  0.1306  0.1785  0.6108
  521MPD2    C4 7791   1.471   4.536  17.424  0.6453 -0.2001 -0.9303
  521MPD2    C5 7792   1.380   4.542  17.525 -0.1182  0.4710  0.2620
  521MPD2     H 7793   1.303   4.354  17.200 -1.8304 -1.9002  0.9556
  521MPD2    H1 7794   1.569   4.575  17.449  1.3981 -0.9222 -2.7385
  521MPD2    H2 7795   1.193   4.481  17.598 -1.4424 -0.1045 -1.7883
  521MPD2    H3 7796   1.397   4.605  17.611 -1.8090 -0.0591  0.9881
  521MPD2     N 7797   1.541   4.443  17.215 -0.4494  0.3531 -0.4050
  521MPD2    H5 7798   1.512   4.396  17.130  0.5647  0.4711 -0.8196
  521MPD2    N1 7799   1.099   4.352  17.395  0.5647 -0.4859 -0.6041
  521MPD2    H7 7800   1.046   4.366  17.481 -1.1671 -1.5274 -1.4956
  522TMC3    C1 7801   1.763   4.400  17.134  0.3521 -0.1322  0.2392
  522TMC3    C2 7802   1.885   4.356  17.187  0.0892 -0.5723 -0.1328
  522TMC3    C3 7803   1.974   4.308  17.096  0.0661 -0.3837  0.3425
  522TMC3    C4 7804   1.725   4.400  17.001  0.1862 -0.2815  0.3435
  522TMC3    C5 7805   1.825   4.346  16.928 -0.0182 -0.0787  0.5657
  522TMC3    C6 7806   1.949   4.308  16.965 -0.2038 -0.0689  0.4707
  522TMC3     C 7807   1.678   4.463  17.232 -0.2276  0.1419  0.2565
  522TMC3     O 7808   1.739   4.525  17.325  0.3014  0.3733  0.2927
  522TMC3     H 7809   1.888   4.334  17.293 -0.1130  0.7500  0.1466
  522TMC3    H1 7810   1.631   4.442  16.965 -0.6879 -3.6204 -1.2142
  522TMC3    H2 7811   2.026   4.284  16.891 -0.0977 -0.9125  0.8548
  522TMC3    C7 7812   1.789   4.318  16.785  0.4288  0.8850 -0.2395
  522TMC3    C8 7813   2.073   4.219  17.151  0.2964 -0.8279  0.3118
  522TMC3    O1 7814   1.886   4.268  16.728  0.3114 -0.8768 -0.4392
  522TMC3    O2 7815   2.093   4.218  17.270  0.9820  0.4051 -0.3894
  523MPD2     C 7816   3.730   4.469  10.021  0.2968 -0.5083  0.1253
  523MPD2    C1 7817   3.639   4.423   9.920 -0.1709  0.2592  0.3671
  523MPD2    C2 7818   3.568   4.511   9.842 -0.4142  0.0249 -0.1555
  523MPD2    C3 7819   3.600   4.649   9.856 -0.7407  0.4064  0.1244
  523MPD2    C4 7820   3.689   4.685   9.952 -0.5213 -0.3718 -0.6396
  523MPD2    C5 7821   3.750   4.601  10.038 -0.0311  0.6020 -0.6475
  523MPD2     H 7822   3.506   4.479   9.760  0.0814 -1.4112  0.0330
  523MPD2    H1 7823   3.707   0.054   9.969  1.8384 -1.0224  0.9666
  523MPD2    H2 7824   3.787   4.403  10.085  0.8383 -1.2944 -1.1830
  523MPD2    H3 7825   3.818   4.638  10.114  1.0874 -0.7823 -0.9712
  523MPD2     N 7826   3.540   0.005   9.769  0.3100  0.4130  0.3297
  523MPD2    H5 7827   3.482   4.708   9.692  0.4875  0.5691  0.1305
  523MPD2    N1 7828   3.637   4.284   9.920 -0.0956 -0.3540  0.1583
  523MPD2    H7 7829   3.686   4.238   9.997 -0.3830  0.1709  0.6518
  524TMC3    C1 7830   3.487   0.210   9.658 -0.2788  0.8022  0.3914
  524TMC3    C2 7831   3.467   0.141   9.545 -0.2581 -0.4815  0.7032
  524TMC3    C3 7832   3.419   0.212   9.438 -0.2434 -0.1730 -0.1253
  524TMC3    C4 7833   3.487   0.348   9.667 -0.1811 -0.1262 -0.0711
  524TMC3    C5 7834   3.444   0.419   9.562 -0.0744  0.2489  0.3308
  524TMC3    C6 7835   3.411   0.352   9.446 -0.1843 -0.9086  0.1072
  524TMC3     C 7836   3.542   0.139   9.778  0.4249 -0.4492  0.0472
  524TMC3     O 7837   3.604   0.209   9.856 -0.4918 -0.2319 -0.0762
  524TMC3     H 7838   3.446   0.035   9.549 -1.6344 -0.2527 -0.2981
  524TMC3    H1 7839   3.506   0.407   9.757  3.8331 -0.1501 -0.8997
  524TMC3    H2 7840   3.356   0.395   9.363  2.5377  0.6355 -0.8828
  524TMC3    C7 7841   3.412   0.556   9.573 -0.1070 -0.7108 -0.2923
  524TMC3    C8 7842   3.337   0.145   9.346  0.0443  0.2430  0.4802
  524TMC3    O1 7843   3.449   0.618   9.675 -0.1889 -0.5235 -0.2273
  524TMC3    O2 7844   3.252   0.212   9.282  0.1170  0.0153 -0.7057
  525MPD2     C 7845   1.870   1.126  14.436  0.6119  0.0962  0.2484
  525MPD2    C1 7846   1.987   1.068  14.482 -0.8364 -0.6201  0.9873
  525MPD2    C2 7847   2.108   1.129  14.457 -0.4645 -0.2443 -0.4004
  525MPD2    C3 7848   2.112   1.245  14.378  0.1143  0.1584  0.5412
  525MPD2    C4 7849   1.996   1.300  14.338 -0.7436  0.1166 -0.1365
  525MPD2    C5 7850   1.873   1.238  14.363 -0.3343 -0.1951  0.4778
  525MPD2     H 7851   2.201   1.095  14.501 -1.1460 -1.3093  0.2284
  525MPD2    H1 7852   1.993   1.391  14.279  2.0446 -0.4105 -1.0820
  525MPD2    H2 7853   1.771   1.093  14.464  0.7888  0.4984  1.3226
  525MPD2    H3 7854   1.782   1.291  14.336  0.2907  0.2280 -0.8244
  525MPD2     N 7855   2.233   1.296  14.336 -0.2930 -0.4994  0.2271
  525MPD2    H5 7856   2.236   1.396  14.323 -1.4032 -0.9702 -3.6505
  525MPD2    N1 7857   1.981   0.951  14.568 -0.2393  0.2690  0.4215
  525MPD2    H7 7858   2.069   0.914  14.604 -0.3981  0.6785  1.2178
  526TMC3    C1 7859   1.884   0.788  14.703  0.3785  0.0956  0.6143
  526TMC3    C2 7860   1.779   0.751  14.783 -0.1222 -0.4027 -0.4593
  526TMC3    C3 7861   1.803   0.679  14.896 -0.1594  0.3784  0.0860
  526TMC3    C4 7862   2.009   0.757  14.735 -0.0184  0.2187  0.4525
  526TMC3    C5 7863   2.030   0.672  14.844  0.2837  0.1702 -0.7780
  526TMC3    C6 7864   1.924   0.635  14.922 -0.4476  0.4954 -0.0791
  526TMC3     C 7865   1.866   0.877  14.592 -0.5972 -0.1497 -0.2170
  526TMC3     O 7866   1.756   0.881  14.533  0.0315  0.3042 -0.4588
  526TMC3     H 7867   1.681   0.786  14.754 -0.6720 -2.5046 -1.1412
  526TMC3    H1 7868   2.096   0.782  14.675 -0.4101  2.1169  0.6707
  526TMC3    H2 7869   1.947   0.572  15.007 -0.0556  0.2548 -0.3650
  526TMC3    C7 7870   2.154   0.605  14.867  0.1480 -0.2228  0.5105
  526TMC3    C8 7871   1.714   0.686  15.016  0.4218  0.0781  0.2359
  526TMC3    O1 7872   2.168   0.532  14.966 -0.4653  0.2862  0.2322
  526TMC3    O2 7873   1.747   0.623  15.115 -0.8097 -0.4087  0.2612
  527MPD2     C 7874   3.924   3.560   1.207 -0.0145 -0.2573  0.0889
  527MPD2    C1 7875   3.949   3.626   1.086  0.5759 -0.5214  0.7017
  527MPD2    C2 7876   4.063   3.589   1.019 -0.4176  0.7118  0.2496
  527MPD2    C3 7877   4.147   3.490   1.067 -0.3818  0.3554 -0.2167
  527MPD2    C4 7878   4.111   3.411   1.171 -0.4589 -0.7037  0.2445
  527MPD2    C5 7879   4.012   3.459   1.251 -0.3971 -0.5251 -0.7071
  527MPD2     H 7880   4.094   3.647   0.933 -0.5793 -1.3526 -1.2159
  527MPD2    H1 7881   4.189   3.352   1.217  0.2779  0.6924  0.7990
  527MPD2    H2 7882   3.842   3.591   1.270 -1.3300 -0.6540 -1.4368
  527MPD2    H3 7883   4.002   3.422   1.353  2.7157  0.6956  0.0429
  527MPD2     N 7884   4.268   3.472   0.997 -0.6753 -0.4197 -0.7855
  527MPD2    H5 7885   4.277   3.527   0.912 -0.2659  0.4314 -0.1931
  527MPD2    N1 7886   3.873   3.733   1.030  0.3202  0.4094 -0.3393
  527MPD2    H7 7887   3.895   3.767   0.938 -0.3317 -1.3037 -1.1327
  528TMC3    C1 7888   3.741   3.934   1.033 -0.1535  0.7488  0.0784
  528TMC3    C2 7889   3.854   3.999   0.991  0.2782  0.2100 -0.2152
  528TMC3    C3 7890   3.883   4.121   1.037 -0.2706  0.2190  1.1073
  528TMC3    C4 7891   3.650   4.001   1.106 -0.3532  0.2841  0.0802
  528TMC3    C5 7892   3.676   4.137   1.140  0.4511 -0.6179  0.3375
  528TMC3    C6 7893   3.795   4.194   1.114 -0.5517  0.4830 -0.3533
  528TMC3     C 7894   3.770   3.801   1.093 -0.6274  0.2434 -0.2740
  528TMC3     O 7895   3.702   3.775   1.189  1.0270 -0.2961  0.0737
  528TMC3     H 7896   3.940   3.947   0.950  0.8487  1.3933 -0.5182
  528TMC3    H1 7897   3.558   3.949   1.128  0.3136 -0.3121  1.4432
  528TMC3    H2 7898   3.825   4.291   1.153  0.3360 -0.2207  0.6963
  528TMC3    C7 7899   3.571   4.215   1.208 -0.6378  0.2658  1.0090
  528TMC3    C8 7900   4.022   4.133   1.078  0.9108 -0.3303 -0.1397
  528TMC3    O1 7901   3.592   4.334   1.229  0.0364  0.3608 -0.4651
  528TMC3    O2 7902   4.105   4.068   1.014  0.7644 -0.4386 -0.3995
  529MPD2     C 7903   2.207   1.992   0.714 -0.8712  0.6323 -0.6663
  529MPD2    C1 7904   2.267   2.000   0.588 -0.2511  0.1430  0.0663
  529MPD2    C2 7905   2.240   2.109   0.512 -0.0091 -0.6808  0.0631
  529MPD2    C3 7906   2.170   2.217   0.561  0.2439 -0.1459 -0.2887
  529MPD2    C4 7907   2.099   2.203   0.679  0.4480  0.4332  0.3995
  529MPD2    C5 7908   2.120   2.093   0.752  0.2872 -0.7003 -0.0255
  529MPD2     H 7909   2.284   2.113   0.413 -0.0210 -3.5810 -0.0492
  529MPD2    H1 7910   2.033   2.281   0.717  0.5231  0.8693 -0.3519
  529MPD2    H2 7911   2.233   1.910   0.779 -0.1009 -0.1648 -1.9830
  529MPD2    H3 7912   2.071   2.081   0.849  0.4495  0.2221  0.1699
  529MPD2     N 7913   2.154   2.333   0.487  0.2019 -0.2756  0.3040
  529MPD2    H5 7914   2.080   2.397   0.514  2.0725  2.2198 -0.4778
  529MPD2    N1 7915   2.349   1.902   0.536  0.4890 -0.1428  0.3025
  529MPD2    H7 7916   2.396   1.928   0.449  2.4479  0.1884  1.4711
  530TMC3    C1 7917   2.500   1.729   0.545 -0.0440 -0.2083 -0.3365
  530TMC3    C2 7918   2.527   1.616   0.618  0.7721 -0.2405  0.0205
  530TMC3    C3 7919   2.651   1.596   0.661  0.1978 -0.4477 -0.2039
  530TMC3    C4 7920   2.598   1.818   0.510  0.4584 -0.5979 -0.0717
  530TMC3    C5 7921   2.726   1.799   0.565 -1.0103  0.1509  0.7038
  530TMC3    C6 7922   2.754   1.682   0.630  0.0962 -0.3669 -0.3863
  530TMC3     C 7923   2.384   1.793   0.611  0.4875  0.0461  0.0423
  530TMC3     O 7924   2.318   1.732   0.695 -0.0444  0.1261  0.1039
  530TMC3     H 7925   2.446   1.556   0.659  0.1268  0.2130 -0.5798
  530TMC3    H1 7926   2.584   1.906   0.449 -1.2124 -0.1876  0.9143
  530TMC3    H2 7927   2.856   1.655   0.653  0.0789  1.2135  1.5376
  530TMC3    C7 7928   2.801   1.908   0.619 -0.1829 -0.4122 -0.6245
  530TMC3    C8 7929   2.680   1.483   0.740  0.3538 -0.2999  0.3332
  530TMC3    O1 7930   2.857   1.883   0.724 -0.4503 -0.3576  0.1747
  530TMC3    O2 7931   2.588   1.460   0.817 -0.2347 -0.3897 -0.3924
  531MPD2     C 7932   1.145   4.558  13.049 -0.0119 -0.0763 -0.6786
  531MPD2    C1 7933   1.025   4.607  13.095 -0.1529  0.0008 -0.4074
  531MPD2    C2 7934   0.907   4.602  13.019 -0.0359  0.2523 -0.3197
  531MPD2    C3 7935   0.906   4.516  12.911 -0.0525 -0.6109 -0.1866
  531MPD2    C4 7936   1.021   4.464  12.862 -0.4595  1.0296 -0.1066
  531MPD2    C5 7937   1.137   4.476  12.939 -0.0137 -0.3739  0.1715
  531MPD2     H 7938   0.815   4.647  13.054 -0.3859  1.3985 -2.7468
  531MPD2    H1 7939   1.019   4.405  12.772  3.3740 -1.2254  1.2954
  531MPD2    H2 7940   1.238   4.549  13.104 -2.2011 -0.6706  2.8836
  531MPD2    H3 7941   1.220   4.421  12.897 -0.5575  0.0241 -1.4118
  531MPD2     N 7942   0.782   4.488  12.855  0.1547  0.3931  0.0211
  531MPD2    H5 7943   0.709   4.547  12.896  0.7601  0.4504  1.0088
  531MPD2    N1 7944   1.014   4.701  13.202  0.2703 -0.0420 -0.1207
  531MPD2    H7 7945   0.933   0.025  13.204  1.1659  1.1773 -0.8145
  532TMC3    C1 7946   1.062   0.067  13.415 -0.3116  0.1090 -0.5063
  532TMC3    C2 7947   0.926   0.086  13.428  0.2485 -0.3610 -0.4214
  532TMC3    C3 7948   0.868   0.071  13.552 -0.7184 -0.2169 -0.4833
  532TMC3    C4 7949   1.142   0.040  13.521 -0.2946 -0.2461  0.4548
  532TMC3    C5 7950   1.084   0.023  13.639 -0.2122 -0.0737 -0.3338
  532TMC3    C6 7951   0.948   0.039  13.658 -0.2829 -0.2126  0.6826
  532TMC3     C 7952   1.102   4.709  13.307 -0.5176 -0.0845 -0.2424
  532TMC3     O 7953   1.204   4.646  13.327  0.3404  0.0023 -0.1547
  532TMC3     H 7954   0.874   0.137  13.347 -1.2569  1.1384  1.5162
  532TMC3    H1 7955   1.249   0.039  13.504 -0.4513  0.4634 -0.5785
  532TMC3    H2 7956   0.908   0.015  13.756 -1.2619  1.5520  0.7184
  532TMC3    C7 7957   1.123   4.630  13.695 -0.1366 -0.1093  0.0876
  532TMC3    C8 7958   0.735   0.003  13.552  0.2725  0.1678 -0.4294
  532TMC3    O1 7959   1.104   4.604  13.810 -0.2130 -0.5032  0.3502
  532TMC3    O2 7960   0.706   4.672  13.647 -0.4220 -0.0783  0.0797
  533TMC3    C1 7961   2.451   1.332  14.405  0.1943  0.9156 -0.0624
  533TMC3    C2 7962   2.455   1.457  14.367  0.7401 -0.0922  0.3017
  533TMC3    C3 7963   2.494   1.552  14.458 -0.0636  0.0372  0.3087
  533TMC3    C4 7964   2.478   1.297  14.534  1.0170 -0.2059 -0.3985
  533TMC3    C5 7965   2.507   1.387  14.627  0.1461  0.2293 -0.1107
  533TMC3    C6 7966   2.508   1.519  14.592 -0.2399 -0.4814 -0.2436
  533TMC3     C 7967   2.355   1.238  14.351 -0.0346 -0.5878 -0.1487
  533TMC3     O 7968   2.390   1.119  14.361  0.0387  0.0689 -0.5465
  533TMC3     H 7969   2.439   1.483  14.263  0.1336  2.3202  0.9918
  533TMC3    H1 7970   2.472   1.192  14.562 -0.7313 -0.6397 -2.4108
  533TMC3    H2 7971   2.507   1.600  14.664 -0.4611  1.5896 -2.5314
  533TMC3    C7 7972   2.449   1.351  14.758  0.3506  0.2961 -0.8981
  533TMC3    C8 7973   2.483   1.693  14.422  0.1607  0.3467  0.6145
  533TMC3    O1 7974   2.387   1.246  14.763  0.2112 -0.2106 -0.0606
  533TMC3    O2 7975   2.423   1.730  14.326 -0.0428  0.3416 -0.3460
  534MPD2     C 7976   0.778   2.181   1.220 -0.5542 -1.4317 -0.3359
  534MPD2    C1 7977   0.698   2.243   1.315  0.1911  0.0444 -0.3342
  534MPD2    C2 7978   0.595   2.161   1.371 -0.1335 -1.1169 -0.5324
  534MPD2    C3 7979   0.558   2.036   1.315 -0.6004  0.6372  0.2178
  534MPD2    C4 7980   0.630   1.993   1.205 -0.6734 -0.8514  0.0166
  534MPD2    C5 7981   0.744   2.060   1.167  0.2871  0.5937 -0.4678
  534MPD2     H 7982   0.528   2.201   1.446 -2.3570 -0.4890 -2.8493
  534MPD2    H1 7983   0.610   1.900   1.154  0.5824 -1.0111 -0.1796
  534MPD2    H2 7984   0.868   2.229   1.183 -2.0577  1.9332  0.3043
  534MPD2    H3 7985   0.802   2.015   1.087 -0.5093 -0.2402 -0.5814
  534MPD2     N 7986   0.448   1.951   1.350 -0.1550  0.4393  0.4061
  534MPD2    H5 7987   0.429   1.863   1.303  1.7214 -0.0806  0.6245
  534MPD2    N1 7988   0.729   2.365   1.369 -0.1644 -0.0533  0.2710
  534MPD2    H7 7989   0.667   2.402   1.440  1.5926  0.5364  1.4915
  535TMC3    C1 7990   0.237   1.887   1.413 -0.0513  0.2299 -0.4123
  535TMC3    C2 7991   0.134   1.899   1.506  0.3043  0.1321 -0.4179
  535TMC3    C3 7992   0.006   1.887   1.464 -1.2272  0.3798 -0.0942
  535TMC3    C4 7993   0.215   1.878   1.279  0.2296  0.4808 -0.3140
  535TMC3    C5 7994   0.086   1.868   1.240  0.7354 -0.2636 -0.0271
  535TMC3    C6 7995   4.718   1.864   1.323  0.3579 -0.2085 -0.1346
  535TMC3     C 7996   0.351   1.972   1.447  0.0048 -0.1080  0.4007
  535TMC3     O 7997   0.341   2.069   1.524  0.2823  0.0448  0.3881
  535TMC3     H 7998   0.169   1.906   1.609  0.7873 -0.0383 -0.5697
  535TMC3    H1 7999   0.291   1.888   1.203  1.2280  0.6178  0.6955
  535TMC3    H2 8000   4.618   1.848   1.283  0.1272  1.2022 -0.1103
  535TMC3    C7 8001   0.057   1.901   1.099 -0.5942  1.1914  0.8398
  535TMC3    C8 8002   4.638   1.885   1.565 -0.6965 -0.1983 -0.0217
  535TMC3    O1 8003   0.152   1.891   1.022 -0.4477  0.3645 -0.0776
  535TMC3    O2 8004   4.671   1.887   1.682 -0.1628 -0.2836  0.3720
  536MPD2     C 8005   3.636   0.705  16.069  0.2109  0.7762 -0.0922
  536MPD2    C1 8006   3.522   0.682  16.146 -0.9325 -0.3400  0.3323
  536MPD2    C2 8007   3.407   0.760  16.124 -0.4306  1.3083 -0.2394
  536MPD2    C3 8008   3.404   0.850  16.020 -0.1034  0.8359 -0.0068
  536MPD2    C4 8009   3.519   0.867  15.943 -0.4780 -0.9759 -0.2225
  536MPD2    C5 8010   3.638   0.799  15.967  0.1563  0.1062  0.8683
  536MPD2     H 8011   3.322   0.749  16.190 -1.6371  0.5953 -1.8942
  536MPD2    H1 8012   3.516   0.925  15.852 -0.5107 -1.0639 -0.2771
  536MPD2    H2 8013   3.726   0.646  16.078  0.2997  0.6192 -1.9690
  536MPD2    H3 8014   3.719   0.801  15.895  0.1175 -2.7439  0.7217
  536MPD2     N 8015   3.283   0.908  15.973  0.1692 -0.4831 -0.2569
  536MPD2    H5 8016   3.294   0.973  15.896 -2.5032 -0.2875 -0.4948
  536MPD2    N1 8017   3.540   0.589  16.255 -0.2617  0.5200  0.5783
  536MPD2    H7 8018   3.624   0.534  16.250 -0.7575 -0.0683 -1.1124
  537TMC3    C1 8019   3.493   0.465  16.450  0.4043 -0.1841  0.7186
  537TMC3    C2 8020   3.622   0.465  16.488 -0.2968 -0.0501  0.3442
  537TMC3    C3 8021   3.656   0.373  16.582 -0.0253 -0.5273 -0.1405
  537TMC3    C4 8022   3.389   0.395  16.506 -0.0465 -0.0147 -0.0241
  537TMC3    C5 8023   3.426   0.303  16.598 -0.9811 -0.5650  0.6109
  537TMC3    C6 8024   3.554   0.296  16.645 -0.1724 -0.1337  0.0889
  537TMC3     C 8025   3.443   0.549  16.344  1.2462  0.4363  0.3808
  537TMC3     O 8026   3.324   0.577  16.340 -0.1123 -0.0164 -0.2641
  537TMC3     H 8027   3.702   0.515  16.435 -0.3341  0.0136  0.3469
  537TMC3    H1 8028   3.287   0.405  16.473  0.1966 -1.9845 -1.3567
  537TMC3    H2 8029   3.576   0.245  16.738  0.5075 -0.5564 -0.3148
  537TMC3    C7 8030   3.311   0.235  16.659 -0.3348  0.5752 -0.1421
  537TMC3    C8 8031   3.752   0.419  16.680  0.3411 -0.1947  0.2561
  537TMC3    O1 8032   3.198   0.279  16.635 -0.9008  0.1551  0.0178
  537TMC3    O2 8033   3.776   0.335  16.767  0.2454 -0.0513  0.1570
  538TMC3    C1 8034   4.193   3.959  11.245 -0.0212  0.2346  0.6234
  538TMC3    C2 8035   4.266   3.850  11.205  0.0714  0.0452 -0.8416
  538TMC3    C3 8036   4.283   3.827  11.072  0.7185  0.6262 -0.2288
  538TMC3    C4 8037   4.136   4.047  11.157  0.4391 -0.3757 -0.2374
  538TMC3    C5 8038   4.157   4.024  11.022  0.6516  0.4079 -0.5203
  538TMC3    C6 8039   4.234   3.919  10.982  0.1347  0.5093 -0.0650
  538TMC3     C 8040   4.171   3.990  11.386 -0.4565 -0.4812  0.1244
  538TMC3     O 8041   4.077   4.061  11.410 -0.2563 -0.1505 -0.2222
  538TMC3     H 8042   4.316   3.786  11.277  0.9979  1.2969 -0.3722
  538TMC3    H1 8043   4.073   4.131  11.186 -0.7470 -1.0175 -0.9558
  538TMC3    H2 8044   4.253   3.911  10.875 -1.3236  0.7922 -0.3513
  538TMC3    C7 8045   4.104   4.129  10.933 -0.1554 -0.4163  0.7111
  538TMC3    C8 8046   4.418   3.783  11.029  0.0156 -0.7741 -0.0909
  538TMC3    O1 8047   4.055   4.090  10.826 -0.0152  0.2182  1.1576
  538TMC3    O2 8048   4.471   3.699  11.102 -0.0837  0.1120 -0.1924
  539MPD2     C 8049   3.867   3.440  11.659  0.8017  0.0780  0.3807
  539MPD2    C1 8050   3.814   3.454  11.539  0.6492  1.2281 -0.6128
  539MPD2    C2 8051   3.819   3.575  11.468 -0.0261 -0.0068 -0.0861
  539MPD2    C3 8052   3.869   3.681  11.538 -0.3464  0.1228 -0.5875
  539MPD2    C4 8053   3.914   3.672  11.665 -0.3704  0.4567  0.7707
  539MPD2    C5 8054   3.916   3.556  11.722  0.0141  0.0045 -0.3170
  539MPD2     H 8055   3.790   3.584  11.364 -1.9230  1.6170  0.5923
  539MPD2    H1 8056   3.939   3.764  11.717 -0.2029  0.8603 -0.0267
  539MPD2    H2 8057   3.877   3.346  11.711  0.7628  1.6090  3.1634
  539MPD2    H3 8058   3.946   3.554  11.826 -0.2400  0.2196 -0.2397
  539MPD2     N 8059   3.858   3.810  11.486 -0.4805  0.3168  0.0100
  539MPD2    H5 8060   3.882   3.886  11.549  1.5426 -0.5461  0.2833
  539MPD2    N1 8061   3.758   3.341  11.470 -0.4248 -0.2677  0.6283
  539MPD2    H7 8062   3.748   3.349  11.370 -1.8445 -0.0338  0.7908
  540TMC3    C1 8063   3.767   3.991  11.356  0.1001 -0.2364 -0.1004
  540TMC3    C2 8064   3.771   4.051  11.234  0.2470  0.5429 -0.1492
  540TMC3    C3 8065   3.754   4.185  11.231  0.1650 -0.2251 -0.1825
  540TMC3    C4 8066   3.746   4.060  11.469  0.4108  0.0221 -0.1313
  540TMC3    C5 8067   3.733   4.202  11.456 -0.1983 -0.2067 -0.3135
  540TMC3    C6 8068   3.731   4.270  11.337 -0.3210  0.4812 -0.0335
  540TMC3     C 8069   3.812   3.847  11.361  0.6074 -0.0353  0.9146
  540TMC3     O 8070   3.814   3.783  11.254  0.2194 -0.5828 -0.2304
  540TMC3     H 8071   3.795   3.988  11.150 -0.7113 -1.8692  1.3821
  540TMC3    H1 8072   3.730   4.027  11.571  2.4546  2.4983  0.9909
  540TMC3    H2 8073   3.701   4.374  11.331 -2.2451 -0.0317  0.6999
  540TMC3    C7 8074   3.653   4.253  11.564  0.0716  0.1996 -1.2052
  540TMC3    C8 8075   3.712   4.244  11.104  0.0935  0.4062  0.4589
  540TMC3    O1 8076   3.662   4.369  11.600 -0.3854  0.3319 -0.1343
  540TMC3    O2 8077   3.741   4.361  11.084  0.6683 -0.2755 -0.3646
  541MPD2     C 8078   2.414   4.639  13.285 -0.2177 -0.5792 -0.2071
  541MPD2    C1 8079   2.281   4.640  13.281  0.4562 -0.0111 -0.4323
  541MPD2    C2 8080   2.222   4.677  13.165  0.3933  0.1661 -0.8411
  541MPD2    C3 8081   2.289   4.711  13.048  0.2293 -0.0382  0.0863
  541MPD2    C4 8082   2.425   4.696  13.050  0.0097  0.3670  0.2234
  541MPD2    C5 8083   2.489   4.679  13.173 -0.6197 -0.1527 -0.4509
  541MPD2     H 8084   2.113   4.684  13.165  0.2844 -1.6696 -1.6981
  541MPD2    H1 8085   2.474   4.725  12.958  1.0639  2.6598  1.5155
  541MPD2    H2 8086   2.460   4.617  13.380 -1.0559  0.5382  0.4561
  541MPD2    H3 8087   2.596   4.690  13.178 -0.5713 -0.4971 -0.7455
  541MPD2     N 8088   2.234   0.034  12.929  0.5483 -0.7033  0.5744
  541MPD2    H5 8089   2.298   0.035  12.850  1.7159 -0.4660  1.5208
  541MPD2    N1 8090   2.198   4.592  13.387  0.5052  0.3573 -0.0323
  541MPD2    H7 8091   2.100   4.608  13.367  0.4080 -1.1657 -0.7144
  542TMC3    C1 8092   2.082   0.163  12.798  0.2392 -0.0473  0.5178
  542TMC3    C2 8093   2.141   0.114  12.685  0.5750 -0.4430 -0.6247
  542TMC3    C3 8094   2.106   0.176  12.566 -0.1428  0.3585 -0.8407
  542TMC3    C4 8095   1.991   0.260  12.801  0.0715  0.2996  0.6666
  542TMC3    C5 8096   1.962   0.321  12.678 -0.0025  0.0798  1.3259
  542TMC3    C6 8097   2.024   0.289  12.564 -0.1101  0.1923  0.4643
  542TMC3     C 8098   2.106   0.087  12.918 -0.2776  0.8767 -0.2132
  542TMC3     O 8099   2.017   0.096  12.997  0.1625 -0.2507 -0.2101
  542TMC3     H 8100   2.186   0.016  12.684  0.1940 -0.6069 -1.6658
  542TMC3    H1 8101   1.950   0.297  12.894  1.5840  3.2433  0.1388
  542TMC3    H2 8102   2.014   0.338  12.468  1.5116  0.6796  0.5341
  542TMC3    C7 8103   1.844   0.398  12.672 -0.7802  0.0451  0.3245
  542TMC3    C8 8104   2.160   0.128  12.435 -0.1927  0.1357  0.4328
  542TMC3    O1 8105   1.780   0.422  12.769 -0.1317  0.1608  0.2376
  542TMC3    O2 8106   2.087   0.150  12.339  0.5700 -0.2403  0.0238
  543TMC3    C1 8107   2.115   1.756  17.371  0.1816 -0.0266  0.2231
  543TMC3    C2 8108   2.203   1.678  17.451  0.1720 -0.5924 -0.2363
  543TMC3    C3 8109   2.192   1.685  17.587 -0.1458 -0.2915 -0.5948
  543TMC3    C4 8110   2.019   1.841  17.429 -0.7430 -0.2017 -0.0606
  543TMC3    C5 8111   2.007   1.838  17.565 -0.0389  0.5417 -0.3063
  543TMC3    C6 8112   2.090   1.764  17.641  0.6775  0.0281  0.1212
  543TMC3     C 8113   2.118   1.730  17.224  0.4483 -0.5028 -0.5304
  543TMC3     O 8114   2.188   1.636  17.195 -0.3013  0.2797  0.3171
  543TMC3     H 8115   2.262   1.600  17.404  3.3794  1.3302  0.5505
  543TMC3    H1 8116   1.938   1.880  17.368  0.2675  1.0516 -0.6089
  543TMC3    H2 8117   2.068   1.752   0.002 -2.3905 -0.5268 -0.5897
  543TMC3    C7 8118   1.911   1.933  17.633  0.2310  0.3301 -1.1287
  543TMC3    C8 8119   2.250   1.569  17.662 -0.4792 -0.5452 -0.3517
  543TMC3    O1 8120   1.843   1.885  17.723  0.5645 -0.2509  1.0224
  543TMC3    O2 8121   2.194   1.543   0.023  0.0954 -0.4746 -0.0697
  544MPD2     C 8122   2.615   1.217   0.021 -0.8885 -0.5096  0.4056
  544MPD2    C1 8123   2.479   1.210   0.030  0.3305  0.2042  0.2340
  544MPD2    C2 8124   2.397   1.317  17.739 -0.2546 -0.7515 -0.0819
  544MPD2    C3 8125   2.455   1.429  17.671 -0.2713  0.3648  0.0176
  544MPD2    C4 8126   2.595   1.423  17.650 -0.2430 -0.3481  0.1061
  544MPD2    C5 8127   2.674   1.323  17.699 -0.7540 -0.0118  0.1152
  544MPD2     H 8128   2.289   1.322   0.003 -0.1853 -0.9218  0.9012
  544MPD2    H1 8129   2.656   1.498  17.602 -1.0542  0.9120  1.0380
  544MPD2    H2 8130   2.676   1.137   0.062 -2.8196 -2.3825 -0.3942
  544MPD2    H3 8131   2.780   1.320  17.674 -0.5829  0.3226  0.8007
  544MPD2     N 8132   2.377   1.536  17.618  0.5846 -0.0091 -0.9069
  544MPD2    H5 8133   2.423   1.603  17.557  1.1280  0.1053 -0.3598
  544MPD2    N1 8134   2.430   1.078   0.072 -0.0611  0.4261 -0.1083
  544MPD2    H7 8135   2.511   1.021   0.093 -0.5385 -0.5339 -0.8899
  545TMC3    C1 8136   2.283   0.884   0.087  0.1840  0.5175 -0.7985
  545TMC3    C2 8137   2.184   0.811   0.032  0.0620  0.4978 -0.3684
  545TMC3    C3 8138   2.179   0.671   0.036  0.0054 -0.5411 -0.4699
  545TMC3    C4 8139   2.397   0.816   0.132  0.5733  0.5263 -0.5520
  545TMC3    C5 8140   2.393   0.677   0.126  0.1842  0.2011 -0.7687
  545TMC3    C6 8141   2.285   0.599   0.084  0.7646  0.1591 -0.1867
  545TMC3     C 8142   2.297   1.026   0.065  0.4856 -0.1242  0.6848
  545TMC3     O 8143   2.195   1.079   0.037 -0.4115  0.2880  0.1522
  545TMC3     H 8144   2.094   0.863   0.001 -0.9290 -0.6809  0.5321
  545TMC3    H1 8145   2.487   0.853   0.180 -0.7164 -2.3296  4.0463
  545TMC3    H2 8146   2.280   0.491   0.096  2.6952  0.1130  0.2115
  545TMC3    C7 8147   2.518   0.610   0.157 -0.0602 -0.5944  0.0321
  545TMC3    C8 8148   2.079   0.610  17.688 -0.0757 -0.1653 -0.5114
  545TMC3    O1 8149   2.604   0.671   0.218  0.2324 -0.0919 -0.3331
  545TMC3    O2 8150   2.021   0.678  17.611  0.3718 -0.7581 -0.4368
  546MPD2     C 8151   3.226   0.987  17.246 -0.0314  0.0176 -0.3327
  546MPD2    C1 8152   3.136   1.059  17.173 -0.1128 -0.0454 -0.0067
  546MPD2    C2 8153   3.151   1.197  17.159 -0.1023  0.1572  0.1710
  546MPD2    C3 8154   3.266   1.259  17.220  0.1655 -0.2832 -0.3669
  546MPD2    C4 8155   3.349   1.179  17.297 -0.0009  0.2367  0.4581
  546MPD2    C5 8156   3.328   1.049  17.312 -0.3599 -0.3521 -0.2569
  546MPD2     H 8157   3.089   1.264  17.100 -0.2745 -1.1558 -1.1177
  546MPD2    H1 8158   3.436   1.230  17.337  1.5681 -0.9749 -1.4086
  546MPD2    H2 8159   3.203   0.881  17.248  0.8362 -0.1447  1.2695
  546MPD2    H3 8160   3.392   0.985  17.373 -0.8533  1.8088  2.5177
  546MPD2     N 8161   3.312   1.396  17.200 -0.4818  0.1814  0.7628
  546MPD2    H5 8162   3.397   1.426  17.246 -0.1097  0.0170  0.1814
  546MPD2    N1 8163   3.031   0.984  17.106 -0.8707  0.3693  0.1875
  546MPD2    H7 8164   3.036   0.882  17.110  1.2260  0.5630  2.4430
  547TMC3    C1 8165   2.864   0.928  16.969  0.3578  0.2689  0.4064
  547TMC3    C2 8166   2.765   0.957  16.878 -0.6211  0.3710 -0.2593
  547TMC3    C3 8167   2.698   0.855  16.821 -0.0346  0.0131  0.5705
  547TMC3    C4 8168   2.905   0.801  16.980 -0.1688 -0.1023 -0.1617
  547TMC3    C5 8169   2.847   0.702  16.909 -0.4206 -0.1412  0.1325
  547TMC3    C6 8170   2.744   0.726  16.824  0.4273 -0.4507 -0.3360
  547TMC3     C 8171   2.923   1.034  17.038 -0.8508 -0.8711 -1.0123
  547TMC3     O 8172   2.871   1.145  17.031 -0.2964  1.0315 -0.2568
  547TMC3     H 8173   2.725   1.058  16.879  0.6430  0.8841 -1.5377
  547TMC3    H1 8174   2.977   0.763  17.052  2.1584  0.1496 -2.3465
  547TMC3    H2 8175   2.696   0.647  16.768 -1.3428  0.1770  0.2671
  547TMC3    C7 8176   2.878   0.572  16.954 -0.0249  0.5261  0.2246
  547TMC3    C8 8177   2.561   0.886  16.773  0.4062 -0.1833  0.2388
  547TMC3    O1 8178   2.913   0.566  17.070  0.0316 -0.0521  0.0478
  547TMC3    O2 8179   2.543   1.004  16.750 -0.4192  0.2865  0.4174
  548MPD2     C 8180   2.673   1.664  12.845  0.3944 -0.7040 -0.3538
  548MPD2    C1 8181   2.628   1.560  12.759  0.3178 -0.1429 -0.3226
  548MPD2    C2 8182   2.713   1.480  12.681  0.1804  0.4426  0.3377
  548MPD2    C3 8183   2.849   1.511  12.680  0.6505  0.3568  0.2208
  548MPD2    C4 8184   2.891   1.614  12.759 -0.8901  0.9114 -0.2470
  548MPD2    C5 8185   2.810   1.686  12.845  0.1160 -0.7655  0.6589
  548MPD2     H 8186   2.670   1.409  12.612 -0.2047 -0.4624  1.5174
  548MPD2    H1 8187   2.998   1.631  12.769 -0.7418 -0.5006  0.6096
  548MPD2    H2 8188   2.612   1.735  12.899  0.6586 -0.2799 -0.6136
  548MPD2    H3 8189   2.854   1.762  12.908  0.6979 -1.0069  0.5417
  548MPD2     N 8190   2.936   1.431  12.598  0.0090 -0.3185  0.0761
  548MPD2    H5 8191   2.915   1.335  12.572 -1.1193 -0.5273  1.7393
  548MPD2    N1 8192   2.493   1.553  12.740 -0.2094 -0.2057 -0.2260
  548MPD2    H7 8193   2.436   1.625  12.782  0.7817 -0.4485  1.5611
  549TMC3    C1 8194   2.285   1.479  12.683  0.2384  0.9135  0.1941
  549TMC3    C2 8195   2.245   1.606  12.653 -0.2089  0.3552  0.7420
  549TMC3    C3 8196   2.114   1.625  12.620  0.5118  0.4479  0.3029
  549TMC3    C4 8197   2.193   1.375  12.671  0.1845  0.0822  0.5375
  549TMC3    C5 8198   2.067   1.398  12.636 -0.2255 -0.9759  0.5864
  549TMC3    C6 8199   2.022   1.525  12.621 -0.4667 -0.0217  0.1905
  549TMC3     C 8200   2.426   1.444  12.690  0.2721 -0.2553  0.9044
  549TMC3     O 8201   2.461   1.329  12.679 -0.0057  0.3171 -0.0245
  549TMC3     H 8202   2.315   1.688  12.667 -0.1008  0.3356  0.3163
  549TMC3    H1 8203   2.229   1.277  12.701 -2.4713 -0.3347  2.4037
  549TMC3    H2 8204   1.919   1.542  12.591 -0.7820  1.0664  1.8816
  549TMC3    C7 8205   1.978   1.293  12.597  0.8213  0.5546 -0.2559
  549TMC3    C8 8206   2.067   1.752  12.558  0.0408 -0.4026  0.8893
  549TMC3    O1 8207   1.868   1.330  12.553  0.1873  0.3220 -0.2033
  549TMC3    O2 8208   1.949   1.762  12.533 -0.1214  0.1190 -0.3841
  550TMC3    C1 8209   1.546   0.173  12.680 -0.6506 -0.1276  0.2928
  550TMC3    C2 8210   1.473   0.263  12.744  0.8394 -0.2001 -0.0718
  550TMC3    C3 8211   1.363   0.305  12.687 -0.2857 -0.3814  0.7225
  550TMC3    C4 8212   1.515   0.133  12.550  0.1867 -0.2984 -0.4657
  550TMC3    C5 8213   1.405   0.188  12.490 -0.1223 -1.0523 -0.4938
  550TMC3    C6 8214   1.321   0.269  12.561 -0.1005  0.3119  0.1715
  550TMC3     C 8215   1.662   0.117  12.754 -0.6885  0.1775  0.0710
  550TMC3     O 8216   1.675   0.119  12.877 -0.1348 -0.6039 -0.3755
  550TMC3     H 8217   1.494   0.275  12.850 -1.6802 -4.2281  0.8748
  550TMC3    H1 8218   1.558   0.040  12.516  1.7381  0.0959  0.4135
  550TMC3    H2 8219   1.227   0.298  12.517  1.4109  1.6634 -2.1702
  550TMC3    C7 8220   1.373   0.158  12.355 -0.2774  0.3779 -0.4613
  550TMC3    C8 8221   1.274   0.407  12.755 -1.4780 -0.2054  0.4358
  550TMC3    O1 8222   1.259   0.176  12.317 -0.0095 -0.1701 -0.2251
  550TMC3    O2 8223   1.169   0.417  12.697  0.8206  0.2757 -0.1485
  551TMC3    C1 8224   4.031   2.363  13.365 -0.1193  0.0789 -0.6600
  551TMC3    C2 8225   4.138   2.293  13.313 -0.3205 -0.5711 -0.1748
  551TMC3    C3 8226   4.249   2.297  13.389 -0.3391 -0.2920  0.8141
  551TMC3    C4 8227   4.036   2.441  13.481  0.0636 -0.1357  0.8311
  551TMC3    C5 8228   4.157   2.433  13.555 -0.9412  0.2270 -0.0259
  551TMC3    C6 8229   4.258   2.357  13.511  0.3187  0.4789  0.4690
  551TMC3     C 8230   3.931   2.399  13.261  0.5572 -1.1272 -0.1544
  551TMC3     O 8231   3.968   2.379  13.143  0.9286  0.2444 -0.0578
  551TMC3     H 8232   4.135   2.261  13.209  0.1318 -1.9679  0.2337
  551TMC3    H1 8233   3.959   2.515  13.500  1.1391  1.2772 -0.2811
  551TMC3    H2 8234   4.341   2.332  13.577  0.9332 -0.1390 -0.5414
  551TMC3    C7 8235   4.159   2.491  13.685 -0.1758  0.2424 -0.1122
  551TMC3    C8 8236   4.370   2.247  13.337 -0.9463 -0.0740  1.1288
  551TMC3    O1 8237   4.265   2.493  13.748  0.3760  0.7959  0.3882
  551TMC3    O2 8238   4.371   2.146  13.268  0.4721  0.1488 -0.2749
  552MPD2     C 8239   1.050   4.072  14.284  0.4673 -0.2674 -0.2362
  552MPD2    C1 8240   1.166   4.064  14.203 -0.4738 -0.5886 -0.2760
  552MPD2    C2 8241   1.287   4.079  14.261 -0.8970 -0.5876 -0.2963
  552MPD2    C3 8242   1.298   4.111  14.394 -0.4674 -0.9389 -0.0935
  552MPD2    C4 8243   1.179   4.123  14.474 -0.4067 -0.2155 -0.2660
  552MPD2    C5 8244   1.062   4.095  14.409  0.1112  0.5521  0.1077
  552MPD2     H 8245   1.373   4.080  14.196 -0.3414 -2.6837  0.3812
  552MPD2    H1 8246   1.181   4.149  14.579 -0.4362  0.4486 -0.4301
  552MPD2    H2 8247   0.950   4.051  14.247  1.0157 -0.9959 -1.3046
  552MPD2    H3 8248   0.971   4.094  14.467  0.2894  3.5539  0.4107
  552MPD2     N 8249   1.427   4.124  14.455 -0.2407  0.0788 -0.1130
  552MPD2    H5 8250   1.430   4.137  14.556  2.3155 -0.9642 -0.0673
  552MPD2    N1 8251   1.160   4.036  14.061  0.1182 -0.4012  0.0412
  552MPD2    H7 8252   1.249   4.033  14.013  0.4970 -2.3226  0.8812
  553TMC3    C1 8253   1.092   3.958  13.859  0.0349 -0.7161  0.4691
  553TMC3    C2 8254   1.006   3.988  13.761  0.3250  0.2404  0.7078
  553TMC3    C3 8255   1.030   3.934  13.641 -0.7406 -0.4653  0.3667
  553TMC3    C4 8256   1.193   3.869  13.850 -0.0143  0.0697 -0.3281
  553TMC3    C5 8257   1.216   3.821  13.729 -0.4473 -0.4875  0.4110
  553TMC3    C6 8258   1.136   3.851  13.623  0.5384 -0.6269  0.2883
  553TMC3     C 8259   1.050   3.994  13.995 -0.0487 -0.9038  0.3741
  553TMC3     O 8260   0.933   4.003  14.031  0.7700 -0.1837 -0.3640
  553TMC3     H 8261   0.926   4.055  13.791 -0.6276 -0.5998  0.0620
  553TMC3    H1 8262   1.229   3.823  13.941 -1.0299  1.0854  0.5776
  553TMC3    H2 8263   1.159   3.801  13.530  0.2827 -1.3351  0.5964
  553TMC3    C7 8264   1.317   3.719  13.716  0.0080 -0.0787 -0.3660
  553TMC3    C8 8265   0.961   3.971  13.517 -0.8029  0.4899 -0.3099
  553TMC3    O1 8266   1.299   3.614  13.652 -0.2678 -0.1327 -0.1262
  553TMC3    O2 8267   0.985   3.901  13.416 -0.4242  0.0403  0.2390
  554TMC3    C1 8268   3.292   3.956  11.171 -0.0588  0.2935  0.2095
  554TMC3    C2 8269   3.218   3.867  11.098 -0.6034 -0.2182  0.9660
  554TMC3    C3 8270   3.132   3.925  11.005  0.4224  0.1221  0.5143
  554TMC3    C4 8271   3.291   4.096  11.147 -0.2434 -0.9633  0.2530
  554TMC3    C5 8272   3.222   4.143  11.041  0.2029  0.3507 -0.9493
  554TMC3    C6 8273   3.151   4.055  10.967 -0.1222  0.2881  0.5910
  554TMC3     C 8274   3.369   3.909  11.280  1.1014  0.5290 -1.8751
  554TMC3     O 8275   3.466   3.978  11.313  0.5989 -0.2160 -0.2786
  554TMC3     H 8276   3.208   3.765  11.135 -2.2091 -0.2829  0.3594
  554TMC3    H1 8277   3.339   4.164  11.218 -2.2229 -1.4553  2.0570
  554TMC3    H2 8278   3.084   4.079  10.886 -0.1252 -0.4328  0.3764
  554TMC3    C7 8279   3.239   4.277  10.983  0.4323  0.4424 -0.1500
  554TMC3    C8 8280   3.072   3.841  10.899  0.2254 -0.1187 -0.0420
  554TMC3    O1 8281   3.163   4.296  10.888 -0.5550  0.4107 -0.1917
  554TMC3    O2 8282   2.987   3.889  10.822 -0.6114  0.0839  0.5675
  555TMC3    C1 8283   2.354   2.816  15.179 -0.1068 -0.3208  0.2361
  555TMC3    C2 8284   2.485   2.861  15.189 -0.0665 -0.0962 -0.0580
  555TMC3    C3 8285   2.579   2.774  15.233 -0.0101 -0.0533 -0.0930
  555TMC3    C4 8286   2.329   2.680  15.184 -0.3827  0.1464  0.5279
  555TMC3    C5 8287   2.427   2.602  15.234 -0.4955 -0.0448  0.1470
  555TMC3    C6 8288   2.545   2.648  15.273  0.4843  0.0085  0.2120
  555TMC3     C 8289   2.255   2.899  15.129 -0.9423  0.1214  0.3197
  555TMC3     O 8290   2.166   2.860  15.055 -0.4313  0.1854  0.2349
  555TMC3     H 8291   2.500   2.965  15.162 -1.7554  0.0161 -0.5624
  555TMC3    H1 8292   2.233   2.638  15.157 -1.1813  2.1189  0.2885
  555TMC3    H2 8293   2.622   2.585  15.317  0.0044 -0.6401  0.1104
  555TMC3    C7 8294   2.399   2.468  15.274 -0.4937  0.2844  0.2559
  555TMC3    C8 8295   2.716   2.827  15.240  0.5717  0.0836  0.3235
  555TMC3    O1 8296   2.452   2.437  15.377 -0.1262  0.0499 -0.3312
  555TMC3    O2 8297   2.751   2.902  15.152  0.1922  0.1153  0.2032
  556MPD2     C 8298   4.651   0.194  10.441 -0.0038 -0.3649 -0.5159
  556MPD2    C1 8299   4.643   0.109  10.549 -0.3881  0.7135 -0.1006
  556MPD2    C2 8300   4.652   4.710  10.522  0.5103  0.1206  0.1315
  556MPD2    C3 8301   4.675   4.670  10.393 -0.1054 -0.0598  0.0489
  556MPD2    C4 8302   4.665   0.016  10.287  0.0263 -0.3183  0.2502
  556MPD2    C5 8303   4.657   0.149  10.311 -0.1264  0.1208  0.1170
  556MPD2     H 8304   4.656   4.638  10.603 -2.1614  0.1353  0.2792
  556MPD2    H1 8305   4.683   4.717  10.186  2.6387 -1.6248  1.1561
  556MPD2    H2 8306   4.644   0.302  10.450  0.4071 -0.3176 -0.7645
  556MPD2    H3 8307   4.643   0.208  10.221 -1.0595  0.3919  0.4437
  556MPD2     N 8308   4.712   4.533  10.383  0.7858  0.4162  0.0812
  556MPD2    H5 8309   4.727   4.483  10.470  1.7270  0.1509 -0.2427
  556MPD2    N1 8310   4.636   0.144  10.687 -1.0894  0.1536 -0.0004
  556MPD2    H7 8311   4.657   0.068  10.751  1.5491  1.3166  0.5131
  557TMC3    C1 8312   0.037   4.318  10.303  0.7214 -0.1055  0.6393
  557TMC3    C2 8313   0.028   4.224  10.201  0.4104  0.0334 -0.0636
  557TMC3    C3 8314   0.022   4.090  10.226 -0.2602  0.4543  0.8015
  557TMC3    C4 8315   0.053   4.276  10.432  0.3848  0.3069 -0.0351
  557TMC3    C5 8316   0.064   4.140  10.449  0.1411  0.4471  0.4967
  557TMC3    C6 8317   0.041   4.039  10.353 -0.1246 -0.4844 -0.0462
  557TMC3     C 8318   0.013   4.458  10.273 -0.5999  0.0843 -0.2174
  557TMC3     O 8319   0.001   4.486  10.157 -0.1193  0.4685 -0.2878
  557TMC3     H 8320   4.734   4.259  10.102  0.4915 -0.3448 -0.2218
  557TMC3    H1 8321   0.066   4.344  10.516 -2.9102 -1.2587  1.7081
  557TMC3    H2 8322   0.026   3.936  10.382  0.5853 -0.7592 -0.6655
  557TMC3    C7 8323   0.009   4.104  10.573 -0.4565  0.6596 -0.9611
  557TMC3    C8 8324   4.733   4.004  10.117 -0.8548  0.5670 -0.7184
  557TMC3    O1 8325   4.649   4.174  10.608 -0.5397 -0.2989 -0.8544
  557TMC3    O2 8326   4.709   4.057  10.010 -0.1671 -0.5154  0.2090
  558TMC3    C1 8327   2.449   2.272  10.066 -0.1508  0.4157 -0.5006
  558TMC3    C2 8328   2.357   2.275  10.170  0.4739  0.4895 -0.2978
  558TMC3    C3 8329   2.255   2.185  10.157  0.3273  0.3877 -0.3619
  558TMC3    C4 8330   2.446   2.183   9.962 -0.5377 -0.4733  0.1080
  558TMC3    C5 8331   2.337   2.101   9.958  0.3584 -0.1065 -0.1028
  558TMC3    C6 8332   2.242   2.105  10.053  0.7769  0.2227 -0.0699
  558TMC3     C 8333   2.569   2.351  10.070 -0.0387 -0.9654  0.4609
  558TMC3     O 8334   2.666   2.321   9.999 -0.0119  0.1171  0.1074
  558TMC3     H 8335   2.374   2.335  10.259  3.1531 -1.1896  0.3557
  558TMC3    H1 8336   2.515   2.178   9.879  1.6866  1.3154  1.8732
  558TMC3    H2 8337   2.176   2.021  10.071  0.2061  0.4758 -1.0272
  558TMC3    C7 8338   2.341   1.990   9.867  0.4321  0.7735  0.1583
  558TMC3    C8 8339   2.133   2.206  10.231  0.2522 -0.0180  0.5943
  558TMC3    O1 8340   2.455   1.956   9.831  0.5773 -0.3083  0.2019
  558TMC3    O2 8341   2.030   2.185  10.181  0.1011 -0.3059  0.2911
  559MPD2     C 8342   2.503   3.366  10.480  0.4758  0.4581  0.2320
  559MPD2    C1 8343   2.427   3.274  10.553 -0.0619  0.1771  0.2943
  559MPD2    C2 8344   2.498   3.188  10.640 -0.0413  0.4746 -0.3207
  559MPD2    C3 8345   2.640   3.189  10.654 -0.2094 -0.2616 -0.6401
  559MPD2    C4 8346   2.706   3.289  10.597 -0.3852 -0.2765  0.3087
  559MPD2    C5 8347   2.638   3.371  10.505 -0.3063  0.8565 -0.3408
  559MPD2     H 8348   2.449   3.107  10.692 -0.2541 -0.8547 -2.5682
  559MPD2    H1 8349   2.813   3.305  10.605 -0.5399  1.4356 -1.0551
  559MPD2    H2 8350   2.456   3.440  10.416  0.7616  0.3407 -0.1190
  559MPD2    H3 8351   2.687   3.454  10.456 -2.1470  1.6386 -0.8522
  559MPD2     N 8352   2.706   3.107  10.753 -0.4962 -0.2406 -0.2381
  559MPD2    H5 8353   2.647   3.066  10.826  2.4368 -1.2993  1.5126
  559MPD2    N1 8354   2.287   3.285  10.544 -0.0745  0.3490 -0.4649
  559MPD2    H7 8355   2.255   3.349  10.472  0.3731  0.9116 -0.1629
  560TMC3    C1 8356   2.877   3.034  10.900  0.6455  0.1164  0.3315
  560TMC3    C2 8357   2.795   2.936  10.943  0.4464 -0.4088 -0.1347
  560TMC3    C3 8358   2.815   2.886  11.072  0.7866  0.1386 -0.4550
  560TMC3    C4 8359   2.978   3.085  10.973  0.3949 -0.0695 -0.6216
  560TMC3    C5 8360   2.992   3.037  11.107 -0.7258  0.4549  0.5791
  560TMC3    C6 8361   2.909   2.944  11.161  0.4358  0.4820  0.5228
  560TMC3     C 8362   2.837   3.099  10.776  0.0578 -0.3886 -0.1764
  560TMC3     O 8363   2.921   3.120  10.691 -0.3690 -0.0281  0.2829
  560TMC3     H 8364   2.720   2.894  10.878  1.1880 -0.7102 -0.7869
  560TMC3    H1 8365   3.044   3.167  10.950  0.9202 -0.7945 -1.7052
  560TMC3    H2 8366   2.923   2.916  11.264  0.0821 -1.2705  0.0932
  560TMC3    C7 8367   3.089   3.089  11.204  0.1679  0.1173  0.0849
  560TMC3    C8 8368   2.709   2.801  11.116  0.2749  0.1800  0.2215
  560TMC3    O1 8369   3.081   3.067  11.326 -0.9581 -0.6327  0.3127
  560TMC3    O2 8370   2.648   2.724  11.040 -0.1071  0.4530 -0.2374
  561TMC3    C1 8371   0.281   1.962  11.059  0.2981  0.0386  0.0156
  561TMC3    C2 8372   0.158   1.927  11.104  0.2281 -0.4500  0.2984
  561TMC3    C3 8373   0.124   1.977  11.233 -0.0150 -0.0047 -0.9412
  561TMC3    C4 8374   0.360   2.056  11.114  0.1981  0.2356 -0.1778
  561TMC3    C5 8375   0.321   2.115  11.229 -0.2523  0.2108  0.4276
  561TMC3    C6 8376   0.205   2.073  11.290  0.0723  0.1307  0.2278
  561TMC3     C 8377   0.330   1.864  10.961  0.2937  0.2905 -0.5004
  561TMC3     O 8378   0.260   1.764  10.941  0.6585  0.0500 -0.0541
  561TMC3     H 8379   0.097   1.852  11.055  2.0401  0.0132 -2.6830
  561TMC3    H1 8380   0.463   2.076  11.090  0.4740  0.4319  1.1813
  561TMC3    H2 8381   0.192   2.106  11.393 -0.0304 -1.3845  0.7004
  561TMC3    C7 8382   0.401   2.220  11.303 -0.7179  0.1621  0.3833
  561TMC3    C8 8383   0.008   1.925  11.305  0.0750  1.0220 -0.4931
  561TMC3    O1 8384   0.401   2.207  11.427 -0.0677 -0.3298 -0.1594
  561TMC3    O2 8385   4.685   1.824  11.259  0.0707  0.5645  0.2019
  562TMC3    C1 8386   1.914   3.427  16.584 -0.5337  0.2896  0.3156
  562TMC3    C2 8387   1.901   3.556  16.538  0.6777 -0.0845 -0.0175
  562TMC3    C3 8388   1.900   3.573  16.400 -0.6218 -0.8359 -0.3882
  562TMC3    C4 8389   1.925   3.320  16.495 -0.4707 -0.0867 -0.2375
  562TMC3    C5 8390   1.937   3.347  16.360 -0.0350 -0.6422 -0.2092
  562TMC3    C6 8391   1.919   3.468  16.309  1.1775 -0.1608  0.6865
  562TMC3     C 8392   1.965   3.393  16.723  0.3389 -0.7431 -0.4373
  562TMC3     O 8393   2.005   3.282  16.742  0.1724  0.0746  0.3511
  562TMC3     H 8394   1.899   3.645  16.599 -1.4714  0.7998 -1.3520
  562TMC3    H1 8395   1.940   3.220  16.534  0.0793  0.8406  1.9602
  562TMC3    H2 8396   1.939   3.479  16.203 -0.5046  0.0886  0.3990
  562TMC3    C7 8397   1.967   3.245  16.260 -0.0425  0.6137 -0.8164
  562TMC3    C8 8398   1.873   3.705  16.356  0.7073 -0.2038  0.0662
  562TMC3    O1 8399   1.895   3.227  16.161  0.5998 -0.0719 -0.0129
  562TMC3    O2 8400   1.839   3.787  16.437  0.5879 -0.0633 -0.2309
  563MPD2     C 8401   4.422   4.699  15.356  0.0321 -0.4089 -0.0614
  563MPD2    C1 8402   4.370   4.616  15.456 -0.4402  0.2378  0.5080
  563MPD2    C2 8403   4.450   4.512  15.505  0.1819  0.2687 -0.5848
  563MPD2    C3 8404   4.579   4.489  15.447  0.2899 -0.3470 -0.3214
  563MPD2    C4 8405   4.622   4.566  15.340  0.2075 -0.6458 -0.7338
  563MPD2    C5 8406   4.539   4.666  15.289 -0.1989  0.6110  0.2155
  563MPD2     H 8407   4.414   4.465  15.595  0.1291 -0.3578 -0.9349
  563MPD2    H1 8408   4.714   4.543  15.288 -0.5460 -0.2762 -2.2070
  563MPD2    H2 8409   4.362   0.049  15.331 -2.2933 -2.2922 -1.0898
  563MPD2    H3 8410   4.576   4.724  15.205 -1.2889  1.8576  0.5895
  563MPD2     N 8411   4.664   4.394  15.512 -0.3314 -0.0382  0.3791
  563MPD2    H5 8412   4.625   4.356  15.597 -2.2922  0.8158 -0.1388
  563MPD2    N1 8413   4.240   4.641  15.508 -0.5059 -0.1226 -0.3276
  563MPD2    H7 8414   4.190   4.717  15.464 -1.1416 -0.8243 -0.8188
  564TMC3    C1 8415   4.065   4.621  15.666 -1.3319  0.4630 -0.1241
  564TMC3    C2 8416   3.969   4.541  15.717  0.3668 -0.4442 -0.6636
  564TMC3    C3 8417   3.910   4.576  15.833 -0.4355  0.4358 -0.3471
  564TMC3    C4 8418   4.115   4.721  15.745 -0.3801 -0.2698  0.6658
  564TMC3    C5 8419   4.055   0.008  15.869  0.2441 -0.4590 -0.1200
  564TMC3    C6 8420   3.952   4.677  15.916  0.4186  0.0401 -0.7577
  564TMC3     C 8421   4.162   4.555  15.582  0.0534  0.6298 -0.0317
  564TMC3     O 8422   4.175   4.436  15.611  0.2622 -0.7487 -0.4431
  564TMC3     H 8423   3.935   4.457  15.659  0.2025  0.1266 -1.3982
  564TMC3    H1 8424   4.198   0.048  15.715 -1.0068  1.0673  1.7586
  564TMC3    H2 8425   3.903   4.694  16.012 -1.3072 -2.4875 -1.1739
  564TMC3    C7 8426   4.151   0.022  15.974  0.2712 -0.0733 -0.5798
  564TMC3    C8 8427   3.909   4.448  15.909  0.9607 -0.7730 -0.5621
  564TMC3    O1 8428   4.112   0.093  16.064 -0.0697 -0.5592 -0.5651
  564TMC3    O2 8429   3.853   4.445  16.016 -0.4021 -0.1697  0.2949
  565TMC3    C1 8430   0.782   0.751   8.871  0.8124  0.4791  0.9439
  565TMC3    C2 8431   0.709   0.717   8.986  0.6378  0.0359 -0.1755
  565TMC3    C3 8432   0.626   0.611   8.973  0.3738 -0.4330  0.1059
  565TMC3    C4 8433   0.781   0.669   8.760 -0.1268 -0.1882  0.1542
  565TMC3    C5 8434   0.699   0.560   8.765  0.0667  0.0166  0.3670
  565TMC3    C6 8435   0.621   0.524   8.870  0.2015 -0.2291  0.5852
  565TMC3     C 8436   0.861   0.870   8.886 -0.6856 -1.0491 -0.4369
  565TMC3     O 8437   0.854   0.926   8.995  0.0239  0.2775  0.4873
  565TMC3     H 8438   0.705   0.777   9.075  0.6324 -2.5667  1.5809
  565TMC3    H1 8439   0.855   0.676   8.681  0.4328  1.0843  0.7928
  565TMC3    H2 8440   0.538   0.455   8.858 -1.5639  1.9307  0.2373
  565TMC3    C7 8441   0.694   0.470   8.653  0.2012 -0.0674  0.6875
  565TMC3    C8 8442   0.552   0.584   9.097 -0.3037 -0.0875 -0.1672
  565TMC3    O1 8443   0.686   0.351   8.681  0.5134 -0.3802 -0.0443
  565TMC3    O2 8444   0.570   0.662   9.188 -0.2874  0.2331  0.0623
  566MPD2     C 8445   2.017   3.019  14.592  0.2333 -0.8014  0.0296
  566MPD2    C1 8446   2.028   3.041  14.462 -0.2200  0.1403 -0.5757
  566MPD2    C2 8447   1.927   3.007  14.372 -0.6589 -0.6066  0.1925
  566MPD2    C3 8448   1.809   2.947  14.415  0.0691 -0.2250 -0.2490
  566MPD2    C4 8449   1.800   2.922  14.549  1.1320 -0.0502 -1.0687
  566MPD2    C5 8450   1.904   2.959  14.636 -0.4068  0.0381 -0.3593
  566MPD2     H 8451   1.930   3.034  14.267  1.3193  3.2814  1.2344
  566MPD2    H1 8452   1.714   2.872  14.592 -0.0791  3.6862  0.8360
  566MPD2    H2 8453   2.092   3.047  14.664  1.6971  1.5386 -2.3903
  566MPD2    H3 8454   1.905   2.937  14.742 -2.0463 -1.9377 -0.7637
  566MPD2     N 8455   1.717   2.911  14.318 -0.2291  0.9543 -0.2764
  566MPD2    H5 8456   1.739   2.942  14.224 -0.6502 -0.4453 -0.8345
  566MPD2    N1 8457   2.149   3.095  14.419 -0.0750 -0.2185 -0.2299
  566MPD2    H7 8458   2.219   3.113  14.490 -0.7046 -0.6795  0.4984
  567TMC3    C1 8459   2.298   3.148  14.253 -0.2009 -0.1776 -0.1541
  567TMC3    C2 8460   2.301   3.178  14.120 -0.3372 -0.4429 -0.2854
  567TMC3    C3 8461   2.359   3.088  14.029  0.0376  0.0410  0.8519
  567TMC3    C4 8462   2.360   3.030  14.297 -0.0462  0.5163 -0.0534
  567TMC3    C5 8463   2.405   2.936  14.202  0.2001  0.7253  0.1211
  567TMC3    C6 8464   2.412   2.972  14.072 -0.4468  0.6585 -0.6757
  567TMC3     C 8465   2.161   3.146  14.291  0.9904  0.0270  0.0090
  567TMC3     O 8466   2.086   3.176  14.202 -0.7995 -0.2576 -1.2782
  567TMC3     H 8467   2.255   3.267  14.079  3.0971 -0.0977 -3.3438
  567TMC3    H1 8468   2.375   2.997  14.399 -0.3699 -0.2046 -0.2395
  567TMC3    H2 8469   2.425   2.897  13.995  0.8347  0.3355 -0.1360
  567TMC3    C7 8470   2.374   2.794  14.231  0.2625 -0.7887 -0.2159
  567TMC3    C8 8471   2.314   3.095  13.891  0.2387  0.2509  0.6969
  567TMC3    O1 8472   2.418   2.706  14.157 -0.7471 -0.0470 -0.0729
  567TMC3    O2 8473   2.206   3.142  13.855 -0.0294  0.2139  0.4216
  568MPD2     C 8474   3.766   2.929  16.233 -0.1593 -0.3614  0.0789
  568MPD2    C1 8475   3.842   3.023  16.304 -0.4231  0.0668  0.1351
  568MPD2    C2 8476   3.801   3.156  16.287  0.5575  0.2189  0.7873
  568MPD2    C3 8477   3.716   3.197  16.191  0.2016 -0.2705 -0.1930
  568MPD2    C4 8478   3.655   3.100  16.110 -0.1358 -0.8454 -0.2639
  568MPD2    C5 8479   3.687   2.967  16.133 -0.6174 -0.1522  0.3546
  568MPD2     H 8480   3.852   3.228  16.350  1.0915  0.4823  0.0584
  568MPD2    H1 8481   3.570   3.113  16.043  0.1105 -0.4206 -0.4935
  568MPD2    H2 8482   3.787   2.822  16.239  0.1136 -0.4013 -1.5537
  568MPD2    H3 8483   3.646   2.898  16.060 -1.1383  4.3941 -3.6569
  568MPD2     N 8484   3.694   3.339  16.197  0.2018  0.3174  0.1043
  568MPD2    H5 8485   3.748   3.392  16.264  2.0647 -0.9609 -0.4104
  568MPD2    N1 8486   3.944   2.973  16.391 -0.5094 -0.3956  0.2847
  568MPD2    H7 8487   3.966   2.874  16.389  1.1142 -0.0660  1.1485
  569TMC3    C1 8488   3.598   3.536  16.123 -0.1454  0.1396 -0.3257
  569TMC3    C2 8489   3.570   3.565  16.250  0.6085  0.3100 -0.5057
  569TMC3    C3 8490   3.610   3.687  16.300 -0.8550 -0.0353  0.1616
  569TMC3    C4 8491   3.672   3.623  16.047 -0.1469 -0.4845  0.5746
  569TMC3    C5 8492   3.714   3.743  16.099  0.1211  0.0560  0.4601
  569TMC3    C6 8493   3.686   3.775  16.229 -0.0377 -0.2981  0.4994
  569TMC3     C 8494   3.640   3.399  16.094 -0.6661 -0.2300  0.2377
  569TMC3     O 8495   3.593   3.346  15.990  0.1600  0.4886 -0.0014
  569TMC3     H 8496   3.526   3.493  16.318 -1.6944  0.7485 -1.5333
  569TMC3    H1 8497   3.677   3.613  15.939  1.6309 -0.4828  0.6630
  569TMC3    H2 8498   3.731   3.866  16.265 -0.0415  0.3829 -1.2376
  569TMC3    C7 8499   3.827   3.794  16.031  0.2169  0.5845 -0.1446
  569TMC3    C8 8500   3.618   3.698  16.447 -0.2153 -0.3049 -0.8801
  569TMC3    O1 8501   3.894   3.713  15.970 -0.1097 -0.2909  1.2679
  569TMC3    O2 8502   3.545   3.620  16.512 -0.3622 -0.4164 -0.4613
  570TMC3    C1 8503   3.752   2.146  16.409 -0.5787 -0.9495  0.3506
  570TMC3    C2 8504   3.782   2.165  16.276 -0.2455 -0.3578  0.0547
  570TMC3    C3 8505   3.855   2.274  16.246 -0.4683 -0.1952 -0.2260
  570TMC3    C4 8506   3.802   2.232  16.509 -0.0109 -0.2274  0.4264
  570TMC3    C5 8507   3.868   2.343  16.465  0.1803  0.6330  0.3551
  570TMC3    C6 8508   3.893   2.372  16.335 -0.6934 -0.6818 -0.3681
  570TMC3     C 8509   3.625   2.087  16.434 -0.0334 -0.4962 -0.1325
  570TMC3     O 8510   3.578   1.991  16.376  0.1457  0.3991 -0.5612
  570TMC3     H 8511   3.739   2.102  16.199 -0.3767 -0.3863  0.1517
  570TMC3    H1 8512   3.803   2.205  16.614 -1.0192 -0.6778  0.3268
  570TMC3    H2 8513   3.956   2.456  16.307 -1.0137 -0.7301 -1.2169
  570TMC3    C7 8514   3.879   2.451  16.564  0.3106  0.3398  0.3581
  570TMC3    C8 8515   3.886   2.308  16.106  0.6989 -0.0130 -0.1103
  570TMC3    O1 8516   3.891   2.423  16.680  0.0224 -0.4191 -0.2901
  570TMC3    O2 8517   3.918   2.423  16.087 -0.0850  0.5293 -0.1597
  571MPD2     C 8518   0.746   3.760  17.280  0.2458  0.0846 -0.0396
  571MPD2    C1 8519   0.869   3.823  17.280  0.0192 -0.8451  0.3770
  571MPD2    C2 8520   0.922   3.858  17.401 -0.3640 -0.1225  0.1689
  571MPD2    C3 8521   0.849   3.828  17.521  0.0127  0.8270 -0.0897
  571MPD2    C4 8522   0.726   3.761  17.510  0.1172 -0.5656 -0.3274
  571MPD2    C5 8523   0.675   3.727  17.390 -0.3345 -0.6494  0.5963
  571MPD2     H 8524   1.017   3.910  17.406 -1.0713  0.9511  2.1822
  571MPD2    H1 8525   0.664   3.739  17.597 -0.6178 -2.0648 -1.2418
  571MPD2    H2 8526   0.706   3.746  17.180 -0.2622  0.0016  0.1757
  571MPD2    H3 8527   0.579   3.680  17.376 -0.5645 -0.1656  0.5291
  571MPD2     N 8528   0.902   3.855  17.647  1.2070 -0.0749 -0.1521
  571MPD2    H5 8529   0.858   3.804  17.723  1.2888  0.9909  0.6193
  571MPD2    N1 8530   0.922   3.849  17.153  0.0597  0.0164  0.1725
  571MPD2    H7 8531   0.860   3.820  17.078  0.3784  0.0971 -0.1173
  572TMC3    C1 8532   1.050   3.939   0.080 -0.2483 -0.0961  0.0426
  572TMC3    C2 8533   0.972   3.883   0.182 -0.4705 -0.5018  0.0946
  572TMC3    C3 8534   0.992   3.928   0.308 -0.2248  0.3378  0.1387
  572TMC3    C4 8535   1.155   4.018   0.117 -0.1843 -0.4843 -0.0866
  572TMC3    C5 8536   1.174   4.056   0.248  0.9765 -0.3567 -0.2818
  572TMC3    C6 8537   1.086   4.019   0.348  0.2482  0.7205  0.4031
  572TMC3     C 8538   1.010   3.938  17.680  0.1276 -0.9973  0.4717
  572TMC3     O 8539   1.086   3.999  17.608 -0.0318 -0.4648 -0.6250
  572TMC3     H 8540   0.877   3.834   0.163 -0.3185 -1.9475  3.2300
  572TMC3    H1 8541   1.215   4.060   0.037 -0.7283 -0.9811 -0.7617
  572TMC3    H2 8542   1.090   4.063   0.447 -0.8449  1.3181  0.1792
  572TMC3    C7 8543   1.229   4.193   0.259  0.0337  0.8630  0.5107
  572TMC3    C8 8544   0.913   3.863   0.406 -0.2883  0.9515 -0.8785
  572TMC3    O1 8545   1.224   4.249   0.149 -0.4590  0.2206 -0.0283
  572TMC3    O2 8546   0.854   3.762   0.370  0.4573 -0.6704 -0.0635
  573MPD2     C 8547   2.353   4.599   0.482  0.2312  0.1970 -0.1654
  573MPD2    C1 8548   2.473   4.667   0.472 -1.5056  0.1061  0.5178
  573MPD2    C2 8549   2.559   4.630   0.373 -0.4697 -0.8158 -0.1012
  573MPD2    C3 8550   2.536   4.522   0.294  0.1548 -0.1670 -0.5862
  573MPD2    C4 8551   2.420   4.452   0.311 -0.0937  0.1588 -1.0332
  573MPD2    C5 8552   2.319   4.491   0.398 -0.3378 -0.3459  0.9871
  573MPD2     H 8553   2.648   4.689   0.354 -1.3385  0.7437  0.6333
  573MPD2    H1 8554   2.400   4.360   0.258  1.4439 -1.3851  1.0139
  573MPD2    H2 8555   2.273   4.633   0.547 -1.4337 -1.3274 -1.4492
  573MPD2    H3 8556   2.224   4.440   0.399  0.8583 -2.5732 -2.5029
  573MPD2     N 8557   2.638   4.499   0.195 -0.0856 -0.1116 -0.7841
  573MPD2    H5 8558   2.731   4.541   0.196 -0.9882  1.9060 -1.6832
  573MPD2    N1 8559   2.475   0.055   0.532  0.7077  0.7127 -0.0177
  573MPD2    H7 8560   2.391   0.091   0.575 -0.2241  0.7140 -1.8193
  574TMC3    C1 8561   2.709   4.448  17.723 -0.3016  0.5807  0.1757
  574TMC3    C2 8562   2.727   4.582  17.710 -0.1365 -0.5849  0.2549
  574TMC3    C3 8563   2.851   4.625  17.667  0.1309  0.5214  0.1734
  574TMC3    C4 8564   2.812   4.356  17.711 -0.3551  0.4414  0.1442
  574TMC3    C5 8565   2.935   4.403  17.655 -0.5263 -0.1268  0.4072
  574TMC3    C6 8566   2.954   4.541  17.637  0.3403  0.2786  0.5145
  574TMC3     C 8567   2.616   4.417   0.086 -0.3449  0.2681 -0.6244
  574TMC3     O 8568   2.549   4.316   0.078  0.3623 -0.0215  0.9156
  574TMC3     H 8569   2.640   4.644  17.729 -1.4718 -2.0408 -1.1683
  574TMC3    H1 8570   2.810   4.250  17.737  0.0930  0.7984  1.6726
  574TMC3    H2 8571   3.048   4.582  17.604  0.4418  0.3149  0.8432
  574TMC3    C7 8572   3.047   4.316  17.660 -0.8430 -0.8126  0.3105
  574TMC3    C8 8573   2.887   0.020  17.714 -0.1112  0.3325  0.5243
  574TMC3    O1 8574   3.039   4.216  17.730 -0.2934 -0.2779  0.6347
  574TMC3    O2 8575   3.007   0.051  17.721  0.3715  0.6321 -0.3959
  575TMC3    C1 8576   0.213   0.539   9.926 -0.2033 -0.2443 -0.3263
  575TMC3    C2 8577   0.279   0.635   9.998  0.3033 -0.6688 -0.1064
  575TMC3    C3 8578   0.389   0.691   9.942 -0.1531  0.2890 -0.4425
  575TMC3    C4 8579   0.231   0.513   9.792 -0.3808  0.4747 -0.4089
  575TMC3    C5 8580   0.342   0.569   9.739  1.1303  0.5239 -0.0238
  575TMC3    C6 8581   0.427   0.658   9.811 -0.2728 -0.0278 -0.1630
  575TMC3     C 8582   0.092   0.485   9.988  0.4614 -0.1660  0.5852
  575TMC3     O 8583   0.053   0.548  10.086  0.1980 -0.8626  0.2244
  575TMC3     H 8584   0.277   0.650  10.105  1.0436 -0.1723 -0.1615
  575TMC3    H1 8585   0.169   0.446   9.735 -1.8791  1.4417  0.0921
  575TMC3    H2 8586   0.501   0.723   9.766 -0.6176  1.4088  1.3502
  575TMC3    C7 8587   0.382   0.539   9.603 -0.0160 -0.2577 -1.1029
  575TMC3    C8 8588   0.434   0.810  10.010 -0.2588  0.6728  0.3563
  575TMC3    O1 8589   0.473   0.608   9.559 -0.1644  0.1750 -0.4790
  575TMC3    O2 8590   0.357   0.853  10.095 -0.0080 -0.3275 -0.1590
  576MPD2     C 8591   4.617   2.341  12.532 -0.1162  0.6236 -0.4005
  576MPD2    C1 8592   4.565   2.452  12.480 -0.2213  0.2296  0.5102
  576MPD2    C2 8593   4.536   2.564  12.556  0.3665 -0.2605  0.9551
  576MPD2    C3 8594   4.562   2.566  12.695  0.1289 -0.2019 -0.4764
  576MPD2    C4 8595   4.621   2.451  12.750  0.1698  1.0872 -0.0434
  576MPD2    C5 8596   4.650   2.342  12.664 -0.0442 -0.3726  0.6491
  576MPD2     H 8597   4.494   2.643  12.496 -2.3906  0.4547  3.7946
  576MPD2    H1 8598   4.653   2.450  12.854  0.1312  2.5857 -0.0192
  576MPD2    H2 8599   4.635   2.247  12.480  0.4651  0.1532  0.6407
  576MPD2    H3 8600   4.681   2.245  12.700  2.2561  0.6630  1.4342
  576MPD2     N 8601   4.544   2.685  12.764 -0.4412  0.6800  1.0397
  576MPD2    H5 8602   4.529   2.765  12.704 -0.5133  0.4432  0.7439
  576MPD2    N1 8603   4.524   2.465  12.344  0.2824  0.3034  0.7074
  576MPD2    H7 8604   4.491   2.557  12.316 -1.2349  0.0419  1.6553
  577TMC3    C1 8605   4.451   2.392  12.139  0.0082  0.3857  0.1115
  577TMC3    C2 8606   4.488   2.332  12.027  0.2853  0.3726 -0.4344
  577TMC3    C3 8607   4.404   2.332  11.922  0.0555  0.3205 -0.4090
  577TMC3    C4 8608   4.335   2.464  12.148  0.4523  0.1363 -0.1744
  577TMC3    C5 8609   4.260   2.480  12.035  0.2952  0.2647  0.0988
  577TMC3    C6 8610   4.287   2.405  11.925  0.2784 -0.2617  0.2285
  577TMC3     C 8611   4.530   2.362  12.254  0.3100 -0.6252  0.4155
  577TMC3     O 8612   4.562   2.240  12.263 -0.0074 -0.0542  0.4441
  577TMC3     H 8613   4.567   2.257  12.028 -1.6231 -1.6213  1.1110
  577TMC3    H1 8614   4.295   2.514  12.235 -1.6115  0.6057 -1.3886
  577TMC3    H2 8615   4.215   2.402  11.845  1.1446  1.2293 -0.6051
  577TMC3    C7 8616   4.109   2.494  12.057 -0.0941 -0.7429 -0.6748
  577TMC3    C8 8617   4.390   2.208  11.852 -0.0417  0.1585 -0.2660
  577TMC3    O1 8618   4.062   2.463  12.163 -0.6020 -0.2474 -0.3939
  577TMC3    O2 8619   4.273   2.180  11.813  0.1109  0.0295  0.4878
  578MPD2     C 8620   3.033   2.018   1.475 -0.1565 -0.4372  0.4178
  578MPD2    C1 8621   3.136   2.094   1.511 -0.0657 -0.8001 -0.4861
  578MPD2    C2 8622   3.267   2.052   1.489 -0.0933 -0.6266  0.2836
  578MPD2    C3 8623   3.295   1.927   1.435  0.4329 -0.3123 -0.4058
  578MPD2    C4 8624   3.188   1.850   1.410 -0.5189  0.4957 -0.3195
  578MPD2    C5 8625   3.059   1.896   1.422 -0.2633 -0.4038  0.6147
  578MPD2     H 8626   3.353   2.116   1.504  0.7215 -1.3624 -1.2298
  578MPD2    H1 8627   3.194   1.757   1.354 -1.2700 -1.0835  2.2426
  578MPD2    H2 8628   2.930   2.050   1.490  0.7848  2.0111  1.7570
  578MPD2    H3 8629   2.982   1.822   1.402 -1.6351  0.7443  1.7091
  578MPD2     N 8630   3.429   1.894   1.405 -0.0173  0.3200 -0.1092
  578MPD2    H5 8631   3.501   1.962   1.425 -0.1473  0.5229 -0.3376
  578MPD2    N1 8632   3.103   2.223   1.568  0.3131 -0.0456  0.1220
  578MPD2    H7 8633   3.006   2.252   1.568  0.6603  1.0802 -0.0341
  579TMC3    C1 8634   3.604   1.766   1.325 -0.5697 -0.1142 -0.6052
  579TMC3    C2 8635   3.688   1.818   1.425  0.5209  0.5228 -0.7389
  579TMC3    C3 8636   3.826   1.812   1.406 -0.1579 -0.2767 -0.5392
  579TMC3    C4 8637   3.655   1.701   1.215 -0.3162  0.0101  0.0943
  579TMC3    C5 8638   3.788   1.705   1.201 -0.0437  0.0248  0.4210
  579TMC3    C6 8639   3.880   1.750   1.292  0.7794 -0.7221  0.2732
  579TMC3     C 8640   3.463   1.774   1.342 -0.6172  0.3842  0.4714
  579TMC3     O 8641   3.393   1.694   1.282  0.3901 -0.5437  0.0807
  579TMC3     H 8642   3.653   1.859   1.519  2.0409 -1.6358  0.7637
  579TMC3    H1 8643   3.586   1.662   1.140 -1.1757 -1.9426  1.9142
  579TMC3    H2 8644   3.983   1.724   1.269  1.3346  1.2960  0.4570
  579TMC3    C7 8645   3.850   1.631   1.086  0.1454 -0.6467 -0.3081
  579TMC3    C8 8646   3.919   1.831   1.512  0.8857  0.4658 -0.1562
  579TMC3    O1 8647   3.960   1.582   1.097 -0.1079  0.3529  0.1215
  579TMC3    O2 8648   3.865   1.830   1.622 -0.3058 -0.1793  0.3136
  580TMC3    C1 8649   2.580   1.516  12.355 -0.0516 -0.3313 -0.2557
  580TMC3    C2 8650   2.676   1.601  12.304 -0.2721  0.4742 -0.2096
  580TMC3    C3 8651   2.761   1.551  12.210  0.0564  0.2484  0.2954
  580TMC3    C4 8652   2.581   1.382  12.344  0.0608  0.1957  0.5558
  580TMC3    C5 8653   2.668   1.339  12.244 -0.7152 -0.3674  0.5953
  580TMC3    C6 8654   2.763   1.415  12.185  0.1106 -0.7417  0.4866
  580TMC3     C 8655   2.453   1.583  12.351  0.9980 -0.1563 -0.6607
  580TMC3     O 8656   2.457   1.704  12.369  0.1662 -0.1412 -0.3055
  580TMC3     H 8657   2.676   1.706  12.330 -0.3581  0.4892 -0.2689
  580TMC3    H1 8658   2.519   1.312  12.400 -2.2762  2.2924  0.6069
  580TMC3    H2 8659   2.817   1.365  12.105 -2.0219 -1.3556 -0.5614
  580TMC3    C7 8660   2.653   1.198  12.216 -0.7463 -0.7865  0.1551
  580TMC3    C8 8661   2.807   1.630  12.094  0.5410 -0.4389  0.1210
  580TMC3    O1 8662   2.613   1.125  12.306  0.1944 -0.1269 -0.0722
  580TMC3    O2 8663   2.764   1.590  11.989  0.1072  0.3214 -0.7832
  581MPD2     C 8664   0.565   0.963  14.843 -0.1467 -0.9119 -0.1213
  581MPD2    C1 8665   0.436   0.930  14.834 -0.3064 -0.5593  0.4213
  581MPD2    C2 8666   0.352   0.973  14.730  0.5711  0.6719  0.3806
  581MPD2    C3 8667   0.404   1.051  14.629  0.1698 -0.5205 -0.5845
  581MPD2    C4 8668   0.538   1.092  14.644 -1.1415  0.0087  0.0282
  581MPD2    C5 8669   0.622   1.047  14.746 -0.1343 -0.5452  0.2502
  581MPD2     H 8670   0.254   0.930  14.714  1.3910 -0.8838 -0.5165
  581MPD2    H1 8671   0.577   1.169  14.578 -1.0410 -0.1338 -0.0779
  581MPD2    H2 8672   0.622   0.935  14.931  1.3029  0.8977 -0.4630
  581MPD2    H3 8673   0.724   1.081  14.757 -0.4618  0.4574  0.1151
  581MPD2     N 8674   0.314   1.105  14.534  0.7254  0.2866  0.0516
  581MPD2    H5 8675   0.214   1.102  14.550  0.6457 -0.5562 -0.6151
  581MPD2    N1 8676   0.396   0.845  14.936  0.0925  0.0093  0.3789
  581MPD2    H7 8677   0.471   0.816  14.998 -0.9190 -0.2771  1.4649
  582TMC3    C1 8678   0.247   0.740  15.093 -0.4662 -0.1230 -0.9848
  582TMC3    C2 8679   0.334   0.769  15.195 -0.1692  0.1533  0.5394
  582TMC3    C3 8680   0.314   0.721  15.325 -0.2929 -0.5988  0.1363
  582TMC3    C4 8681   0.124   0.685  15.119  0.2683 -0.2355 -0.0368
  582TMC3    C5 8682   0.105   0.647  15.253 -0.1946 -0.5852  0.6829
  582TMC3    C6 8683   0.194   0.671  15.353 -0.5589 -0.5392  0.5981
  582TMC3     C 8684   0.264   0.800  14.958 -0.5544  0.5839 -0.4352
  582TMC3     O 8685   0.168   0.800  14.884  0.1149  0.8669 -0.1685
  582TMC3     H 8686   0.418   0.836  15.180  0.9193 -1.8493 -2.2017
  582TMC3    H1 8687   0.042   0.676  15.048  0.8039  1.5687 -0.8988
  582TMC3    H2 8688   0.161   0.640  15.452 -1.2472  2.2124  1.2150
  582TMC3    C7 8689   4.703   0.666  15.290 -0.2083 -0.3665  0.4325
  582TMC3    C8 8690   0.376   0.784  15.440 -0.6311  0.4434  0.1168
  582TMC3    O1 8691   4.616   0.587  15.244  0.2369 -0.3861  0.2895
  582TMC3    O2 8692   0.308   0.795  15.540  0.9068  0.6126 -0.0285
  583MPD2     C 8693   0.643   2.693  16.755  0.7696  0.0962  0.0551
  583MPD2    C1 8694   0.621   2.791  16.654 -0.2879  0.1543  0.6033
  583MPD2    C2 8695   0.559   2.908  16.687  0.6355 -0.8501 -0.4824
  583MPD2    C3 8696   0.516   2.934  16.820 -0.4345  0.0963 -0.3857
  583MPD2    C4 8697   0.544   2.844  16.917 -1.0147  0.2625 -0.2887
  583MPD2    C5 8698   0.605   2.726  16.881 -0.2593  0.6701 -0.0091
  583MPD2     H 8699   0.537   2.986  16.614 -0.3597  0.3178  1.0644
  583MPD2    H1 8700   0.511   2.860  17.019  1.4065  2.3360  0.1630
  583MPD2    H2 8701   0.696   2.600  16.736 -0.4663 -0.6219  0.0898
  583MPD2    H3 8702   0.622   2.655  16.962 -1.4178  1.9295  1.3420
  583MPD2     N 8703   0.432   3.049  16.845 -0.3006  0.2461  0.4029
  583MPD2    H5 8704   0.414   3.111  16.767 -0.8365 -1.7936 -1.0913
  583MPD2    N1 8705   0.682   2.793  16.532  0.2593  0.4598 -0.1262
  583MPD2    H7 8706   0.658   2.868  16.468 -2.4010 -1.1232 -1.0228
  584TMC3    C1 8707   0.283   3.171  16.961  0.0241 -0.3470 -0.5026
  584TMC3    C2 8708   0.319   3.291  16.905 -0.1299 -0.1460 -0.0561
  584TMC3    C3 8709   0.255   3.409  16.950  0.0771  0.2213 -0.0656
  584TMC3    C4 8710   0.201   3.172  17.076  0.0309 -0.2948 -0.5508
  584TMC3    C5 8711   0.144   3.290  17.113  0.2168  0.4750 -0.0053
  584TMC3    C6 8712   0.168   3.409  17.052 -0.9778  0.0473 -0.0600
  584TMC3     C 8713   0.367   3.058  16.961  0.0869 -0.1524  0.4403
  584TMC3     O 8714   0.388   3.018  17.073 -0.3179 -0.1323  0.2554
  584TMC3     H 8715   0.402   3.304  16.838 -0.0165  1.2476  0.3552
  584TMC3    H1 8716   0.168   3.080  17.123  0.9953 -0.7409 -0.7478
  584TMC3    H2 8717   0.114   3.500  17.078 -0.0872  0.6777 -0.4225
  584TMC3    C7 8718   0.040   3.284  17.214 -0.4977  0.8774  0.6537
  584TMC3    C8 8719   0.308   3.532  16.889  0.2056 -0.4207  0.0214
  584TMC3    O1 8720   4.707   3.388  17.226 -0.7911  0.0321 -0.3374
  584TMC3    O2 8721   0.354   3.529  16.778 -0.5794  0.0582 -0.4958
  585MPD2     C 8722   4.651   1.632   0.582  0.6335  0.2311  0.6938
  585MPD2    C1 8723   4.723   1.662   0.468  0.3896  0.2130 -0.6745
  585MPD2    C2 8724   4.665   1.629   0.342  0.0252  0.0753  0.0187
  585MPD2    C3 8725   4.546   1.557   0.337  0.4403 -0.4313  0.0685
  585MPD2    C4 8726   4.481   1.535   0.458 -0.5558  0.5256  0.2963
  585MPD2    C5 8727   4.532   1.574   0.581 -0.1675 -0.1902  0.3646
  585MPD2     H 8728   4.707   1.667   0.250 -2.7653  2.3904 -0.2901
  585MPD2    H1 8729   4.384   1.487   0.464 -0.5756  0.3260 -1.8281
  585MPD2    H2 8730   4.700   1.655   0.676  0.4935  1.8718  0.3612
  585MPD2    H3 8731   4.470   1.554   0.668  1.1742 -0.1386  1.3268
  585MPD2     N 8732   4.484   1.515   0.218 -0.3979 -1.0446  0.1902
  585MPD2    H5 8733   4.391   1.478   0.232 -0.2024 -1.0712  1.4570
  585MPD2    N1 8734   0.095   1.758   0.471 -0.6855  0.9522 -0.2134
  585MPD2    H7 8735   0.126   1.811   0.553  2.1010  1.1345 -1.3842
  586TMC3    C1 8736   4.460   1.471  17.732 -0.4705 -0.2720 -0.4951
  586TMC3    C2 8737   4.494   1.517  17.606  0.4489 -0.1032  0.0418
  586TMC3    C3 8738   4.398   1.511  17.509 -0.3002 -0.1726  0.3335
  586TMC3    C4 8739   4.333   1.429   0.010  0.7088 -0.3766 -0.0133
  586TMC3    C5 8740   4.240   1.435  17.652 -0.8818 -0.4806 -0.0980
  586TMC3    C6 8741   4.266   1.491  17.529  0.7818 -0.4225 -0.1683
  586TMC3     C 8742   4.542   1.526   0.097  0.0531  0.4690  0.7715
  586TMC3     O 8743   4.660   1.559   0.070 -0.1120 -0.6961  0.4814
  586TMC3     H 8744   4.598   1.532  17.578 -0.5199  4.1275 -1.2314
  586TMC3    H1 8745   4.297   1.397   0.107 -0.8639  0.2583 -0.3902
  586TMC3    H2 8746   4.193   1.516  17.452 -1.7999 -0.8166  2.1378
  586TMC3    C7 8747   4.129   1.339  17.663 -0.4932 -0.7374  0.2615
  586TMC3    C8 8748   4.460   1.452  17.393 -0.7413  0.8098  0.0159
  586TMC3    O1 8749   4.130   1.245  17.740  0.2587  0.5505 -0.8940
  586TMC3    O2 8750   4.584   1.447  17.381 -0.1409  0.2110 -0.3939
  587TMC3    C1 8751   1.595   0.460  16.692 -0.6523  0.7956  0.2171
  587TMC3    C2 8752   1.669   0.539  16.778 -1.0114 -0.1529  0.4786
  587TMC3    C3 8753   1.801   0.508  16.794 -0.7230  0.2300 -0.5804
  587TMC3    C4 8754   1.641   0.341  16.645  0.1679 -0.3406 -0.3098
  587TMC3    C5 8755   1.760   0.301  16.695 -1.0184  0.0569 -0.2120
  587TMC3    C6 8756   1.845   0.382  16.762 -0.8981 -0.0572  0.4210
  587TMC3     C 8757   1.468   0.521  16.653 -0.0802  0.0853 -0.3533
  587TMC3     O 8758   1.466   0.640  16.675  0.0928 -0.0811 -0.4519
  587TMC3     H 8759   1.629   0.629  16.825  1.0691  0.7430  0.5202
  587TMC3    H1 8760   1.590   0.285  16.566 -0.5949 -0.9780  0.6375
  587TMC3    H2 8761   1.945   0.356  16.796 -0.5896  0.1969 -0.3062
  587TMC3    C7 8762   1.792   0.166  16.667  0.2650  0.5213 -0.1034
  587TMC3    C8 8763   1.888   0.616  16.841 -0.4688  0.2887  0.0697
  587TMC3    O1 8764   1.703   0.099  16.614 -0.3288 -0.1863  0.3929
  587TMC3    O2 8765   1.996   0.571  16.878  0.1785 -0.0891 -0.6985
  588TMC3    C1 8766   4.177   3.270   9.716 -0.5559  0.1484  0.5584
  588TMC3    C2 8767   4.097   3.161   9.695 -0.6584 -0.5036  0.0926
  588TMC3    C3 8768   4.119   3.054   9.775  0.1731  0.0767 -0.6241
  588TMC3    C4 8769   4.278   3.270   9.808  0.3051  0.4355 -0.0704
  588TMC3    C5 8770   4.297   3.160   9.886 -0.6987  0.3891  0.1968
  588TMC3    C6 8771   4.220   3.052   9.867 -0.0304 -0.3930  0.8150
  588TMC3     C 8772   4.157   3.390   9.647  0.1395  0.2925  0.3990
  588TMC3     O 8773   4.141   3.394   9.524 -0.4284 -0.1025  0.0507
  588TMC3     H 8774   4.009   3.154   9.633 -0.4149 -0.1432 -0.2954
  588TMC3    H1 8775   4.350   3.350   9.809  2.7740 -1.7469 -1.0546
  588TMC3    H2 8776   4.246   2.968   9.930 -1.4319 -0.2604  1.5870
  588TMC3    C7 8777   4.351   3.177  10.017 -0.7262 -0.9130  0.4121
  588TMC3    C8 8778   4.059   2.926   9.738 -0.5758  0.2417 -0.5178
  588TMC3    O1 8779   4.399   3.076  10.072 -0.0247  0.0253  0.5378
  588TMC3    O2 8780   4.022   2.911   9.622  0.2993 -0.4501  0.3191
  589TMC3    C1 8781   3.735   0.314   1.002 -0.4346 -0.5175 -0.1379
  589TMC3    C2 8782   3.858   0.306   1.068  0.4746 -0.2264  0.4771
  589TMC3    C3 8783   3.948   0.213   1.034 -0.3198  0.2802  0.3044
  589TMC3    C4 8784   3.707   0.224   0.904 -0.2861  0.2254  0.5806
  589TMC3    C5 8785   3.804   0.141   0.858  0.3702  0.1479 -0.2647
  589TMC3    C6 8786   3.919   0.123   0.933 -0.5427  0.5239  0.4389
  589TMC3     C 8787   3.657   0.434   0.996 -0.5500  0.4370 -0.0974
  589TMC3     O 8788   3.559   0.431   0.922  0.3400  0.1540 -0.2285
  589TMC3     H 8789   3.884   0.372   1.151  0.9521 -2.4673  2.1098
  589TMC3    H1 8790   3.618   0.231   0.842  1.8765  0.3974 -2.4736
  589TMC3    H2 8791   3.989   0.044   0.906 -1.0056  0.2655  0.0135
  589TMC3    C7 8792   3.752   0.017   0.792  0.6938 -0.5485  0.2236
  589TMC3    C8 8793   4.081   0.214   1.092 -0.5441 -1.0066  0.4209
  589TMC3    O1 8794   3.638   4.734   0.810 -0.5251  0.3479  0.1074
  589TMC3    O2 8795   4.167   0.185   1.012  0.3874 -0.0656  0.2074
  590MPD2     C 8796   2.982   3.683  16.709 -0.1855  0.5327  0.0417
  590MPD2    C1 8797   2.912   3.746  16.608  0.2753  0.6025 -0.5514
  590MPD2    C2 8798   2.982   3.833  16.521 -0.8329 -0.0936  0.6019
  590MPD2    C3 8799   3.115   3.862  16.537 -0.0384  0.1782  0.0423
  590MPD2    C4 8800   3.178   3.794  16.636 -0.4507  0.3717  0.0342
  590MPD2    C5 8801   3.115   3.710  16.724  0.3620 -0.1130  0.3657
  590MPD2     H 8802   2.927   3.905  16.462 -0.4078  0.8247  1.3319
  590MPD2    H1 8803   3.283   3.808  16.659  0.0172 -0.8467 -1.3990
  590MPD2    H2 8804   2.929   3.620  16.780  0.3312  0.5110  0.4079
  590MPD2    H3 8805   3.172   3.674  16.809  0.7458 -2.1046 -0.7261
  590MPD2     N 8806   3.175   3.945  16.444  0.2753  0.3960 -0.0510
  590MPD2    H5 8807   3.113   3.995  16.381  0.5537 -1.0124 -1.4288
  590MPD2    N1 8808   2.772   3.723  16.606 -0.1369  0.3639  0.1154
  590MPD2    H7 8809   2.729   3.673  16.682  1.1079  0.2847  0.7707
  591TMC3    C1 8810   3.328   4.089  16.349  0.0011  0.5600 -0.0201
  591TMC3    C2 8811   3.448   4.093  16.281  0.0789  0.3058 -0.6794
  591TMC3    C3 8812   3.457   4.184  16.173 -0.6364  0.1972 -0.5875
  591TMC3    C4 8813   3.218   4.166  16.321  0.1508 -0.2568 -0.3593
  591TMC3    C5 8814   3.240   4.262  16.230 -0.6117 -0.5763 -0.2508
  591TMC3    C6 8815   3.354   4.272  16.158 -1.5997  0.2050 -0.2872
  591TMC3     C 8816   3.307   3.982  16.441  0.4506 -0.0842  1.0776
  591TMC3     O 8817   3.407   3.929  16.490  0.0023 -0.0907  0.3539
  591TMC3     H 8818   3.527   4.022  16.305  1.4511  1.9410 -0.3938
  591TMC3    H1 8819   3.121   4.160  16.368  0.5923  3.3240  0.9878
  591TMC3    H2 8820   3.374   4.344  16.079  0.2538 -0.2151 -0.1982
  591TMC3    C7 8821   3.124   4.326  16.180  0.1139  0.1705  0.2239
  591TMC3    C8 8822   3.532   4.142  16.052 -0.1124 -0.4509 -0.1273
  591TMC3    O1 8823   3.017   4.270  16.199 -1.3239  0.0113  0.4433
  591TMC3    O2 8824   3.559   4.018  16.049  0.5010 -0.4380 -0.1038
  592MPD2     C 8825   2.985   1.018  11.314 -0.5997  0.0768  0.0861
  592MPD2    C1 8826   2.947   1.060  11.443  0.1561  0.2556 -0.2028
  592MPD2    C2 8827   2.911   0.967  11.539  0.8470  0.0930  0.2067
  592MPD2    C3 8828   2.912   0.833  11.507 -0.6392  0.3963 -0.2879
  592MPD2    C4 8829   2.945   0.795  11.377 -0.2159  0.4237 -0.4631
  592MPD2    C5 8830   2.976   0.888  11.281  0.4336 -0.5762 -0.4051
  592MPD2     H 8831   2.854   1.005  11.622  2.4717  0.1411  1.3007
  592MPD2    H1 8832   2.928   0.695  11.340  1.0257 -0.7959  2.3055
  592MPD2    H2 8833   3.014   1.093  11.240 -0.3597 -0.0361  0.0659
  592MPD2    H3 8834   2.996   0.866  11.177  0.5867 -0.2910 -0.4365
  592MPD2     N 8835   2.868   0.740  11.604  0.2092 -0.1820 -0.4438
  592MPD2    H5 8836   2.868   0.782  11.696  1.2833  0.7376 -0.8581
  592MPD2    N1 8837   2.964   1.195  11.477 -0.5668 -0.0139 -0.0918
  592MPD2    H7 8838   2.999   1.257  11.404  0.9928 -1.3972 -0.5317
  593TMC3    C1 8839   2.951   1.399  11.596 -0.5629 -0.1936 -0.6198
  593TMC3    C2 8840   2.968   1.461  11.721  0.1369 -0.2829  0.9253
  593TMC3    C3 8841   3.048   1.571  11.731 -0.9602  0.3130 -0.7767
  593TMC3    C4 8842   3.009   1.448  11.490 -0.2467  0.5885  0.0916
  593TMC3    C5 8843   3.072   1.574  11.501 -0.1062 -0.0395  0.2764
  593TMC3    C6 8844   3.097   1.633  11.618  1.1742 -0.0520 -0.0593
  593TMC3     C 8845   2.939   1.254  11.597 -0.3037 -0.2834  0.3687
  593TMC3     O 8846   2.910   1.202  11.703 -0.1856 -0.6657  0.2806
  593TMC3     H 8847   2.936   1.406  11.808 -2.0926 -0.4931 -0.0045
  593TMC3    H1 8848   2.975   1.418  11.392  1.3591 -0.2567 -0.2056
  593TMC3    H2 8849   3.167   1.715  11.627  0.3405  0.3395  2.8821
  593TMC3    C7 8850   3.130   1.649  11.390  0.2163  0.2503  0.7677
  593TMC3    C8 8851   3.087   1.605  11.861 -0.9329  0.6391 -0.0209
  593TMC3    O1 8852   3.192   1.754  11.416 -0.6750 -0.3921  0.2477
  593TMC3    O2 8853   3.076   1.516  11.949  0.0979  0.2527  0.2389
  594MPD2     C 8854   1.965   4.468  14.049 -0.3777  0.1329 -1.2077
  594MPD2    C1 8855   1.999   4.488  14.181  0.3048 -0.1157  0.0581
  594MPD2    C2 8856   2.110   4.556  14.213  0.2000  0.1390  0.2818
  594MPD2    C3 8857   2.185   4.607  14.108  0.0239 -0.1630  0.1890
  594MPD2    C4 8858   2.158   4.584  13.973  0.2395 -0.2479  0.1153
  594MPD2    C5 8859   2.037   4.521  13.948 -0.6399  0.0593  0.0657
  594MPD2     H 8860   2.148   4.559  14.315  1.8352  1.3532 -0.3602
  594MPD2    H1 8861   2.213   4.623  13.888  1.2716 -0.3886  0.7074
  594MPD2    H2 8862   1.871   4.423  14.019  0.9920 -3.9388  0.6703
  594MPD2    H3 8863   2.014   4.496  13.845  1.9150 -0.9035 -0.2697
  594MPD2     N 8864   2.300   4.677  14.152 -0.3780 -0.6376  0.3588
  594MPD2    H5 8865   2.311   4.689  14.252  1.0907  1.6555 -0.0972
  594MPD2    N1 8866   1.917   4.417  14.276  0.7284  0.0373  0.4053
  594MPD2    H7 8867   1.848   4.354  14.237 -0.3737  0.7103  1.2388
  595TMC3    C1 8868   2.699   0.166  14.151  0.3251  0.0734  0.5613
  595TMC3    C2 8869   2.617   0.086  14.076  0.6022  0.8643  0.3976
  595TMC3    C3 8870   2.485   0.090  14.112 -0.9048 -0.1685 -0.3070
  595TMC3    C4 8871   2.658   0.246  14.255 -0.4769  0.1637  0.5385
  595TMC3    C5 8872   2.521   0.252  14.281  0.2573 -0.4419 -0.3502
  595TMC3    C6 8873   2.437   0.168  14.214  0.9230 -0.8258  0.3979
  595TMC3     C 8874   2.839   0.141  14.146  0.2159  0.0483 -0.4968
  595TMC3     O 8875   2.893   0.116  14.257 -0.1967  0.2840 -0.6182
  595TMC3     H 8876   2.641   0.016  13.997 -1.7353  3.0687 -2.2580
  595TMC3    H1 8877   2.727   0.319  14.294 -1.1459  1.3444 -0.4818
  595TMC3    H2 8878   2.333   0.169  14.246  1.0044  1.0766  0.6326
  595TMC3    C7 8879   2.468   0.327  14.389  0.1354  0.1778 -0.3814
  595TMC3    C8 8880   2.402   4.712  14.066  0.3690 -0.5342 -0.6380
  595TMC3    O1 8881   2.348   0.333  14.398  0.6877  0.3750  0.1129
  595TMC3    O2 8882   2.430   4.685  13.950  0.3146  0.0453  0.1728
  596MPD2     C 8883   1.412   2.662  16.863  0.3397 -0.3419  0.3133
  596MPD2    C1 8884   1.402   2.768  16.770  0.2851  0.0432  0.0262
  596MPD2    C2 8885   1.433   2.731  16.642  0.5906  0.2033  0.8540
  596MPD2    C3 8886   1.481   2.607  16.598 -0.8433 -0.1879 -0.1171
  596MPD2    C4 8887   1.496   2.512  16.698  0.1342 -0.9146 -0.2901
  596MPD2    C5 8888   1.466   2.541  16.829 -0.3792  0.3247  0.3515
  596MPD2     H 8889   1.420   2.810  16.569  2.1035 -2.0294 -1.8045
  596MPD2    H1 8890   1.530   2.414  16.668 -0.7148 -0.6633 -2.0488
  596MPD2    H2 8891   1.373   2.677  16.963 -2.1494 -3.6842 -0.1783
  596MPD2    H3 8892   1.469   2.464  16.906  0.0974 -0.7644 -0.7541
  596MPD2     N 8893   1.510   2.577  16.464  0.2989 -0.3268  0.0126
  596MPD2    H5 8894   1.549   2.485  16.446 -1.8730 -0.9804 -1.3267
  596MPD2    N1 8895   1.350   2.894  16.798 -0.3008  0.3606 -0.1750
  596MPD2    H7 8896   1.335   2.957  16.719  1.3854  1.7659  0.6248
  597TMC3    C1 8897   1.265   3.079  16.931 -0.2639  0.7053 -0.6614
  597TMC3    C2 8898   1.313   3.171  16.844  0.0635 -0.4230  0.0334
  597TMC3    C3 8899   1.248   3.290  16.843 -0.5403 -0.3267 -0.0388
  597TMC3    C4 8900   1.168   3.098  17.022 -0.3566 -0.4833  0.7613
  597TMC3    C5 8901   1.109   3.225  17.023  0.0959  0.9327  0.0612
  597TMC3    C6 8902   1.158   3.325  16.944  0.2375 -0.7630  0.2861
  597TMC3     C 8903   1.302   2.935  16.921 -0.6174  0.0959  0.2170
  597TMC3     O 8904   1.282   2.862  17.016  0.5598 -0.5444  0.1537
  597TMC3     H 8905   1.392   3.135  16.779  0.6068  0.5024  0.1864
  597TMC3    H1 8906   1.127   3.014  17.077 -0.6442 -1.2542 -0.6151
  597TMC3    H2 8907   1.089   3.409  16.936  1.5777  0.1371 -1.6521
  597TMC3    C7 8908   0.975   3.236  17.087 -0.2127  0.0530 -0.2539
  597TMC3    C8 8909   1.275   3.394  16.751  0.3327  0.0978 -0.5504
  597TMC3    O1 8910   0.943   3.133  17.151 -0.1955  0.0463 -0.1940
  597TMC3    O2 8911   1.225   3.505  16.772  0.6042 -0.5383  0.4815
  598TMC3    C1 8912   4.167   4.239  15.297  0.5511  0.1034  0.2020
  598TMC3    C2 8913   4.053   4.183  15.252  0.7792 -0.5878 -0.3212
  598TMC3    C3 8914   3.953   4.268  15.202 -0.4380 -0.2556 -0.6936
  598TMC3    C4 8915   4.207   4.358  15.256 -0.4919  0.6764  0.0975
  598TMC3    C5 8916   4.106   4.447  15.218 -0.2083  0.7004 -0.1267
  598TMC3    C6 8917   3.980   4.401  15.183 -0.1586 -0.4376  0.1566
  598TMC3     C 8918   4.277   4.151  15.328 -0.1179  0.4079 -0.6332
  598TMC3     O 8919   4.385   4.178  15.281  0.0129  0.2708  0.2134
  598TMC3     H 8920   4.032   4.077  15.252  1.7325 -0.7785 -0.1934
  598TMC3    H1 8921   4.304   4.400  15.280 -0.5850  1.7627 -1.4035
  598TMC3    H2 8922   3.895   4.453  15.140  0.2676 -0.6635 -0.9846
  598TMC3    C7 8923   4.138   4.578  15.162  0.0197  0.4305 -0.2097
  598TMC3    C8 8924   3.835   4.220  15.130  0.3882  0.0376 -0.2201
  598TMC3    O1 8925   4.049   4.664  15.150 -0.1588 -0.0297  0.2778
  598TMC3    O2 8926   3.787   4.291  15.041 -0.2315 -0.3565  0.5138
  599MPD2     C 8927   4.280   2.010  16.006 -0.2173  0.3540 -0.0089
  599MPD2    C1 8928   4.243   1.888  16.057  0.3758 -0.8892  0.0169
  599MPD2    C2 8929   4.169   1.874  16.180  0.8935 -0.1853 -0.7685
  599MPD2    C3 8930   4.138   1.989  16.254 -0.3055 -0.1558  0.0017
  599MPD2    C4 8931   4.187   2.108  16.207 -0.2263  0.7574 -0.1859
  599MPD2    C5 8932   4.253   2.121  16.089 -0.0849 -0.1468  0.5706
  599MPD2     H 8933   4.153   1.775  16.222 -1.0840  0.7361  0.6284
  599MPD2    H1 8934   4.166   2.201  16.259  0.4664 -0.8743  2.9828
  599MPD2    H2 8935   4.333   2.009  15.912 -2.4246 -2.1268 -1.2247
  599MPD2    H3 8936   4.284   2.221  16.060  3.5378 -1.5724 -0.5640
  599MPD2     N 8937   4.064   1.997  16.377  1.0939  0.2141  0.3982
  599MPD2    H5 8938   4.064   2.088  16.422 -1.7300  0.6499 -0.4803
  599MPD2    N1 8939   4.296   1.778  15.983 -0.2544  0.3166  0.0888
  599MPD2    H7 8940   4.362   1.805  15.911  0.6044  1.9852  1.4975
  600TMC3    C1 8941   3.932   1.908  16.557 -0.5623 -0.0632 -0.3759
  600TMC3    C2 8942   3.827   1.827  16.595  0.3712  0.3354  0.7260
  600TMC3    C3 8943   3.775   1.828  16.722 -0.2635 -0.6997 -0.6650
  600TMC3    C4 8944   3.984   1.987  16.653 -0.7798 -0.0034 -0.1498
  600TMC3    C5 8945   3.941   1.975  16.777 -0.3689 -0.4345  0.7408
  600TMC3    C6 8946   3.837   1.899  16.818 -0.4348  0.2613 -0.0336
  600TMC3     C 8947   3.983   1.897  16.423  0.4616 -0.4013  0.1351
  600TMC3     O 8948   3.951   1.791  16.367  0.1403 -0.1692  0.1388
  600TMC3     H 8949   3.774   1.778  16.514  0.0367 -0.8854  1.6841
  600TMC3    H1 8950   4.074   2.044  16.633  1.2979 -3.1576  0.0835
  600TMC3    H2 8951   3.792   1.931  16.911 -1.3176 -0.9340 -0.0381
  600TMC3    C7 8952   3.994   2.067  16.880  0.2361 -0.6468 -0.2174
  600TMC3    C8 8953   3.633   1.799  16.746 -0.3472  0.2504 -1.3489
  600TMC3    O1 8954   4.054   2.162  16.838 -0.3300  0.3464  0.5367
  600TMC3    O2 8955   3.584   1.862  16.837 -0.0836  0.0520  0.5530
  601MPD2     C 8956   1.345   4.639   0.481 -0.4518  0.1332 -0.5802
  601MPD2    C1 8957   1.287   4.608   0.358  0.7331  0.5562  0.0620
  601MPD2    C2 8958   1.269   4.477   0.325 -0.3815  0.1294  0.1774
  601MPD2    C3 8959   1.298   4.373   0.411 -0.6575 -0.1733  0.9161
  601MPD2    C4 8960   1.350   4.402   0.535  0.2924  0.1490 -0.1435
  601MPD2    C5 8961   1.365   4.536   0.572 -0.2056 -0.7299 -0.6070
  601MPD2     H 8962   1.239   4.455   0.223  0.5095 -0.2586  0.0030
  601MPD2    H1 8963   1.354   4.328   0.613  0.7134  0.1774 -0.1369
  601MPD2    H2 8964   1.376   0.002   0.513  1.1220  0.1132 -2.0707
  601MPD2    H3 8965   1.399   4.558   0.673 -1.2818  1.8746 -0.8207
  601MPD2     N 8966   1.263   4.242   0.382  0.1702 -0.2131 -0.0493
  601MPD2    H5 8967   1.275   4.166   0.449  0.2180 -2.3493 -2.4837
  601MPD2    N1 8968   1.259   4.704   0.260  0.4201  0.0739  0.5023
  601MPD2    H7 8969   1.209   4.667   0.179  0.8202 -0.2966  0.4252
  602TMC3    C1 8970   1.236   0.182   0.148  0.7684  0.2858  0.7608
  602TMC3    C2 8971   1.268   0.310   0.133  0.4627  0.0815 -0.8668
  602TMC3    C3 8972   1.202   0.382   0.032  0.1002 -0.6803  0.3248
  602TMC3    C4 8973   1.122   0.130   0.094  0.2085  0.2469  0.0424
  602TMC3    C5 8974   1.058   0.199  17.737 -0.0511 -0.3239  0.5514
  602TMC3    C6 8975   1.096   0.330  17.707  0.3659 -0.1455 -0.0521
  602TMC3     C 8976   1.299   0.106   0.255 -0.0303 -0.6422  0.3211
  602TMC3     O 8977   1.351   0.166   0.347  0.1373 -0.0540 -0.2507
  602TMC3     H 8978   1.357   0.353   0.177  0.4574  0.0599 -0.8349
  602TMC3    H1 8979   1.082   0.031   0.114 -1.6942  0.5475 -2.2608
  602TMC3    H2 8980   1.039   0.378  17.629  0.2839 -0.4164 -0.1597
  602TMC3    C7 8981   0.987   0.119  17.635  0.3712  0.1373  0.7105
  602TMC3    C8 8982   1.254   0.510  17.736  0.7600 -0.0582 -0.4000
  602TMC3    O1 8983   0.941   0.014  17.667  0.0601 -0.2268 -0.4928
  602TMC3    O2 8984   1.266   0.599   0.078 -0.1408 -0.0748 -0.1089
  603TMC3    C1 8985   3.451   0.909  11.257 -0.0073 -0.3518  0.8103
  603TMC3    C2 8986   3.521   0.839  11.356  0.1325  0.4740 -0.1560
  603TMC3    C3 8987   3.631   0.907  11.405  0.5232 -1.2089 -0.7182
  603TMC3    C4 8988   3.491   1.029  11.203 -0.0945 -0.2857  0.0395
  603TMC3    C5 8989   3.612   1.077  11.258  0.4276 -0.7360 -0.8614
  603TMC3    C6 8990   3.678   1.026  11.365  0.5033  0.9814  0.3094
  603TMC3     C 8991   3.344   0.843  11.188 -0.4497 -0.1028 -0.0757
  603TMC3     O 8992   3.334   0.878  11.071 -0.1399  0.0432 -0.5381
  603TMC3     H 8993   3.493   0.743  11.398 -0.4500  1.2831  1.2698
  603TMC3    H1 8994   3.417   1.081  11.144  0.3646  0.3479  0.0271
  603TMC3    H2 8995   3.782   1.055  11.378  0.4198  1.4030  0.0380
  603TMC3    C7 8996   3.692   1.168  11.188  0.1910  0.0463  0.0072
  603TMC3    C8 8997   3.701   0.855  11.515 -0.6501  0.8631  0.6087
  603TMC3    O1 8998   3.790   1.217  11.241  0.4986 -0.3841  0.3791
  603TMC3    O2 8999   3.667   0.746  11.549 -0.5818  0.0502  0.2988
  604MPD2     C 9000   0.370   3.684  16.151  0.2457  0.1442  0.0817
  604MPD2    C1 9001   0.290   3.738  16.049 -0.6232  0.7104  0.4963
  604MPD2    C2 9002   0.341   3.746  15.924 -0.3684 -0.2847 -0.0626
  604MPD2    C3 9003   0.478   3.715  15.901 -0.2989  0.3902  0.0626
  604MPD2    C4 9004   0.553   3.669  16.006 -0.3057 -0.3238 -0.0758
  604MPD2    C5 9005   0.495   3.656  16.130  0.6732  0.5300  0.0059
  604MPD2     H 9006   0.272   3.774  15.845  1.5513  4.1694 -0.1420
  604MPD2    H1 9007   0.659   3.648  16.000  0.1869  2.0039  0.4792
  604MPD2    H2 9008   0.332   3.671  16.252 -2.7573  1.2453 -0.9003
  604MPD2    H3 9009   0.560   3.607  16.202  1.0286  3.1237  1.4460
  604MPD2     N 9010   0.529   3.722  15.770 -0.1893  0.2031 -0.1336
  604MPD2    H5 9011   0.466   3.735  15.691 -0.0823  1.6454  0.0121
  604MPD2    N1 9012   0.161   3.772  16.094 -0.3881 -0.6178 -0.0772
  604MPD2    H7 9013   0.151   3.751  16.193  2.1211 -0.4178  0.2177
  605TMC3    C1 9014   4.704   3.900  16.123 -1.0920 -0.0391 -0.1012
  605TMC3    C2 9015   0.008   3.896  16.255  0.5074 -1.0422 -0.3593
  605TMC3    C3 9016   0.001   4.006  16.340  0.2816 -0.2623  0.3287
  605TMC3    C4 9017   4.635   4.013  16.084 -0.5093  0.3226 -0.3306
  605TMC3    C5 9018   4.618   4.121  16.167  0.3056 -0.0950 -0.0678
  605TMC3    C6 9019   4.661   4.112  16.301  0.0317 -0.0109  0.4080
  605TMC3     C 9020   0.056   3.840  16.028 -0.1035  0.2898  0.1263
  605TMC3     O 9021   0.048   3.871  15.911 -0.7102 -0.2703  0.2012
  605TMC3     H 9022   0.041   3.804  16.302  1.6512 -1.5022 -2.0518
  605TMC3    H1 9023   4.589   4.014  15.986  0.1152  0.2259 -0.6249
  605TMC3    H2 9024   4.637   4.187  16.376  1.1777  0.7437  0.0166
  605TMC3    C7 9025   4.537   4.238  16.131  0.7007 -1.1947  0.8258
  605TMC3    C8 9026   0.126   4.026  16.417  0.0292 -0.5771 -0.3607
  605TMC3    O1 9027   4.492   4.223  16.020  0.1470  0.7804 -0.0109
  605TMC3    O2 9028   0.220   3.952  16.381  0.2735 -0.4542  0.0716
  606TMC3    C1 9029   1.317   2.920  17.436 -0.6928  0.0589 -0.1576
  606TMC3    C2 9030   1.305   2.908  17.575 -0.3919  0.6849  0.6825
  606TMC3    C3 9031   1.281   2.781  17.622  0.4731 -0.4850  0.3337
  606TMC3    C4 9032   1.308   2.823  17.348 -0.2334  0.2497 -0.0862
  606TMC3    C5 9033   1.288   2.702  17.406 -0.2000 -0.2724  0.3855
  606TMC3    C6 9034   1.274   2.675  17.538  0.1537 -1.2025 -0.3880
  606TMC3     C 9035   1.303   3.049  17.374 -0.6074  0.3324 -0.1896
  606TMC3     O 9036   1.382   3.078  17.287  0.1786  0.4388 -0.8011
  606TMC3     H 9037   1.297   2.996  17.637 -2.1473  0.0160  1.4279
  606TMC3    H1 9038   1.322   2.844  17.243  0.9763  0.1308  0.0527
  606TMC3    H2 9039   1.247   2.578  17.578  0.6096 -0.8310  0.8023
  606TMC3    C7 9040   1.310   2.593  17.314 -0.1073 -0.3860 -0.5964
  606TMC3    C8 9041   1.373   2.755  17.733 -0.5272 -0.2274 -0.6879
  606TMC3    O1 9042   1.377   2.611  17.213 -0.4209 -0.0002 -0.3443
  606TMC3    O2 9043   1.470   2.822  17.741 -0.2454 -0.0784  0.1065
  607MPD2     C 9044   3.194   0.424  11.675 -0.0202  0.1238 -0.1739
  607MPD2    C1 9045   3.180   0.518  11.772 -0.7774  0.2606 -0.0214
  607MPD2    C2 9046   3.123   0.471  11.891  0.6671 -0.1932  0.0803
  607MPD2    C3 9047   3.108   0.343  11.918  0.0338  0.6573 -0.6041
  607MPD2    C4 9048   3.140   0.250  11.829 -0.4796 -0.3206  0.5699
  607MPD2    C5 9049   3.175   0.287  11.701  0.0283 -0.0938  0.1185
  607MPD2     H 9050   3.100   0.545  11.966  1.7569  0.6824 -0.4516
  607MPD2    H1 9051   3.130   0.145  11.854  0.0830 -0.2105  1.2567
  607MPD2    H2 9052   3.235   0.445  11.577 -5.1026  0.5542 -2.2050
  607MPD2    H3 9053   3.204   0.215  11.626  0.8225 -2.1873  2.4377
  607MPD2     N 9054   3.069   0.322  12.057  0.4846  0.5435 -0.0896
  607MPD2    H5 9055   3.066   0.407  12.113  0.0232  0.2057  0.3836
  607MPD2    N1 9056   3.207   0.662  11.758  1.0608  0.2850  0.4354
  607MPD2    H7 9057   3.190   0.720  11.839  0.1444 -0.5532  0.8581
  608TMC3    C1 9058   3.306   0.856  11.705 -0.3009  0.1073  1.0932
  608TMC3    C2 9059   3.356   0.861  11.835  0.2016 -0.5354  0.1993
  608TMC3    C3 9060   3.425   0.968  11.875 -0.1400  0.1221 -0.1975
  608TMC3    C4 9061   3.309   0.955  11.618 -1.2325 -0.1052  0.3350
  608TMC3    C5 9062   3.371   1.071  11.668  0.1589 -0.0348  0.9040
  608TMC3    C6 9063   3.432   1.080  11.798 -0.2673 -0.3431  0.3639
  608TMC3     C 9064   3.270   0.729  11.655 -0.1494  0.0957  0.0897
  608TMC3     O 9065   3.318   0.690  11.545 -0.4979 -0.0144 -0.0630
  608TMC3     H 9066   3.349   0.774  11.900 -0.6810 -1.1336 -0.7115
  608TMC3    H1 9067   3.269   0.938  11.519 -2.7409 -2.6087  1.3661
  608TMC3    H2 9068   3.491   1.163  11.835  0.0178 -0.0291 -0.8216
  608TMC3    C7 9069   3.373   1.185  11.583 -0.0721 -0.2001 -0.1240
  608TMC3    C8 9070   3.474   0.971  12.015  0.4265 -0.3770  0.5624
  608TMC3    O1 9071   3.355   1.163  11.464 -0.1538 -0.3155  0.5312
  608TMC3    O2 9072   3.503   1.087  12.054  0.1558 -0.6229  0.5266
  609TMC3    C1 9073   2.392   4.355   8.772 -0.1178  0.3191 -0.3847
  609TMC3    C2 9074   2.315   4.260   8.709  0.0911 -0.5866 -0.4775
  609TMC3    C3 9075   2.361   4.131   8.703  0.4094  0.2766 -0.1901
  609TMC3    C4 9076   2.509   4.322   8.828 -0.3992 -0.0002 -0.0152
  609TMC3    C5 9077   2.544   4.192   8.833 -0.2886 -0.5595 -0.5944
  609TMC3    C6 9078   2.474   4.089   8.776 -0.0264 -0.6093  0.6304
  609TMC3     C 9079   2.326   4.484   8.797  0.1431  0.4747  0.3629
  609TMC3     O 9080   2.222   4.514   8.742 -1.0350 -0.1264  0.4187
  609TMC3     H 9081   2.225   4.296   8.661 -0.9579  0.6402  2.4002
  609TMC3    H1 9082   2.581   4.393   8.868 -0.4656  0.9047 -1.5142
  609TMC3    H2 9083   2.521   3.997   8.745 -1.6577 -0.7430 -1.4321
  609TMC3    C7 9084   2.686   4.169   8.872 -0.5722  0.1069  0.0130
  609TMC3    C8 9085   2.264   4.031   8.656 -0.4205  0.0633 -0.1836
  609TMC3    O1 9086   2.753   4.263   8.905  0.2156  0.2306 -0.0396
  609TMC3    O2 9087   2.149   4.061   8.625 -0.1386  0.5094  0.0772
  610TMC3    C1 9088   3.747   0.353  12.566  0.2808  0.5767  0.1892
  610TMC3    C2 9089   3.796   0.479  12.538  0.5379 -0.3680  0.6663
  610TMC3    C3 9090   3.922   0.489  12.487 -0.2198 -0.1499  0.0953
  610TMC3    C4 9091   3.831   0.243  12.576  0.8823 -0.7922 -0.7591
  610TMC3    C5 9092   3.967   0.267  12.547  0.8919 -0.5114 -0.2342
  610TMC3    C6 9093   4.014   0.388  12.502 -0.2870  0.7977  0.5340
  610TMC3     C 9094   3.614   0.339  12.626  0.8166  0.0441 -0.4390
  610TMC3     O 9095   3.591   0.232  12.684 -0.3838  0.4483 -0.1483
  610TMC3     H 9096   3.729   0.564  12.544  1.5140  0.4937 -0.6678
  610TMC3    H1 9097   3.803   0.139  12.590  0.1613 -0.8513 -2.6223
  610TMC3    H2 9098   4.120   0.409  12.497  0.4866 -2.8359  1.5049
  610TMC3    C7 9099   4.067   0.178  12.600 -0.1185  0.1570  0.4524
  610TMC3    C8 9100   3.971   0.619  12.452 -0.6035  0.7036  0.1046
  610TMC3    O1 9101   4.155   0.145  12.526  0.3190  0.0473  0.1819
  610TMC3    O2 9102   4.086   0.646  12.475 -0.1780  0.7776  0.3508
  611MPD2     C 9103   2.866   0.931  10.454  0.0187 -0.1699 -0.5237
  611MPD2    C1 9104   2.934   0.901  10.336  0.2514  0.5013 -0.5709
  611MPD2    C2 9105   3.064   0.936  10.311  0.0968 -0.2411  0.0405
  611MPD2    C3 9106   3.126   1.015  10.412 -0.3416  0.0093 -0.1107
  611MPD2    C4 9107   3.064   1.036  10.536 -0.1515  0.2403 -0.1012
  611MPD2    C5 9108   2.936   0.993  10.555  0.3768 -0.4528 -0.1907
  611MPD2     H 9109   3.120   0.904  10.224 -0.8585  1.4917 -1.1994
  611MPD2    H1 9110   3.126   1.068  10.619 -1.7445  2.6249  0.1343
  611MPD2    H2 9111   2.766   0.896  10.479  0.0173 -2.2404 -3.4819
  611MPD2    H3 9112   2.890   1.008  10.652  2.0914 -2.1848  0.8868
  611MPD2     N 9113   3.255   1.069  10.396 -0.6159 -0.2471  0.5339
  611MPD2    H5 9114   3.305   1.099  10.479  1.2892 -2.0173  0.0414
  611MPD2    N1 9115   2.857   0.826  10.244 -0.0326  0.5952  0.0672
  611MPD2    H7 9116   2.757   0.816  10.260 -0.2717  1.6873 -0.7732
  612TMC3    C1 9117   3.437   1.164  10.259  0.0297 -0.6560 -0.0468
  612TMC3    C2 9118   3.503   1.201  10.373  0.2444 -0.3091  0.5164
  612TMC3    C3 9119   3.590   1.306  10.362 -0.0740  0.0690  0.7921
  612TMC3    C4 9120   3.469   1.209  10.138 -0.1077 -0.3185 -0.1353
  612TMC3    C5 9121   3.571   1.301  10.134  0.4907  0.0698 -0.6001
  612TMC3    C6 9122   3.630   1.354  10.246 -0.4053  0.4069 -0.0538
  612TMC3     C 9123   3.309   1.093  10.268 -0.1025  0.7124  0.3399
  612TMC3     O 9124   3.240   1.083  10.165  0.1183 -0.3166 -0.4638
  612TMC3     H 9125   3.467   1.157  10.465  2.5052 -1.2670  0.9507
  612TMC3    H1 9126   3.400   1.202  10.055 -1.0801 -2.2753  0.8273
  612TMC3    H2 9127   3.694   1.442  10.242  0.1910 -0.0485 -0.5354
  612TMC3    C7 9128   3.592   1.362  10.002  0.2440  0.6271 -0.2689
  612TMC3    C8 9129   3.683   1.338  10.476  0.1083  0.3553 -0.1384
  612TMC3    O1 9130   3.507   1.351   9.915 -0.6498  0.3838  0.3293
  612TMC3    O2 9131   3.785   1.408  10.454 -0.0054 -0.0697  0.7801
  613MPD2     C 9132   3.099   3.006  16.328  0.3259 -0.1609 -0.3944
  613MPD2    C1 9133   3.095   2.870  16.296 -0.5784 -0.3844  0.5623
  613MPD2    C2 9134   2.992   2.790  16.346  0.1286 -0.2987 -0.2377
  613MPD2    C3 9135   2.895   2.843  16.430 -0.0855  0.9376  0.4840
  613MPD2    C4 9136   2.894   2.980  16.454 -0.1021 -0.6240  0.3386
  613MPD2    C5 9137   3.006   3.053  16.412  0.8835 -0.3093  0.5878
  613MPD2     H 9138   3.004   2.683  16.334 -1.6457 -0.2495 -2.5348
  613MPD2    H1 9139   2.820   3.021  16.521 -0.2789  1.8027 -1.3589
  613MPD2    H2 9140   3.166   3.076  16.280  0.1379 -0.6373 -1.3478
  613MPD2    H3 9141   3.005   3.158  16.438 -0.5419 -0.3915  0.8641
  613MPD2     N 9142   2.802   2.755  16.480 -0.2225  0.0658  0.2073
  613MPD2    H5 9143   2.826   2.658  16.459 -0.7407  0.3204 -1.5609
  613MPD2    N1 9144   3.189   2.807  16.210 -1.2189 -0.0927 -0.3214
  613MPD2    H7 9145   3.170   2.712  16.181  1.6970 -0.8010  0.1522
  614TMC3    C1 9146   3.348   2.769  16.055 -0.6826  0.4757  0.2529
  614TMC3    C2 9147   3.321   2.639  16.091  0.4196 -0.6958  0.3494
  614TMC3    C3 9148   3.277   2.547  16.000 -0.2282  0.3127  0.2878
  614TMC3    C4 9149   3.331   2.807  15.931 -0.0129 -0.4825 -0.0948
  614TMC3    C5 9150   3.278   2.719  15.840 -0.3343  1.1149 -0.1531
  614TMC3    C6 9151   3.257   2.592  15.869 -0.4474 -0.0890  0.0303
  614TMC3     C 9152   3.303   2.866  16.154 -0.9061  0.2533 -0.4534
  614TMC3     O 9153   3.333   2.988  16.143  0.0354 -0.7068 -0.3206
  614TMC3     H 9154   3.365   2.606  16.184 -4.2839  2.4463  3.6553
  614TMC3    H1 9155   3.332   2.911  15.898 -0.3839 -0.7636 -0.9863
  614TMC3    H2 9156   3.238   2.516  15.794  0.8231 -1.4237  1.0661
  614TMC3    C7 9157   3.263   2.765  15.705 -0.4129  0.0600 -0.6288
  614TMC3    C8 9158   3.150   2.500  16.048  0.2564 -0.5074 -0.6662
  614TMC3    O1 9159   3.313   2.872  15.683 -0.2289 -0.0889  0.5203
  614TMC3    O2 9160   3.124   2.550  16.156  0.3534  0.7438  0.4237
  615MPD2     C 9161   2.056   4.400  15.959 -0.4855 -0.3253 -0.4644
  615MPD2    C1 9162   1.957   4.496  15.941  0.4823  0.2986  0.5933
  615MPD2    C2 9163   1.880   4.486  15.826  0.3332  0.1684 -0.3319
  615MPD2    C3 9164   1.896   4.373  15.745  0.0020  0.4886  0.1334
  615MPD2    C4 9165   1.992   4.275  15.763 -0.4383  0.1342 -0.3840
  615MPD2    C5 9166   2.070   4.287  15.877  0.0229 -0.4586  0.4581
  615MPD2     H 9167   1.793   4.549  15.828  0.2968  0.1588 -1.6631
  615MPD2    H1 9168   1.994   4.183  15.706  0.8044  1.0252 -1.7854
  615MPD2    H2 9169   2.117   4.402  16.048  0.4949 -1.6943 -1.1022
  615MPD2    H3 9170   2.151   4.221  15.903  0.4714  0.2985  0.9791
  615MPD2     N 9171   1.810   4.372  15.636  0.3379  0.0298  0.2101
  615MPD2    H5 9172   1.761   4.454  15.604 -0.8816 -0.8227 -0.1292
  615MPD2    N1 9173   1.944   4.618  16.022 -0.1342 -0.1078  0.4957
  615MPD2    H7 9174   1.868   4.682  16.004 -0.2259 -0.2926  0.2381
  616TMC3    C1 9175   1.988   0.025  16.197  0.6327  0.5700  0.3270
  616TMC3    C2 9176   2.084   0.088  16.282  0.3828  0.1602  0.7980
  616TMC3    C3 9177   2.050   0.194  16.356 -0.0780 -0.0020  0.0423
  616TMC3    C4 9178   1.855   0.065  16.187  0.2226  0.0917  0.1426
  616TMC3    C5 9179   1.831   0.176  16.267 -0.2706  0.4574  0.0531
  616TMC3    C6 9180   1.925   0.244  16.343  0.6728  0.2638  0.3903
  616TMC3     C 9181   2.033   4.646  16.124  0.6904 -0.5792 -0.6141
  616TMC3     O 9182   2.150   4.608  16.130 -0.3592 -0.2951  0.0867
  616TMC3     H 9183   2.178   0.035  16.284  0.2162 -0.1194  1.1001
  616TMC3    H1 9184   1.780   0.023  16.121  1.4018  2.7116 -2.8778
  616TMC3    H2 9185   1.899   0.330  16.404 -0.0666  0.2409  0.1068
  616TMC3    C7 9186   1.688   0.198  16.285 -0.0622 -0.6651  0.1990
  616TMC3    C8 9187   2.156   0.270  16.416  0.1913 -0.6251 -0.6459
  616TMC3    O1 9188   1.610   0.110  16.259  0.1993  0.6324  0.0267
  616TMC3    O2 9189   2.124   0.378  16.466 -0.4261  0.7125  0.8519
  617MPD2     C 9190   0.115   2.784  14.261 -0.1577 -1.0232  0.8801
  617MPD2    C1 9191   0.155   2.655  14.243  0.0725 -0.7878  0.2438
  617MPD2    C2 9192   0.073   2.554  14.194 -0.3366  0.0727  0.1842
  617MPD2    C3 9193   4.680   2.583  14.160  0.8178  0.4022 -0.3179
  617MPD2    C4 9194   4.642   2.716  14.168 -0.0993  0.2675  0.1980
  617MPD2    C5 9195   4.727   2.810  14.225  0.4530  0.2944 -0.3870
  617MPD2     H 9196   0.108   2.454  14.173 -1.7785 -0.8148  2.0067
  617MPD2    H1 9197   4.542   2.747  14.142  0.1537  0.1801 -0.8704
  617MPD2    H2 9198   0.184   2.863  14.289  0.8473 -1.0867 -1.4396
  617MPD2    H3 9199   4.685   2.910  14.229 -0.3870 -0.0354 -0.9415
  617MPD2     N 9200   4.588   2.482  14.109  0.0374  0.6365  0.4157
  617MPD2    H5 9201   4.493   2.513  14.088 -0.4083 -1.1043 -0.1508
  617MPD2    N1 9202   0.295   2.634  14.272  0.5047  0.4362  0.2994
  617MPD2    H7 9203   0.346   2.714  14.309  0.2953  0.9687 -0.5519
  618TMC3    C1 9204   0.493   2.490  14.295 -0.0233 -0.6391 -0.3459
  618TMC3    C2 9205   0.559   2.369  14.302  1.1129 -0.1720  0.8112
  618TMC3    C3 9206   0.693   2.365  14.320 -0.1161 -0.1396 -0.2896
  618TMC3    C4 9207   0.566   2.607  14.291  0.2057 -0.6280 -0.4480
  618TMC3    C5 9208   0.699   2.599  14.317 -0.0862  0.7312  0.7948
  618TMC3    C6 9209   0.769   2.483  14.331 -0.1252  0.4474 -0.1677
  618TMC3     C 9210   0.345   2.506  14.287  0.2053 -0.0564  0.1158
  618TMC3     O 9211   0.292   2.395  14.274  0.5312 -0.4340 -0.7230
  618TMC3     H 9212   0.495   2.282  14.304  0.7287  0.0558 -0.9391
  618TMC3    H1 9213   0.520   2.704  14.276 -0.4685 -0.5826  1.9305
  618TMC3    H2 9214   0.875   2.473  14.354 -0.0301  1.2125 -0.2980
  618TMC3    C7 9215   0.758   2.726  14.362  0.2699 -0.1283  0.4841
  618TMC3    C8 9216   0.753   2.243  14.260  0.1235  0.3226 -0.7358
  618TMC3    O1 9217   0.677   2.804  14.415 -0.4500  0.0019 -0.2314
  618TMC3    O2 9218   0.669   2.157  14.230 -0.3940 -0.2304 -0.2454
  619MPD2     C 9219   1.190   3.513  13.279 -0.5413  0.5211  0.1840
  619MPD2    C1 9220   1.094   3.616  13.264 -0.4535  0.3944  1.0801
  619MPD2    C2 9221   0.976   3.605  13.333 -0.0373 -0.2716  0.2133
  619MPD2    C3 9222   0.944   3.493  13.408  0.1393  0.0398 -0.6373
  619MPD2    C4 9223   1.032   3.388  13.419  0.9588 -0.0600 -0.2194
  619MPD2    C5 9224   1.155   3.401  13.355  0.0722  0.2309 -0.4228
  619MPD2     H 9225   0.912   3.693  13.326 -0.2542 -0.6026 -2.1743
  619MPD2    H1 9226   1.007   3.297  13.473  0.5912  0.4550  0.4769
  619MPD2    H2 9227   1.285   3.516  13.227  0.1166 -0.3037  1.3523
  619MPD2    H3 9228   1.224   3.318  13.353  0.3112  0.4046  1.0243
  619MPD2     N 9229   0.819   3.470  13.469 -0.0025 -1.0189 -0.7821
  619MPD2    H5 9230   0.795   3.379  13.508  1.5058 -2.7742 -3.9904
  619MPD2    N1 9231   1.128   3.729  13.203  0.2478  0.2760  0.2823
  619MPD2    H7 9232   1.056   3.801  13.202  0.0816  0.0993 -0.3189
  620TMC3    C1 9233   1.246   3.895  13.100  0.0443  0.1359  0.1668
  620TMC3    C2 9234   1.121   3.936  13.043 -0.1580  0.1822 -0.4617
  620TMC3    C3 9235   1.098   4.072  13.043 -0.5208 -0.1269 -0.0080
  620TMC3    C4 9236   1.326   3.989  13.162 -0.4541 -0.0313  0.8427
  620TMC3    C5 9237   1.289   4.117  13.160 -0.0718 -0.5214 -0.2490
  620TMC3    C6 9238   1.177   4.164  13.099 -0.2185  0.0269 -0.1203
  620TMC3     C 9239   1.256   3.770  13.162 -0.7754 -0.1857  0.5593
  620TMC3     O 9240   1.369   3.721  13.170 -0.4371 -0.3407  0.4727
  620TMC3     H 9241   1.051   3.871  12.991  0.8634 -1.1807 -0.1239
  620TMC3    H1 9242   1.418   3.958  13.210  0.4976 -0.1151 -1.0644
  620TMC3    H2 9243   1.142   4.265  13.115 -0.9005 -0.5515  2.0801
  620TMC3    C7 9244   1.330   4.208  13.258  0.0178 -0.4906 -0.2387
  620TMC3    C8 9245   0.970   4.121  12.988  0.1302 -0.1057  0.1581
  620TMC3    O1 9246   1.357   4.325  13.234  0.6451  0.4977 -0.4928
  620TMC3    O2 9247   0.961   4.095  12.867 -0.3231 -0.2741 -0.2883
  621MPD2     C 9248   1.468   4.038   9.147  0.6227  0.0893 -0.2468
  621MPD2    C1 9249   1.571   4.014   9.240  0.0819  0.3286 -0.0872
  621MPD2    C2 9250   1.662   4.118   9.260 -0.4559 -0.0217  0.2838
  621MPD2    C3 9251   1.659   4.229   9.183  0.6972 -0.2557 -0.3839
  621MPD2    C4 9252   1.557   4.257   9.097 -0.1296 -0.4525  0.0039
  621MPD2    C5 9253   1.468   4.155   9.078 -0.2457 -0.6457  0.5666
  621MPD2     H 9254   1.736   4.106   9.339  0.7213 -0.3733 -0.8782
  621MPD2    H1 9255   1.553   4.354   9.048 -2.2203 -0.7289 -0.3772
  621MPD2    H2 9256   1.388   3.965   9.136 -0.6857  0.9350  3.4001
  621MPD2    H3 9257   1.380   4.160   9.014 -1.8231 -2.2736  2.5920
  621MPD2     N 9258   1.756   4.321   9.225  0.0283 -0.5014 -0.1460
  621MPD2    H5 9259   1.831   4.293   9.287 -0.0097  0.2045  0.2304
  621MPD2    N1 9260   1.573   3.901   9.327 -0.5466  0.4402  0.4115
  621MPD2    H7 9261   1.636   3.896   9.407 -3.3622  0.3339  2.6556
  622TMC3    C1 9262   1.476   3.713   9.429  0.5734 -0.1165  0.5523
  622TMC3    C2 9263   1.555   3.755   9.533  0.2078  0.2013  0.4909
  622TMC3    C3 9264   1.494   3.812   9.643 -0.1205 -0.3136 -0.1165
  622TMC3    C4 9265   1.335   3.716   9.451  0.0927  0.7877  0.4423
  622TMC3    C5 9266   1.283   3.771   9.560  0.3559  0.2644 -0.1568
  622TMC3    C6 9267   1.361   3.838   9.649 -0.4211 -0.1821  0.2698
  622TMC3     C 9268   1.489   3.792   9.304  0.0595  0.6391  0.0741
  622TMC3     O 9269   1.411   3.758   9.217  0.3450  0.3412  0.3211
  622TMC3     H 9270   1.662   3.744   9.522  0.1414 -0.1263  0.1843
  622TMC3    H1 9271   1.263   3.692   9.374  0.3527 -0.2837  0.5376
  622TMC3    H2 9272   1.309   3.891   9.727 -0.1992 -1.2534  1.1435
  622TMC3    C7 9273   1.159   3.833   9.539  0.0465  0.1353  0.2376
  622TMC3    C8 9274   1.584   3.885   9.735  0.3519 -0.3047  0.1321
  622TMC3    O1 9275   1.067   3.754   9.513  0.1722 -0.3778 -0.2102
  622TMC3    O2 9276   1.701   3.856   9.730 -0.1545  0.2348 -0.3016
  623MPD2     C 9277   0.671   4.066  15.664 -0.1181 -0.6245 -0.6544
  623MPD2    C1 9278   0.583   4.097  15.769 -0.5566  1.1869  0.2811
  623MPD2    C2 9279   0.634   4.130  15.893  0.4131  0.4855  0.2049
  623MPD2    C3 9280   0.773   4.143  15.915  0.0656  0.2265 -0.6210
  623MPD2    C4 9281   0.856   4.119  15.803 -0.2401  0.1724  0.3340
  623MPD2    C5 9282   0.803   4.081  15.683 -0.6345  0.3988 -0.4647
  623MPD2     H 9283   0.563   4.152  15.973 -0.5383  2.2162 -1.1157
  623MPD2    H1 9284   0.962   4.138  15.812  0.0532 -0.4997 -1.8464
  623MPD2    H2 9285   0.637   4.024  15.570  0.8075 -1.3395 -0.6674
  623MPD2    H3 9286   0.871   4.063  15.601 -0.7564 -0.6584 -0.3282
  623MPD2     N 9287   0.810   4.183  16.049  0.5449 -0.5488 -0.0806
  623MPD2    H5 9288   0.739   4.211  16.115  0.2674 -0.1814 -0.5346
  623MPD2    N1 9289   0.443   4.095  15.753  0.1211 -0.2604 -0.2255
  623MPD2    H7 9290   0.391   4.119  15.837 -0.2552 -0.3461 -0.4378
  624TMC3    C1 9291   1.063   4.350  16.400  0.3186  0.5678  1.0177
  624TMC3    C2 9292   0.952   4.354  16.476  0.1524  0.4831  0.6819
  624TMC3    C3 9293   0.828   4.306  16.441 -0.3860  0.2749  0.1266
  624TMC3    C4 9294   1.059   4.298  16.273 -0.0228 -0.5313  0.3287
  624TMC3    C5 9295   0.940   4.246  16.236 -0.0456 -0.2861 -0.1577
  624TMC3    C6 9296   0.824   4.248  16.314  0.1354  0.0896 -0.3793
  624TMC3     C 9297   1.186   4.360  16.473  0.0739  0.0489  0.4533
  624TMC3     O 9298   1.190   4.428  16.578  0.0330 -0.1509  0.2868
  624TMC3     H 9299   0.957   4.395  16.576 -1.6119  2.3530  0.0148
  624TMC3    H1 9300   1.146   4.298  16.209 -0.3259 -3.8748 -0.0723
  624TMC3    H2 9301   0.731   4.207  16.276  1.2744 -1.1861 -1.8014
  624TMC3    C7 9302   0.933   4.212  16.092  0.4948  0.3366 -0.7046
  624TMC3    C8 9303   0.715   4.328  16.526  0.3831 -0.2693 -0.9044
  624TMC3    O1 9304   1.038   4.216  16.028  0.0051  0.0662 -0.6413
  624TMC3    O2 9305   0.740   4.402  16.619 -0.3126  0.0079  0.4603
  625MPD2     C 9306   1.373   0.688   0.712 -0.4649  0.1420 -0.3898
  625MPD2    C1 9307   1.381   0.829   0.728 -0.0783 -0.3666 -0.2863
  625MPD2    C2 9308   1.493   0.892   0.776 -0.8661 -0.7090 -0.9945
  625MPD2    C3 9309   1.603   0.814   0.807 -0.4224  0.7040  0.8328
  625MPD2    C4 9310   1.592   0.680   0.798  0.0081  0.7622  0.2499
  625MPD2    C5 9311   1.481   0.617   0.747 -0.0689  0.4945  0.2623
  625MPD2     H 9312   1.498   1.000   0.782 -0.8159 -0.8106  0.7359
  625MPD2    H1 9313   1.668   0.604   0.812  0.2235  1.1016  0.9358
  625MPD2    H2 9314   1.281   0.638   0.682 -0.5461 -0.9755  1.7490
  625MPD2    H3 9315   1.484   0.509   0.740 -0.6061  0.5458 -0.6724
  625MPD2     N 9316   1.717   0.885   0.852  0.3251 -0.2132  0.7594
  625MPD2    H5 9317   1.715   0.987   0.846  1.9122 -0.1008  2.3191
  625MPD2    N1 9318   1.272   0.907   0.673  0.1370  0.4883  0.7093
  625MPD2    H7 9319   1.286   1.007   0.670  1.6328  0.2400 -1.2992
  626TMC3    C1 9320   1.074   0.988   0.579 -0.1542 -0.4240  0.5259
  626TMC3    C2 9321   0.987   0.972   0.472 -0.6779  0.5428  0.2715
  626TMC3    C3 9322   0.927   1.083   0.415 -0.7227  0.1415  0.2560
  626TMC3    C4 9323   1.098   1.115   0.622  0.4208 -0.5838  0.0946
  626TMC3    C5 9324   1.031   1.216   0.566 -0.4141  0.3000 -0.3333
  626TMC3    C6 9325   0.949   1.208   0.461  0.0363 -0.3541 -0.2544
  626TMC3     C 9326   1.160   0.875   0.614 -0.7000 -0.1820 -1.0565
  626TMC3     O 9327   1.110   0.767   0.587 -0.5038 -0.2261 -0.5789
  626TMC3     H 9328   0.966   0.872   0.435 -1.3515  1.5311 -2.0145
  626TMC3    H1 9329   1.153   1.133   0.714  0.5205  0.8845 -0.2484
  626TMC3    H2 9330   0.891   1.286   0.414  1.0492  1.0574  0.8517
  626TMC3    C7 9331   0.989   1.319   0.659 -0.7860  0.4168 -0.1820
  626TMC3    C8 9332   0.857   1.073   0.294  0.2545  0.0982 -0.3586
  626TMC3    O1 9333   1.060   1.347   0.751  0.2776 -0.3346 -0.0276
  626TMC3    O2 9334   0.846   1.171   0.224  0.6684  0.6316  0.3656
  627MPD2     C 9335   0.019   1.085  13.788  0.3170 -0.0376  0.2242
  627MPD2    C1 9336   4.672   1.120  13.889  0.3962  0.1851 -0.3577
  627MPD2    C2 9337   4.538   1.087  13.886  0.1992  0.2597 -0.7307
  627MPD2    C3 9338   4.485   1.008  13.788  0.6768  0.3736 -0.1846
  627MPD2    C4 9339   4.569   0.988  13.681 -0.4636 -0.1358  0.2668
  627MPD2    C5 9340   4.704   1.010  13.686 -1.2538  0.2149 -0.2679
  627MPD2     H 9341   4.474   1.109  13.971  1.2064  0.4762 -0.0318
  627MPD2    H1 9342   4.534   0.922  13.603  0.5216 -1.0297  0.5912
  627MPD2    H2 9343   0.124   1.114  13.791  0.1294  0.7282 -0.4401
  627MPD2    H3 9344   0.028   0.992  13.598 -0.0152 -1.5015  0.9544
  627MPD2     N 9345   4.347   0.963  13.792  0.3593 -0.3954 -0.2696
  627MPD2    H5 9346   4.306   0.978  13.883 -0.3192 -0.3613 -0.5799
  627MPD2    N1 9347   4.718   1.200  14.002 -0.3997 -0.9380  0.3620
  627MPD2    H7 9348   4.651   1.230  14.072  0.0468 -0.3680  0.5402
  628TMC3    C1 9349   0.131   1.298  14.158  0.3092  0.5170 -0.1750
  628TMC3    C2 9350   0.241   1.242  14.215  1.0397 -0.0526 -0.3132
  628TMC3    C3 9351   0.244   1.232  14.352 -0.2322 -0.2246 -0.3453
  628TMC3    C4 9352   0.026   1.349  14.224  0.3087  0.2038  0.1840
  628TMC3    C5 9353   0.033   1.339  14.358  0.7110  0.9546 -0.2000
  628TMC3    C6 9354   0.136   1.280  14.427  0.1566 -0.3817 -0.1623
  628TMC3     C 9355   0.111   1.254  14.018 -0.8372 -0.1830  0.7971
  628TMC3     O 9356   0.212   1.247  13.952  0.6113 -0.0746  0.2796
  628TMC3     H 9357   0.317   1.197  14.152  0.0951 -1.9350 -0.1089
  628TMC3    H1 9358   4.672   1.372  14.169  0.0528 -0.7462  0.2207
  628TMC3    H2 9359   0.143   1.291  14.535  1.4794 -0.4425 -0.2437
  628TMC3    C7 9360   4.674   1.405  14.441 -0.0017 -0.3195 -1.0680
  628TMC3    C8 9361   0.356   1.162  14.419 -0.0542 -0.3292  0.1717
  628TMC3    O1 9362   4.649   1.365  14.551 -0.2583  0.0235 -0.2007
  628TMC3    O2 9363   0.465   1.141  14.364  0.6248  0.1280 -0.5063
  629MPD2     C 9364   2.650   0.391  16.473 -0.4101 -0.0751 -0.7099
  629MPD2    C1 9365   2.643   0.257  16.434  0.1905 -1.1244 -0.1839
  629MPD2    C2 9366   2.521   0.208  16.400 -0.4508 -0.2394  0.3492
  629MPD2    C3 9367   2.402   0.284  16.423 -0.2857  0.1533 -0.1288
  629MPD2    C4 9368   2.416   0.421  16.457  0.0226  0.6261  0.1173
  629MPD2    C5 9369   2.539   0.475  16.485 -0.3077  0.2210  0.1245
  629MPD2     H 9370   2.509   0.111  16.354  3.1696 -0.6295  0.2129
  629MPD2    H1 9371   2.329   0.486  16.463 -0.7447 -0.5155  1.6562
  629MPD2    H2 9372   2.746   0.438  16.485 -1.4101  1.8462 -0.2353
  629MPD2    H3 9373   2.544   0.575  16.526  1.9105  0.0528  0.2631
  629MPD2     N 9374   2.278   0.218  16.393 -0.2293 -0.4196  0.6875
  629MPD2    H5 9375   2.289   0.119  16.372  0.3934  0.0866 -1.3770
  629MPD2    N1 9376   2.757   0.180  16.436 -0.4435  0.3515 -0.4217
  629MPD2    H7 9377   2.847   0.223  16.456 -0.6727 -0.5290  2.4904
  630TMC3    C1 9378   2.885   4.713  16.386 -0.3157  0.3732 -0.0460
  630TMC3    C2 9379   2.994   0.052  16.357  0.6220 -0.5556  0.0714
  630TMC3    C3 9380   3.119   4.736  16.395 -0.0544  0.2224  0.4794
  630TMC3    C4 9381   2.892   4.585  16.435 -0.7722 -0.9082  0.3976
  630TMC3    C5 9382   3.015   4.539  16.455  0.4677 -0.5177 -0.2415
  630TMC3    C6 9383   3.127   4.608  16.436  0.4992  0.2851 -0.1867
  630TMC3     C 9384   2.753   0.040  16.403 -0.2205 -0.2725 -0.2141
  630TMC3     O 9385   2.655   4.702  16.406 -0.1252 -0.3950  0.4705
  630TMC3     H 9386   2.986   0.157  16.330 -1.4323 -0.8037 -0.3278
  630TMC3    H1 9387   2.808   4.520  16.453 -0.8730 -1.3964 -1.8510
  630TMC3    H2 9388   3.222   4.555  16.441  0.9717  1.2011  0.5838
  630TMC3    C7 9389   3.035   4.410  16.513 -0.2035 -0.8166  0.1825
  630TMC3    C8 9390   3.247   0.054  16.358 -0.7610 -0.1319 -0.1254
  630TMC3    O1 9391   3.152   4.373  16.520 -0.3246  0.4229  0.0003
  630TMC3    O2 9392   3.343   4.733  16.405  0.3880 -0.5953 -0.0471
  631MPD2     C 9393   0.909   4.526  15.272  0.7912 -0.4547 -0.1573
  631MPD2    C1 9394   1.006   4.608  15.214  0.4825  0.0685 -1.1960
  631MPD2    C2 9395   1.137   4.564  15.220  0.4946 -0.5527  0.2685
  631MPD2    C3 9396   1.177   4.439  15.270  0.3209  0.3948 -0.4362
  631MPD2    C4 9397   1.069   4.358  15.305 -0.2180 -0.0634  0.3644
  631MPD2    C5 9398   0.941   4.398  15.310  1.1593 -0.6892  0.4316
  631MPD2     H 9399   1.221   4.629  15.195  0.2400  0.3379  1.7149
  631MPD2    H1 9400   1.085   4.257  15.339 -0.7017  0.6229  2.6558
  631MPD2    H2 9401   0.805   4.554  15.279  1.0893  0.5115  0.4200
  631MPD2    H3 9402   0.861   4.325  15.322  1.5797 -0.9250  1.8740
  631MPD2     N 9403   1.312   4.400  15.273 -0.8354  0.1258  0.0983
  631MPD2    H5 9404   1.373   4.473  15.238  0.1573 -2.6235 -3.8920
  631MPD2    N1 9405   0.966   0.001  15.167  0.1610 -0.1454 -0.4297
  631MPD2    H7 9406   0.876   0.040  15.194 -0.8480 -2.0129 -1.0730
  632TMC3    C1 9407   1.005   0.214  15.071  1.0026 -0.4827  0.6696
  632TMC3    C2 9408   0.898   0.266  15.145 -0.5047 -0.2539 -0.3128
  632TMC3    C3 9409   0.828   0.377  15.097 -0.5854  0.1292  0.0274
  632TMC3    C4 9410   1.057   0.288  14.969  0.1534 -0.2513  0.1062
  632TMC3    C5 9411   0.997   0.407  14.939 -1.1358 -0.3520  1.1635
  632TMC3    C6 9412   0.887   0.455  14.996  0.0483  0.6186  0.0936
  632TMC3     C 9413   1.051   0.078  15.094  0.3606 -0.2120 -0.7697
  632TMC3     O 9414   1.149   0.049  15.031 -0.0907 -0.6175  0.0442
  632TMC3     H 9415   0.856   0.215  15.231 -1.6733  1.6529  0.2603
  632TMC3    H1 9416   1.139   0.251  14.907 -0.3253 -2.4054  0.7752
  632TMC3    H2 9417   0.845   0.552  14.970  2.2231  1.6734  0.5039
  632TMC3    C7 9418   1.075   0.503  14.867 -0.9616 -0.0513  0.3878
  632TMC3    C8 9419   0.722   0.432  15.180 -0.2697 -0.0766 -0.5424
  632TMC3    O1 9420   1.017   0.583  14.799 -0.6942 -0.2111  0.0647
  632TMC3    O2 9421   0.616   0.459  15.126  0.1165 -0.4876  0.4656
  633MPD2     C 9422   0.934   2.605  17.344 -0.6659  0.3184 -0.5355
  633MPD2    C1 9423   0.917   2.523  17.234  0.2761 -0.5115 -0.5302
  633MPD2    C2 9424   0.874   2.392  17.254 -0.3861 -0.2551 -0.9268
  633MPD2    C3 9425   0.861   2.340  17.382 -0.7423  0.3066  0.6169
  633MPD2    C4 9426   0.886   2.427  17.488  0.4436  0.4187  0.2878
  633MPD2    C5 9427   0.929   2.552  17.466  0.5703  0.1382 -0.1880
  633MPD2     H 9428   0.843   2.327  17.173  0.3652 -2.6975  0.7535
  633MPD2    H1 9429   0.883   2.396  17.592  0.0482 -0.1991  0.0896
  633MPD2    H2 9430   0.972   2.706  17.330 -0.1364 -0.0719 -1.9805
  633MPD2    H3 9431   0.954   2.619  17.548  1.3335 -1.5220  0.9478
  633MPD2     N 9432   0.822   2.209  17.411  0.8673  0.0809 -0.1807
  633MPD2    H5 9433   0.818   2.179  17.508 -0.4602 -0.1505 -0.3066
  633MPD2    N1 9434   0.937   2.565  17.106  0.5842  0.1184 -0.0235
  633MPD2    H7 9435   0.908   2.504  17.030 -1.7643  2.0000 -0.6679
  634TMC3    C1 9436   0.999   2.702  16.924  0.0282  0.1158  0.5074
  634TMC3    C2 9437   1.036   2.596  16.836  0.1428  0.0502  0.1984
  634TMC3    C3 9438   1.070   2.631  16.706 -0.3433  0.5809 -0.2571
  634TMC3    C4 9439   0.981   2.830  16.873 -0.2896  0.1088 -0.1935
  634TMC3    C5 9440   1.013   2.858  16.740  0.0405  0.1152  0.0208
  634TMC3    C6 9441   1.056   2.763  16.653 -0.4273  0.4563  0.4138
  634TMC3     C 9442   0.968   2.693  17.064 -0.3198  0.0711 -0.0201
  634TMC3     O 9443   0.972   2.793  17.131 -0.7299  0.2047  0.0553
  634TMC3     H 9444   1.067   2.501  16.878 -0.2788  0.0229  0.4468
  634TMC3    H1 9445   0.945   2.912  16.934  1.2170  0.9006 -0.3771
  634TMC3    H2 9446   1.105   2.791  16.561 -0.2859 -1.6837 -0.1508
  634TMC3    C7 9447   0.978   2.984  16.673 -0.1894 -0.0254 -0.1566
  634TMC3    C8 9448   1.099   2.520  16.613 -0.8403  0.2653 -0.2969
  634TMC3    O1 9449   1.008   3.001  16.561 -0.0138 -0.0512  0.0583
  634TMC3    O2 9450   1.055   2.412  16.654 -0.1452  0.1796 -0.8512
  635TMC3    C1 9451   1.082   3.939  16.997  0.2800 -0.4185  0.1755
  635TMC3    C2 9452   1.208   3.977  16.963 -0.1903 -0.3728  0.0964
  635TMC3    C3 9453   1.245   4.001  16.838 -0.3738 -0.4645 -0.3092
  635TMC3    C4 9454   0.984   3.952  16.904 -0.0547  0.1966  0.9770
  635TMC3    C5 9455   1.024   3.985  16.780  1.0662  0.3476  0.1493
  635TMC3    C6 9456   1.152   4.008  16.743 -0.2879 -0.7624  0.0476
  635TMC3     C 9457   1.052   3.891  17.130 -0.6537  0.4965  0.2775
  635TMC3     O 9458   1.146   3.877  17.205  0.1883 -0.3112  0.4109
  635TMC3     H 9459   1.280   3.972  17.045  0.1359 -0.0764 -0.1755
  635TMC3    H1 9460   0.877   3.955  16.922 -0.2062 -1.7658  0.4451
  635TMC3    H2 9461   1.152   4.035  16.638  2.1803  1.3636  0.6090
  635TMC3    C7 9462   0.917   3.995  16.689  0.6037  0.5493 -0.0901
  635TMC3    C8 9463   1.383   3.985  16.801 -0.0100 -0.4432 -0.9842
  635TMC3    O1 9464   0.812   4.045  16.730  0.0194 -0.6561 -0.2509
  635TMC3    O2 9465   1.406   3.965  16.681 -0.6381 -0.0412 -0.2841
  636MPD2     C 9466   2.042   2.988  16.122  1.1048 -0.2035 -0.0765
  636MPD2    C1 9467   2.087   3.023  16.243 -0.7705 -0.1827  0.5851
  636MPD2    C2 9468   2.177   2.937  16.303 -0.6028 -0.1094 -0.2950
  636MPD2    C3 9469   2.198   2.806  16.254 -0.0236  0.5455 -0.5828
  636MPD2    C4 9470   2.149   2.778  16.128  0.6890  0.0562  0.3593
  636MPD2    C5 9471   2.071   2.868  16.064 -0.4229  0.3769  0.2759
  636MPD2     H 9472   2.212   2.964  16.402 -1.4772 -1.7434  0.4459
  636MPD2    H1 9473   2.171   2.683  16.081 -1.2704 -0.9174  1.4460
  636MPD2    H2 9474   1.977   3.055  16.067 -1.7318 -2.3793  0.6353
  636MPD2    H3 9475   2.024   2.846  15.969  1.1220  1.2950 -0.7040
  636MPD2     N 9476   2.282   2.719  16.335 -0.0738  0.0768  0.0048
  636MPD2    H5 9477   2.293   2.755  16.429 -1.8097 -2.1048  1.0521
  636MPD2    N1 9478   2.053   3.146  16.309 -0.2986  0.1643 -0.0547
  636MPD2    H7 9479   2.098   3.160  16.398  0.9497  0.6307 -0.7673
  637TMC3    C1 9480   2.450   2.569  16.419  0.2889  0.1783  0.4942
  637TMC3    C2 9481   2.495   2.674  16.495  0.5169 -0.2344 -0.1256
  637TMC3    C3 9482   2.609   2.666  16.564 -0.0722 -0.3571  0.0092
  637TMC3    C4 9483   2.520   2.448  16.408  0.1540  0.2625 -0.5472
  637TMC3    C5 9484   2.642   2.447  16.474  0.3367  0.1701 -1.3309
  637TMC3    C6 9485   2.683   2.549  16.558  0.1406 -0.6096 -0.2318
  637TMC3     C 9486   2.348   2.602  16.313  0.0446 -0.1742 -0.6412
  637TMC3     O 9487   2.306   2.517  16.233 -0.6062 -0.4146 -0.2837
  637TMC3     H 9488   2.437   2.765  16.504  1.9327  0.7798 -1.1905
  637TMC3    H1 9489   2.479   2.365  16.352  1.4925  0.0897 -1.2592
  637TMC3    H2 9490   2.779   2.540  16.606 -0.5050 -0.4536  1.0934
  637TMC3    C7 9491   2.755   2.413  16.391 -0.3325  0.5501  0.3460
  637TMC3    C8 9492   2.692   2.786  16.554 -0.6285 -0.1562  0.0673
  637TMC3    O1 9493   2.849   2.494  16.390  0.0141 -0.1512 -0.2271
  637TMC3    O2 9494   2.631   2.894  16.550 -0.2557  0.4138 -0.3473
  638MPD2     C 9495   2.389   1.572  15.033  0.4537  0.3923 -0.1984
  638MPD2    C1 9496   2.363   1.460  14.958 -0.1398 -0.3948  0.0408
  638MPD2    C2 9497   2.237   1.398  14.973 -0.0256  0.3870  0.1819
  638MPD2    C3 9498   2.150   1.439  15.077  0.4997 -0.6870  0.4786
  638MPD2    C4 9499   2.196   1.540  15.165 -0.4960  0.5423 -0.0091
  638MPD2    C5 9500   2.310   1.607  15.136 -0.1318  1.0703 -1.1351
  638MPD2     H 9501   2.212   1.319  14.904 -1.0973 -0.3394  1.4219
  638MPD2    H1 9502   2.126   1.573  15.241 -0.5926  0.9328 -0.2667
  638MPD2    H2 9503   2.476   1.635  15.018  0.1845  0.2825 -2.1884
  638MPD2    H3 9504   2.339   1.687  15.203 -2.2867 -0.3113  1.4533
  638MPD2     N 9505   2.022   1.381  15.076  0.5014 -0.0578 -0.4508
  638MPD2    H5 9506   2.016   1.308  15.005  0.4278  2.9494 -3.5616
  638MPD2    N1 9507   2.457   1.445  14.856  0.6434 -0.0552 -0.1264
  638MPD2    H7 9508   2.520   1.522  14.841  0.3349  0.4395  1.1633
  639TMC3    C1 9509   1.808   1.316  15.152 -0.1544 -0.0839 -0.1827
  639TMC3    C2 9510   1.775   1.263  15.027 -0.0153 -0.6597 -0.2997
  639TMC3    C3 9511   1.707   1.149  15.015  0.7120 -0.7091 -0.2297
  639TMC3    C4 9512   1.818   1.231  15.259 -0.5129 -0.2421  0.4547
  639TMC3    C5 9513   1.765   1.105  15.240  0.4628 -0.0570  0.5247
  639TMC3    C6 9514   1.690   1.071  15.130 -0.1993 -0.1931 -0.1934
  639TMC3     C 9515   1.913   1.417  15.156  0.8796 -0.3606  0.2245
  639TMC3     O 9516   1.914   1.500  15.244  0.2319 -0.3635 -1.1211
  639TMC3     H 9517   1.786   1.327  14.940 -3.1335  0.9281  0.4758
  639TMC3    H1 9518   1.871   1.261  15.349  2.1259  2.4036 -1.9582
  639TMC3    H2 9519   1.656   0.971  15.104 -0.2579 -0.7317  1.8852
  639TMC3    C7 9520   1.866   1.004  15.251  0.6151 -0.2446  0.7990
  639TMC3    C8 9521   1.648   1.115  14.889  0.3361  0.3068 -0.0849
  639TMC3    O1 9522   1.832   0.882  15.260 -0.5392  0.0029  0.9030
  639TMC3    O2 9523   1.687   1.187  14.796  0.4237 -0.5173  0.2245
  640MPD2     C 9524   2.832   0.831   9.685 -0.1086 -0.1073 -0.6295
  640MPD2    C1 9525   2.712   0.807   9.624  0.6682 -0.1736 -0.6633
  640MPD2    C2 9526   2.602   0.879   9.663  0.2325  0.0266  0.4271
  640MPD2    C3 9527   2.612   0.961   9.775 -0.3271 -0.2974  0.4398
  640MPD2    C4 9528   2.735   0.986   9.836  0.2739 -0.2127 -0.2673
  640MPD2    C5 9529   2.844   0.912   9.793  0.7177  0.7655  0.9376
  640MPD2     H 9530   2.513   0.874   9.602  1.2530  0.4890 -1.1210
  640MPD2    H1 9531   2.758   1.045   9.924  1.5798 -0.5840 -0.3471
  640MPD2    H2 9532   2.919   0.784   9.640  0.3545  0.1926 -0.0553
  640MPD2    H3 9533   2.939   0.925   9.843  1.3804 -1.4576  0.2649
  640MPD2     N 9534   2.502   1.029   9.836  0.4777 -0.0385 -0.2536
  640MPD2    H5 9535   2.516   1.067   9.929  0.3101  1.0265 -0.6606
  640MPD2    N1 9536   2.705   0.702   9.527  0.4067 -0.1381 -0.1729
  640MPD2    H7 9537   2.778   0.631   9.523  1.0557  0.5035  0.1580
  641TMC3    C1 9538   2.592   0.535   9.395 -0.1910  0.8628  0.5503
  641TMC3    C2 9539   2.669   0.432   9.448 -0.0787  0.6376 -0.0410
  641TMC3    C3 9540   2.661   0.308   9.392 -0.1912  0.7107  0.6379
  641TMC3    C4 9541   2.525   0.517   9.276 -0.1257  0.0040 -0.2248
  641TMC3    C5 9542   2.532   0.390   9.217 -0.0543 -0.6605  0.2572
  641TMC3    C6 9543   2.597   0.287   9.279 -0.3350 -0.3425 -0.4297
  641TMC3     C 9544   2.596   0.676   9.446 -0.0538  0.0764 -0.4924
  641TMC3     O 9545   2.503   0.750   9.411 -0.6251 -0.7160  0.2965
  641TMC3     H 9546   2.713   0.445   9.546 -1.6489 -0.5913  0.8188
  641TMC3    H1 9547   2.481   0.607   9.234  1.9854 -0.0807 -2.5608
  641TMC3    H2 9548   2.609   0.188   9.237 -1.8553  0.0272 -1.7397
  641TMC3    C7 9549   2.485   0.362   9.087  0.4400 -0.6640 -0.4384
  641TMC3    C8 9550   2.754   0.203   9.433  0.6849 -0.0065 -0.0493
  641TMC3    O1 9551   2.538   0.265   9.038 -0.2235 -0.0289  0.2796
  641TMC3    O2 9552   2.746   0.092   9.384  0.4342  0.6531  0.5776
  642TMC3    C1 9553   3.122   1.383  12.456 -0.2127  0.2047 -0.3963
  642TMC3    C2 9554   3.252   1.409  12.434 -0.3868 -0.0158 -0.1487
  642TMC3    C3 9555   3.316   1.346  12.334 -0.2934 -1.1100 -0.4422
  642TMC3    C4 9556   3.052   1.302  12.375  0.0667  0.2987 -0.8521
  642TMC3    C5 9557   3.119   1.250  12.273 -0.1007 -0.1332  0.0407
  642TMC3    C6 9558   3.255   1.265  12.248  0.2983  0.3178  0.4779
  642TMC3     C 9559   3.053   1.476  12.556 -0.5863  0.7263 -0.6265
  642TMC3     O 9560   3.106   1.583  12.566 -0.0805 -0.1589 -0.5267
  642TMC3     H 9561   3.307   1.474  12.501 -0.8112  0.3232 -0.1260
  642TMC3    H1 9562   2.952   1.266  12.396  0.0244  0.4425 -0.8064
  642TMC3    H2 9563   3.299   1.212  12.163 -1.7781 -0.0495 -0.3834
  642TMC3    C7 9564   3.066   1.126  12.226 -0.2338 -0.1336  0.6066
  642TMC3    C8 9565   3.457   1.379  12.313  0.1663  0.6564  0.1076
  642TMC3    O1 9566   3.103   1.100  12.109  0.0297  0.3534  0.0433
  642TMC3    O2 9567   3.516   1.425  12.413 -0.3918 -0.4418  0.8740
  643TMC3    C1 9568   2.810   0.463  17.476  0.3100 -0.1434  0.1079
  643TMC3    C2 9569   2.699   0.523  17.417  0.7007 -0.4182 -0.5075
  643TMC3    C3 9570   2.632   0.457  17.319 -0.3534 -0.0157 -0.2404
  643TMC3    C4 9571   2.856   0.340  17.433  0.1527 -0.0205  0.1649
  643TMC3    C5 9572   2.795   0.283  17.323 -0.0891  0.2057  0.4503
  643TMC3    C6 9573   2.683   0.344  17.269  0.5560  0.4673 -0.2147
  643TMC3     C 9574   2.860   0.530  17.594 -0.8963 -0.5969  0.3988
  643TMC3     O 9575   2.802   0.627  17.636  0.2378  0.3177  0.3449
  643TMC3     H 9576   2.667   0.618  17.457 -0.6084 -0.7473 -0.7715
  643TMC3    H1 9577   2.939   0.282  17.472 -0.2298 -1.3323 -0.9923
  643TMC3    H2 9578   2.627   0.292  17.192 -0.5078 -1.8407  2.1175
  643TMC3    C7 9579   2.847   0.148  17.293  0.0262 -0.6686 -0.4000
  643TMC3    C8 9580   2.560   0.531  17.219 -0.0413  0.2704  0.1574
  643TMC3    O1 9581   2.885   0.082  17.386 -0.0743 -0.5632  0.2689
  643TMC3    O2 9582   2.477   0.483  17.146 -0.1630 -0.1355  0.5018
  644MPD2     C 9583   2.479   1.434   9.733 -0.7692  0.0570 -0.2634
  644MPD2    C1 9584   2.428   1.373   9.616  0.0904  0.2616  0.3612
  644MPD2    C2 9585   2.290   1.381   9.599 -0.2508 -0.4771 -0.4147
  644MPD2    C3 9586   2.205   1.450   9.682 -0.2361 -0.5179  0.1759
  644MPD2    C4 9587   2.254   1.512   9.795 -0.2845  0.3887 -0.1315
  644MPD2    C5 9588   2.390   1.507   9.810  0.0949  0.3766  0.3774
  644MPD2     H 9589   2.234   1.341   9.515 -0.3888 -1.6324  0.2209
  644MPD2    H1 9590   2.204   1.580   9.864  3.5856  1.7360  1.3258
  644MPD2    H2 9591   2.587   1.432   9.743 -0.7239  0.1047 -0.7729
  644MPD2    H3 9592   2.438   1.549   9.898  1.7708  0.3481 -0.5395
  644MPD2     N 9593   2.065   1.447   9.653  0.3745 -0.2719 -0.7429
  644MPD2    H5 9594   2.048   1.396   9.567 -0.9449 -0.9780 -0.0712
  644MPD2    N1 9595   2.514   1.307   9.530  0.2149 -0.3608  0.2551
  644MPD2    H7 9596   2.610   1.292   9.558 -0.1026 -2.1976  0.3253
  645TMC3    C1 9597   1.828   1.496   9.662  0.3307 -0.2119 -0.3286
  645TMC3    C2 9598   1.728   1.576   9.713  0.6845 -0.4136 -1.1395
  645TMC3    C3 9599   1.602   1.526   9.704 -0.1559 -0.0630  0.4645
  645TMC3    C4 9600   1.799   1.373   9.606 -0.4545  0.7899 -0.8814
  645TMC3    C5 9601   1.668   1.324   9.608  0.2615  0.8138 -0.7623
  645TMC3    C6 9602   1.571   1.399   9.658 -0.2614 -0.6087 -0.5791
  645TMC3     C 9603   1.963   1.509   9.719 -0.0922 -0.2585  0.6262
  645TMC3     O 9604   1.962   1.569   9.826  0.1979 -0.0598 -0.2944
  645TMC3     H 9605   1.763   1.660   9.771 -0.0949 -2.9299  3.0116
  645TMC3    H1 9606   1.872   1.304   9.568 -0.7260 -0.6952  1.2847
  645TMC3    H2 9607   1.471   1.361   9.678 -0.1057  0.6636  2.6770
  645TMC3    C7 9608   1.635   1.197   9.541  0.7650  0.1613  1.0061
  645TMC3    C8 9609   1.500   1.584   9.793  0.0029  0.0589  0.3373
  645TMC3    O1 9610   1.729   1.149   9.482 -0.0142  0.0612  0.3043
  645TMC3    O2 9611   1.383   1.553   9.771 -0.2604  0.7171  0.1281
  646MPD2     C 9612   2.091   0.358  14.241 -0.1462 -0.1313  0.0502
  646MPD2    C1 9613   2.025   0.399  14.355  0.4230 -0.6757  0.9309
  646MPD2    C2 9614   1.934   0.500  14.337 -0.4654 -0.9214  0.4544
  646MPD2    C3 9615   1.921   0.556  14.210  0.0460  0.4512  0.1472
  646MPD2    C4 9616   1.976   0.500  14.096 -0.1038  0.0862  0.1937
  646MPD2    C5 9617   2.071   0.408  14.114  0.6153 -0.2760 -0.1446
  646MPD2     H 9618   1.885   0.546  14.422  1.0713  0.4774  0.5858
  646MPD2    H1 9619   1.955   0.527  13.993  0.5352  0.3201  0.1282
  646MPD2    H2 9620   2.168   0.283  14.252 -0.3293 -0.5306 -1.4720
  646MPD2    H3 9621   2.112   0.365  14.024 -1.3072 -1.6282 -0.3772
  646MPD2     N 9622   1.829   0.668  14.194  0.3971  0.4369  0.3516
  646MPD2    H5 9623   1.765   0.684  14.271 -0.3851  0.6196 -0.3349
  646MPD2    N1 9624   2.070   0.338  14.476 -0.2313 -0.1206 -0.1631
  646MPD2    H7 9625   2.148   0.274  14.480  1.4379  1.8454 -1.7511
  647TMC3    C1 9626   2.051   0.284  14.702  0.5104  0.7633 -0.0075
  647TMC3    C2 9627   1.965   0.248  14.801  0.3961  0.2737  0.3283
  647TMC3    C3 9628   2.018   0.193  14.918 -0.5800 -0.2594 -0.1221
  647TMC3    C4 9629   2.180   0.250  14.702 -0.6269  0.1931  0.4475
  647TMC3    C5 9630   2.225   0.181  14.810  0.8896  0.0065 -0.1416
  647TMC3    C6 9631   2.151   0.154  14.916 -0.4200 -0.2680 -0.3401
  647TMC3     C 9632   2.001   0.361  14.592  0.6658  0.7658  0.0885
  647TMC3     O 9633   1.893   0.410  14.604  0.3715 -0.5237 -0.8110
  647TMC3     H 9634   1.863   0.287  14.808  0.5696  1.1907 -2.3151
  647TMC3    H1 9635   2.256   0.283  14.631 -0.0471 -0.9572  0.5477
  647TMC3    H2 9636   2.202   0.135  15.010 -2.0761 -0.3732  0.5419
  647TMC3    C7 9637   2.360   0.142  14.823 -0.0480  0.2345  0.1143
  647TMC3    C8 9638   1.938   0.167  15.036 -0.4015  0.8133 -0.4745
  647TMC3    O1 9639   2.400   0.122  14.935  0.5489 -0.9162 -0.7015
  647TMC3    O2 9640   1.843   0.242  15.058 -0.1984  0.9200  0.1909
  648TMC3    C1 9641   1.515   2.612  16.220  0.5640 -0.1960  0.2973
  648TMC3    C2 9642   1.600   2.505  16.202  0.0896 -0.9999 -0.4911
  648TMC3    C3 9643   1.633   2.486  16.070  0.7342  0.6139  0.1283
  648TMC3    C4 9644   1.471   2.698  16.118  0.2619 -0.0779  0.9680
  648TMC3    C5 9645   1.506   2.675  15.991  0.3041  0.3153  0.5118
  648TMC3    C6 9646   1.590   2.568  15.962  0.7991 -0.2284 -0.7397
  648TMC3     C 9647   1.491   2.661  16.360 -0.4209 -0.2694 -0.2419
  648TMC3     O 9648   1.448   2.777  16.361  0.3140 -0.0899  0.3441
  648TMC3     H 9649   1.636   2.458  16.292 -0.5217  0.9613  0.7601
  648TMC3    H1 9650   1.432   2.796  16.141  2.1519  1.1376 -0.9606
  648TMC3    H2 9651   1.623   2.548  15.861 -1.8722 -0.5785 -1.5429
  648TMC3    C7 9652   1.448   2.755  15.878  0.0576  0.8401 -0.2360
  648TMC3    C8 9653   1.715   2.372  16.042  0.2438 -1.0010 -0.2275
  648TMC3    O1 9654   1.485   2.730  15.765  0.2295  0.0785  0.1260
  648TMC3    O2 9655   1.730   2.346  15.920 -0.0153 -0.5085  0.6126
  649TMC3    C1 9656   0.163   3.646  12.471  0.2534 -0.8935 -0.4676
  649TMC3    C2 9657   0.284   3.650  12.526  0.3493  0.0297  0.2028
  649TMC3    C3 9658   0.293   3.606  12.658  0.9573 -0.0583 -0.8691
  649TMC3    C4 9659   0.054   3.579  12.529  0.5330 -0.2880 -0.2816
  649TMC3    C5 9660   0.063   3.541  12.655  0.1616  0.0113 -0.1918
  649TMC3    C6 9661   0.185   3.546  12.724 -0.4272 -1.0269  0.1515
  649TMC3     C 9662   0.140   3.708  12.342 -0.4553 -0.6833 -0.1236
  649TMC3     O 9663   0.020   3.730  12.321 -0.2817  0.0108 -0.0577
  649TMC3     H 9664   0.367   3.704  12.482  1.3437 -0.2177  1.7558
  649TMC3    H1 9665   4.693   3.576  12.483  0.5600  2.8637 -0.5373
  649TMC3    H2 9666   0.200   3.493  12.817 -1.0516 -1.1648  0.1775
  649TMC3    C7 9667   4.696   3.484  12.726 -0.4114  0.6453 -0.1686
  649TMC3    C8 9668   0.401   3.660  12.731 -0.8428  0.2845  0.1921
  649TMC3    O1 9669   4.701   3.495  12.848 -0.3626  0.1192 -0.0283
  649TMC3    O2 9670   0.483   3.721  12.669 -0.2713 -0.1229 -0.1690
  650TMC3    C1 9671   2.456   0.424  12.373  0.1827  0.4875  0.6269
  650TMC3    C2 9672   2.366   0.496  12.456 -0.1923 -0.2044  0.2453
  650TMC3    C3 9673   2.284   0.581  12.395 -1.3463  0.0049 -0.1620
  650TMC3    C4 9674   2.450   0.427  12.232 -0.8323  0.3019 -0.4271
  650TMC3    C5 9675   2.373   0.520  12.178  0.4037 -0.0609 -0.0432
  650TMC3    C6 9676   2.290   0.598  12.259  0.1587 -0.2509 -0.4103
  650TMC3     C 9677   2.523   0.309  12.444  0.2231  0.1202  0.9113
  650TMC3     O 9678   2.506   0.292  12.564  0.6840 -0.2262 -0.8115
  650TMC3     H 9679   2.384   0.495  12.562 -1.2229 -1.7753  0.4234
  650TMC3    H1 9680   2.534   0.397  12.170 -1.7722  0.0125 -1.5404
  650TMC3    H2 9681   2.233   0.676  12.209 -0.2844 -0.1481  0.2692
  650TMC3    C7 9682   2.433   0.598  12.075  0.0852  0.1051  0.4104
  650TMC3    C8 9683   2.231   0.686  12.474 -0.0728 -0.3996 -0.0273
  650TMC3    O1 9684   2.421   0.553  11.961  0.3746 -0.2917  0.7908
  650TMC3    O2 9685   2.306   0.729  12.566  0.0568  0.6393 -0.4669
  651MPD2     C 9686   1.340   3.030  11.043  0.0496 -0.0874  0.0499
  651MPD2    C1 9687   1.307   3.005  10.913  0.4857 -0.1459  0.0881
  651MPD2    C2 9688   1.396   3.032  10.811  0.3291  0.1440 -0.1338
  651MPD2    C3 9689   1.522   3.085  10.837 -0.5200 -0.2934 -0.5015
  651MPD2    C4 9690   1.546   3.107  10.972 -0.4006  0.2015  1.2039
  651MPD2    C5 9691   1.462   3.078  11.071  0.3096 -0.4724  0.3297
  651MPD2     H 9692   1.369   3.016  10.707  0.2775  0.5012 -0.1781
  651MPD2    H1 9693   1.639   3.155  11.000  0.3479 -1.0931  0.9083
  651MPD2    H2 9694   1.266   3.028  11.123 -0.3569  0.0995 -0.3225
  651MPD2    H3 9695   1.486   3.086  11.176  0.8109 -0.9106  0.2494
  651MPD2     N 9696   1.613   3.126  10.732 -0.1813 -0.3823 -0.3361
  651MPD2    H5 9697   1.585   3.103  10.637 -0.1896  2.1439 -0.9275
  651MPD2    N1 9698   1.183   2.958  10.867  0.9582  0.6581 -0.6809
  651MPD2    H7 9699   1.169   2.953  10.766  0.3236  0.5353 -0.5893
  652TMC3    C1 9700   2.055   3.245  10.587 -0.2972 -0.3425 -0.1522
  652TMC3    C2 9701   1.958   3.159  10.636  0.0790 -0.1578  0.0574
  652TMC3    C3 9702   1.828   3.185  10.631  0.1867 -0.2921  0.3370
  652TMC3    C4 9703   2.020   3.348  10.506 -0.2584 -0.4190  0.1340
  652TMC3    C5 9704   1.887   3.353  10.475  0.6329 -0.2191  0.1835
  652TMC3    C6 9705   1.791   3.285  10.547  0.4600  0.0341 -0.1324
  652TMC3     C 9706   2.192   3.206  10.616  0.7970 -1.4203 -0.5796
  652TMC3     O 9707   2.207   3.111  10.694  0.0695  0.2953  0.7397
  652TMC3     H 9708   1.987   3.090  10.715  2.1587  1.1910  0.4692
  652TMC3    H1 9709   2.089   3.424  10.473 -0.2959 -0.9780 -1.2241
  652TMC3    H2 9710   1.684   3.295  10.534  0.5483  1.6733  0.4489
  652TMC3    C7 9711   1.846   3.432  10.360  0.6894 -0.0380  0.5293
  652TMC3    C8 9712   1.743   3.165  10.751  0.0895 -0.7298 -0.2278
  652TMC3    O1 9713   1.731   3.408  10.329  0.6649  0.3651 -0.5162
  652TMC3    O2 9714   1.805   3.178  10.857 -0.0779  0.0180 -0.0449
  653MPD2     C 9715   0.529   2.541  17.591 -0.7785 -0.4115  0.0986
  653MPD2    C1 9716   0.433   2.618  17.526  0.0994  0.4106 -0.7733
  653MPD2    C2 9717   0.350   2.558  17.428 -0.4373 -0.0330 -0.1097
  653MPD2    C3 9718   0.357   2.423  17.407  0.4847  0.4847 -0.3806
  653MPD2    C4 9719   0.451   2.345  17.479 -0.0364  0.0699  0.2166
  653MPD2    C5 9720   0.538   2.406  17.567  0.6453  0.0595  0.7743
  653MPD2     H 9721   0.280   2.613  17.365 -0.5608  0.0776  0.1231
  653MPD2    H1 9722   0.460   2.237  17.466  1.9605  0.2824 -0.1322
  653MPD2    H2 9723   0.602   2.568  17.666  1.2975  0.4786 -2.2771
  653MPD2    H3 9724   0.618   2.349  17.613 -0.4812 -1.6688  0.5695
  653MPD2     N 9725   0.273   2.366  17.309  0.1619 -0.5467  0.3750
  653MPD2    H5 9726   0.204   2.415  17.252  0.4372 -1.0636 -0.4029
  653MPD2    N1 9727   0.422   2.753  17.547 -0.0487 -0.3642 -0.1532
  653MPD2    H7 9728   0.368   2.813  17.486 -0.5868 -1.8504 -1.1458
  654TMC3    C1 9729   0.203   2.212  17.146 -1.0934 -0.2795  0.1742
  654TMC3    C2 9730   0.157   2.316  17.072 -0.0752 -0.0213 -0.0554
  654TMC3    C3 9731   0.082   2.287  16.961 -0.2407  0.5403 -0.7992
  654TMC3    C4 9732   0.179   2.077  17.117 -0.0905  0.9787  0.9092
  654TMC3    C5 9733   0.106   2.048  17.003  0.1766  0.5563 -0.2213
  654TMC3    C6 9734   0.056   2.151  16.924 -0.0885 -0.0982 -0.0168
  654TMC3     C 9735   0.263   2.235  17.278 -0.0551 -0.2538  0.6087
  654TMC3     O 9736   0.298   2.132  17.338  0.0579 -0.1010  0.1355
  654TMC3     H 9737   0.163   2.422  17.097  0.5427 -0.0918  0.0948
  654TMC3    H1 9738   0.201   1.999  17.190  0.6145  0.0247 -0.3115
  654TMC3    H2 9739   4.736   2.123  16.836 -0.0917 -2.4278  0.7044
  654TMC3    C7 9740   0.065   1.911  16.971  0.4865  0.1094 -0.1710
  654TMC3    C8 9741   0.032   2.396  16.876 -0.4697 -0.8648  0.0161
  654TMC3    O1 9742   4.710   1.894  16.895  0.2417 -0.3306  0.4776
  654TMC3    O2 9743   4.735   2.502  16.927  0.9001 -0.8262 -0.1245
  655MPD2     C 9744   1.968   2.728  15.521 -0.1306  0.4784 -0.5500
  655MPD2    C1 9745   1.884   2.828  15.478  0.9999  0.2960 -0.6347
  655MPD2    C2 9746   1.854   2.826  15.344 -1.0977  0.0088 -0.4530
  655MPD2    C3 9747   1.893   2.735  15.248 -0.3477  0.0746 -0.3238
  655MPD2    C4 9748   1.976   2.641  15.295  0.7010  0.6835 -0.5770
  655MPD2    C5 9749   2.006   2.634  15.430  0.7505 -0.5594 -0.7593
  655MPD2     H 9750   1.791   2.911  15.320 -0.1221  0.6508 -0.6971
  655MPD2    H1 9751   2.018   2.560  15.235  2.0451  0.8035  0.1928
  655MPD2    H2 9752   2.007   2.718  15.621  3.6595  2.6745 -1.8037
  655MPD2    H3 9753   2.076   2.555  15.455  1.7951  0.6372  0.0745
  655MPD2     N 9754   1.844   2.730  15.117  0.0576  1.1728 -0.1588
  655MPD2    H5 9755   1.865   2.645  15.065 -0.6974  0.7845  0.1905
  655MPD2    N1 9756   1.819   2.927  15.564  0.8889  0.9159 -0.9881
  655MPD2    H7 9757   1.759   2.991  15.514  0.0570 -0.5264 -1.8144
  656TMC3    C1 9758   1.769   3.054  15.757 -0.6714 -0.5173  0.1929
  656TMC3    C2 9759   1.707   3.046  15.875  0.2450 -0.6299  0.7158
  656TMC3    C3 9760   1.624   3.145  15.912 -0.1408 -0.5889 -0.0832
  656TMC3    C4 9761   1.751   3.162  15.674  0.1007 -0.4844  0.2581
  656TMC3    C5 9762   1.671   3.267  15.713  0.1045  0.1614  0.9418
  656TMC3    C6 9763   1.598   3.254  15.824  0.0045 -0.3964 -0.2418
  656TMC3     C 9764   1.828   2.938  15.701  0.4737  0.6147 -0.7402
  656TMC3     O 9765   1.872   2.851  15.780  0.2573  0.2207 -0.0780
  656TMC3     H 9766   1.721   2.961  15.941  0.6646 -1.7437 -0.7803
  656TMC3    H1 9767   1.814   3.172  15.586  0.9599 -1.7042  0.7349
  656TMC3    H2 9768   1.532   3.332  15.860  0.2682 -0.2856 -0.0007
  656TMC3    C7 9769   1.611   3.347  15.608 -0.3753  0.5019  0.9213
  656TMC3    C8 9770   1.538   3.107  16.021 -0.6612  0.1103  0.3669
  656TMC3    O1 9771   1.686   3.366  15.514  0.4536 -0.6275 -0.2063
  656TMC3    O2 9772   1.538   2.994  16.064  0.1621 -0.0795 -0.3165
  657TMC3    C1 9773   0.380   2.209  15.004  0.5828  0.5617  0.1577
  657TMC3    C2 9774   0.419   2.182  15.133  0.5487 -0.4213  0.1541
  657TMC3    C3 9775   0.381   2.275  15.225 -0.7705 -1.2677  0.0525
  657TMC3    C4 9776   0.292   2.303  14.967  0.1868  0.0008  0.6806
  657TMC3    C5 9777   0.257   2.397  15.061  0.3869  0.1158  0.1861
  657TMC3    C6 9778   0.297   2.384  15.192 -0.3605  0.6768  0.0720
  657TMC3     C 9779   0.413   2.113  14.902  0.2223 -0.6083 -0.8157
  657TMC3     O 9780   0.336   2.094  14.808 -0.0489  0.0329 -0.0479
  657TMC3     H 9781   0.486   2.101  15.159 -0.4869 -1.4982 -0.5517
  657TMC3    H1 9782   0.254   2.301  14.866 -0.2605  0.7167  0.8287
  657TMC3    H2 9783   0.269   2.455  15.268 -2.1659  0.4020 -0.3334
  657TMC3    C7 9784   0.183   2.510  15.023 -0.2212 -0.3270 -0.8541
  657TMC3    C8 9785   0.464   2.272  15.345 -0.2053 -0.9955 -0.6682
  657TMC3    O1 9786   0.146   2.586  15.110  0.0502  0.6840 -0.4439
  657TMC3    O2 9787   0.518   2.165  15.375  0.6134  0.5033 -0.6449
  658MPD2     C 9788   2.068   2.451  14.468  0.4690  0.5321  1.1507
  658MPD2    C1 9789   2.057   2.574  14.529 -0.7240  0.2052 -0.2332
  658MPD2    C2 9790   2.146   2.665  14.497 -0.2950 -0.0022 -0.1942
  658MPD2    C3 9791   2.234   2.655  14.391  0.0268 -0.1486 -0.3572
  658MPD2    C4 9792   2.247   2.533  14.328  0.3160  0.6022  0.2499
  658MPD2    C5 9793   2.166   2.432  14.377 -0.6390  0.1463  0.1791
  658MPD2     H 9794   2.142   2.767  14.535 -0.7240 -0.6674  1.5249
  658MPD2    H1 9795   2.303   2.514  14.238 -1.6748  0.4577 -0.9690
  658MPD2    H2 9796   1.992   2.377  14.491  0.1355  1.2117  2.2475
  658MPD2    H3 9797   2.177   2.334  14.330 -0.5430 -0.2034  0.9303
  658MPD2     N 9798   2.288   2.778  14.344  0.1465  0.2059  0.3400
  658MPD2    H5 9799   2.257   2.862  14.392 -0.9363 -0.4689  0.8191
  658MPD2    N1 9800   1.960   2.609  14.623 -0.1374 -0.7663 -0.7072
  658MPD2    H7 9801   1.986   2.689  14.680  0.7321 -0.4086 -1.5961
  659TMC3    C1 9802   1.751   2.623  14.733  0.2138 -0.0522 -0.2091
  659TMC3    C2 9803   1.800   2.677  14.849 -0.0358 -0.0607 -0.5734
  659TMC3    C3 9804   1.710   2.750  14.927 -0.1934 -0.2338 -0.5531
  659TMC3    C4 9805   1.620   2.616  14.699  0.5274 -0.0234 -0.2672
  659TMC3    C5 9806   1.534   2.678  14.786 -0.5647  0.5910  0.6437
  659TMC3    C6 9807   1.577   2.748  14.893 -1.2258  0.0093 -0.5693
  659TMC3     C 9808   1.834   2.560  14.633 -0.2739 -0.5366  0.3947
  659TMC3     O 9809   1.778   2.478  14.560 -0.0185  0.0097 -0.5367
  659TMC3     H 9810   1.906   2.677  14.869  0.0709  0.5589 -1.1533
  659TMC3    H1 9811   1.582   2.566  14.611  0.4013 -1.5340  0.6497
  659TMC3    H2 9812   1.504   2.792  14.960 -0.0613  1.4937 -0.2932
  659TMC3    C7 9813   1.390   2.646  14.786  0.8152 -0.3232 -0.3469
  659TMC3    C8 9814   1.750   2.807  15.056 -0.3404 -0.2265  0.4345
  659TMC3    O1 9815   1.325   2.710  14.869  0.5691 -0.1889  0.5594
  659TMC3    O2 9816   1.674   2.892  15.105  0.3385 -0.2804  0.0874
  660MPD2     C 9817   4.154   2.418  12.518 -0.4142  0.8041 -0.2842
  660MPD2    C1 9818   4.032   2.349  12.528  0.6789  0.5717  0.1452
  660MPD2    C2 9819   4.008   2.280  12.644 -0.7615  0.0815  0.2296
  660MPD2    C3 9820   4.094   2.271  12.751 -0.0156  0.0682 -0.0789
  660MPD2    C4 9821   4.213   2.340  12.743 -0.8066 -0.1569  0.2426
  660MPD2    C5 9822   4.233   2.418  12.632  0.4702 -0.5910  0.9558
  660MPD2     H 9823   3.916   2.223  12.644  0.1709 -1.4414  1.0486
  660MPD2    H1 9824   4.288   2.336  12.821  1.0509 -0.4705 -1.5519
  660MPD2    H2 9825   4.186   2.468  12.427  1.0351 -1.0707 -0.7882
  660MPD2    H3 9826   4.330   2.466  12.622 -1.3074  2.6932 -0.5055
  660MPD2     N 9827   4.064   2.193  12.857 -0.5180  0.5431 -0.0382
  660MPD2    H5 9828   4.145   2.173  12.916  0.2459  0.0192 -1.2591
  660MPD2    N1 9829   3.962   2.336  12.404  0.8628  0.4613  0.5801
  660MPD2    H7 9830   3.997   2.392  12.328 -0.4173  1.2137  0.5421
  661TMC3    C1 9831   3.773   2.316  12.262 -0.1659  1.2046 -0.0999
  661TMC3    C2 9832   3.850   2.267  12.155  0.1947  0.2874  0.4341
  661TMC3    C3 9833   3.783   2.205  12.056 -0.1397 -0.0328 -0.4170
  661TMC3    C4 9834   3.633   2.299  12.259  0.4432  0.0631  0.1008
  661TMC3    C5 9835   3.568   2.240  12.154  1.0023  0.9537 -1.4464
  661TMC3    C6 9836   3.645   2.204  12.047 -0.5326 -0.1008 -1.0883
  661TMC3     C 9837   3.828   2.292  12.396 -0.9392  0.5206  0.5175
  661TMC3     O 9838   3.749   2.259  12.484  0.4011  0.4291  1.2114
  661TMC3     H 9839   3.957   2.252  12.166 -0.0747 -0.9644  1.2958
  661TMC3    H1 9840   3.568   2.317  12.344 -0.0056 -1.0460 -0.0134
  661TMC3    H2 9841   3.589   2.175  11.959 -0.6743  0.0309 -1.0410
  661TMC3    C7 9842   3.456   2.155  12.191 -0.1714  0.9643 -0.3829
  661TMC3    C8 9843   3.850   2.153  11.942  0.3664  0.1306  0.1092
  661TMC3    O1 9844   3.427   2.144  12.312  0.0986  0.0579 -0.4172
  661TMC3    O2 9845   3.962   2.202  11.915 -1.1712  0.7327 -0.2351
  662MPD2     C 9846   4.429   1.068  17.069  0.3545  0.1715  0.3492
  662MPD2    C1 9847   4.536   1.120  17.134 -0.0330 -0.5738  0.6513
  662MPD2    C2 9848   4.517   1.231  17.220  0.2469  0.6657 -0.2618
  662MPD2    C3 9849   4.394   1.291  17.229  0.6376 -0.2270 -0.1798
  662MPD2    C4 9850   4.289   1.235  17.160  0.0979  0.2136 -0.2571
  662MPD2    C5 9851   4.312   1.132  17.072  1.0390 -0.2543  0.3869
  662MPD2     H 9852   4.597   1.256  17.289  0.2780  0.7417 -0.3264
  662MPD2    H1 9853   4.193   1.285  17.162 -0.3384 -0.6708  1.0239
  662MPD2    H2 9854   4.447   0.983  17.005  1.3533  0.7975 -0.2011
  662MPD2    H3 9855   4.230   1.097  17.011  2.5163 -1.2688 -1.0163
  662MPD2     N 9856   4.364   1.391  17.321 -0.2802  0.3579 -0.2621
  662MPD2    H5 9857   4.267   1.418  17.332  0.1780  0.4421  3.5793
  662MPD2    N1 9858   4.659   1.063  17.128  0.4407  0.6236  0.3392
  662MPD2    H7 9859   4.724   1.092  17.200 -0.0383  0.9930  0.6238
  663TMC3    C1 9860   0.073   0.884  17.151  0.3067  0.2131 -0.9229
  663TMC3    C2 9861   0.049   0.880  17.290 -0.6905  0.6130 -0.7375
  663TMC3    C3 9862   0.118   0.789  17.367  0.3006  0.2912  0.6691
  663TMC3    C4 9863   0.135   0.782  17.082  0.1036 -0.1069  0.2649
  663TMC3    C5 9864   0.165   0.674  17.162 -0.6502  0.4181  0.1496
  663TMC3    C6 9865   0.163   0.682  17.299 -0.5160  0.1039  0.4332
  663TMC3     C 9866   4.701   0.944  17.074 -0.3293 -0.1730 -0.9882
  663TMC3     O 9867   4.655   0.884  16.978 -0.1928 -0.1151  0.8526
  663TMC3     H 9868   0.021   0.960  17.357  0.3870  0.9687 -0.7229
  663TMC3    H1 9869   0.129   0.767  16.975 -1.9187 -0.5648  0.4295
  663TMC3    H2 9870   0.206   0.597  17.350  1.3641  0.1052 -1.1158
  663TMC3    C7 9871   0.207   0.552  17.100 -0.3472 -0.2891  0.1069
  663TMC3    C8 9872   0.066   0.756  17.497 -0.0862 -0.2859  0.6422
  663TMC3    O1 9873   0.280   0.569  17.009  0.2787 -0.0559 -0.3340
  663TMC3    O2 9874   0.116   0.664  17.564  0.4149  0.1696 -0.6608
  664MPD2     C 9875   2.956   3.768  17.419  1.0614 -0.1645  0.4044
  664MPD2    C1 9876   3.025   3.880  17.454  0.0671  0.6952  0.6310
  664MPD2    C2 9877   3.030   3.933  17.576 -0.7752  0.3291 -0.0069
  664MPD2    C3 9878   2.954   3.873  17.671 -0.1642  0.2509 -0.0239
  664MPD2    C4 9879   2.887   3.754  17.652  0.0081 -0.2151  0.4398
  664MPD2    C5 9880   2.894   3.697  17.528  0.2189  0.3102 -0.1236
  664MPD2     H 9881   3.095   4.017  17.595  1.3647 -0.7536 -2.5431
  664MPD2    H1 9882   2.829   3.693  17.721 -0.6873 -0.4867 -0.3759
  664MPD2    H2 9883   2.963   3.729  17.318 -0.3513 -1.1154  0.6797
  664MPD2    H3 9884   2.844   3.602  17.512 -2.2198  1.3726  1.2109
  664MPD2     N 9885   2.953   3.945   0.054 -0.2977  0.0672 -0.8491
  664MPD2    H5 9886   3.009   4.030   0.058  0.5020 -0.4697 -0.7260
  664MPD2    N1 9887   3.101   3.950  17.361  0.0389 -0.0346  0.8036
  664MPD2    H7 9888   3.163   4.022  17.396  0.3545 -0.1302  0.4313
  665TMC3    C1 9889   2.849   4.041   0.250  0.0511  0.2361 -0.0259
  665TMC3    C2 9890   2.726   4.074   0.308 -0.4127  0.0616  0.3977
  665TMC3    C3 9891   2.724   4.186   0.392 -0.2765 -0.2100 -0.1882
  665TMC3    C4 9892   2.960   4.124   0.263 -0.5946 -0.5526  0.4111
  665TMC3    C5 9893   2.952   4.231   0.349 -0.6019  0.5412  0.7956
  665TMC3    C6 9894   2.834   4.265   0.419  0.2891 -0.1604 -0.3742
  665TMC3     C 9895   2.853   3.933   0.154 -0.2746  0.2401 -0.4503
  665TMC3     O 9896   2.747   3.867   0.151  0.1090  0.0703  0.1656
  665TMC3     H 9897   2.642   4.005   0.307  0.0225 -0.4776  0.8910
  665TMC3    H1 9898   3.045   4.117   0.196 -0.8181  2.6547 -0.1917
  665TMC3    H2 9899   2.816   4.362   0.464  2.0249 -0.6677  1.4185
  665TMC3    C7 9900   3.076   4.308   0.366  0.1475 -0.4482 -0.8790
  665TMC3    C8 9901   2.607   4.201   0.476  0.0691  0.3250  0.7611
  665TMC3    O1 9902   3.168   4.288   0.289 -0.0798  1.1185 -0.1976
  665TMC3    O2 9903   2.502   4.143   0.446 -0.0857 -0.3973 -0.2863
  666TMC3    C1 9904   1.836   4.527   9.287 -0.1424 -0.0345  0.2304
  666TMC3    C2 9905   1.965   4.486   9.278  0.0031  0.2746 -0.5064
  666TMC3    C3 9906   2.059   4.547   9.353 -0.2187 -0.0784  0.3201
  666TMC3    C4 9907   1.790   4.630   9.357 -0.4841  0.6810 -0.2777
  666TMC3    C5 9908   1.886   4.700   9.424 -0.7696 -0.6094  0.1233
  666TMC3    C6 9909   2.022   4.651   9.429  0.6221  0.0791 -0.4543
  666TMC3     C 9910   1.738   4.454   9.209 -0.3000 -0.7154  0.0503
  666TMC3     O 9911   1.637   4.520   9.196 -0.2413  0.5596  0.1333
  666TMC3     H 9912   1.988   4.410   9.204  1.2399  0.8612 -0.7272
  666TMC3    H1 9913   1.686   4.655   9.372  0.1313  2.6677  0.6565
  666TMC3    H2 9914   2.085   4.693   9.507  0.8949 -4.6721  1.8668
  666TMC3    C7 9915   1.839   0.060   9.525  0.5799  0.3971 -0.5500
  666TMC3    C8 9916   2.173   4.478   9.386 -0.5671  0.3151  0.4258
  666TMC3    O1 9917   1.731   0.037   9.582  0.0172  0.4256 -0.2810
  666TMC3    O2 9918   2.167   4.355   9.388  0.7825 -0.1410 -0.4937
  667MPD2     C 9919   4.063   4.332  14.435  0.1455 -0.8358  0.1521
  667MPD2    C1 9920   3.952   4.321  14.516 -0.0316  0.0460 -0.3410
  667MPD2    C2 9921   3.870   4.216  14.513 -0.0954  0.4534  0.1930
  667MPD2    C3 9922   3.895   4.112  14.431 -0.2212 -0.4488 -0.3148
  667MPD2    C4 9923   4.010   4.119  14.356 -0.0250 -0.4174 -0.2115
  667MPD2    C5 9924   4.087   4.229  14.345  0.1352  0.1462  0.3945
  667MPD2     H 9925   3.788   4.206  14.584  1.3354 -2.9964  1.3629
  667MPD2    H1 9926   4.022   4.038  14.285  1.2490  0.3194 -0.8416
  667MPD2    H2 9927   4.131   4.416  14.432 -0.5371 -0.3037 -0.3263
  667MPD2    H3 9928   4.171   4.230  14.276 -0.3160 -2.3646 -0.2007
  667MPD2     N 9929   3.814   3.995  14.413 -0.8592 -0.0398 -0.0445
  667MPD2    H5 9930   3.843   3.921  14.349 -0.4135 -0.4877  0.6730
  667MPD2    N1 9931   3.903   4.428  14.598 -0.3279 -0.0230  0.2382
  667MPD2    H7 9932   3.813   4.420  14.645 -1.7411  0.2938 -2.3590
  668TMC3    C1 9933   3.896   4.654  14.686 -0.1768  0.0073 -0.2194
  668TMC3    C2 9934   3.938   0.051  14.680 -0.3265  0.6790 -0.6389
  668TMC3    C3 9935   3.909   0.126  14.791 -0.2206 -0.0257  0.1923
  668TMC3    C4 9936   3.810   4.612  14.784  0.1586 -0.3481  1.0309
  668TMC3    C5 9937   3.772   4.695  14.882  0.8059 -0.6152  0.0795
  668TMC3    C6 9938   3.820   0.088  14.886 -0.2819  0.1333  0.4231
  668TMC3     C 9939   3.960   4.550  14.609 -0.0169  0.6239 -0.1857
  668TMC3     O 9940   4.067   4.580  14.563 -0.6146  0.2685 -0.1188
  668TMC3     H 9941   3.990   0.094  14.595  1.0989 -1.3933 -0.8263
  668TMC3    H1 9942   3.791   4.506  14.799  0.8083 -0.7758 -1.2370
  668TMC3    H2 9943   3.799   0.154  14.969 -3.4580 -0.0248 -0.2527
  668TMC3    C7 9944   3.701   4.645  14.995  0.5146  0.4489  0.0103
  668TMC3    C8 9945   3.939   0.267  14.791 -0.0226  0.0606 -0.6058
  668TMC3    O1 9946   3.704   4.711  15.103 -0.6871 -0.1540  0.1944
  668TMC3    O2 9947   3.876   0.340  14.861 -0.1043  0.1395 -0.2072
  669TMC3    C1 9948   1.756   4.224  14.668  0.4346 -0.5872  0.3697
  669TMC3    C2 9949   1.666   4.149  14.595  0.2908  0.5427  0.2294
  669TMC3    C3 9950   1.659   4.178  14.465  0.2824 -0.4321  0.6924
  669TMC3    C4 9951   1.850   4.308  14.616  0.4015 -0.1334  0.0797
  669TMC3    C5 9952   1.851   4.321  14.476 -0.7349 -0.6431  0.0160
  669TMC3    C6 9953   1.755   4.257  14.403  0.4135  0.0322 -0.4190
  669TMC3     C 9954   1.767   4.189  14.809  0.0384 -0.2899  0.2446
  669TMC3     O 9955   1.667   4.129  14.855 -0.3024  0.0982  0.5918
  669TMC3     H 9956   1.592   4.083  14.638  2.3233 -1.6783  0.3637
  669TMC3    H1 9957   1.914   4.372  14.675  0.5757 -1.8242  1.7153
  669TMC3    H2 9958   1.741   4.269  14.296  3.0160  0.3702 -0.7143
  669TMC3    C7 9959   1.944   4.404  14.411  0.3320  0.4033 -0.0162
  669TMC3    C8 9960   1.546   4.132  14.392  0.0378 -0.0320 -0.1071
  669TMC3    O1 9961   2.032   4.452  14.483 -0.0377 -0.4662  0.3449
  669TMC3    O2 9962   1.571   4.120  14.273  0.1658 -0.3289 -0.5165
  670MPD2     C 9963   0.427   2.099  13.468 -0.3516 -0.5917  1.0758
  670MPD2    C1 9964   0.447   2.118  13.605 -0.5600 -0.6945 -0.1747
  670MPD2    C2 9965   0.339   2.120  13.695  0.1589 -0.2850  0.4968
  670MPD2    C3 9966   0.211   2.095  13.650 -0.4337 -0.1863 -0.6592
  670MPD2    C4 9967   0.193   2.066  13.512 -0.4621 -0.2358 -0.4374
  670MPD2    C5 9968   0.299   2.075  13.426 -0.2266 -0.1208 -1.1548
  670MPD2     H 9969   0.358   2.146  13.799  0.6338  3.2874 -0.4877
  670MPD2    H1 9970   0.098   2.035  13.471 -2.7301  2.1600  2.9808
  670MPD2    H2 9971   0.513   2.097  13.402 -0.8965 -2.1749  0.4175
  670MPD2    H3 9972   0.279   2.073  13.319 -1.6041 -0.7362 -0.8910
  670MPD2     N 9973   0.116   2.065  13.752  0.1138  0.2191 -0.2837
  670MPD2    H5 9974   0.138   2.074  13.851  0.7889  0.4339 -0.4480
  670MPD2    N1 9975   0.574   2.129  13.668  0.4532 -0.1600  0.3344
  670MPD2    H7 9976   0.577   2.152  13.767 -0.3569 -1.0846  0.5741
  671TMC3    C1 9977   4.660   1.975  13.847  0.1461  0.4042 -0.7080
  671TMC3    C2 9978   0.003   1.911  13.942  0.2782 -0.5933 -0.2053
  671TMC3    C3 9979   4.685   1.796  14.004 -0.0606 -0.0574 -0.7274
  671TMC3    C4 9980   4.562   1.894  13.793 -0.1062 -0.6285  0.2603
  671TMC3    C5 9981   4.520   1.784  13.852 -0.4499  0.0247 -0.3045
  671TMC3    C6 9982   4.571   1.736  13.966 -0.1545  0.8894  0.6753
  671TMC3     C 9983   4.724   2.031  13.727  0.0589  0.5833 -0.5436
  671TMC3     O 9984   4.660   2.059  13.625 -0.1553 -0.6990  0.0955
  671TMC3     H 9985   0.073   1.965  14.005 -0.7524 -0.9348  1.2278
  671TMC3    H1 9986   4.492   1.931  13.718  0.5165 -1.0520 -0.5256
  671TMC3    H2 9987   4.538   1.647  14.019  1.0047  1.1730  1.8854
  671TMC3    C7 9988   4.479   1.687  13.756 -0.3167  0.7416  0.6666
  671TMC3    C8 9989   0.045   1.715  14.072  0.6619 -0.4090 -0.0601
  671TMC3    O1 9990   4.515   1.715  13.641 -0.1086  0.4131  0.0713
  671TMC3    O2 9991   4.733   1.627  14.139 -0.2755  0.5740  0.1006
  672MPD2     C 9992   0.428   2.104   0.967 -0.0566 -0.0333  0.0716
  672MPD2    C1 9993   0.555   2.143   0.932  0.2827 -0.5502  0.3147
  672MPD2    C2 9994   0.605   2.270   0.954 -0.0971 -0.2036 -0.4271
  672MPD2    C3 9995   0.519   2.363   1.017  0.7614 -0.7965  0.3562
  672MPD2    C4 9996   0.393   2.328   1.046 -0.0819  0.8417  0.2754
  672MPD2    C5 9997   0.353   2.198   1.027  0.4241  0.3991 -0.4330
  672MPD2     H 9998   0.702   2.300   0.919  1.1177 -3.5436  0.0589
  672MPD2    H1 9999   0.325   2.394   1.098  3.2369  2.0632  3.0397
  672MPD2    H210000   0.382   2.007   0.957 -0.1364  0.0055  0.0637
  672MPD2    H310001   0.257   2.167   1.065  0.7902  0.9687  0.9432
  672MPD2     N10002   0.559   2.496   1.048 -0.1311 -0.0300 -0.2321
  672MPD2    H510003   0.495   2.554   1.102  0.3039  0.1853  0.0535
  672MPD2    N110004   0.622   2.063   0.835 -0.0270 -0.6757 -0.1836
  672MPD2    H710005   0.712   2.089   0.796  0.5850 -2.0000  0.3338
  673TMC3    C110006   0.652   1.905   0.684 -0.9267  0.5937  0.4995
  673TMC3    C210007   0.776   1.860   0.700  0.3203  0.9389  0.3079
  673TMC3    C310008   0.872   1.868   0.603  0.0065 -0.6878 -0.2310
  673TMC3    C410009   0.622   1.975   0.564  0.6925  0.1728  0.8985
  673TMC3    C510010   0.721   1.990   0.469 -0.7073  0.0234 -0.7381
  673TMC3    C610011   0.845   1.927   0.488  0.2599 -0.6263 -0.4499
  673TMC3     C10012   0.570   1.948   0.784  0.4854 -0.2190  0.1446
  673TMC3     O10013   0.456   1.902   0.781 -0.1615  0.9123 -0.1196
  673TMC3     H10014   0.805   1.813   0.794  1.4855  0.2788 -0.3826
  673TMC3    H110015   0.527   2.024   0.545  0.2471 -1.3995 -0.8337
  673TMC3    H210016   0.929   1.949   0.424  2.7846 -2.9051  2.0322
  673TMC3    C710017   0.689   2.043   0.342  0.0490  0.7782  0.5279
  673TMC3    C810018   1.008   1.836   0.641 -0.0818  0.1687  0.4243
  673TMC3    O110019   0.737   1.991   0.244 -0.1305  0.1797  0.2995
  673TMC3    O210020   1.029   1.731   0.703  0.3098 -0.2339 -0.3277
  674MPD2     C10021   4.713   1.788  17.416 -0.4890  0.2026 -0.5267
  674MPD2    C110022   0.064   1.714  17.493  0.2136  0.1394 -0.6624
  674MPD2    C210023   0.114   1.776  17.611 -0.1724 -0.2200 -1.0123
  674MPD2    C310024   0.079   1.904  17.649  0.1244  0.2331  0.2967
  674MPD2    C410025   0.010   1.983  17.557  0.7278 -0.4602 -0.1012
  674MPD2    C510026   4.693   1.922  17.449 -0.1725  0.5301 -0.7808
  674MPD2     H10027   0.183   1.722  17.675  2.3831  1.6640 -2.1954
  674MPD2    H110028   4.732   2.089  17.574  2.5363 -0.5412  2.0806
  674MPD2    H210029   4.669   1.749  17.325 -1.5535  0.2776 -0.0471
  674MPD2    H310030   4.636   1.984  17.381 -1.6859 -0.3960 -0.3737
  674MPD2     N10031   0.133   1.947   0.032 -0.9491 -0.0584 -0.3881
  674MPD2    H510032   0.184   1.885   0.093 -2.5294 -0.6913  0.2827
  674MPD2    N110033   0.093   1.581  17.456 -0.2527 -0.2783 -0.4415
  674MPD2    H710034   0.030   1.524  17.400  0.2735 -1.2112 -0.0768
  675TMC3    C110035   0.222   1.375  17.481  0.3140  0.1868 -0.0542
  675TMC3    C210036   0.105   1.312  17.527  0.0091  0.3109  0.0693
  675TMC3    C310037   0.111   1.236  17.641 -0.1452  0.3466 -0.5767
  675TMC3    C410038   0.341   1.341  17.537  0.5198  0.1337 -0.5887
  675TMC3    C510039   0.342   1.258  17.642  0.0626  0.0719 -0.0596
  675TMC3    C610040   0.229   1.208  17.698 -0.9910 -0.1809 -0.1905
  675TMC3     C10041   0.211   1.518  17.501 -0.1393  0.2348 -0.3231
  675TMC3     O10042   0.304   1.561  17.564 -0.2813 -0.7553  0.2034
  675TMC3     H10043   0.007   1.345  17.495 -0.9287 -0.8539  1.7087
  675TMC3    H110044   0.435   1.373  17.494  0.1840  1.0554 -0.6438
  675TMC3    H210045   0.247   1.144   0.040 -0.0193  0.4601  0.0769
  675TMC3    C710046   0.462   1.285  17.723  0.8113 -0.2379 -0.0591
  675TMC3    C810047   4.728   1.206  17.716 -0.1403  0.5912 -0.4084
  675TMC3    O110048   0.569   1.258  17.675  0.3181  0.2693  0.6042
  675TMC3    O210049   4.619   1.223  17.655 -0.0539  0.1368 -0.2464
  676MPD2     C10050   2.824   0.661  10.813  0.0658 -0.2409  0.0669
  676MPD2    C110051   2.762   0.572  10.893 -0.1364 -0.1865 -0.4311
  676MPD2    C210052   2.747   0.437  10.853  0.2036  0.5253 -0.4139
  676MPD2    C310053   2.801   0.384  10.735  0.3922 -0.1110 -0.4028
  676MPD2    C410054   2.858   0.482  10.651 -0.7919  0.2483  0.5398
  676MPD2    C510055   2.874   0.617  10.692  0.0212  0.0830  0.5186
  676MPD2     H10056   2.700   0.372  10.925  0.1824  1.9406  0.8452
  676MPD2    H110057   2.895   0.455  10.553  1.6822  0.7575  1.3355
  676MPD2    H210058   2.843   0.763  10.844 -1.2066  1.2029 -3.9314
  676MPD2    H310059   2.921   0.687  10.624 -0.0220 -0.2698  0.1259
  676MPD2     N10060   2.804   0.246  10.698  0.4894  0.0517  0.2498
  676MPD2    H510061   2.844   0.224  10.608  1.6315 -0.9925  1.0001
  676MPD2    N110062   2.708   0.607  11.020 -0.4678 -0.5434 -0.5782
  676MPD2    H710063   2.655   0.536  11.069 -0.9870 -1.9272 -3.1313
  677TMC3    C110064   2.634   0.734  11.201  0.1179 -0.8601 -0.1937
  677TMC3    C210065   2.544   0.628  11.219  0.1543 -0.4765 -0.1771
  677TMC3    C310066   2.441   0.649  11.305 -0.2245 -0.1605 -0.6331
  677TMC3    C410067   2.610   0.859  11.249 -0.3589 -0.0717  0.2739
  677TMC3    C510068   2.505   0.876  11.335  0.5353  0.1410 -0.6240
  677TMC3    C610069   2.425   0.770  11.365  0.1237  0.1764 -0.9174
  677TMC3     C10070   2.716   0.730  11.082  0.1789 -0.5877  0.1657
  677TMC3     O10071   2.759   0.834  11.036  0.0207  0.2990 -0.5392
  677TMC3     H10072   2.547   0.534  11.164  3.7677 -0.5174  0.0993
  677TMC3    H110073   2.681   0.938  11.227  0.5212 -1.6760 -2.6770
  677TMC3    H210074   2.353   0.771  11.445  1.6992 -0.6218  0.4951
  677TMC3    C710075   2.483   0.984  11.430  0.1010 -0.3324 -0.7071
  677TMC3    C810076   2.409   0.533  11.378  0.4229 -0.0957 -0.7512
  677TMC3    O110077   2.409   0.956  11.524 -0.4392 -0.3510 -0.0564
  677TMC3    O210078   2.487   0.436  11.370  0.3836  0.0010  0.2855
  678MPD2     C10079   4.434   0.452   1.390  0.0451 -0.4090 -0.5949
  678MPD2    C110080   4.424   0.450   1.258 -0.6116  0.6315  0.1185
  678MPD2    C210081   4.319   0.380   1.201  0.1038  1.0360 -0.0464
  678MPD2    C310082   4.215   0.324   1.280  0.1246  0.1305 -0.6301
  678MPD2    C410083   4.219   0.340   1.421  0.2931  0.0991  0.6871
  678MPD2    C510084   4.329   0.411   1.470 -0.8604 -0.2124  0.1356
  678MPD2     H10085   4.314   0.368   1.094  0.4255  0.1831  0.0347
  678MPD2    H110086   4.136   0.306   1.482 -0.6843 -0.9885 -1.2781
  678MPD2    H210087   4.518   0.501   1.438  1.0276 -1.4870 -1.2351
  678MPD2    H310088   4.330   0.417   1.578 -1.8785 -0.7142  0.1679
  678MPD2     N10089   4.098   0.261   1.225  0.0403  0.1747 -0.4986
  678MPD2    H510090   4.018   0.247   1.285 -0.1488 -3.3398 -1.5641
  678MPD2    N110091   4.511   0.522   1.180  0.4460 -0.1533 -0.2321
  678MPD2    H710092   4.490   0.520   1.080  0.1969  1.4269 -0.2015
  679TMC3    C110093   0.091   0.645   0.938 -0.1441  0.0353 -0.4365
  679TMC3    C210094   0.066   0.621   1.066 -0.8463  0.0937 -0.3515
  679TMC3    C310095   4.677   0.647   1.108 -0.4852 -0.2440  0.1581
  679TMC3    C410096   0.004   0.710   0.856 -0.1116  0.2226 -0.5121
  679TMC3    C510097   4.628   0.759   0.909 -0.1725 -0.4260 -0.2846
  679TMC3    C610098   4.589   0.725   1.034 -0.1007  0.5750 -0.2243
  679TMC3     C10099   0.203   0.568   0.885  0.2110  0.1926 -0.1515
  679TMC3     O10100   0.225   0.462   0.940  0.6947 -0.3475 -0.3371
  679TMC3     H10101   0.145   0.570   1.120 -1.5831 -0.1640  0.4753
  679TMC3    H110102   0.008   0.706   0.748 -0.5804  0.0986 -0.5258
  679TMC3    H210103   4.496   0.758   1.078 -0.2649 -1.1142  0.6632
  679TMC3    C710104   4.522   0.796   0.828 -0.0101  0.2721  0.3286
  679TMC3    C810105   4.630   0.569   1.212  0.0784 -0.1948 -0.4350
  679TMC3    O110106   4.511   0.750   0.718  0.2682  0.1824  0.1932
  679TMC3    O210107   4.704   0.548   1.308  0.0694 -0.0682 -0.5280
  680MPD2     C10108   4.059   4.064  13.252  0.3361  0.1984 -0.1303
  680MPD2    C110109   4.128   3.979  13.332 -0.1662  0.0283  0.6665
  680MPD2    C210110   4.201   4.032  13.436 -0.5889 -0.5550  0.1259
  680MPD2    C310111   4.214   4.167  13.439  0.3382 -0.0257  0.8619
  680MPD2    C410112   4.145   4.249  13.351  0.0220 -0.2765 -0.3773
  680MPD2    C510113   4.067   4.196  13.254  0.1899 -0.4380 -0.1638
  680MPD2     H10114   4.267   3.971  13.497 -1.4572 -0.4865  1.1286
  680MPD2    H110115   4.152   4.357  13.353  0.5834 -0.3356  0.6226
  680MPD2    H210116   3.993   4.024  13.176 -0.1416 -0.4329  0.6311
  680MPD2    H310117   4.009   4.262  13.191  0.0516  0.5759  1.0145
  680MPD2     N10118   4.297   4.224  13.535 -0.4104  0.2903 -0.4221
  680MPD2    H510119   4.314   4.322  13.516  0.3322 -0.3573 -3.0403
  680MPD2    N110120   4.123   3.837  13.319  0.1478  0.3547 -0.5842
  680MPD2    H710121   4.167   3.784  13.394 -0.1029  1.5082  0.3843
  681TMC3    C110122   4.072   3.623  13.238  0.5053  0.1228 -0.2050
  681TMC3    C210123   4.053   3.581  13.366  0.4245 -0.6526  0.2509
  681TMC3    C310124   4.057   3.443  13.378 -0.3690  0.1427 -0.1959
  681TMC3    C410125   4.089   3.544  13.128 -0.0290 -0.5193  0.5051
  681TMC3    C510126   4.089   3.411  13.148  0.6564  0.2571 -0.2275
  681TMC3    C610127   4.082   3.358  13.277 -0.2898 -0.8767 -0.3879
  681TMC3     C10128   4.054   3.763  13.221  0.1849 -0.7126  0.2768
  681TMC3     O10129   3.988   3.805  13.125  0.6989  0.2369 -0.5007
  681TMC3     H10130   4.016   3.648  13.443 -1.8646 -0.1691 -1.2797
  681TMC3    H110131   4.088   3.591  13.030  0.7150 -0.7546  0.3828
  681TMC3    H210132   4.077   3.253  13.303 -0.7953 -0.7289  0.0960
  681TMC3    C710133   4.126   3.322  13.036  0.6264 -0.2662 -0.8462
  681TMC3    C810134   4.060   3.381  13.510  0.0956  0.4541  1.1488
  681TMC3    O110135   4.082   3.206  13.036 -0.1764  0.4991  0.0504
  681TMC3    O210136   4.032   3.258  13.516  0.6046  0.0025  0.4949
  682MPD2     C10137   1.510   0.776  10.692  0.5785  0.5110  0.5673
  682MPD2    C110138   1.544   0.637  10.698  0.2303 -0.2032 -0.3835
  682MPD2    C210139   1.565   0.567  10.811  0.0055 -0.1576 -0.2342
  682MPD2    C310140   1.543   0.620  10.933 -0.0766 -0.3443 -0.4455
  682MPD2    C410141   1.515   0.755  10.939  0.0443 -0.1091 -0.0021
  682MPD2    C510142   1.501   0.833  10.824 -0.5501 -0.2563  0.2173
  682MPD2     H10143   1.570   0.459  10.800 -0.8159 -0.0198 -1.9151
  682MPD2    H110144   1.487   0.803  11.032  2.6884  1.5431 -0.0796
  682MPD2    H210145   1.490   0.840  10.607  0.6929 -1.1634 -0.7178
  682MPD2    H310146   1.478   0.938  10.837  1.5951  0.3335 -0.7770
  682MPD2     N10147   1.555   0.536  11.052  0.3932  0.0204  0.1152
  682MPD2    H510148   1.515   0.567  11.139  1.1552  0.9181  0.1561
  682MPD2    N110149   1.550   0.559  10.583  0.3199  0.4954 -0.1689
  682MPD2    H710150   1.570   0.461  10.596 -1.4454  0.1056 -0.3385
  683TMC3    C110151   1.583   0.352  11.432 -0.6008  0.2452  0.0846
  683TMC3    C210152   1.579   0.219  11.446  0.6880  0.2729 -0.1491
  683TMC3    C310153   1.588   0.156  11.325  0.5937  0.5007  0.1937
  683TMC3    C410154   1.586   0.419  11.313  0.3103 -0.0543  0.1509
  683TMC3    C510155   1.578   0.345  11.193  0.2225 -0.7259 -0.9951
  683TMC3    C610156   1.586   0.205  11.198  0.0069 -1.0387 -0.3716
  683TMC3     C10157   1.600   0.426  11.554 -0.1338  0.1761  0.0854
  683TMC3     O10158   1.542   0.385  11.656 -0.4448 -0.3221 -0.1833
  683TMC3     H10159   1.573   0.171  11.543 -1.5171 -0.7408 -0.7884
  683TMC3    H110160   1.602   0.526  11.306 -2.2198  0.4600  2.3090
  683TMC3    H210161   1.590   0.144  11.108 -0.9894  0.0154 -1.1321
  683TMC3    C710162   1.581   0.400  11.054 -0.2987 -1.0680  0.7862
  683TMC3    C810163   1.606   0.012  11.344  0.1726  0.1094  0.8026
  683TMC3    O110164   1.615   0.322  10.968 -0.3242 -0.0295  0.2335
  683TMC3    O210165   1.558   4.673  11.262  0.3273  0.2666  0.1758
  684MPD2     C10166   0.163   4.427  16.212  0.1417  0.0487  0.4166
  684MPD2    C110167   0.117   4.485  16.097  0.0875 -0.4112  0.2226
  684MPD2    C210168   0.099   4.622  16.098 -0.2400 -0.1257 -0.0554
  684MPD2    C310169   0.119   4.696  16.217 -0.2935 -0.5500 -0.0675
  684MPD2    C410170   0.154   4.632  16.336  0.1893 -0.5041 -0.1820
  684MPD2    C510171   0.176   4.503  16.326  0.7037 -0.1960 -0.1008
  684MPD2     H10172   0.073   4.666  16.002  1.2835  0.3026 -0.2665
  684MPD2    H110173   0.188   4.685  16.424 -1.5862 -0.6198  0.5741
  684MPD2    H210174   0.193   4.323  16.219  1.1557  0.3154 -0.0302
  684MPD2    H310175   0.225   4.461  16.413 -0.1404  1.3050  1.0872
  684MPD2     N10176   0.108   0.100  16.220 -0.2293  0.3138 -0.2457
  684MPD2    H510177   0.121   0.145  16.310  2.7609  0.0352 -0.5320
  684MPD2    N110178   0.100   4.418  15.974  0.2876 -0.5740  0.1048
  684MPD2    H710179   0.051   4.462  15.897 -0.8512 -1.7569  0.1514
  685TMC3    C110180   0.115   4.223  15.827 -0.3053 -0.0092 -0.0374
  685TMC3    C210181   0.058   4.291  15.721 -0.2317 -0.2874 -0.9560
  685TMC3    C310182   0.092   4.264  15.586 -0.1773 -0.6855 -0.3151
  685TMC3    C410183   0.209   4.122  15.801  0.2771 -0.2959 -0.7466
  685TMC3    C510184   0.243   4.101  15.668 -0.3723  0.4739 -0.4879
  685TMC3    C610185   0.184   4.166  15.562  0.0021  0.0263 -0.3081
  685TMC3     C10186   0.132   4.284  15.961  1.0567  0.3174  0.1571
  685TMC3     O10187   0.177   4.205  16.046  0.0951  0.4829  0.1429
  685TMC3     H10188   4.721   4.368  15.738  1.1401  1.1094 -1.4187
  685TMC3    H110189   0.243   4.059  15.883  2.1448  0.4378 -0.9763
  685TMC3    H210190   0.211   4.148  15.458  0.2390 -2.7325  0.2367
  685TMC3    C710191   0.374   4.056  15.644  0.7168  0.7911  0.1792
  685TMC3    C810192   0.053   4.347  15.480 -0.3002 -0.0668 -0.2892
  685TMC3    O110193   0.411   4.020  15.533 -0.5045  0.1987 -0.6693
  685TMC3    O210194   0.113   4.348  15.377  0.0707 -0.3709  0.3815
  686MPD2     C10195   1.422   0.062  15.254 -0.9182 -0.7219 -0.3978
  686MPD2    C110196   1.492   4.715  15.337  0.0978 -0.2107 -0.9207
  686MPD2    C210197   1.604   4.656  15.279  0.3152 -0.1302 -0.1889
  686MPD2    C310198   1.631   4.657  15.144  0.6754 -0.3905 -0.1213
  686MPD2    C410199   1.556   0.001  15.060 -0.5763  0.0468  0.6627
  686MPD2    C510200   1.454   0.075  15.115  0.1256  0.9941 -0.0571
  686MPD2     H10201   1.666   4.597  15.346  0.3558 -0.2900 -0.3684
  686MPD2    H110202   1.581   0.012  14.955 -1.4865 -0.6787  0.3758
  686MPD2    H210203   1.334   0.111  15.294 -1.7664 -0.6340 -2.3966
  686MPD2    H310204   1.410   0.146  15.045  2.3275  0.3152 -2.1500
  686MPD2     N10205   1.718   4.565  15.078 -0.5170  0.2928  0.0860
  686MPD2    H510206   1.750   4.594  14.986 -0.1833  0.7488  0.3446
  686MPD2    N110207   1.442   4.688  15.468  0.4313  0.2413 -0.2289
  686MPD2    H710208   1.347   4.719  15.484  0.3928 -1.9499  3.8104
  687TMC3    C110209   1.711   4.387  15.244  0.0890 -0.6639 -0.3100
  687TMC3    C210210   1.582   4.357  15.220  0.1541  0.0390 -0.4287
  687TMC3    C310211   1.514   4.288  15.321 -0.4635  0.1301  1.2655
  687TMC3    C410212   1.785   4.341  15.352  0.1185 -0.3162 -0.1562
  687TMC3    C510213   1.713   4.275  15.447 -0.9948 -0.2579  0.3289
  687TMC3    C610214   1.582   4.245  15.432  0.2138  0.6527 -0.5917
  687TMC3     C10215   1.788   4.459  15.143 -0.9472  0.0416 -0.3930
  687TMC3     O10216   1.898   4.414  15.125  0.0387 -0.7619  0.2859
  687TMC3     H10217   1.527   4.394  15.134  0.3366 -1.7520 -1.3077
  687TMC3    H110218   1.893   4.346  15.362 -0.0708  1.8351  0.6782
  687TMC3    H210219   1.526   4.212  15.519 -1.7842  2.3356 -1.2508
  687TMC3    C710220   1.773   4.255  15.577 -0.2960  0.2550  0.1846
  687TMC3    C810221   1.366   4.286  15.323  0.1510  0.0772  0.2164
  687TMC3    O110222   1.775   4.142  15.621  0.2123  0.7566  0.7201
  687TMC3    O210223   1.315   4.195  15.391 -0.0751  0.0921 -0.6347
  688MPD2     C10224   0.511   3.404  17.217 -0.2685  0.1262 -0.0721
  688MPD2    C110225   0.584   3.300  17.263  0.0887  0.2176  0.1900
  688MPD2    C210226   0.707   3.281  17.209  0.1156 -0.2942 -0.3280
  688MPD2    C310227   0.763   3.361  17.112  0.3554 -0.5978 -0.4611
  688MPD2    C410228   0.691   3.468  17.081  0.0851  0.1788  0.6334
  688MPD2    C510229   0.562   3.494  17.125 -1.0646  0.0474 -0.3985
  688MPD2     H10230   0.762   3.200  17.255  0.5600  0.0401 -0.2749
  688MPD2    H110231   0.735   3.542  17.014 -2.8160  1.7249  0.4231
  688MPD2    H210232   0.409   3.426  17.247 -0.6641 -1.7895 -0.0557
  688MPD2    H310233   0.507   3.586  17.112 -1.3574 -0.0042  0.4717
  688MPD2     N10234   0.897   3.351  17.062 -0.6649  0.1998  0.0456
  688MPD2    H510235   0.929   3.426  17.002 -0.8518  1.2109  1.1904
  688MPD2    N110236   0.542   3.215  17.369  0.0600 -0.1516  0.0758
  688MPD2    H710237   0.615   3.158  17.411  0.2493 -0.2257 -0.3476
  689TMC3    C110238   0.445   3.154  17.568  0.3810 -0.3017 -0.4534
  689TMC3    C210239   0.370   3.205  17.676  0.1549 -0.7266 -0.2519
  689TMC3    C310240   0.350   3.119   0.036 -0.2458  0.0526  0.3238
  689TMC3    C410241   0.486   3.025  17.564  0.5047 -0.3070  0.0979
  689TMC3    C510242   0.463   2.944  17.674 -0.2333  0.2511 -0.0096
  689TMC3    C610243   0.408   2.994   0.044 -0.0514 -0.8067 -0.2632
  689TMC3     C10244   0.427   3.223  17.447 -0.2730 -0.5306 -1.0604
  689TMC3     O10245   0.334   3.305  17.444  0.3855  0.3384  0.3007
  689TMC3     H10246   0.333   3.306  17.683  2.0006 -0.2626  2.6502
  689TMC3    H110247   0.539   2.975  17.484 -0.8144  0.8141 -1.4928
  689TMC3    H210248   0.384   2.928   0.127  0.8299 -0.5323  0.2035
  689TMC3    C710249   0.472   2.804  17.666  0.0343 -0.4144 -0.0703
  689TMC3    C810250   0.272   3.173   0.141 -0.4610  0.2403  0.0402
  689TMC3    O110251   0.497   2.741   0.026 -0.4622  0.7676  0.2112
  689TMC3    O210252   0.301   3.145   0.253 -0.1267 -0.2807 -0.0110
  690MPD2     C10253   2.468   0.985  15.754 -0.5831 -0.1314  0.0542
  690MPD2    C110254   2.518   0.862  15.774  0.6614  0.0605  0.1871
  690MPD2    C210255   2.614   0.812  15.685 -0.4823 -0.1683  0.4471
  690MPD2    C310256   2.649   0.893  15.581 -0.4821  0.7556 -0.1590
  690MPD2    C410257   2.586   1.016  15.558 -0.7510 -0.4416 -0.5519
  690MPD2    C510258   2.496   1.065  15.648  0.5042 -0.1771 -0.6177
  690MPD2     H10259   2.647   0.710  15.696  2.8818  0.7945 -0.5686
  690MPD2    H110260   2.611   1.077  15.472  0.0990  0.3783  0.2890
  690MPD2    H210261   2.394   1.025  15.822 -1.6822 -4.0401  1.2123
  690MPD2    H310262   2.444   1.159  15.630  3.2363  1.3503 -0.4582
  690MPD2     N10263   2.732   0.832  15.483 -0.6271  0.0373  0.2640
  690MPD2    H510264   2.779   0.743  15.493  1.2168  0.7502 -2.1800
  690MPD2    N110265   2.489   0.779  15.884 -0.6058  0.2448 -0.1998
  690MPD2    H710266   2.538   0.691  15.897 -0.1741  0.6146  0.6939
  691TMC3    C110267   2.359   0.688  16.058  1.0358 -0.3761  0.1602
  691TMC3    C210268   2.228   0.660  16.080 -0.1133  0.3561 -0.4960
  691TMC3    C310269   2.213   0.528  16.122  0.1133 -0.4192 -0.2303
  691TMC3    C410270   2.460   0.599  16.081 -0.4308 -0.6814 -0.2173
  691TMC3    C510271   2.432   0.468  16.106  0.3801  0.3076  0.3272
  691TMC3    C610272   2.305   0.429  16.123  0.4398 -0.5625  0.2297
  691TMC3     C10273   2.379   0.798  15.970 -0.0441 -0.3695 -0.2216
  691TMC3     O10274   2.284   0.874  15.961  0.1875  0.2147 -0.0875
  691TMC3     H10275   2.145   0.729  16.081  2.5305  3.5414  0.6094
  691TMC3    H110276   2.563   0.632  16.080 -0.3249 -0.9378  3.1849
  691TMC3    H210277   2.289   0.329  16.160  0.1227 -0.3231  0.7300
  691TMC3    C710278   2.535   0.369  16.077  0.2274 -0.1013 -0.1964
  691TMC3    C810279   2.094   0.464  16.085 -0.1243 -0.2569 -0.0840
  691TMC3    O110280   2.651   0.402  16.087 -0.8223  0.8351  1.0134
  691TMC3    O210281   2.118   0.362  16.026 -0.6782 -0.3165  0.1862
  692TMC3    C110282   4.375   1.559  15.960  0.0418 -0.2901 -0.0841
  692TMC3    C210283   4.506   1.592  15.973 -0.5751 -0.1501  0.1510
  692TMC3    C310284   4.604   1.495  15.986 -0.0198 -0.0622  0.4532
  692TMC3    C410285   4.327   1.429  15.957 -0.6672  0.6273  0.3230
  692TMC3    C510286   4.432   1.337  15.968 -0.2149 -0.7003 -0.8353
  692TMC3    C610287   4.568   1.366  15.973  0.9635  0.2014  0.0176
  692TMC3     C10288   4.268   1.649  16.005 -0.6310  0.3130  1.2651
  692TMC3     O10289   4.174   1.604  16.066  0.5117  0.7260 -0.4357
  692TMC3     H10290   4.536   1.694  15.951  0.8980 -0.6445 -0.1481
  692TMC3    H110291   4.219   1.416  15.953 -0.2176 -2.1388 -2.9097
  692TMC3    H210292   4.638   1.285  15.989  0.3112 -0.4550 -0.4298
  692TMC3    C710293   4.396   1.202  15.916 -0.0425 -0.5544 -0.5657
  692TMC3    C810294   4.683   1.509  16.103 -0.2213  0.0470  0.3631
  692TMC3    O110295   4.286   1.194  15.864 -0.5725 -0.7461  0.1380
  692TMC3    O210296   0.011   1.413  16.147  0.3283 -0.4077  0.1172
  693MPD2     C10297   4.069   4.628  10.835 -0.2459  0.1107 -0.1664
  693MPD2    C110298   4.008   4.514  10.768  0.4302 -0.2648  0.2635
  693MPD2    C210299   4.032   4.386  10.815  0.5160 -0.0168 -0.0852
  693MPD2    C310300   4.109   4.377  10.929  0.8199 -0.6143 -0.1844
  693MPD2    C410301   4.157   4.485  10.998  0.0458 -1.1411  0.2909
  693MPD2    C510302   4.134   4.607  10.954 -0.4599 -0.2232  0.4123
  693MPD2     H10303   4.009   4.302  10.751 -0.8305  1.4101 -1.4863
  693MPD2    H110304   4.211   4.474  11.092  1.8809  1.5545 -0.4301
  693MPD2    H210305   4.054   4.731  10.804  2.2205  0.1796 -1.1549
  693MPD2    H310306   4.183   4.686  11.010  0.6214 -0.2506 -0.4943
  693MPD2     N10307   4.142   4.252  10.982 -0.5042 -0.2443  0.0840
  693MPD2    H510308   4.193   4.254  11.070  0.6936 -1.0054 -0.6036
  693MPD2    N110309   3.935   4.546  10.654  0.2397 -1.0950 -0.4269
  693MPD2    H710310   3.933   4.643  10.626 -1.0680 -0.9339  0.2258
  694TMC3    C110311   3.762   4.536  10.491 -0.0874  0.6555 -0.1917
  694TMC3    C210312   3.697   4.450  10.402  0.2636 -0.0661  0.2246
  694TMC3    C310313   3.562   4.470  10.364 -0.3455 -0.3304 -0.2315
  694TMC3    C410314   3.703   4.660  10.528 -0.0191  0.1301 -0.0108
  694TMC3    C510315   3.573   4.682  10.492  0.0183 -0.0940  0.2216
  694TMC3    C610316   3.504   4.587  10.406  0.0827  0.5889 -0.1959
  694TMC3     C10317   3.858   4.465  10.577 -0.6339 -0.5750  0.7846
  694TMC3     O10318   3.865   4.347  10.569  0.1478  0.5995 -0.0993
  694TMC3     H10319   3.734   4.349  10.386 -0.8287 -0.2445 -1.1569
  694TMC3    H110320   3.737   4.721  10.610 -0.0948 -0.3746  0.3956
  694TMC3    H210321   3.399   4.605  10.390 -0.0015 -2.5850 -3.1932
  694TMC3    C710322   3.505   4.734  10.612  0.2295 -0.4675 -0.2055
  694TMC3    C810323   3.493   4.382  10.281 -0.2160  0.0667  0.4038
  694TMC3    O110324   3.534   0.111  10.646 -0.0612  0.2271  0.4370
  694TMC3    O210325   3.522   4.263  10.293  1.0501 -0.6805 -0.0072
  695MPD2     C10326   0.553   1.798  13.239  0.4737 -0.2625  0.8224
  695MPD2    C110327   0.507   1.734  13.354 -0.7960  0.4035 -1.3327
  695MPD2    C210328   0.368   1.711  13.378 -0.1985  0.2474 -0.5094
  695MPD2    C310329   0.277   1.754  13.289  0.1001  0.1475  0.3232
  695MPD2    C410330   0.318   1.822  13.184 -0.5607 -0.1889  1.0710
  695MPD2    C510331   0.448   1.849  13.160 -0.8968 -0.1614  0.7001
  695MPD2     H10332   0.322   1.655  13.459  0.3065  1.3566  0.5513
  695MPD2    H110333   0.251   1.857  13.106  1.8022  1.9708  0.0357
  695MPD2    H210334   0.653   1.806  13.199  1.5519 -0.2620  3.5193
  695MPD2    H310335   0.475   1.905  13.071 -0.7340 -0.3886  0.6050
  695MPD2     N10336   0.139   1.724  13.312 -0.5948  0.5792  0.0023
  695MPD2    H510337   0.113   1.660  13.387 -0.9732  0.6897 -0.0347
  695MPD2    N110338   0.604   1.686  13.447 -0.1120  0.1653 -0.2896
  695MPD2    H710339   0.576   1.652  13.538 -0.4877 -2.5794 -1.4455
  696TMC3    C110340   4.649   1.702  13.286  0.1676 -0.3237  0.9426
  696TMC3    C210341   4.665   1.564  13.300 -0.1559 -0.4231 -0.3595
  696TMC3    C310342   4.550   1.494  13.314 -0.0808 -0.4186 -0.5031
  696TMC3    C410343   4.530   1.766  13.289  0.2727  0.8700 -0.2438
  696TMC3    C510344   4.414   1.686  13.300  0.1202  0.7392  0.2170
  696TMC3    C610345   4.425   1.554  13.316 -0.4839  0.3123 -0.1186
  696TMC3     C10346   0.027   1.781  13.249  1.0203 -0.4203  0.0034
  696TMC3     O10347   0.025   1.863  13.152 -0.4189  0.4470 -0.2565
  696TMC3     H10348   0.017   1.519  13.255  0.0184 -0.9531  0.5074
  696TMC3    H110349   4.521   1.873  13.279  0.5839  0.7503 -1.8191
  696TMC3    H210350   4.335   1.496  13.334 -1.7497  2.2403 -0.2390
  696TMC3    C710351   4.289   1.742  13.350  1.2233  0.3160  0.1343
  696TMC3    C810352   4.561   1.348  13.319 -0.5236 -0.5386 -0.0816
  696TMC3    O110353   4.191   1.671  13.348  0.1090  0.5326  0.2367
  696TMC3    O210354   4.632   1.289  13.234  0.3772  0.0282 -0.1010
  697MPD2     C10355   4.161   3.250  15.506  0.4781 -0.0379 -0.3430
  697MPD2    C110356   4.107   3.195  15.395 -0.4363  0.2284 -0.1243
  697MPD2    C210357   4.053   3.281  15.305  0.0078  0.4216 -0.3062
  697MPD2    C310358   4.045   3.417  15.313  0.4779 -0.3549 -0.1441
  697MPD2    C410359   4.108   3.471  15.419  0.2053  0.4880  0.2222
  697MPD2    C510360   4.165   3.389  15.517  0.0589  0.0087 -0.3125
  697MPD2     H10361   4.014   3.239  15.214 -1.8150  0.7415  0.3170
  697MPD2    H110362   4.111   3.578  15.437 -1.1847  1.0696 -3.1055
  697MPD2    H210363   4.208   3.191  15.585 -1.4266  0.3982  1.1243
  697MPD2    H310364   4.206   3.423  15.611 -0.1267  1.1334 -0.6359
  697MPD2     N10365   4.001   3.497  15.203 -0.5355  0.7882 -0.5110
  697MPD2    H510366   3.971   3.447  15.119 -0.3229  1.0178 -0.7239
  697MPD2    N110367   4.089   3.057  15.379 -0.0052  0.7592 -0.5870
  697MPD2    H710368   4.018   3.036  15.310  0.4183  1.8018 -1.3375
  698TMC3    C110369   3.924   3.689  15.090 -0.8150 -0.8104  0.0916
  698TMC3    C210370   3.948   3.819  15.063  0.3138 -0.1174  0.2411
  698TMC3    C310371   3.884   3.875  14.956 -0.0839 -0.1991  0.0839
  698TMC3    C410372   3.822   3.622  15.029  0.0192 -0.0522  0.4711
  698TMC3    C510373   3.766   3.678  14.921 -0.4305 -0.1184  0.4200
  698TMC3    C610374   3.790   3.810  14.888 -0.5885  0.1563 -0.0214
  698TMC3     C10375   4.003   3.635  15.193  0.6585  0.2756 -0.7739
  698TMC3     O10376   4.052   3.719  15.269 -0.0012  0.1658 -0.0593
  698TMC3     H10377   4.027   3.872  15.115  0.5888 -2.2437  1.9925
  698TMC3    H110378   3.796   3.522  15.060  1.9330 -0.7366 -0.1156
  698TMC3    H210379   3.740   3.859  14.805  1.2001  1.5810 -0.2548
  698TMC3    C710380   3.759   3.596  14.808  0.0749 -0.0159  0.4754
  698TMC3    C810381   3.941   3.985  14.887 -0.4528  0.1069  0.3558
  698TMC3    O110382   3.817   3.629  14.706  0.3970 -0.0569  0.4439
  698TMC3    O210383   3.870   4.047  14.807 -0.0715 -0.5804 -0.6984
  699TMC3    C110384   3.933   2.068  13.023  0.0103  0.1681  0.2837
  699TMC3    C210385   4.007   1.948  13.023 -0.3286 -0.0364 -0.4115
  699TMC3    C310386   3.955   1.839  13.094  0.7460  0.7896 -0.4103
  699TMC3    C410387   3.808   2.073  13.084  0.3578  0.4419  0.1069
  699TMC3    C510388   3.755   1.962  13.145  0.2575 -0.0670  1.0790
  699TMC3    C610389   3.824   1.844  13.141 -1.0701 -0.2172 -0.4317
  699TMC3     C10390   3.937   2.152  12.899 -0.3828 -0.0170  0.4032
  699TMC3     O10391   3.827   2.187  12.857 -0.4444  0.2328 -0.0080
  699TMC3     H10392   4.104   1.945  12.975  0.1004 -1.0682  0.5285
  699TMC3    H110393   3.762   2.171  13.092  0.1235  0.5126 -1.8921
  699TMC3    H210394   3.777   1.758  13.188 -0.2388 -1.0878 -1.1734
  699TMC3    C710395   3.637   1.961  13.230 -0.2931  0.8732  0.5340
  699TMC3    C810396   4.013   1.704  13.077 -0.5267 -0.4938 -0.9299
  699TMC3    O110397   3.631   1.867  13.308  0.0892  0.3342  0.1757
  699TMC3    O210398   3.949   1.614  13.127 -0.0503 -0.2519 -0.5743
  700TMC3    C110399   3.541   3.480  17.406  0.9416 -0.3034  0.6970
  700TMC3    C210400   3.604   3.369  17.352 -0.1497  0.0658  0.5124
  700TMC3    C310401   3.729   3.334  17.400 -0.5521 -0.1502  0.2861
  700TMC3    C410402   3.590   3.526  17.527  0.0413  0.6276 -0.6302
  700TMC3    C510403   3.713   3.491  17.573 -0.2115 -0.1899 -0.5080
  700TMC3    C610404   3.783   3.404  17.507 -1.0060 -0.4695 -0.5899
  700TMC3     C10405   3.510   3.585  17.317 -0.6067  0.3617  0.7781
  700TMC3     O10406   3.541   3.697  17.355  0.2048  0.0436 -0.1964
  700TMC3     H10407   3.575   3.306  17.268 -0.2519 -0.6517  1.0912
  700TMC3    H110408   3.525   3.598  17.576 -0.6928 -0.5554  0.1291
  700TMC3    H210409   3.888   3.392  17.531 -1.5767  0.5360  2.3552
  700TMC3    C710410   3.790   3.598  17.618  0.0225  0.5907  0.5478
  700TMC3    C810411   3.806   3.248  17.305  0.3649 -0.3088  0.5046
  700TMC3    O110412   3.880   3.569  17.695  0.0313 -0.2832  0.2789
  700TMC3    O210413   3.772   3.246  17.192  0.2587 -0.3133  0.3497
  701TMC3    C110414   3.636   2.552  15.708 -0.5593 -0.2343 -0.0354
  701TMC3    C210415   3.571   2.538  15.587  0.0863 -0.6618  0.2133
  701TMC3    C310416   3.570   2.643  15.499  0.0361  0.2814 -0.0577
  701TMC3    C410417   3.698   2.669  15.738 -0.6045  0.5268  0.8057
  701TMC3    C510418   3.699   2.772  15.644 -0.2067  0.1445 -0.2674
  701TMC3    C610419   3.642   2.760  15.516  0.4224  0.0057 -0.2591
  701TMC3     C10420   3.601   2.464  15.819 -0.4162  0.2681 -0.5393
  701TMC3     O10421   3.607   2.516  15.929 -0.0711  0.2976 -0.2905
  701TMC3     H10422   3.508   2.453  15.564  1.6686 -1.9280  0.5419
  701TMC3    H110423   3.748   2.676  15.834  2.7035 -0.0595 -0.8697
  701TMC3    H210424   3.629   2.836  15.439  0.3246  1.5487  1.2755
  701TMC3    C710425   3.764   2.910  15.660 -0.6341  0.2435 -0.0600
  701TMC3    C810426   3.539   2.621  15.362  0.4974 -0.0208  0.0287
  701TMC3    O110427   3.766   2.977  15.555 -0.2801 -0.6468 -0.9753
  701TMC3    O210428   3.619   2.672  15.288  0.1262 -0.0672  0.0509
  702MPD2     C10429   2.809   4.681  10.066 -0.0799 -0.8457  0.3726
  702MPD2    C110430   2.828   0.031  10.163  0.0535  0.5538  0.1518
  702MPD2    C210431   2.831   0.167  10.132  0.7743 -0.4136 -0.0055
  702MPD2    C310432   2.800   0.220  10.006  0.9680 -0.2527  0.0849
  702MPD2    C410433   2.775   0.119   9.907 -0.5391  0.0584  0.0767
  702MPD2    C510434   2.804   4.725   9.936  0.9192 -0.2135  0.0153
  702MPD2     H10435   2.849   0.243  10.208  0.1566  0.4768 -0.7474
  702MPD2    H110436   2.766   0.144   9.802 -1.8679  0.1881  0.2229
  702MPD2    H210437   2.807   4.574  10.085  0.2638 -0.4148  2.7903
  702MPD2    H310438   2.804   4.659   9.849 -0.1090  0.5181 -0.5355
  702MPD2     N10439   2.790   0.359   9.979  0.1101 -0.4660  0.4077
  702MPD2    H510440   2.820   0.411  10.061 -0.2541  1.0690 -0.4234
  702MPD2    N110441   2.828   4.725  10.294  0.1160 -0.3739 -0.3264
  702MPD2    H710442   2.852   0.067  10.354  1.2532 -0.8646 -0.1290
  703TMC3    C110443   2.739   0.564   9.873  0.0588  0.0883 -0.5291
  703TMC3    C210444   2.607   0.584   9.904 -0.1492 -0.0735  0.4225
  703TMC3    C310445   2.578   0.674  10.008  0.0948 -0.5028 -0.7909
  703TMC3    C410446   2.833   0.615   9.954  0.3440  0.1050  0.5096
  703TMC3    C510447   2.792   0.704  10.054  0.5342  0.7708 -0.7323
  703TMC3    C610448   2.664   0.749  10.078  0.8142 -0.7993 -0.4499
  703TMC3     C10449   2.766   0.420   9.858  0.2444  0.2269  0.1289
  703TMC3     O10450   2.712   0.372   9.761  0.0458 -0.0818 -0.7273
  703TMC3     H10451   2.530   0.535   9.845  0.4559 -0.4634 -0.0431
  703TMC3    H110452   2.937   0.587   9.942  1.0096  2.6454  0.2429
  703TMC3    H210453   2.634   0.832  10.141 -0.1754 -0.6554 -1.1080
  703TMC3    C710454   2.905   0.761  10.131 -0.4680  0.0264 -0.6416
  703TMC3    C810455   2.440   0.715  10.016 -0.3568 -0.1572 -0.0644
  703TMC3    O110456   3.020   0.754  10.092  0.0119  0.1199 -0.1717
  703TMC3    O210457   2.378   0.699   9.908 -0.2537 -1.1075  0.2160
  704TMC3    C110458   1.139   3.121  12.271  0.1204  0.0873  0.9621
  704TMC3    C210459   1.171   3.062  12.149 -0.5695  0.3678  0.0250
  704TMC3    C310460   1.177   2.927  12.141 -0.3946  0.1422  0.2504
  704TMC3    C410461   1.181   3.052  12.384  0.3344 -0.0110  0.3296
  704TMC3    C510462   1.206   2.914  12.373  0.4874  0.6047  0.7613
  704TMC3    C610463   1.208   2.850  12.249  0.5308  0.6575  0.0262
  704TMC3     C10464   0.998   3.154  12.283  1.2862 -0.7007  0.7440
  704TMC3     O10465   0.948   3.125  12.392  0.2750 -0.0414 -0.0088
  704TMC3     H10466   1.147   3.115  12.057 -0.4234  4.1677  2.1478
  704TMC3    H110467   1.172   3.097  12.482 -0.5127 -0.4699  0.4630
  704TMC3    H210468   1.220   2.743  12.243 -0.3596  0.6335 -1.3304
  704TMC3    C710469   1.172   2.835  12.483 -0.0559 -0.0585 -0.3820
  704TMC3    C810470   1.083   2.863  12.057 -0.0519 -0.1555  0.1058
  704TMC3    O110471   1.160   2.717  12.453  0.6878 -0.3443  0.2138
  704TMC3    O210472   1.012   2.779  12.109  0.4570 -0.1784  0.3169
  705MPD2     C10473   0.384   1.193  16.702  0.3790 -0.3961  0.0356
  705MPD2    C110474   0.305   1.178  16.592 -0.4700 -0.2104  0.7734
  705MPD2    C210475   0.169   1.186  16.612  0.4435 -0.4534  0.8364
  705MPD2    C310476   0.112   1.214  16.731 -0.0019 -0.3912 -0.8290
  705MPD2    C410477   0.191   1.230  16.840 -1.1239  0.0678 -0.4636
  705MPD2    C510478   0.326   1.207  16.825  0.5288  0.4671 -0.5062
  705MPD2     H10479   0.105   1.179  16.525  1.0368  0.5006  0.3248
  705MPD2    H110480   0.151   1.250  16.939 -0.4751  1.0286 -0.3955
  705MPD2    H210481   0.491   1.176  16.704  0.7344  1.7120 -0.6216
  705MPD2    H310482   0.403   1.232  16.897  0.2669 -1.8139  0.5576
  705MPD2     N10483   4.703   1.223  16.753 -0.2309 -0.4314 -0.2997
  705MPD2    H510484   4.675   1.263  16.842  0.2931 -0.2098 -0.2354
  705MPD2    N110485   0.359   1.177  16.465  1.3357  0.0085 -0.2583
  705MPD2    H710486   0.296   1.196  16.388  0.3703  0.3841  0.6208
  706TMC3    C110487   0.558   1.115  16.073 -0.2561 -0.8630 -0.5960
  706TMC3    C210488   0.493   1.224  16.031  0.0722 -0.0732 -0.2028
  706TMC3    C310489   0.433   1.305  16.118 -0.1718  0.0839  0.2100
  706TMC3    C410490   0.571   1.093  16.212  0.1925 -0.4298  0.3267
  706TMC3    C510491   0.515   1.185  16.297  1.0842 -0.0757 -0.4460
  706TMC3    C610492   0.446   1.296  16.252  0.0186  0.6936 -0.3021
  706TMC3     C10493   0.636   1.035  15.981  0.0175 -0.5731 -0.4723
  706TMC3     O10494   0.745   0.990  16.017 -0.0438  0.5485  0.3365
  706TMC3     H10495   0.491   1.248  15.925  1.4946  0.1105 -0.1907
  706TMC3    H110496   0.636   1.016  16.251 -0.4653 -1.2319 -0.1551
  706TMC3    H210497   0.408   1.370  16.322 -0.9446 -1.6404  1.6262
  706TMC3    C710498   0.489   1.149  16.437 -0.0860  0.1297 -0.5538
  706TMC3    C810499   0.376   1.431  16.060 -0.5052 -0.1870  0.5607
  706TMC3    O110500   0.575   1.087  16.499 -0.0514 -0.5808 -0.6150
  706TMC3    O210501   0.347   1.430  15.940  0.0044  0.3861  0.8463
  707TMC3    C110502   1.746   0.559   0.151  0.1529 -0.4099  0.0888
  707TMC3    C210503   1.717   0.428   0.142 -0.2923  0.1510 -0.5217
  707TMC3    C310504   1.633   0.391   0.043  0.3548 -1.3624 -0.2982
  707TMC3    C410505   1.707   0.649   0.051 -0.0779 -0.3951  0.3741
  707TMC3    C510506   1.632   0.605  17.690 -0.1857  0.8118  0.2166
  707TMC3    C610507   1.587   0.473  17.689  0.1499 -0.5669 -0.2998
  707TMC3     C10508   1.847   0.589   0.256 -0.3907 -0.0189  0.6538
  707TMC3     O10509   1.905   0.491   0.303 -0.1134  0.0901  0.5609
  707TMC3     H10510   1.756   0.356   0.213 -2.4311  0.1727  0.6789
  707TMC3    H110511   1.736   0.753   0.061 -1.5225 -0.0158  0.6175
  707TMC3    H210512   1.522   0.440  17.609  1.9505 -0.7268 -1.7103
  707TMC3    C710513   1.605   0.704  17.582 -0.6498 -0.0822  0.4816
  707TMC3    C810514   1.616   0.242   0.019  0.4272  0.1580 -0.4486
  707TMC3    O110515   1.604   0.824  17.608  0.6451  0.2014  0.1081
  707TMC3    O210516   1.534   0.204  17.677  0.3338 -0.0531  0.4648
  708MPD2     C10517   3.291   4.414  13.598  0.6281  0.2063 -0.7658
  708MPD2    C110518   3.230   4.401  13.723  0.4080 -0.0675  0.3003
  708MPD2    C210519   3.309   4.375  13.829  0.2398 -0.4063  0.2020
  708MPD2    C310520   3.446   4.364  13.825 -0.4309 -0.8169  0.9958
  708MPD2    C410521   3.510   4.378  13.708  0.0965  0.2526 -0.2868
  708MPD2    C510522   3.432   4.405  13.596 -0.6599 -0.0234  0.0927
  708MPD2     H10523   3.270   4.353  13.927  2.4163  0.4486  1.2557
  708MPD2    H110524   3.617   4.384  13.695  0.4307 -2.5511  1.1528
  708MPD2    H210525   3.241   4.465  13.517  0.8661 -0.2720 -1.2123
  708MPD2    H310526   3.467   4.417  13.495  0.5276 -1.5097  0.3231
  708MPD2     N10527   3.512   4.340  13.948  0.2600 -0.1140 -0.1122
  708MPD2    H510528   3.447   4.320  14.024 -1.3422  1.0605 -1.1937
  708MPD2    N110529   3.092   4.431  13.733 -0.2920 -0.4096  0.3099
  708MPD2    H710530   3.035   4.445  13.650  0.3604  0.7750  0.0598
  709TMC3    C110531   2.898   4.498  13.864 -0.1142  0.2574 -0.2330
  709TMC3    C210532   2.817   4.415  13.802  0.2635  0.3366 -0.1581
  709TMC3    C310533   2.702   4.384  13.866 -0.2316 -0.0301 -0.3942
  709TMC3    C410534   2.863   4.547  13.988 -0.1105 -0.5662  0.0955
  709TMC3    C510535   2.749   4.499  14.059 -0.9395 -0.1959 -0.5725
  709TMC3    C610536   2.669   4.414  13.995 -0.1733 -0.2485  0.4431
  709TMC3     C10537   3.037   4.469  13.853 -0.1167 -1.3697  0.5661
  709TMC3     O10538   3.095   4.475  13.958 -0.4257  0.3968  0.5548
  709TMC3     H10539   2.850   4.372  13.708  0.3304 -2.8879  1.3493
  709TMC3    H110540   2.924   4.625  14.031 -1.2845 -1.2948  3.1343
  709TMC3    H210541   2.581   4.373  14.042 -0.7914 -1.4657 -1.7962
  709TMC3    C710542   2.776   4.457  14.192  0.2492 -0.5822 -0.0283
  709TMC3    C810543   2.597   4.330  13.788 -0.1393 -0.9962 -0.3592
  709TMC3    O110544   2.687   4.446  14.276  0.3208  0.2685  0.3705
  709TMC3    O210545   2.491   4.293  13.832  1.3757 -0.4693 -0.4755
  710TMC3    C110546   3.876   1.026   0.132 -0.6745  0.5480  0.4389
  710TMC3    C210547   3.989   0.992   0.056  0.4170  0.5916  0.0018
  710TMC3    C310548   4.107   0.954   0.116  0.3275  0.3328  0.3046
  710TMC3    C410549   3.886   1.024   0.268 -0.3715  0.4797 -0.2630
  710TMC3    C510550   4.003   0.989   0.324  0.3388  0.3366 -0.3837
  710TMC3    C610551   4.113   0.957   0.254  0.2319  0.1790 -0.0925
  710TMC3     C10552   3.818   1.152   0.086  1.0407 -0.7556 -0.2696
  710TMC3     O10553   3.759   1.148  17.725  0.2838 -0.5204  0.1379
  710TMC3     H10554   3.988   1.003  17.692 -1.8837 -1.0064 -0.1192
  710TMC3    H110555   3.797   1.052   0.323 -0.9468  0.1431 -1.0111
  710TMC3    H210556   4.203   0.950   0.314  1.4442  1.5793 -1.7269
  710TMC3    C710557   4.003   0.997   0.473  0.3123  0.5481 -0.6192
  710TMC3    C810558   4.220   0.914   0.040  0.1703 -0.7844  0.2406
  710TMC3    O110559   3.916   1.071   0.521  0.1864  0.0866  0.3094
  710TMC3    O210560   4.219   0.925  17.660  0.1687 -0.1353  0.9926
  711TMC3    C110561   3.876   1.905  14.851 -0.6967 -0.4632 -0.4047
  711TMC3    C210562   3.840   1.926  14.986 -0.0778 -0.1549 -0.4814
  711TMC3    C310563   3.921   1.993  15.078 -0.7479 -0.7186 -0.4234
  711TMC3    C410564   3.992   1.952  14.805  0.3057 -0.5881 -0.4951
  711TMC3    C510565   4.074   2.011  14.899  0.1010 -1.5130 -0.4309
  711TMC3    C610566   4.037   2.052  15.024  0.1081  0.3416 -1.1209
  711TMC3     C10567   3.773   1.860  14.756  0.4295  0.6572 -0.3731
  711TMC3     O10568   3.677   1.806  14.812  0.0753 -0.0125 -0.2769
  711TMC3     H10569   3.756   1.869  15.025 -0.4880  0.2680 -0.7380
  711TMC3    H110570   4.033   1.947  14.705  2.0591  1.1778  0.1233
  711TMC3    H210571   4.102   2.112  15.086 -1.0474 -0.3333  0.7639
  711TMC3    C710572   4.205   1.951  14.900 -0.4662 -1.1439  0.3451
  711TMC3    C810573   3.924   1.941  15.216 -0.0812  0.0232 -0.1493
  711TMC3    O110574   4.295   2.002  14.967 -0.8076  0.0988  0.4606
  711TMC3    O210575   3.831   1.868  15.254  0.6656  0.0074 -0.0476
  712MPD2     C10576   0.879   2.795  13.806  0.3553  0.3219 -0.4894
  712MPD2    C110577   0.762   2.813  13.745 -0.5349 -0.1268 -0.2838
  712MPD2    C210578   0.693   2.930  13.751  0.0700  0.4046 -0.4311
  712MPD2    C310579   0.754   3.040  13.814  0.0047 -0.4601 -0.1011
  712MPD2    C410580   0.884   3.027  13.875 -0.4396  0.1145 -0.4127
  712MPD2    C510581   0.936   2.903  13.873  0.3646 -0.3346  0.1163
  712MPD2     H10582   0.601   2.944  13.696  0.0275  1.0376 -0.1896
  712MPD2    H110583   0.948   3.095  13.930 -1.8160  1.4092 -0.4263
  712MPD2    H210584   0.940   2.705  13.805 -3.2950 -2.2002  1.6628
  712MPD2    H310585   1.032   2.893  13.922 -0.3601  0.5313  1.6937
  712MPD2     N10586   0.693   3.163  13.823 -0.1614  0.8839  0.2352
  712MPD2    H510587   0.751   3.241  13.849  0.3134  0.6089  0.0043
  712MPD2    N110588   0.693   2.708  13.685 -0.6310 -0.3430  0.3334
  712MPD2    H710589   0.605   2.737  13.644 -1.0209 -1.2974  0.5016
  713TMC3    C110590   0.559   3.332  13.734 -0.5607 -0.5560  0.0285
  713TMC3    C210591   0.664   3.388  13.663  0.0950  0.0513 -0.7731
  713TMC3    C310592   0.636   3.508  13.600  0.3060  0.1304  0.3870
  713TMC3    C410593   0.431   3.383  13.736  0.4133 -1.0978 -0.2187
  713TMC3    C510594   0.408   3.504  13.678  0.4249 -0.7777 -0.5693
  713TMC3    C610595   0.507   3.568  13.609  0.4315  0.1279 -0.3052
  713TMC3     C10596   0.570   3.191  13.768  0.6521 -0.3935  0.8698
  713TMC3     O10597   0.470   3.121  13.756 -0.1386 -0.3823  0.2463
  713TMC3     H10598   0.754   3.330  13.653  0.0577 -0.1504  0.0696
  713TMC3    H110599   0.360   3.335  13.803 -1.5987 -1.6115 -2.7318
  713TMC3    H210600   0.498   3.665  13.562  2.6191  0.9571  0.9820
  713TMC3    C710601   0.272   3.554  13.679  0.1214 -0.4455 -0.5464
  713TMC3    C810602   0.727   3.567  13.504  0.2619 -0.1370 -0.4423
  713TMC3    O110603   0.187   3.504  13.751 -0.1914 -0.3707 -0.0964
  713TMC3    O210604   0.725   3.687  13.496  0.4562  0.5279 -0.6202
  714MPD2     C10605   3.039   1.284   1.047 -0.3271  0.6393  0.1598
  714MPD2    C110606   3.090   1.304   0.918 -0.9781 -0.2823  0.1573
  714MPD2    C210607   3.007   1.334   0.810  0.1984 -0.3040 -0.4539
  714MPD2    C310608   2.874   1.367   0.840 -0.0363  0.7974  0.0827
  714MPD2    C410609   2.823   1.354   0.964  0.3866 -0.1703 -0.0032
  714MPD2    C510610   2.903   1.316   1.072 -0.0945 -0.3718 -0.1333
  714MPD2     H10611   3.036   1.336   0.706  1.9555  1.3695  0.0675
  714MPD2    H110612   2.734   1.406   0.994 -0.2615 -2.6017  2.2917
  714MPD2    H210613   3.095   1.256   1.136 -1.0905 -0.4866  0.2852
  714MPD2    H310614   2.852   1.314   1.167 -1.7832  0.5872 -1.0099
  714MPD2     N10615   2.811   1.438   0.738 -0.0640 -0.2740  0.3385
  714MPD2    H510616   2.867   1.456   0.655 -1.4438 -0.2775 -0.6092
  714MPD2    N110617   3.230   1.277   0.896 -0.2229  0.2132  0.0136
  714MPD2    H710618   3.289   1.257   0.976 -0.0748  2.8950  0.5908
  715TMC3    C110619   3.435   1.249   0.777  0.2381 -0.2870 -0.4537
  715TMC3    C210620   3.484   1.165   0.674  0.2631  0.0931 -0.4647
  715TMC3    C310621   3.607   1.103   0.691 -0.4540 -0.4578 -0.2040
  715TMC3    C410622   3.515   1.285   0.890  0.4305 -0.1679 -0.2072
  715TMC3    C510623   3.639   1.222   0.896 -0.7896 -1.2559 -0.1509
  715TMC3    C610624   3.684   1.138   0.799  0.6641 -0.4927 -0.0611
  715TMC3     C10625   3.297   1.302   0.770 -0.4379 -0.0671 -0.0313
  715TMC3     O10626   3.255   1.356   0.668 -0.0959  0.6028  0.0325
  715TMC3     H10627   3.405   1.127   0.611 -0.1116 -2.1807  1.3723
  715TMC3    H110628   3.478   1.354   0.966  0.3702 -1.0180  0.5303
  715TMC3    H210629   3.786   1.103   0.805  0.8030  0.1408  1.4001
  715TMC3    C710630   3.717   1.231   1.026 -0.3264 -0.1628  0.2087
  715TMC3    C810631   3.613   0.957   0.657 -0.5839  0.3120  0.5181
  715TMC3    O110632   3.831   1.181   1.029 -0.9643 -0.5233 -0.5920
  715TMC3    O210633   3.534   0.912   0.573  0.2859 -0.0051  0.2415
  716MPD2     C10634   3.034   0.233   9.674  0.1832  0.4649 -0.3790
  716MPD2    C110635   2.952   0.170   9.578  0.5872  0.2696 -0.4740
  716MPD2    C210636   2.981   0.037   9.543 -0.2077  0.5409 -0.5914
  716MPD2    C310637   3.083   4.703   9.605 -0.3936  0.2725  0.0168
  716MPD2    C410638   3.139   0.025   9.715 -0.2557  0.0681 -0.5746
  716MPD2    C510639   3.127   0.158   9.745  0.1529 -0.6710 -0.0651
  716MPD2     H10640   2.922   4.715   9.473  0.5112 -2.0523  0.9515
  716MPD2    H110641   3.208   4.695   9.766  1.2504  1.3262 -0.9610
  716MPD2    H210642   3.013   0.334   9.706 -1.4019 -0.9020  2.8378
  716MPD2    H310643   3.188   0.203   9.823 -2.0659 -0.9402  1.8440
  716MPD2     N10644   3.118   4.574   9.550 -0.8966  0.2444  0.0699
  716MPD2    H510645   3.063   4.550   9.468  1.1030 -2.2954 -0.5390
  716MPD2    N110646   2.859   0.251   9.515  0.0005  0.2158 -0.0555
  716MPD2    H710647   2.858   0.350   9.534 -1.8581 -0.2223  2.1673
  717TMC3    C110648   3.250   4.389   9.506  0.0079 -0.7890 -0.3855
  717TMC3    C210649   3.139   4.331   9.442 -0.2414  0.1298  0.9004
  717TMC3    C310650   3.168   4.228   9.354  0.3715 -0.1487  0.1981
  717TMC3    C410651   3.381   4.349   9.487  0.2897 -0.1261 -0.2673
  717TMC3    C510652   3.398   4.254   9.395  0.2240  0.0236  0.2930
  717TMC3    C610653   3.300   4.189   9.325  0.2531 -0.4659 -0.4072
  717TMC3     C10654   3.230   4.506   9.580  0.1044 -0.2165 -0.1874
  717TMC3     O10655   3.323   4.560   9.638 -0.0005  0.5622 -0.0365
  717TMC3     H10656   3.037   4.365   9.455 -1.3522 -1.7933 -2.5576
  717TMC3    H110657   3.468   4.401   9.526  0.5057 -0.4076 -0.3681
  717TMC3    H210658   3.324   4.125   9.241 -0.2324 -0.5061 -0.5185
  717TMC3    C710659   3.533   4.224   9.351  0.5246 -0.0249  0.1850
  717TMC3    C810660   3.053   4.186   9.271 -0.1670  0.0446 -0.1740
  717TMC3    O110661   3.558   4.198   9.234  0.5849  0.1659  0.8762
  717TMC3    O210662   2.956   4.260   9.256  0.4429 -0.1846 -0.4014
  718MPD2     C10663   2.283   3.386  12.553 -0.3063  0.0214  0.3596
  718MPD2    C110664   2.157   3.368  12.529 -0.1678  0.1372  0.5847
  718MPD2    C210665   2.105   3.248  12.573  0.2795  0.6843  0.5714
  718MPD2    C310666   2.186   3.144  12.607  0.4897  0.9419  0.4996
  718MPD2    C410667   2.318   3.157  12.600  0.2377  0.5777 -0.3155
  718MPD2    C510668   2.364   3.283  12.588  0.1222 -0.7218 -0.3413
  718MPD2     H10669   1.997   3.241  12.578  0.4734 -1.5596  1.2368
  718MPD2    H110670   2.391   3.082  12.628 -0.2801  0.3108  0.3107
  718MPD2    H210671   2.331   3.478  12.522  0.7035 -0.2811  1.0062
  718MPD2    H310672   2.472   3.294  12.592  0.0787  1.1088 -4.4013
  718MPD2     N10673   2.127   3.021  12.648 -0.7843 -0.4851 -0.5753
  718MPD2    H510674   2.030   3.021  12.678 -0.8631  0.0123 -0.8337
  718MPD2    N110675   2.079   3.474  12.482 -0.8178  0.0877 -0.3418
  718MPD2    H710676   2.117   3.568  12.473 -2.8464  0.9397 -0.1381
  719TMC3    C110677   1.906   3.571  12.349 -0.3687 -0.0164 -0.3649
  719TMC3    C210678   1.831   3.519  12.253  0.1318 -0.7636 -0.0485
  719TMC3    C310679   1.862   3.532  12.124  0.4107 -0.2688  0.2951
  719TMC3    C410680   1.995   3.668  12.322 -0.2787  0.3466  0.6166
  719TMC3    C510681   2.025   3.696  12.192  0.5116  0.2746  0.5054
  719TMC3    C610682   1.966   3.616  12.091  0.4754  0.6635 -0.2926
  719TMC3     C10683   1.947   3.469  12.442 -0.5426 -0.1217  0.2951
  719TMC3     O10684   1.875   3.370  12.441  0.3166 -0.2485 -0.1859
  719TMC3     H10685   1.748   3.454  12.279  0.5597 -2.1630 -2.1582
  719TMC3    H110686   2.054   3.709  12.404  0.7343 -2.3193  1.2059
  719TMC3    H210687   1.983   3.644  11.988  0.5277  0.0941 -0.4394
  719TMC3    C710688   2.160   3.739  12.163  0.2162 -0.5454  0.3148
  719TMC3    C810689   1.872   3.399  12.063  0.6575  0.5344  1.3036
  719TMC3    O110690   2.213   3.705  12.058  0.3994 -0.2549 -0.5926
  719TMC3    O210691   1.877   3.385  11.941 -0.0826  0.1208 -0.0009
  720MPD2     C10692   0.882   0.905  13.573 -0.2164  0.4104  0.3440
  720MPD2    C110693   0.941   0.784  13.546  0.0116  0.0998 -0.0600
  720MPD2    C210694   1.024   0.719  13.635  0.0940 -0.0056 -0.1469
  720MPD2    C310695   1.031   0.766  13.768  0.1495 -0.4398  0.7201
  720MPD2    C410696   0.952   0.880  13.802  0.4753 -0.0449  0.2668
  720MPD2    C510697   0.878   0.942  13.706  0.2741 -0.6601 -0.3566
  720MPD2     H10698   1.087   0.635  13.609 -1.5004 -1.5618  0.9732
  720MPD2    H110699   0.945   0.916  13.904  1.0419 -1.4258  0.7956
  720MPD2    H210700   0.817   0.957  13.505 -0.4609 -1.4706 -0.8663
  720MPD2    H310701   0.817   1.031  13.722 -0.2198 -0.4394 -3.3946
  720MPD2     N10702   1.121   0.705  13.858 -0.1042  0.1965 -0.1482
  720MPD2    H510703   1.177   0.633  13.815  1.1244  0.9622  0.1433
  720MPD2    N110704   0.928   0.722  13.422  0.3577  0.6458 -0.2189
  720MPD2    H710705   0.957   0.625  13.420 -1.9040 -0.0496  0.7565
  721TMC3    C110706   1.275   0.663  14.027  0.0623  0.8120 -0.2649
  721TMC3    C210707   1.300   0.666  14.164  0.3384  0.1198  0.3472
  721TMC3    C310708   1.411   0.600  14.206  0.0055 -0.7546  0.0771
  721TMC3    C410709   1.359   0.594  13.937 -0.2731 -0.0244 -0.3851
  721TMC3    C510710   1.464   0.529  13.988  0.4510  0.1393  0.4671
  721TMC3    C610711   1.499   0.542  14.119 -0.0474 -0.2246  1.0519
  721TMC3     C10712   1.155   0.742  13.987  0.1645 -0.5885 -0.7680
  721TMC3     O10713   1.090   0.817  14.062 -0.0097 -0.0542  0.5354
  721TMC3     H10714   1.232   0.705  14.239  2.1098 -0.1541  2.1016
  721TMC3    H110715   1.345   0.612  13.831 -0.9820 -0.0025 -0.2901
  721TMC3    H210716   1.577   0.475  14.153 -1.8501 -2.2850  1.0457
  721TMC3    C710717   1.557   0.459  13.899  0.3685 -0.8424  0.2386
  721TMC3    C810718   1.465   0.607  14.343  0.3628  0.3708 -0.5133
  721TMC3    O110719   1.561   0.508  13.787 -0.1805  0.5592  0.2573
  721TMC3    O210720   1.587   0.605  14.342 -0.4963 -0.2763 -0.3095
  722MPD2     C10721   4.131   3.630  12.764 -0.8095 -0.4703 -0.4353
  722MPD2    C110722   4.132   3.766  12.795  0.6113 -0.1754  0.1807
  722MPD2    C210723   4.022   3.843  12.754  0.1653 -0.1282 -0.0745
  722MPD2    C310724   3.913   3.795  12.687 -0.1774  0.1654 -0.6409
  722MPD2    C410725   3.922   3.667  12.650  0.1976  1.4348 -0.1781
  722MPD2    C510726   4.020   3.581  12.695  0.1286  0.3232 -0.2746
  722MPD2     H10727   4.021   3.946  12.788 -1.3191 -0.4197  0.7776
  722MPD2    H110728   3.852   3.617  12.584 -2.6217  2.4389  2.0606
  722MPD2    H210729   4.224   3.575  12.770  0.1317  1.3888  2.0710
  722MPD2    H310730   4.025   3.478  12.662  2.2152  0.8264 -1.5375
  722MPD2     N10731   3.812   3.874  12.633 -0.2376  0.3905  0.1945
  722MPD2    H510732   3.752   3.823  12.569  1.3737 -0.6517 -0.4923
  722MPD2    N110733   4.236   3.834  12.861  0.3242  0.7492  0.0800
  722MPD2    H710734   4.225   3.934  12.870 -0.7287  0.8075 -1.6917
  723TMC3    C110735   3.656   4.047  12.601  0.2155  0.2576 -0.7275
  723TMC3    C210736   3.558   3.957  12.598  0.0806 -0.1256 -0.1821
  723TMC3    C310737   3.432   4.006  12.579  0.1367 -0.6907 -0.5757
  723TMC3    C410738   3.632   4.177  12.590  0.4228 -0.9775 -0.4400
  723TMC3    C510739   3.507   4.222  12.580 -0.1451 -0.4061 -0.2798
  723TMC3    C610740   3.401   4.140  12.574 -0.2226  0.0427 -0.2058
  723TMC3     C10741   3.788   4.004  12.654  0.1586  0.0024 -0.3002
  723TMC3     O10742   3.868   4.087  12.695  0.5040  0.4223  0.0526
  723TMC3     H10743   3.567   3.856  12.636  0.3569 -0.1825 -0.4030
  723TMC3    H110744   3.714   4.247  12.596 -1.5611  1.3586 -0.8637
  723TMC3    H210745   3.297   4.169  12.564 -0.7763 -1.4904  1.1072
  723TMC3    C710746   3.488   4.362  12.625 -0.1439 -0.2658 -0.5713
  723TMC3    C810747   3.318   3.917  12.565  0.0132  0.9484  0.1293
  723TMC3    O110748   3.580   4.405  12.689 -0.0971  0.2891  0.2741
  723TMC3    O210749   3.206   3.963  12.543 -0.6087  0.2311  0.3381
  724TMC3    C110750   0.042   2.345  10.032 -0.1243  0.5355  0.0303
  724TMC3    C210751   4.721   2.433  10.119  0.4157  0.0177 -0.1770
  724TMC3    C310752   0.071   2.516  10.184  0.3588  0.2188  0.0164
  724TMC3    C410753   0.171   2.338   9.999 -0.0283 -0.0001 -0.2350
  724TMC3    C510754   0.253   2.427  10.059  0.5369 -0.0829 -0.3272
  724TMC3    C610755   0.203   2.524  10.148 -0.0797 -0.2305  0.4700
  724TMC3     C10756   4.688   2.253   9.957 -0.1654  0.1719  0.1408
  724TMC3     O10757   0.003   2.163   9.894  0.1544 -0.0809  0.1060
  724TMC3     H10758   4.620   2.416  10.153  0.0731  1.1734 -0.6259
  724TMC3    H110759   0.215   2.258   9.941 -0.8765 -1.0232  0.5427
  724TMC3    H210760   0.277   2.593  10.186 -1.9043  1.9135  0.0951
  724TMC3    C710761   0.392   2.423  10.019  0.2192  0.1097 -0.2438
  724TMC3    C810762   0.002   2.613  10.264 -0.4184  0.5775  0.2487
  724TMC3    O110763   0.435   2.331   9.947 -0.3093 -0.2220 -0.5152
  724TMC3    O210764   4.621   2.586  10.298  0.1352  0.3746 -0.0266
  725TMC3    C110765   1.016   1.107  12.605 -0.6500 -0.0827 -0.0523
  725TMC3    C210766   0.946   1.069  12.495  0.3220  0.1374  0.8029
  725TMC3    C310767   0.860   0.961  12.503 -0.1912  0.5245 -0.0957
  725TMC3    C410768   0.993   1.052  12.726  0.4159 -0.1908 -0.9288
  725TMC3    C510769   0.895   0.952  12.737 -0.4712 -0.1234 -0.0277
  725TMC3    C610770   0.826   0.909  12.627  0.5973  0.1303  0.5424
  725TMC3     C10771   1.116   1.210  12.585  0.4925  0.3312 -0.0080
  725TMC3     O10772   1.084   1.303  12.518  0.0612 -0.2626 -0.2097
  725TMC3     H10773   0.966   1.115  12.399  0.2400  0.7367  1.0769
  725TMC3    H110774   1.050   1.087  12.811 -0.8795  3.1464 -1.4263
  725TMC3    H210775   0.772   0.816  12.640  0.4011  0.3929  1.6304
  725TMC3    C710776   0.947   0.827  12.798  0.1563  0.6136  0.8619
  725TMC3    C810777   0.827   0.876  12.390 -0.7089  0.4001 -0.8201
  725TMC3    O110778   0.931   0.720  12.744 -0.3740  0.1340 -0.2174
  725TMC3    O210779   0.813   0.757  12.412  0.4761 -0.0201  0.3129
  726MPD2     C10780   3.598   2.250   9.950  0.1892  1.4251  0.4168
  726MPD2    C110781   3.483   2.308   9.903 -0.5620 -0.9437  1.0447
  726MPD2    C210782   3.375   2.308   9.982  0.1477 -0.3322 -0.3920
  726MPD2    C310783   3.378   2.234  10.103 -0.1959  0.1203 -0.1249
  726MPD2    C410784   3.492   2.175  10.139 -0.1613 -0.7176  0.2906
  726MPD2    C510785   3.605   2.196  10.075  0.8310 -0.3711 -1.1539
  726MPD2     H10786   3.284   2.352   9.942 -0.1956  1.5791  2.5132
  726MPD2    H110787   3.488   2.109  10.225 -1.2375  0.6776  1.3147
  726MPD2    H210788   3.693   2.249   9.898  1.2893 -2.0116  2.4800
  726MPD2    H310789   3.699   2.156  10.111  1.1630  1.3166 -0.1406
  726MPD2     N10790   3.268   2.210  10.181  0.4001  0.2003  0.0006
  726MPD2    H510791   3.275   2.151  10.263 -0.7366 -1.2152 -0.9233
  726MPD2    N110792   3.485   2.389   9.787 -0.1708  0.1777 -0.3686
  726MPD2    H710793   3.399   2.443   9.779 -0.1730 -0.0181 -1.6267
  727TMC3    C110794   3.603   2.520   9.637 -0.7227  0.5464 -0.2115
  727TMC3    C210795   3.602   2.635   9.716  0.8997 -1.0027 -0.0217
  727TMC3    C310796   3.644   2.748   9.652 -0.2140 -0.4383 -0.3403
  727TMC3    C410797   3.634   2.518   9.502 -0.3070 -0.2790 -0.0645
  727TMC3    C510798   3.679   2.637   9.446  0.5322  0.5311 -0.1561
  727TMC3    C610799   3.692   2.752   9.524  0.2157  0.6963 -0.5933
  727TMC3     C10800   3.590   2.398   9.701 -0.0086  0.1335  0.0370
  727TMC3     O10801   3.689   2.324   9.694  0.0615 -0.6082 -0.2571
  727TMC3     H10802   3.575   2.638   9.821 -0.1195  0.1326 -0.3207
  727TMC3    H110803   3.625   2.424   9.449  2.2798  0.1151 -1.2071
  727TMC3    H210804   3.706   2.850   9.480 -1.0190  1.4817  0.7668
  727TMC3    C710805   3.687   2.632   9.300  0.5851  0.0389 -0.3637
  727TMC3    C810806   3.696   2.850   9.740  0.1495  0.6861 -0.3955
  727TMC3    O110807   3.633   2.536   9.241 -0.2470  0.1097  0.1936
  727TMC3    O210808   3.735   2.815   9.852 -0.1205  0.5007  0.0145
  728TMC3    C110809   2.846   0.800  15.277  0.4448  0.0045  1.0504
  728TMC3    C210810   2.966   0.754  15.334  0.4617 -0.2159  0.6003
  728TMC3    C310811   3.061   0.712  15.242 -0.1410  0.4137 -0.1733
  728TMC3    C410812   2.827   0.794  15.142  0.1658  0.2489  0.2074
  728TMC3    C510813   2.928   0.748  15.062  0.5757 -0.3417 -0.3473
  728TMC3    C610814   3.043   0.699  15.107 -0.5554 -0.0264 -0.7706
  728TMC3     C10815   2.761   0.883  15.358 -0.0140  0.1788 -0.1594
  728TMC3     O10816   2.716   0.975  15.291 -0.0427  0.1354 -0.3203
  728TMC3     H10817   2.995   0.776  15.437  0.6775  0.0517  0.4823
  728TMC3    H110818   2.731   0.823  15.102  0.3593  0.0941 -0.3839
  728TMC3    H210819   3.114   0.653  15.039  1.1056  0.7523  0.4333
  728TMC3    C710820   2.906   0.732  14.925  0.5705  0.1335  0.1445
  728TMC3    C810821   3.193   0.669  15.291 -0.3568 -0.2761  0.3099
  728TMC3    O110822   2.791   0.709  14.894  0.6287 -0.4749 -0.3104
  728TMC3    O210823   3.267   0.632  15.204 -0.2149  0.7735  0.2521
  729MPD2     C10824   0.903   1.692  16.607 -0.2586 -0.1802  0.0866
  729MPD2    C110825   1.010   1.724  16.681 -0.2288 -0.6427  0.1582
  729MPD2    C210826   0.999   1.738  16.817  0.3506 -0.1818 -0.2887
  729MPD2    C310827   0.872   1.722  16.879  0.5222 -0.0811  0.9267
  729MPD2    C410828   0.760   1.682  16.804 -0.4284  0.2986  0.3723
  729MPD2    C510829   0.781   1.680  16.672  0.2440 -0.3499  0.0826
  729MPD2     H10830   1.086   1.767  16.874  0.1958  1.5940 -0.9505
  729MPD2    H110831   0.662   1.676  16.850 -1.7936  3.4530 -2.1419
  729MPD2    H210832   0.903   1.705  16.500 -1.2582  1.5102  0.2819
  729MPD2    H310833   0.689   1.680  16.616  0.9041  0.5253 -1.0048
  729MPD2     N10834   0.865   1.755  17.014 -0.0206  0.3029 -0.4374
  729MPD2    H510835   0.953   1.793  17.048 -0.3367 -0.5461  1.3273
  729MPD2    N110836   1.129   1.765  16.618  0.3471 -0.0546  0.0897
  729MPD2    H710837   1.131   1.777  16.517 -1.7230 -1.2443 -0.0855
  730TMC3    C110838   0.787   1.798  17.224 -0.5713 -0.1339  0.1751
  730TMC3    C210839   0.907   1.761  17.272  0.4526  0.3467  0.7955
  730TMC3    C310840   0.965   1.846  17.364  0.8303  0.0639 -0.0043
  730TMC3    C410841   0.714   1.906  17.270  0.7354 -0.4304  0.0996
  730TMC3    C510842   0.770   1.987  17.366  0.2250 -0.0001 -0.1769
  730TMC3    C610843   0.896   1.952  17.408 -0.2001 -0.0913  0.0473
  730TMC3     C10844   0.754   1.758  17.092  0.2325 -0.7080  0.3143
  730TMC3     O10845   0.635   1.742  17.060 -0.0540 -0.5348 -0.4359
  730TMC3     H10846   0.964   1.678  17.234  0.2314  0.6700 -0.2293
  730TMC3    H110847   0.617   1.927  17.226  1.3097 -3.1996 -2.4630
  730TMC3    H210848   0.923   1.999  17.502 -0.6958 -0.9878  0.6363
  730TMC3    C710849   0.776   2.118  17.323  0.3327 -0.4977  0.3113
  730TMC3    C810850   1.072   1.900  17.288 -0.4518  0.5330 -0.3287
  730TMC3    O110851   0.741   2.133  17.207  0.4135 -0.2883 -0.1946
  730TMC3    O210852   1.092   1.853  17.174 -0.5477  0.0547  0.0365
  731MPD2     C10853   0.406   4.676  11.997 -0.5308 -0.7517 -0.1582
  731MPD2    C110854   0.538   4.655  12.042 -0.1480 -0.1134  0.3223
  731MPD2    C210855   0.556   4.617  12.173  0.5336 -0.0905  0.2670
  731MPD2    C310856   0.454   4.615  12.270 -0.2719 -0.5351  0.4958
  731MPD2    C410857   0.329   4.662  12.226  0.2772  0.1712  0.5046
  731MPD2    C510858   0.304   4.686  12.092  0.0284 -0.0114 -0.5573
  731MPD2     H10859   0.655   4.588  12.207  0.7286  1.1696  0.7710
  731MPD2    H110860   0.237   4.657  12.283 -0.1553  1.9486 -0.0164
  731MPD2    H210861   0.383   4.700  11.894  1.5129 -0.6544 -0.6100
  731MPD2    H310862   0.203   4.713  12.061  0.9612  2.9176 -0.9877
  731MPD2     N10863   0.480   4.565  12.402  0.0704  0.2201 -0.7289
  731MPD2    H510864   0.568   4.515  12.412  0.1572  1.4077  4.3028
  731MPD2    N110865   0.635   4.665  11.939 -0.2799  0.1309 -0.5629
  731MPD2    H710866   0.603   4.689  11.846  0.9558  4.3245  0.0897
  732TMC3    C110867   0.849   4.656  11.836 -0.8343 -0.1907 -0.3987
  732TMC3    C210868   0.798   4.624  11.715 -0.3786  0.4283 -0.0753
  732TMC3    C310869   0.884   4.604  11.611  0.2414  0.6524  0.0060
  732TMC3    C410870   0.983   4.678  11.851 -0.1419  0.1661  0.0012
  732TMC3    C510871   1.063   4.674  11.741 -0.1273 -0.6742 -0.1140
  732TMC3    C610872   1.020   4.629  11.620  0.1576  0.1878  0.4017
  732TMC3     C10873   0.773   4.648  11.958 -0.3313  0.1360  0.9888
  732TMC3     O10874   0.830   4.627  12.067  0.1675 -0.0602  0.1861
  732TMC3     H10875   0.693   4.601  11.702 -0.3805 -0.1462  0.9227
  732TMC3    H110876   1.018   4.711  11.948  0.3031  3.8785 -1.4259
  732TMC3    H210877   1.085   4.623  11.534 -0.1619 -2.3981  0.3457
  732TMC3    C710878   1.212   4.670  11.768  0.4766  0.0346  0.0628
  732TMC3    C810879   0.825   4.611  11.475 -0.1132 -0.4808  0.4059
  732TMC3    O110880   1.280   4.622  11.679  0.1513  0.0019  0.4389
  732TMC3    O210881   0.896   4.608  11.375  0.1180 -0.2420  0.1884
  733TMC3    C110882   1.863   2.769  12.736  0.4319 -0.0262  0.5825
  733TMC3    C210883   1.990   2.814  12.767 -0.1167 -0.2424  0.3719
  733TMC3    C310884   2.085   2.795  12.668 -0.3991  0.0816  0.0969
  733TMC3    C410885   1.827   2.730  12.612 -0.3733  0.2951 -0.4795
  733TMC3    C510886   1.928   2.709  12.522 -0.1770 -1.0094  0.5446
  733TMC3    C610887   2.058   2.727  12.554  0.5729  0.3545  0.0807
  733TMC3     C10888   1.759   2.796  12.838  1.0183 -0.0260  0.8280
  733TMC3     O10889   1.647   2.816  12.802 -0.3377 -0.6889 -0.2046
  733TMC3     H10890   2.019   2.885  12.843 -0.4662  0.6411 -0.3115
  733TMC3    H110891   1.720   2.725  12.592 -0.5989 -1.2382  1.1607
  733TMC3    H210892   2.131   2.713  12.475 -1.5128  1.0093 -1.9500
  733TMC3    C710893   1.899   2.748  12.384  0.4352  0.8041  0.1033
  733TMC3    C810894   2.186   2.898  12.645 -0.1315  0.4086 -0.3877
  733TMC3    O110895   1.922   2.660  12.299 -0.2062  0.5433 -0.6469
  733TMC3    O210896   2.292   2.868  12.596  0.2012 -0.7343 -0.3537
  734MPD2     C10897   3.286   0.851  12.461  0.5136  0.0950 -0.2239
  734MPD2    C110898   3.277   0.738  12.383  0.0009 -0.1298  0.2185
  734MPD2    C210899   3.347   0.739  12.264  0.4037  0.0207  0.4003
  734MPD2    C310900   3.408   0.854  12.213 -0.9138 -0.0739 -0.1226
  734MPD2    C410901   3.416   0.968  12.298  0.4713  0.4536 -0.1844
  734MPD2    C510902   3.368   0.958  12.425 -0.8337 -0.3349  0.0314
  734MPD2     H10903   3.368   0.649  12.208 -1.6392 -1.0716  1.3853
  734MPD2    H110904   3.470   1.052  12.258  0.4319  1.2141  1.3611
  734MPD2    H210905   3.229   0.852  12.553  0.1183  0.0594 -0.4699
  734MPD2    H310906   3.373   1.045  12.489  0.8996 -0.9124  0.6698
  734MPD2     N10907   3.458   0.852  12.085 -0.8832 -0.0474 -0.1941
  734MPD2    H510908   3.442   0.765  12.036 -0.3196 -0.2519 -0.0135
  734MPD2    N110909   3.204   0.629  12.424 -0.0726 -0.0747  0.0919
  734MPD2    H710910   3.171   0.613  12.519  0.9182  3.1902  0.9971
  735TMC3    C110911   3.122   0.413  12.399 -0.1955  0.2608 -0.6187
  735TMC3    C210912   3.044   0.345  12.312  0.2706 -0.6034  0.4264
  735TMC3    C310913   3.090   0.223  12.275  0.9659 -0.3130  0.2633
  735TMC3    C410914   3.241   0.357  12.448  0.1889  0.6396 -0.6931
  735TMC3    C510915   3.274   0.236  12.403  0.3416  0.5193  0.2642
  735TMC3    C610916   3.188   0.155  12.333 -0.2204 -0.5873  0.0565
  735TMC3     C10917   3.159   0.540  12.333 -0.0267  0.0350 -0.5106
  735TMC3     O10918   3.139   0.545  12.216  0.4276 -0.3572  0.1764
  735TMC3     H10919   2.957   0.383  12.260 -0.9873 -2.3873  1.2262
  735TMC3    H110920   3.313   0.419  12.499  0.2504  0.8839 -1.0778
  735TMC3    H210921   3.217   0.061  12.287 -0.3043  0.3444 -1.8828
  735TMC3    C710922   3.410   0.212  12.367 -0.1279 -0.1354 -0.1588
  735TMC3    C810923   3.072   0.210  12.132  0.5069 -0.7143  0.4230
  735TMC3    O110924   3.476   0.307  12.325 -0.0951  0.2640  0.1056
  735TMC3    O210925   3.104   0.101  12.089 -0.2949 -0.6516 -0.0348
  736MPD2     C10926   3.627   4.667  12.449  0.5923  0.3311 -0.1195
  736MPD2    C110927   3.583   0.038  12.378  0.1264 -0.2267 -0.3790
  736MPD2    C210928   3.682   0.113  12.317  0.7694  0.2013  0.3709
  736MPD2    C310929   3.812   0.064  12.303  0.8703 -0.7248 -0.0852
  736MPD2    C410930   3.849   4.684  12.363 -0.3077  0.1442  0.2615
  736MPD2    C510931   3.759   4.625  12.448  0.4983 -0.0836 -0.1174
  736MPD2     H10932   3.648   0.195  12.255 -0.5144 -1.8486 -1.6314
  736MPD2    H110933   3.951   4.649  12.357 -0.3810 -0.2643  1.4718
  736MPD2    H210934   3.572   4.621  12.530 -0.1419  2.1142  0.4029
  736MPD2    H310935   3.788   4.550  12.521 -1.6179  0.8947  1.7119
  736MPD2     N10936   3.907   0.124  12.225 -0.2396 -0.2716 -0.8429
  736MPD2    H510937   3.993   0.073  12.210 -0.2046 -0.6987  0.8529
  736MPD2    N110938   3.452   0.081  12.381 -0.1847 -0.7614 -0.3238
  736MPD2    H710939   3.380   0.021  12.420 -1.2488 -0.5205 -1.9168
  737TMC3    C110940   4.008   0.293  12.085  1.0289 -0.2811  0.4154
  737TMC3    C210941   3.992   0.420  12.033 -0.0611  0.0362 -0.9070
  737TMC3    C310942   4.063   0.449  11.920 -1.4048 -0.3084  0.9307
  737TMC3    C410943   4.073   0.192  12.020 -0.2009  0.6379 -0.2606
  737TMC3    C510944   4.133   0.228  11.899 -0.3959 -0.0741 -0.1387
  737TMC3    C610945   4.132   0.356  11.858  0.0150 -0.0328 -0.7414
  737TMC3     C10946   3.907   0.258  12.187  0.3870  0.1942  0.1327
  737TMC3     O10947   3.842   0.354  12.219  0.6884 -0.1801  0.4969
  737TMC3     H10948   3.942   0.501  12.085 -2.5678 -1.6869 -0.6189
  737TMC3    H110949   4.087   0.098  12.072  1.6145  0.2218 -1.5200
  737TMC3    H210950   4.186   0.385  11.769 -0.3416 -0.9355 -1.2424
  737TMC3    C710951   4.216   0.122  11.834  0.6233 -0.4345 -0.4424
  737TMC3    C810952   4.008   0.554  11.840  0.1236  0.2181  0.8498
  737TMC3    O110953   4.214   0.014  11.889  0.2333  0.7241  0.7627
  737TMC3    O210954   4.011   0.550  11.721 -0.0248 -0.6226  0.6697
  738MPD2     C10955   4.091   4.237  14.850 -0.9411 -0.1755  0.1155
  738MPD2    C110956   4.157   4.117  14.870 -0.1725  0.5520 -0.2351
  738MPD2    C210957   4.296   4.117  14.866 -0.3897  0.3513 -0.1040
  738MPD2    C310958   4.371   4.231  14.833  0.5238 -0.2174 -0.6049
  738MPD2    C410959   4.297   4.346  14.803 -0.6109 -0.0023 -0.3054
  738MPD2    C510960   4.165   4.356  14.823 -0.1151  0.3850 -0.1524
  738MPD2     H10961   4.355   4.027  14.874 -0.8313  0.1640  1.0437
  738MPD2    H110962   4.344   4.439  14.775  0.3315 -0.2439  0.4946
  738MPD2    H210963   3.983   4.247  14.854 -1.1611 -2.1771 -0.3979
  738MPD2    H310964   4.109   4.449  14.818 -1.1819 -0.2512 -0.2044
  738MPD2     N10965   4.510   4.237  14.814  0.0644 -0.1817  0.0597
  738MPD2    H510966   4.558   4.307  14.760  1.8285 -1.1506  0.3857
  738MPD2    N110967   4.081   4.001  14.906 -0.4458 -0.3038  0.4407
  738MPD2    H710968   4.139   3.922  14.936 -0.4165 -0.1430  0.8082
  739TMC3    C110969   4.719   4.135  14.781 -0.3790 -0.5557  0.5124
  739TMC3    C210970   4.724   4.126  14.638 -0.2165 -0.3107 -0.1926
  739TMC3    C310971   0.110   4.127  14.587  0.7605 -0.3131  0.2901
  739TMC3    C410972   0.096   4.115  14.852  0.1992  0.1163  0.0332
  739TMC3    C510973   0.218   4.095  14.791  0.2918  0.5371  0.8904
  739TMC3    C610974   0.227   4.102  14.652 -0.5105 -0.3030  0.7944
  739TMC3     C10975   4.590   4.124  14.849 -0.5965 -0.5195 -0.2628
  739TMC3     O10976   4.579   4.050  14.946 -0.0891  0.1371 -0.3303
  739TMC3     H10977   4.630   4.137  14.585  0.1498 -0.9008 -0.9678
  739TMC3    H110978   0.086   4.117  14.960  2.1934 -0.1318  0.2295
  739TMC3    H210979   0.317   4.084  14.596 -1.0832  2.4048 -0.9767
  739TMC3    C710980   0.335   4.104  14.868  0.0802 -0.1645 -0.2073
  739TMC3    C810981   0.108   4.167  14.448 -0.1081 -0.4900 -0.4329
  739TMC3    O110982   0.442   4.087  14.809  0.2595 -0.0091 -0.6108
  739TMC3    O210983   4.732   4.182  14.396  0.1292 -0.2871 -0.1421
  740TMC3    C110984   0.053   0.865  14.218 -0.1045 -0.7386 -0.0573
  740TMC3    C210985   0.140   0.825  14.316 -1.1276  0.7771 -0.1050
  740TMC3    C310986   0.261   0.793  14.263  0.5820  0.4664  0.1995
  740TMC3    C410987   0.083   0.873  14.081 -0.4405 -0.6193  0.3829
  740TMC3    C510988   0.206   0.852  14.041 -0.2823 -0.1365  0.9720
  740TMC3    C610989   0.298   0.815  14.130 -0.3696  0.0601  0.1593
  740TMC3     C10990   4.657   0.910  14.255  0.3193 -0.0415 -0.1060
  740TMC3     O10991   4.580   0.945  14.167 -0.0296  0.1337  0.4060
  740TMC3     H10992   0.122   0.840  14.422  1.6676 -1.0336  0.6419
  740TMC3    H110993   0.002   0.888  14.011 -0.1174 -1.2131 -0.1096
  740TMC3    H210994   0.398   0.793  14.096 -0.7528  0.5078 -1.2669
  740TMC3    C710995   0.216   0.788  13.910  0.2487  0.6700  1.0157
  740TMC3    C810996   0.361   0.728  14.345 -1.5240 -0.2864  0.1598
  740TMC3    O110997   0.135   0.698  13.892  0.3848 -0.2720 -0.3048
  740TMC3    O210998   0.478   0.737  14.305 -0.7360  0.2698  0.1941
  741TMC3    C110999   0.102   4.641  14.291 -0.5626  0.0001  0.1455
  741TMC3    C211000   0.014   4.586  14.206  0.0707 -0.5185 -0.4844
  741TMC3    C311001   4.656   4.500  14.256  0.0594 -0.4144  0.2757
  741TMC3    C411002   0.098   4.624  14.422  0.1268  0.4941 -0.8297
  741TMC3    C511003   0.006   4.530  14.469 -0.1616 -0.5444 -0.3632
  741TMC3    C611004   4.653   4.467  14.389 -0.0687  0.0153 -0.7462
  741TMC3     C11005   0.201   4.718  14.229 -0.7737 -0.4056 -0.2940
  741TMC3     O11006   0.168   0.047  14.132 -0.3022  0.1590  0.2748
  741TMC3     H11007   0.011   4.606  14.100 -1.5014 -1.4080 -0.6163
  741TMC3    H111008   0.170   4.667  14.491 -1.1184  4.3445 -1.9348
  741TMC3    H211009   4.591   4.389  14.432 -0.1960  1.3502  1.4485
  741TMC3    C711010   0.009   4.483  14.612  0.0069  0.6619 -0.3896
  741TMC3    C811011   4.555   4.452  14.172  0.0192  0.4868  0.2001
  741TMC3    O111012   4.644   4.434  14.656 -0.5056 -0.1242  0.2608
  741TMC3    O211013   4.504   4.530  14.096 -0.2783 -0.3669 -0.1001
  742TMC3    C111014   0.078   3.464  15.265 -0.0599  0.3544  0.4412
  742TMC3    C211015   4.723   3.429  15.171  0.4968 -0.7388  0.1545
  742TMC3    C311016   0.032   3.380  15.049  1.3626  0.2110  0.1161
  742TMC3    C411017   0.211   3.455  15.237 -0.1271  0.1431  0.3368
  742TMC3    C511018   0.252   3.391  15.122  0.6928  0.1633  0.3511
  742TMC3    C611019   0.163   3.364  15.023 -1.2028  0.2632  0.0560
  742TMC3     C11020   0.041   3.496  15.401 -0.2453 -0.2952 -0.1065
  742TMC3     O11021   0.125   3.565  15.453  0.4760  0.0998 -0.0109
  742TMC3     H11022   4.618   3.457  15.179  1.4886  3.6302 -1.9009
  742TMC3    H111023   0.293   3.480  15.304 -1.5635  0.3122  2.0379
  742TMC3    H211024   0.206   3.323  14.932  0.7342  0.0268  1.0809
  742TMC3    C711025   0.333   3.276  15.143  0.6841  0.1569 -0.0656
  742TMC3    C811026   4.677   3.307  14.960  0.3556  0.3856  0.0413
  742TMC3    O111027   0.280   3.173  15.107 -0.1930  0.3137  0.4588
  742TMC3    O211028   4.726   3.267  14.856  0.2858  0.8717 -0.0884
  743MPD2     C11029   1.915   0.149   1.191  0.8510  0.3830  0.5332
  743MPD2    C111030   1.991   0.054   1.126 -0.1623 -0.8482  0.1643
  743MPD2    C211031   2.130   0.057   1.138 -0.3528  0.5504  0.0448
  743MPD2    C311032   2.189   0.163   1.201 -0.1838  1.1725  0.3627
  743MPD2    C411033   2.116   0.247   1.278 -0.3169  0.3089 -0.0320
  743MPD2    C511034   1.980   0.243   1.268 -0.1765  0.2961 -0.5816
  743MPD2     H11035   2.189   4.731   1.072 -3.5755 -0.2307 -2.1142
  743MPD2    H111036   2.163   0.319   1.345  0.9577 -1.2571  0.7509
  743MPD2    H211037   1.808   0.160   1.174  0.8087 -1.5817 -0.4715
  743MPD2    H311038   1.929   0.331   1.305  1.9651  1.0930  0.4886
  743MPD2     N11039   2.329   0.177   1.193 -0.0175  0.0643 -0.5850
  743MPD2    H511040   2.382   0.108   1.141  1.8770  2.1870 -1.4794
  743MPD2    N111041   1.922   4.707   1.031 -0.1934 -0.3115  0.3077
  743MPD2    H711042   1.822   4.718   1.018 -0.0802 -1.1180 -1.2252
  744TMC3    C111043   1.880   4.516   0.879 -0.0185  0.3895  0.9124
  744TMC3    C211044   1.811   4.595   0.792 -0.2957 -0.4323  0.9856
  744TMC3    C311045   1.815   4.553   0.662  0.4500 -0.2226 -0.0208
  744TMC3    C411046   1.939   4.395   0.843  0.4378  0.7956 -0.1086
  744TMC3    C511047   1.964   4.378   0.712 -0.4614 -0.0084  0.8065
  744TMC3    C611048   1.896   4.450   0.617  0.0982 -0.1437  0.2363
  744TMC3     C11049   1.972   4.594   0.970  0.7677 -0.4261  0.1578
  744TMC3     O11050   2.086   4.549   0.979  0.1477  0.1035 -0.0632
  744TMC3     H11051   1.758   4.681   0.832  0.5564  0.4613  0.2111
  744TMC3    H111052   1.999   4.341   0.916  2.0623  1.4651 -0.9525
  744TMC3    H211053   1.922   4.443   0.512 -2.5107 -0.2503 -0.3909
  744TMC3    C711054   2.105   4.368   0.669  0.8006  0.7830  1.2399
  744TMC3    C811055   1.739   4.632   0.567 -0.3695  0.7482  0.6689
  744TMC3    O111056   2.128   4.332   0.557 -0.3259 -0.3930 -0.3513
  744TMC3    O211057   1.711   0.013   0.588  0.0792  0.3357 -0.3704
  745TMC3    C111058   0.636   2.509  13.585  0.0707  0.3650 -0.0359
  745TMC3    C211059   0.517   2.516  13.657  0.7071  0.3599  0.5995
  745TMC3    C311060   0.398   2.486  13.592 -0.5230  0.4521 -0.2402
  745TMC3    C411061   0.636   2.510  13.448 -0.8508  0.3745  0.0850
  745TMC3    C511062   0.512   2.501  13.387  0.3204  0.3831 -0.6665
  745TMC3    C611063   0.399   2.477  13.454 -0.3405 -0.4456 -0.3894
  745TMC3     C11064   0.742   2.590  13.646  0.4773 -0.5887  0.2936
  745TMC3     O11065   0.853   2.547  13.629  0.0789 -0.1527 -0.4139
  745TMC3     H11066   0.533   2.512  13.764 -1.9620  1.0045  1.0230
  745TMC3    H111067   0.729   2.513  13.392 -0.7585 -0.2659  0.1985
  745TMC3    H211068   0.304   2.450  13.408 -0.4087 -1.0329  0.0887
  745TMC3    C711069   0.520   2.547  13.249  0.5503 -0.0438  0.1740
  745TMC3    C811070   0.291   2.562  13.649 -0.4729  0.1106  0.1948
  745TMC3    O111071   0.431   2.516  13.172 -0.2516  0.3086 -0.0652
  745TMC3    O211072   0.190   2.570  13.586 -0.1593  0.0530 -0.3542
  746TMC3    C111073   2.720   0.022  10.683  0.3054 -0.0081  0.1904
  746TMC3    C211074   2.769   0.009  10.556 -0.1488 -0.4257 -0.2632
  746TMC3    C311075   2.738   4.626  10.486  0.2493  0.2726 -0.1075
  746TMC3    C411076   2.643   4.658  10.745 -0.5868 -0.2879 -0.6452
  746TMC3    C511077   2.618   4.543  10.668  0.0613 -0.0615  0.4349
  746TMC3    C611078   2.662   4.525  10.543  0.3557 -0.2388  0.8463
  746TMC3     C11079   2.718   0.152  10.757  0.4057  0.8315  0.8739
  746TMC3     O11080   2.661   0.151  10.864  0.4139 -0.1341  0.1555
  746TMC3     H11081   2.809   0.099  10.512 -3.6923  1.3891  0.2708
  746TMC3    H111082   2.604   4.667  10.845  1.8100 -0.2765  0.2946
  746TMC3    H211083   2.646   4.438  10.482 -0.9352  0.7370 -0.1966
  746TMC3    C711084   2.487   4.481  10.678 -0.0868  0.1170  0.1865
  746TMC3    C811085   2.774   4.608  10.346 -0.1764 -1.3450  0.3665
  746TMC3    O111086   2.440   4.428  10.578 -0.0639  0.1635  0.4071
  746TMC3    O211087   2.727   4.514  10.285  0.6522 -0.5290 -0.0369
  747TMC3    C111088   4.640   0.280  10.883  0.3786  0.0608  0.9215
  747TMC3    C211089   4.596   0.180  10.961 -0.2014  0.1787  0.1850
  747TMC3    C311090   4.616   0.189  11.090  0.0318  0.2720  0.0994
  747TMC3    C411091   4.703   0.391  10.934 -0.1397  0.2799 -0.0765
  747TMC3    C511092   0.002   0.400  11.064 -0.2758  0.1306  0.2131
  747TMC3    C611093   4.694   0.294  11.140  0.0369 -0.1990 -0.4758
  747TMC3     C11094   4.631   0.276  10.734  1.1567 -0.1369  0.1146
  747TMC3     O11095   4.616   0.380  10.679  0.5922  0.0478 -0.0702
  747TMC3     H11096   4.537   0.099  10.919  1.1043  0.2656 -1.8182
  747TMC3    H111097   0.004   0.470  10.870  0.3797  0.2240  0.1604
  747TMC3    H211098   4.703   0.309  11.247  1.0940  0.8552 -0.7067
  747TMC3    C711099   0.121   0.467  11.094  0.1570  0.4894 -0.2311
  747TMC3    C811100   4.554   0.103  11.185  0.4567  0.0006 -0.2304
  747TMC3    O111101   0.139   0.569  11.028  0.3429 -0.2733  0.9708
  747TMC3    O211102   4.537   4.722  11.143 -0.1275  0.2981  0.3609
  748MPD2     C11103   2.296   0.680   1.247  0.3313 -0.2617 -0.1873
  748MPD2    C111104   2.328   0.650   1.117 -0.1284  0.2985 -0.5524
  748MPD2    C211105   2.443   0.696   1.055  0.2225  0.2836 -0.4945
  748MPD2    C311106   2.538   0.763   1.126 -0.0207  0.7219  0.3768
  748MPD2    C411107   2.519   0.781   1.264  0.5116 -0.1966 -0.3065
  748MPD2    C511108   2.393   0.739   1.319 -0.3157  0.0184 -0.6268
  748MPD2     H11109   2.455   0.697   0.947 -0.8972  1.3681 -0.6133
  748MPD2    H111110   2.589   0.834   1.327 -1.0327 -1.4273  2.4653
  748MPD2    H211111   2.207   0.655   1.302 -0.3077 -0.4357 -1.3020
  748MPD2    H311112   2.365   0.762   1.421  1.4856  1.8392 -0.5361
  748MPD2     N11113   2.663   0.811   1.076  0.9313 -0.7139  0.1647
  748MPD2    H511114   2.719   0.869   1.138  0.5046 -0.3211  0.1817
  748MPD2    N111115   2.237   0.581   1.052  0.2755  0.4701  0.8575
  748MPD2    H711116   2.149   0.580   1.103 -0.3255  2.2174 -0.1499
  749TMC3    C111117   2.844   0.859   0.930 -0.1514 -0.5998 -0.1923
  749TMC3    C211118   2.923   0.840   1.038 -0.0362  0.1686  0.0195
  749TMC3    C311119   3.046   0.907   1.029  0.9860  0.3690 -0.4152
  749TMC3    C411120   2.868   0.923   0.814  0.4920  0.1394  0.1658
  749TMC3    C511121   3.002   0.971   0.808 -0.5640 -0.5518 -0.1145
  749TMC3    C611122   3.087   0.963   0.911 -0.6241 -0.2086 -0.6532
  749TMC3     C11123   2.709   0.803   0.948  0.1323 -0.7625  0.2320
  749TMC3     O11124   2.663   0.743   0.851  0.4381  0.1611 -0.1300
  749TMC3     H11125   2.888   0.788   1.126  0.6335  1.0163  0.7933
  749TMC3    H111126   2.790   0.921   0.739  1.0373  0.4336 -0.4082
  749TMC3    H211127   3.181   1.015   0.917 -1.5666  1.6273 -1.8391
  749TMC3    C711128   3.067   1.013   0.686  0.4342  0.1405 -0.1655
  749TMC3    C811129   3.146   0.870   1.124  0.7590  0.1899  0.9505
  749TMC3    O111130   3.185   1.040   0.688  0.4701 -0.0810  0.0157
  749TMC3    O211131   3.233   0.955   1.137 -0.6102  0.5014  0.0775
  750MPD2     C11132   2.451   2.037  11.342  0.2863  0.4716  0.4746
  750MPD2    C111133   2.367   1.944  11.405 -0.2597  0.2482 -0.0284
  750MPD2    C211134   2.345   1.813  11.358  0.3674 -1.0021 -0.3248
  750MPD2    C311135   2.406   1.774  11.246  0.4073 -0.0375 -0.4945
  750MPD2    C411136   2.488   1.867  11.177 -0.2021  0.4891 -0.3275
  750MPD2    C511137   2.509   1.991  11.231 -0.5452 -0.1353  0.1595
  750MPD2     H11138   2.266   1.749  11.396  0.2197  0.6505  2.1324
  750MPD2    H111139   2.539   1.849  11.083  0.1761 -2.6556  0.4631
  750MPD2    H211140   2.469   2.132  11.389 -0.7067  0.6372  0.5198
  750MPD2    H311141   2.581   2.059  11.185 -0.0334 -0.3420  0.6610
  750MPD2     N11142   2.413   1.645  11.190  0.3901  0.2532  0.2819
  750MPD2    H511143   2.477   1.632  11.113 -0.8424 -1.8188 -0.3896
  750MPD2    N111144   2.286   1.990  11.514 -0.4270 -0.0288 -0.3973
  750MPD2    H711145   2.280   2.091  11.518 -0.5799 -0.0101 -1.0784
  751TMC3    C111146   2.362   1.404  11.172  0.2245 -0.6276 -0.0667
  751TMC3    C211147   2.299   1.296  11.227 -0.3350  0.3203  0.3672
  751TMC3    C311148   2.304   1.185  11.157  0.2843 -0.4797  0.2701
  751TMC3    C411149   2.418   1.403  11.044  0.2504 -0.2654  0.6318
  751TMC3    C511150   2.408   1.282  10.972  0.3280  0.5070  0.8262
  751TMC3    C611151   2.354   1.177  11.027  0.2903  0.5053 -0.2777
  751TMC3     C11152   2.351   1.530  11.244  0.5624 -0.6664 -0.7325
  751TMC3     O11153   2.280   1.524  11.345  0.1313  0.1462  0.7899
  751TMC3     H11154   2.283   1.296  11.334  0.8238  0.4928  0.5468
  751TMC3    H111155   2.459   1.488  10.990 -0.8442 -0.7731 -0.9979
  751TMC3    H211156   2.358   1.083  10.974  1.3977  1.1541 -1.3292
  751TMC3    C711157   2.452   1.276  10.834  0.0042 -0.0189  0.4105
  751TMC3    C811158   2.229   1.064  11.189 -0.5125 -0.3658  0.1249
  751TMC3    O111159   2.552   1.343  10.814  0.6294 -0.0681  0.0989
  751TMC3    O211160   2.251   0.970  11.114 -0.1317 -0.1057  0.6725
  752TMC3    C111161   1.513   2.173  17.490 -0.1661 -0.9751 -0.7003
  752TMC3    C211162   1.522   2.034  17.507 -0.5403 -0.6845 -1.1168
  752TMC3    C311163   1.477   1.985  17.624  0.5766 -0.0577  0.3813
  752TMC3    C411164   1.457   2.253  17.582 -0.1903 -0.2233 -0.7644
  752TMC3    C511165   1.386   2.184  17.685  0.2429  0.5769  0.9634
  752TMC3    C611166   1.398   2.052  17.712 -0.1912  0.3798  0.1295
  752TMC3     C11167   1.564   2.233  17.370 -0.4941  0.1797 -0.0868
  752TMC3     O11168   1.586   2.350  17.366 -0.6547 -0.3142  0.0820
  752TMC3     H11169   1.587   1.968  17.449  0.4001 -1.7175  1.1069
  752TMC3    H111170   1.448   2.359  17.564  0.3340  0.0906  0.8331
  752TMC3    H211171   1.362   2.003   0.058  2.0676  0.4176  1.0536
  752TMC3    C711172   1.273   2.253  17.735  0.3360  0.1870 -0.3362
  752TMC3    C811173   1.491   1.838  17.645 -1.0687  0.0545 -0.3388
  752TMC3    O111174   1.239   2.353  17.678  0.1562 -0.1473 -0.4416
  752TMC3    O211175   1.494   1.808   0.020 -0.6072 -0.2396  0.2676
  753TMC3    C111176   3.114   2.825  13.270  0.8345 -0.7581  0.1433
  753TMC3    C211177   3.180   2.820  13.393  0.3048  0.9635 -0.1133
  753TMC3    C311178   3.180   2.704  13.460  0.5090  0.2617 -0.7780
  753TMC3    C411179   3.032   2.719  13.226  0.3454 -0.1525  0.1002
  753TMC3    C511180   3.036   2.600  13.291  0.5314 -0.0408 -1.1041
  753TMC3    C611181   3.115   2.592  13.405  0.2332 -0.2163 -1.1670
  753TMC3     C11182   3.131   2.940  13.190 -0.6598 -0.1766  0.1835
  753TMC3     O11183   3.180   3.043  13.236  0.0257 -0.4178  0.2138
  753TMC3     H11184   3.217   2.917  13.426  0.4919  0.8486  0.0120
  753TMC3    H111185   2.948   2.746  13.163  1.1570  3.3446  0.5379
  753TMC3    H211186   3.111   2.503  13.466  2.3036  0.2619 -0.3684
  753TMC3    C711187   2.963   2.489  13.237 -0.0964  0.1213  0.6267
  753TMC3    C811188   3.222   2.688  13.598 -0.2132 -0.1370 -0.4736
  753TMC3    O111189   2.928   2.507  13.123  0.2331 -0.0458  0.2645
  753TMC3    O211190   3.236   2.576  13.637 -0.1709  0.2796 -1.0028
  754MPD2     C11191   2.528   1.705  13.166  0.1442 -0.0801 -0.8773
  754MPD2    C111192   2.503   1.579  13.117 -0.2291 -1.1469  0.0538
  754MPD2    C211193   2.378   1.547  13.069  0.7433  0.0325 -0.5467
  754MPD2    C311194   2.270   1.624  13.108 -0.4679  0.2703  0.5639
  754MPD2    C411195   2.294   1.746  13.172  0.4748  0.1995 -0.1132
  754MPD2    C511196   2.418   1.784  13.198  0.2960 -0.4727  1.1156
  754MPD2     H11197   2.369   1.468  12.996 -4.0798  1.6454 -1.6780
  754MPD2    H111198   2.220   1.817  13.208  1.5352  0.8701  0.7085
  754MPD2    H211199   2.630   1.740  13.182  0.3945 -1.8043  1.3440
  754MPD2    H311200   2.432   1.872  13.259  0.0809  0.5920 -0.3648
  754MPD2     N11201   2.134   1.584  13.084  0.0345 -0.8483  0.0323
  754MPD2    H511202   2.062   1.636  13.133  0.1985 -0.4483 -0.1504
  754MPD2    N111203   2.615   1.489  13.097  0.2712 -0.2661  0.0597
  754MPD2    H711204   2.708   1.530  13.103  0.9585 -2.0480  1.5588
  755MPD2     C11205   1.425   1.907  13.429  0.7737  0.1137  0.4971
  755MPD2    C111206   1.534   1.876  13.509  0.0338  0.3780  0.1860
  755MPD2    C211207   1.619   1.773  13.467  0.9394  0.6843 -0.6031
  755MPD2    C311208   1.587   1.696  13.358 -0.6056  0.2442  0.0191
  755MPD2    C411209   1.483   1.727  13.277  0.8019  0.3369 -0.1749
  755MPD2    C511210   1.399   1.827  13.319  0.2268 -0.0427  0.3537
  755MPD2     H11211   1.704   1.742  13.527  0.2926 -2.2956 -1.2152
  755MPD2    H111212   1.449   1.668  13.193 -1.8497  0.5217  0.7432
  755MPD2    H211213   1.349   1.980  13.457  1.9639  1.7032 -0.4503
  755MPD2    H311214   1.309   1.855  13.265 -0.0702 -1.4753  0.1180
  755MPD2     N11215   1.683   1.602  13.319  0.3839  0.2326  0.2332
  755MPD2    H511216   1.779   1.616  13.347  0.3942  0.1623  0.2318
  755MPD2    N111217   1.541   1.940  13.634  0.1139 -0.1090  0.3595
  755MPD2    H711218   1.474   2.015  13.644 -1.8152 -1.3373 -3.4740
  756MPD2     C11219   2.275   1.828   9.635 -0.3315  0.0604 -0.3032
  756MPD2    C111220   2.174   1.894   9.706  0.3680  0.0755  0.5376
  756MPD2    C211221   2.047   1.897   9.668 -0.0569  0.2050 -0.0172
  756MPD2    C311222   2.015   1.826   9.548 -0.0021  0.0289 -0.4849
  756MPD2    C411223   2.111   1.755   9.481 -0.0322 -0.0599  0.8855
  756MPD2    C511224   2.240   1.761   9.520  0.0920 -0.6135  0.4956
  756MPD2     H11225   1.977   1.953   9.730  0.0732 -0.3720  0.6546
  756MPD2    H111226   2.088   1.686   9.400  1.2975  0.4621  0.0527
  756MPD2    H211227   2.379   1.820   9.664 -0.2662 -2.8898 -1.4712
  756MPD2    H311228   2.321   1.728   9.456  0.3133  1.9807 -0.5423
  756MPD2     N11229   1.874   1.814   9.520 -0.6811  0.0125 -0.6980
  756MPD2    H511230   1.813   1.857   9.589 -0.6251 -0.7796 -0.1496
  756MPD2    N111231   2.214   1.971   9.820 -0.2317  0.0803 -0.3682
  756MPD2    H711232   2.134   2.023   9.856  0.4236  0.4123  0.6198
  757MPD2     C11233   1.119   1.156   9.262  0.0721  0.0618 -0.0666
  757MPD2    C111234   1.246   1.139   9.226  0.2272  0.2031 -0.1099
  757MPD2    C211235   1.337   1.250   9.242 -0.3615 -0.0753 -0.4017
  757MPD2    C311236   1.295   1.369   9.302  1.4653 -0.0242 -0.6069
  757MPD2    C411237   1.166   1.367   9.361 -0.5700  0.7681 -0.8100
  757MPD2    C511238   1.078   1.265   9.333 -0.0346 -1.0375  0.4791
  757MPD2     H11239   1.434   1.238   9.194  0.0154 -0.4901  0.4672
  757MPD2    H111240   1.130   1.449   9.422  0.1011  0.5684 -0.1482
  757MPD2    H211241   1.045   1.081   9.239  1.6174 -0.8292 -2.1210
  757MPD2    H311242   0.982   1.268   9.383  0.0789 -1.8897  0.7538
  757MPD2     N11243   1.384   1.478   9.323  0.1885  0.1650 -0.2021
  757MPD2    H511244   1.480   1.467   9.292  0.3803 -0.4163  0.6042
  757MPD2    N111245   1.271   1.016   9.153 -0.0238  0.3335  0.2430
  757MPD2    H711246   1.200   0.945   9.165  0.7773 -0.3104  1.1857
  758MPD2     C11247   2.541   1.427  15.853 -0.1174  0.2032 -0.1317
  758MPD2    C111248   2.571   1.339  15.949  0.2788 -0.2737  0.0286
  758MPD2    C211249   2.486   1.321  16.058 -0.4617 -1.3598  0.0811
  758MPD2    C311250   2.386   1.415  16.075 -0.3441 -0.9514 -0.0616
  758MPD2    C411251   2.365   1.512  15.978 -0.4066  0.6316 -0.7909
  758MPD2    C511252   2.443   1.519  15.863  0.1266  0.4569  0.7853
  758MPD2     H11253   2.503   1.258  16.144 -3.0960 -1.4643  0.5434
  758MPD2    H111254   2.284   1.584  15.992 -0.5837 -0.0152  1.3804
  758MPD2    H211255   2.612   1.438  15.772  0.9295 -0.9259  0.6302
  758MPD2    H311256   2.430   1.599  15.790 -0.0534  0.7829  1.1705
  758MPD2     N11257   2.298   1.417  16.189  0.2246  0.4444  0.6581
  758MPD2    H511258   2.227   1.489  16.204  0.9443  1.1989  0.4284
  758MPD2    N111259   2.686   1.262  15.925  0.6655  0.1187  0.3074
  758MPD2    H711260   2.733   1.280  15.837 -0.0903 -0.9375 -0.3209
  759MPD2     C11261   1.449   0.403   9.814 -0.2862 -0.3725  0.5314
  759MPD2    C111262   1.418   0.276   9.769 -1.5981 -0.6896 -0.4367
  759MPD2    C211263   1.458   0.237   9.643  0.0587  0.4128  0.5012
  759MPD2    C311264   1.526   0.331   9.561 -0.8638 -0.1268  0.3731
  759MPD2    C411265   1.559   0.456   9.608  0.5979 -0.3139 -0.5472
  759MPD2    C511266   1.514   0.487   9.732  0.3123  0.1493 -0.3041
  759MPD2     H11267   1.431   0.136   9.616  1.2126 -0.4626  2.6105
  759MPD2    H111268   1.612   0.530   9.550 -1.8335 -0.2433 -2.6965
  759MPD2    H211269   1.414   0.444   9.908 -0.1072 -0.2736  0.5549
  759MPD2    H311270   1.531   0.588   9.766 -0.2521  0.2774 -0.4117
  759MPD2     N11271   1.566   0.301   9.421 -0.1315  0.3891 -0.1580
  759MPD2    H511272   1.629   0.357   9.366 -0.3709  0.0559 -0.7740
  759MPD2    N111273   1.377   0.169   9.854  0.1906 -0.1145 -0.4834
  759MPD2    H711274   1.384   0.075   9.816  0.5364 -0.5595  0.6720
  760MPD2     C11275   0.276   1.744  12.106  0.4639 -0.1048  0.0245
  760MPD2    C111276   0.374   1.796  12.030  0.0457  0.2432  0.7803
  760MPD2    C211277   0.413   1.716  11.922 -0.3191  0.0563 -0.5130
  760MPD2    C311278   0.358   1.589  11.901 -0.4987 -0.1112  0.0307
  760MPD2    C411279   0.276   1.532  11.994 -0.1442  0.4555  0.5783
  760MPD2    C511280   0.234   1.616  12.094  0.3832 -0.5463 -0.4558
  760MPD2     H11281   0.489   1.760  11.859  0.9476 -1.7809 -0.2594
  760MPD2    H111282   0.255   1.426  11.986 -2.3345  1.0261 -1.1249
  760MPD2    H211283   0.239   1.792  12.195  0.2593 -0.7036  0.2634
  760MPD2    H311284   0.165   1.571  12.164  1.8374 -1.4021  0.4407
  760MPD2     N11285   0.410   1.492  11.809 -0.2671 -0.0777 -0.1915
  760MPD2    H511286   0.401   1.393  11.832 -1.9894 -0.2212 -1.4483
  760MPD2    N111287   0.425   1.921  12.051 -0.1321 -0.5408 -0.0738
  760MPD2    H711288   0.479   1.955  11.972 -0.3402  2.3098  1.0317
  761MPD2     C11289   1.765   0.872  11.266 -1.0092  0.9433 -0.5529
  761MPD2    C111290   1.851   0.868  11.158 -0.4362 -0.6288 -1.1143
  761MPD2    C211291   1.971   0.931  11.157  0.0008 -0.0069  0.5149
  761MPD2    C311292   1.997   1.025  11.255  0.4037 -0.7722  0.3239
  761MPD2    C411293   1.895   1.050  11.344  0.3317  0.5135 -0.2713
  761MPD2    C511294   1.781   0.976  11.354 -0.4135  0.0624  0.2910
  761MPD2     H11295   2.043   0.901  11.081  0.2678  0.5888  0.5359
  761MPD2    H111296   1.907   1.128  11.418  1.7972  0.5150 -0.5137
  761MPD2    H211297   1.677   0.808  11.272 -1.0556  1.0321 -0.2649
  761MPD2    H311298   1.708   0.999  11.430  0.5477 -0.2916  1.3189
  761MPD2     N11299   2.122   1.098  11.266  0.3803  0.7194 -0.4576
  761MPD2    H511300   2.140   1.179  11.324  0.4437 -0.9765  1.8834
  761MPD2    N111301   1.824   0.776  11.062  0.8215 -0.3956 -0.7447
  761MPD2    H711302   1.750   0.709  11.081  0.4002 -0.3276 -2.1367
  762MPD2     C11303   2.014   0.852  10.257  0.1536 -0.2667  0.1470
  762MPD2    C111304   2.085   0.767  10.341  0.0907 -0.3937 -0.3178
  762MPD2    C211305   2.215   0.740  10.306 -0.2737  1.1418 -0.0745
  762MPD2    C311306   2.263   0.765  10.180  0.6535  0.5133  0.3411
  762MPD2    C411307   2.180   0.826  10.091 -0.3470  0.7941 -0.3284
  762MPD2    C511308   2.063   0.877  10.130 -0.4258 -0.3108 -0.2681
  762MPD2     H11309   2.286   0.703  10.378  0.7434 -0.2784 -1.8351
  762MPD2    H111310   2.215   0.855   9.992 -3.0856 -0.9755 -1.8069
  762MPD2    H211311   1.914   0.890  10.277  1.3067  2.1142  1.4032
  762MPD2    H311312   1.999   0.935  10.065 -1.1165 -1.8379 -0.9332
  762MPD2     N11313   2.393   0.731  10.144  0.2226  0.3119 -0.7109
  762MPD2    H511314   2.456   0.708  10.220 -2.5158  0.7908  1.6948
  762MPD2    N111315   2.026   0.730  10.463 -0.3440 -0.5051 -0.6298
  762MPD2    H711316   1.939   0.766  10.500  1.4565  4.0262 -0.7186
  763MPD2     C11317   4.456   1.289  16.322 -0.0529  0.2336  0.2363
  763MPD2    C111318   4.328   1.340  16.325  0.0294  0.9542 -0.1044
  763MPD2    C211319   4.294   1.451  16.400 -0.0305  0.4634 -0.1336
  763MPD2    C311320   4.391   1.512  16.478 -0.7424 -0.4176 -0.1547
  763MPD2    C411321   4.514   1.463  16.481 -0.1955 -0.2382 -0.1792
  763MPD2    C511322   4.551   1.359  16.396  0.1581 -0.4488 -0.1316
  763MPD2     H11323   4.195   1.494  16.389  0.7351  2.0072 -1.0206
  763MPD2    H111324   4.590   1.526  16.524 -1.3424  0.2786  1.1000
  763MPD2    H211325   4.493   1.219  16.249 -0.9521  1.8827 -1.8131
  763MPD2    H311326   4.654   1.352  16.363  0.3837  1.2994  0.2182
  763MPD2     N11327   4.365   1.619  16.567 -0.8178  0.3786 -0.5880
  763MPD2    H511328   4.446   1.652  16.618 -1.1791  0.3121  0.0291
  763MPD2    N111329   4.220   1.290  16.248  0.0790  0.1228 -0.5801
  763MPD2    H711330   4.133   1.342  16.239 -1.1317 -1.8697 -0.6198
  764MPD2     C11331   2.311   2.905  17.296  0.7937  0.1437  0.6326
  764MPD2    C111332   2.181   2.866  17.313 -0.4801  0.4299 -0.6950
  764MPD2    C211333   2.141   2.801  17.426  0.0758  0.2591 -0.5850
  764MPD2    C311334   2.236   2.770  17.524  0.2990 -0.0342 -0.5107
  764MPD2    C411335   2.368   2.792  17.502  0.4739  0.2812  0.6897
  764MPD2    C511336   2.403   2.866  17.391 -0.4099 -0.2653 -0.1946
  764MPD2     H11337   2.035   2.791  17.448  0.0648  1.4509 -0.0698
  764MPD2    H111338   2.446   2.763  17.572  0.4363 -0.5085  0.4045
  764MPD2    H211339   2.338   2.952  17.203 -0.3096 -2.8445 -1.2180
  764MPD2    H311340   2.509   2.884  17.375 -0.7007  0.1547 -1.7290
  764MPD2     N11341   2.197   2.700  17.642 -0.4576 -0.4425 -0.4715
  764MPD2    H511342   2.097   2.682  17.643 -0.6628  0.7448  1.6746
  764MPD2    N111343   2.076   2.887  17.221  0.2638  0.1187  0.5284
  764MPD2    H711344   1.993   2.837  17.252 -1.1091  3.3087  2.1251
  765MPD2     C11345   1.602   0.457  15.939 -0.1132 -0.6120 -0.6611
  765MPD2    C111346   1.631   0.584  15.977 -0.0032 -0.4424  0.3001
  765MPD2    C211347   1.756   0.606  16.032 -0.1295 -0.2672  1.1849
  765MPD2    C311348   1.854   0.511  16.039 -0.7872 -0.0813  0.0432
  765MPD2    C411349   1.830   0.386  15.992  0.0539 -0.2042  0.0276
  765MPD2    C511350   1.695   0.355  15.963  0.4244 -0.0826 -0.1899
  765MPD2     H11351   1.786   0.702  16.073 -0.2198 -0.3709  1.4941
  765MPD2    H111352   1.900   0.303  15.995 -1.5217 -1.5705 -0.5327
  765MPD2    H211353   1.512   0.424  15.888 -0.3344  0.0746 -0.7120
  765MPD2    H311354   1.674   0.249  15.952 -1.6479  0.3709 -0.7055
  765MPD2     N11355   1.981   0.547  16.088 -0.6608 -1.1749 -0.0357
  765MPD2    H511356   1.997   0.641  16.124  1.2244 -0.3664 -2.9646
  765MPD2    N111357   1.542   0.692  15.942 -0.5695 -0.1756  0.3991
  765MPD2    H711358   1.479   0.668  15.866 -0.5821  0.4634  0.2065
  766MPD2     C11359   1.293   0.767  15.281 -0.1994  0.2140 -0.1670
  766MPD2    C111360   1.422   0.784  15.317 -0.3213  0.5493  0.3975
  766MPD2    C211361   1.520   0.781  15.225  0.0058  0.1599 -0.4635
  766MPD2    C311362   1.499   0.756  15.087  0.2653  0.2117  0.3797
  766MPD2    C411363   1.367   0.737  15.054 -0.3061  0.1839  0.7147
  766MPD2    C511364   1.270   0.741  15.149 -0.6262  0.4644 -0.0569
  766MPD2     H11365   1.623   0.786  15.258  0.2781 -2.7269 -0.9403
  766MPD2    H111366   1.338   0.722  14.951  3.0010 -0.7811 -0.0843
  766MPD2    H211367   1.212   0.786  15.350 -0.2524  0.1917 -0.2233
  766MPD2    H311368   1.166   0.732  15.120 -0.8138  1.0421  0.4419
  766MPD2     N11369   1.601   0.754  14.986  0.1561  0.0189  0.5034
  766MPD2    H511370   1.580   0.769  14.888 -2.3629 -1.1956  0.8575
  766MPD2    N111371   1.452   0.825  15.440  0.0051 -0.0225 -0.4580
  766MPD2    H711372   1.553   0.837  15.451 -0.4389  1.6532  1.9084
  767MPD2     C11373   1.327   0.967  14.801 -0.3385 -0.4730  0.2584
  767MPD2    C111374   1.462   1.005  14.784 -0.4013 -0.4549  0.1039
  767MPD2    C211375   1.512   1.005  14.656 -0.1491 -0.2495  0.4003
  767MPD2    C311376   1.427   0.986  14.545  0.0976  0.2147 -0.1993
  767MPD2    C411377   1.293   0.959  14.562 -0.5416  0.5282  0.3445
  767MPD2    C511378   1.252   0.948  14.693 -0.4622  0.1323 -0.0264
  767MPD2     H11379   1.618   1.027  14.647  0.0266 -0.9682  0.7299
  767MPD2    H111380   1.226   0.938  14.480  0.9125 -0.2850 -0.6425
  767MPD2    H211381   1.281   0.958  14.898  0.7999 -0.0105  0.8426
  767MPD2    H311382   1.148   0.922  14.706 -0.4211  0.7249  1.5136
  767MPD2     N11383   1.491   0.980  14.417  0.6987  0.2269  0.0121
  767MPD2    H511384   1.590   0.959  14.423  0.5373 -0.2392  1.0371
  767MPD2    N111385   1.534   1.037  14.903  0.6382 -0.1720 -0.9777
  767MPD2    H711386   1.491   1.030  14.994  2.5516 -0.3037 -0.0776
  768MPD2     C11387   2.276   4.170  10.244 -0.1402 -0.9218 -0.4832
  768MPD2    C111388   2.238   4.113  10.360  1.0816  0.2217  0.4081
  768MPD2    C211389   2.331   4.067  10.452 -0.2375 -0.3905 -0.3221
  768MPD2    C311390   2.466   4.094  10.441  0.7573  0.1790 -0.4467
  768MPD2    C411391   2.502   4.157  10.326 -0.2642 -0.2496 -0.5098
  768MPD2    C511392   2.412   4.199  10.229 -0.3635  0.0901 -0.0172
  768MPD2     H11393   2.291   4.017  10.539  0.6348 -0.5362 -0.0063
  768MPD2    H111394   2.605   4.190  10.316 -0.1134 -0.5464  0.0900
  768MPD2    H211395   2.208   4.217  10.173  0.9070 -1.4640 -1.8369
  768MPD2    H311396   2.443   4.267  10.150  0.1488 -0.2625 -0.1188
  768MPD2     N11397   2.565   4.051  10.543 -0.2023  0.0262  0.2298
  768MPD2    H511398   2.661   4.072  10.517 -0.3172  0.7967  0.4388
  768MPD2    N111399   2.102   4.100  10.386  0.1907  0.0338 -0.2195
  768MPD2    H711400   2.081   4.040  10.465 -1.3494  0.7261 -0.1059
  769MPD2     C11401   3.168   2.606  15.001 -0.1216  0.2295 -0.4354
  769MPD2    C111402   3.130   2.533  15.111 -0.1930  0.4969  0.0121
  769MPD2    C211403   3.224   2.513  15.216 -0.2634 -0.3016 -0.2039
  769MPD2    C311404   3.353   2.566  15.215  0.7097  0.1943  0.6184
  769MPD2    C411405   3.386   2.635  15.103  0.3885 -0.3941  1.3498
  769MPD2    C511406   3.291   2.658  15.008 -0.6829  0.3036  0.4347
  769MPD2     H11407   3.190   2.454  15.300 -0.8453  0.4661  0.0925
  769MPD2    H111408   3.482   2.680  15.078  0.6623 -1.4437  0.4838
  769MPD2    H211409   3.106   2.629  14.914 -0.7566  2.2139  0.5408
  769MPD2    H311410   3.311   2.721  14.922 -1.1088 -0.8693 -0.5230
  769MPD2     N11411   3.424   2.558  15.336  1.1730  0.3387  0.2361
  769MPD2    H511412   3.366   2.530  15.414  0.4576 -2.7262 -1.4061
  769MPD2    N111413   2.990   2.488  15.112 -0.9357  0.5066 -0.2473
  769MPD2    H711414   2.934   2.512  15.031 -0.8314 -0.9680 -0.7582
  770MPD2     C11415   2.621   1.546  15.436  0.2915 -0.1799 -0.8795
  770MPD2    C111416   2.654   1.579  15.302 -0.0736  0.3184  0.2143
  770MPD2    C211417   2.645   1.704  15.250 -0.2969  0.1661 -0.4489
  770MPD2    C311418   2.614   1.809  15.337  0.4165  0.8872  0.1742
  770MPD2    C411419   2.587   1.779  15.468  0.3096  0.1536 -0.9355
  770MPD2    C511420   2.592   1.651  15.515  0.1115  0.3951 -0.5780
  770MPD2     H11421   2.672   1.720  15.147 -3.3548  0.6922 -1.1739
  770MPD2    H111422   2.564   1.854  15.543 -2.4258  0.2731 -1.8891
  770MPD2    H211423   2.625   1.443  15.471  0.8845  0.7274  1.7200
  770MPD2    H311424   2.579   1.634  15.621  1.3651  0.7369 -0.3665
  770MPD2     N11425   2.607   1.938  15.271  0.5037  0.0380  0.0944
  770MPD2    H511426   2.603   1.936  15.169  1.6567 -0.6856  0.0636
  770MPD2    N111427   2.684   1.468  15.216  0.1186  0.1917 -0.0843
  770MPD2    H711428   2.694   1.376  15.260 -0.8256  0.6688  1.1366
  771MPD2     C11429   4.148   0.364  13.210  0.5138 -0.7119 -0.6446
  771MPD2    C111430   4.057   0.449  13.261  0.5095  1.2240  0.2519
  771MPD2    C211431   3.934   0.409  13.291 -0.4829  0.4123 -0.0263
  771MPD2    C311432   3.903   0.275  13.269 -0.4096  0.4406  0.4101
  771MPD2    C411433   3.999   0.182  13.236  0.3142 -0.2477 -0.3245
  771MPD2    C511434   4.125   0.221  13.201 -0.0106 -0.2852  0.1227
  771MPD2     H11435   3.851   0.476  13.313 -0.4685  0.2262  0.5994
  771MPD2    H111436   3.967   0.080  13.215 -1.0552 -0.1731  1.4556
  771MPD2    H211437   4.239   0.403  13.166  2.0471 -0.3764  2.7914
  771MPD2    H311438   4.191   0.152  13.149  1.1362 -0.5099  1.8429
  771MPD2     N11439   3.769   0.244  13.289 -0.1073 -0.0537 -0.7196
  771MPD2    H511440   3.708   0.323  13.306  0.1959  0.6627 -2.9659
  771MPD2    N111441   4.079   0.587  13.275  0.4644 -0.4149 -0.9425
  771MPD2    H711442   4.009   0.636  13.329  0.1014  0.9913 -2.6811
  772MPD2     C11443   3.770   1.035  13.670  0.6636 -0.1245 -0.1666
  772MPD2    C111444   3.765   0.957  13.561  0.0721  0.0378  0.5017
  772MPD2    C211445   3.648   0.906  13.519  0.1690 -0.4434 -0.9565
  772MPD2    C311446   3.531   0.922  13.597  0.1288  0.2475  0.1034
  772MPD2    C411447   3.541   1.001  13.712  0.0688  0.2300  0.0385
  772MPD2    C511448   3.660   1.065  13.746 -0.2405 -0.0083 -0.7029
  772MPD2     H11449   3.639   0.870  13.417 -0.8343  2.2893 -1.8304
  772MPD2    H111450   3.451   1.011  13.770  0.0942 -3.1725  0.6737
  772MPD2    H211451   3.867   1.069  13.705  0.5555  0.1052 -0.0932
  772MPD2    H311452   3.667   1.127  13.834 -2.2163 -1.1258  0.2459
  772MPD2     N11453   3.402   0.875  13.563  0.0199  0.0261  0.5085
  772MPD2    H511454   3.326   0.891  13.629 -0.3117  0.7854 -0.0622
  772MPD2    N111455   3.879   0.942  13.471  0.2447 -0.2524  0.6452
  772MPD2    H711456   3.862   0.877  13.395 -0.6442  0.2902  0.3746
  773MPD2     C11457   3.108   1.419  17.518  0.3929 -0.6786  0.5137
  773MPD2    C111458   3.016   1.317  17.491 -0.3238  0.4454  0.1231
  773MPD2    C211459   3.037   1.194  17.531 -0.0418 -0.5976 -0.1547
  773MPD2    C311460   3.149   1.168  17.600 -0.1057 -0.1696  0.1780
  773MPD2    C411461   3.240   1.264  17.632  0.0757 -0.2858 -0.0557
  773MPD2    C511462   3.217   1.394  17.600 -0.4968  0.1235 -0.4863
  773MPD2     H11463   2.959   1.120  17.518 -0.7497  0.1346 -0.1053
  773MPD2    H111464   3.320   1.244  17.702 -0.3461  0.4880  0.6406
  773MPD2    H211465   3.097   1.520  17.481 -0.2422 -1.1852 -0.6645
  773MPD2    H311466   3.286   1.473  17.625 -0.8569 -0.2285  1.5784
  773MPD2     N11467   3.172   1.031  17.623  0.0350 -0.3634 -0.3557
  773MPD2    H511468   3.100   0.969  17.588 -2.4265  0.3485  3.3761
  773MPD2    N111469   2.903   1.352  17.413 -0.1159  0.4693  0.7096
  773MPD2    H711470   2.852   1.276  17.369 -0.1085  0.8596  0.0280
  774MPD2     C11471   2.008   0.603  12.921 -0.2128 -0.3610 -0.5224
  774MPD2    C111472   2.091   0.601  13.026  0.4347  0.6635 -0.8974
  774MPD2    C211473   2.188   0.698  13.049 -0.1186 -0.2759  0.3918
  774MPD2    C311474   2.194   0.806  12.966 -0.1340 -0.0354 -0.2541
  774MPD2    C411475   2.112   0.808  12.855 -0.7197 -0.7355 -0.6794
  774MPD2    C511476   2.014   0.707  12.837 -0.1512 -0.1073  0.3972
  774MPD2     H11477   2.256   0.689  13.134  1.0210 -1.0669 -0.5980
  774MPD2    H111478   2.094   0.894  12.793 -1.5775  0.2752  0.9824
  774MPD2    H211479   1.926   0.532  12.914 -0.9996  0.6695 -1.7718
  774MPD2    H311480   1.942   0.719  12.758 -0.6202  0.0870  0.8586
  774MPD2     N11481   2.271   0.915  13.001 -0.0527  0.8008  0.0900
  774MPD2    H511482   2.323   0.919  13.089 -0.9554  0.8447  0.6211
  774MPD2    N111483   2.099   0.489  13.115  0.0146  0.1799 -0.3822
  774MPD2    H711484   2.186   0.478  13.166  0.1650  0.0012 -0.6742
  775MPD2     C11485   3.943   2.077  15.818 -0.0798  0.1195 -0.3142
  775MPD2    C111486   3.936   2.199  15.886  0.0296 -0.1224  0.6215
  775MPD2    C211487   3.941   2.317  15.804  0.4890  0.4462 -0.2028
  775MPD2    C311488   3.927   2.305  15.667  0.0952 -0.4938 -0.4063
  775MPD2    C411489   3.931   2.185  15.611 -0.3761  0.5706 -0.1865
  775MPD2    C511490   3.940   2.073  15.687  0.4879  0.0011 -0.0487
  775MPD2     H11491   3.925   2.412  15.852 -0.9997 -0.4934  1.1575
  775MPD2    H111492   3.932   2.169  15.503 -1.0534  5.1380 -0.8851
  775MPD2    H211493   3.935   1.981  15.866 -1.7522 -0.2664 -1.3706
  775MPD2    H311494   3.934   1.978  15.635  0.4556 -0.5275  0.9251
  775MPD2     N11495   3.940   2.410  15.579  0.5133 -0.3379  0.8872
  775MPD2    H511496   3.930   2.395  15.479 -0.7118 -0.6814  1.0626
  775MPD2    N111497   3.907   2.196  16.024  0.3579 -0.2653  0.4129
  775MPD2    H711498   3.910   2.108  16.074 -0.7217 -0.0384  0.8691
  776MPD2     C11499   1.729   2.514  11.846  0.0353 -0.2005  0.4789
  776MPD2    C111500   1.838   2.475  11.776 -0.4123 -0.2277  0.6488
  776MPD2    C211501   1.894   2.577  11.702  0.3341  0.2800 -0.0560
  776MPD2    C311502   1.848   2.708  11.700 -0.4802  0.0084  0.0999
  776MPD2    C411503   1.737   2.741  11.776  0.0753 -0.2846 -0.4170
  776MPD2    C511504   1.680   2.640  11.846 -0.1137  0.9925  0.3844
  776MPD2     H11505   1.965   2.556  11.623 -0.2826  2.0597 -1.0845
  776MPD2    H111506   1.695   2.841  11.773  0.4986 -0.1025 -0.1502
  776MPD2    H211507   1.686   2.436  11.908  0.4380 -2.3793 -1.9681
  776MPD2    H311508   1.597   2.665  11.912  0.1244 -0.3475  1.1729
  776MPD2     N11509   1.902   2.807  11.622 -0.1521  0.1137 -0.2306
  776MPD2    H511510   1.864   2.900  11.633 -0.8618 -0.4485  1.9166
  776MPD2    N111511   1.886   2.342  11.772 -0.2772  0.1630  0.0905
  776MPD2    H711512   1.833   2.269  11.818 -0.8360 -0.3075 -1.3217
  777MPD2     C11513   3.413   4.617   0.587  0.3930 -0.4418 -0.0691
  777MPD2    C111514   3.328   4.573   0.682  0.3694  0.7927 -0.3554
  777MPD2    C211515   3.217   4.492   0.657 -0.6153  0.0531 -0.5232
  777MPD2    C311516   3.194   4.463   0.519 -0.3706  0.2658 -0.8593
  777MPD2    C411517   3.277   4.524   0.420 -0.4181 -0.3264  0.2064
  777MPD2    C511518   3.387   4.596   0.452  0.3854 -0.3021  0.7834
  777MPD2     H11519   3.164   4.433   0.730 -2.9084  0.7623 -1.6278
  777MPD2    H111520   3.265   4.497   0.315 -2.7397 -3.4350  1.2427
  777MPD2    H211521   3.506   4.666   0.613 -0.0439  0.7707 -0.8382
  777MPD2    H311522   3.441   4.634   0.366  1.1339 -0.2345  1.2916
  777MPD2     N11523   3.078   4.381   0.478 -0.6441  0.5636  0.0782
  777MPD2    H511524   3.015   4.357   0.554  3.6979  0.1128  3.5389
  777MPD2    N111525   3.368   4.603   0.819  0.2965 -0.0652 -0.0012
  777MPD2    H711526   3.457   4.650   0.829  0.2076 -0.0337  0.6314
  778MPD2     C11527   3.985   0.538  14.669  0.0664  0.1806 -0.2367
  778MPD2    C111528   4.068   0.431  14.647 -0.2451  0.0092 -0.4320
  778MPD2    C211529   4.167   0.439  14.556 -0.5868 -0.0055 -0.9494
  778MPD2    C311530   4.191   0.552  14.476 -0.4096  0.0055 -0.0526
  778MPD2    C411531   4.116   0.663  14.507  0.1224 -0.2435 -0.4286
  778MPD2    C511532   4.013   0.659  14.595  0.1506  0.5047  0.4574
  778MPD2     H11533   4.225   0.349  14.540  0.7340  0.8396 -0.9577
  778MPD2    H111534   4.135   0.757  14.457  2.5323 -0.3096  0.3904
  778MPD2    H211535   3.895   0.535  14.730 -0.1745 -0.4486 -0.6260
  778MPD2    H311536   3.947   0.744  14.604 -0.1259  0.2262  1.1040
  778MPD2     N11537   4.298   0.552  14.379  0.3275  0.4495 -0.3955
  778MPD2    H511538   4.358   0.470  14.379 -2.6204 -1.7450  1.9534
  778MPD2    N111539   4.039   0.298  14.709 -0.5891 -0.3614 -0.5983
  778MPD2    H711540   4.104   0.225  14.682 -2.1067 -1.7471 -0.4797
  779MPD2     C11541   3.726   3.676  13.495  0.7879 -0.3458  0.7136
  779MPD2    C111542   3.763   3.708  13.621 -1.0285  0.3811 -0.4780
  779MPD2    C211543   3.813   3.840  13.652 -1.0065 -0.9721  0.4321
  779MPD2    C311544   3.810   3.935  13.552 -0.2828  0.2775  0.1578
  779MPD2    C411545   3.789   3.898  13.422  0.3265  0.6943 -1.1586
  779MPD2    C511546   3.744   3.771  13.397 -0.1627 -0.3436 -0.1716
  779MPD2     H11547   3.829   3.871  13.754 -1.3226  0.4312  0.0623
  779MPD2    H111548   3.804   3.955  13.331  0.9298 -0.7955 -1.9905
  779MPD2    H211549   3.680   3.582  13.469  0.5186  0.1605 -0.6159
  779MPD2    H311550   3.708   3.753  13.296  1.9513 -0.1094 -0.9618
  779MPD2     N11551   3.842   4.069  13.590  0.4652  0.5160 -0.0342
  779MPD2    H511552   3.860   4.090  13.688 -2.4808  1.2038  0.3573
  779MPD2    N111553   3.750   3.609  13.722  0.0358  0.1900 -0.1846
  779MPD2    H711554   3.700   3.525  13.697 -0.1743  1.1215 -2.9503
  780MPD2     C11555   3.483   3.694   1.014 -0.3264 -0.0252  0.3088
  780MPD2    C111556   3.548   3.598   0.938  0.1217 -0.1300 -1.1199
  780MPD2    C211557   3.563   3.622   0.805 -0.2129 -0.2502 -0.1054
  780MPD2    C311558   3.512   3.742   0.746  0.3021 -0.8879  0.2808
  780MPD2    C411559   3.442   3.833   0.824 -0.9938  0.0607 -0.1710
  780MPD2    C511560   3.430   3.805   0.958 -1.0652  0.5557  0.0158
  780MPD2     H11561   3.617   3.556   0.738 -0.3643 -3.4531  2.9434
  780MPD2    H111562   3.397   3.929   0.799 -1.5880 -0.6584 -1.9169
  780MPD2    H211563   3.467   3.680   1.121 -0.6731 -1.4138  0.0731
  780MPD2    H311564   3.369   3.866   1.023 -0.7403  0.0111  0.8250
  780MPD2     N11565   3.526   3.754   0.608  0.1878  0.3511  0.9019
  780MPD2    H511566   3.555   3.673   0.555 -0.2312  0.0392  1.1442
  780MPD2    N111567   3.589   3.483   1.005  0.1036  0.3280  0.0688
  780MPD2    H711568   3.554   3.470   1.100 -1.5495  0.8116 -0.4687
  781MPD2     C11569   0.226   1.140  11.628  0.1440  0.5283 -0.1602
  781MPD2    C111570   0.301   1.038  11.672  0.0075  0.3418 -0.1637
  781MPD2    C211571   0.402   0.983  11.593 -0.3271 -0.4130 -0.2746
  781MPD2    C311572   0.433   1.036  11.465  0.1653  0.1920  0.2682
  781MPD2    C411573   0.346   1.135  11.418 -0.0742 -0.0613 -0.2821
  781MPD2    C511574   0.256   1.192  11.504  0.1870 -0.0950 -0.2303
  781MPD2     H11575   0.449   0.892  11.627 -1.5921 -0.1288  2.2245
  781MPD2    H111576   0.354   1.180  11.320  0.9206  1.1113  0.3258
  781MPD2    H211577   0.139   1.173  11.683  0.9710 -0.9941  2.0757
  781MPD2    H311578   0.183   1.266  11.472 -0.9826 -0.3307  1.9091
  781MPD2     N11579   0.531   0.984  11.386 -0.5244  0.0679 -0.5991
  781MPD2    H511580   0.547   1.023  11.294 -0.7076  1.1040 -0.1854
  781MPD2    N111581   0.280   0.993  11.802  0.2053 -0.1359 -0.2109
  781MPD2    H711582   0.327   0.911  11.838 -0.3824 -0.8461 -1.0640
  782MPD2     C11583   2.460   1.678  10.130 -0.1212 -1.1028  0.3960
  782MPD2    C111584   2.594   1.665  10.091 -0.8212 -0.5213  0.4294
  782MPD2    C211585   2.673   1.781  10.099  0.2522  0.7287 -0.2286
  782MPD2    C311586   2.625   1.900  10.158 -0.7378  0.0693 -0.2344
  782MPD2    C411587   2.491   1.913  10.195  0.5763  0.4208  0.4770
  782MPD2    C511588   2.413   1.798  10.179  0.0795 -0.1754  0.1284
  782MPD2     H11589   2.778   1.774  10.072  0.7867 -0.3758  2.0828
  782MPD2    H111590   2.441   2.003  10.228  1.2732  0.2889  1.8899
  782MPD2    H211591   2.389   1.597  10.124 -1.2791 -0.1701  1.3403
  782MPD2    H311592   2.307   1.807  10.199  0.4684 -0.7570  2.4178
  782MPD2     N11593   2.718   2.010  10.178 -0.0098  0.2029 -0.3036
  782MPD2    H511594   2.808   2.002  10.133 -0.6354  2.7783 -2.0228
  782MPD2    N111595   2.650   1.536  10.056 -0.7227 -0.5221  0.0230
  782MPD2    H711596   2.605   1.449  10.082 -3.3687  0.3168 -1.7244
  783MPD2     C11597   2.285   1.109  10.543 -0.3190 -0.4676  0.3649
  783MPD2    C111598   2.396   1.167  10.610  0.0782 -1.1304 -0.4890
  783MPD2    C211599   2.512   1.200  10.538 -0.2706  0.0217  0.3008
  783MPD2    C311600   2.531   1.152  10.408 -0.5264 -0.0082  0.3663
  783MPD2    C411601   2.421   1.085  10.347 -0.3150  0.0152 -0.0361
  783MPD2    C511602   2.299   1.072  10.410  0.1114  0.1680  0.0923
  783MPD2     H11603   2.585   1.268  10.580  0.5972 -0.4225 -0.4954
  783MPD2    H111604   2.421   1.038  10.249 -0.5928  1.3842 -0.6815
  783MPD2    H211605   2.192   1.094  10.595  0.0400 -0.4640  1.0047
  783MPD2    H311606   2.217   1.024  10.358  0.5170  0.5726 -0.9061
  783MPD2     N11607   2.651   1.179  10.343  0.1146 -0.4026  0.2136
  783MPD2    H511608   2.721   1.235  10.391 -1.8338 -0.5460  3.2407
  783MPD2    N111609   2.371   1.197  10.755  0.4223 -0.1462 -0.7337
  783MPD2    H711610   2.283   1.174  10.799  1.5157 -0.4954  1.2509
  784MPD2     C11611   1.473   2.006   0.760  0.1708  0.4568 -0.9765
  784MPD2    C111612   1.407   2.104   0.688 -1.2318 -0.3487  0.3111
  784MPD2    C211613   1.285   2.084   0.648 -0.0305 -0.1076  0.2275
  784MPD2    C311614   1.222   1.964   0.669 -0.0015  0.1116 -0.0081
  784MPD2    C411615   1.295   1.865   0.731  0.1142  0.0749 -0.1381
  784MPD2    C511616   1.413   1.885   0.787  0.1258  0.6169  0.6497
  784MPD2     H11617   1.235   2.165   0.595 -0.6432 -0.6638 -0.0472
  784MPD2    H111618   1.252   1.766   0.744  0.9908 -0.5045 -1.6856
  784MPD2    H211619   1.563   2.020   0.820 -1.2734  2.3437  0.7555
  784MPD2    H311620   1.467   1.814   0.847  0.1448  0.8452  0.9010
  784MPD2     N11621   1.088   1.944   0.617  0.1409  0.0021 -0.2459
  784MPD2    H511622   1.043   2.027   0.580 -1.4236  0.3431  2.4300
  784MPD2    N111623   1.469   2.224   0.661  0.4022 -0.2432  0.2675
  784MPD2    H711624   1.400   2.293   0.633  0.2355 -1.6136 -2.7626
  785MPD2     C11625   1.011   0.362  10.791 -0.0823 -0.2791 -0.8023
  785MPD2    C111626   0.930   0.468  10.765 -0.5652  0.3385  0.0853
  785MPD2    C211627   0.791   0.454  10.793 -0.2587 -0.3241  0.1465
  785MPD2    C311628   0.741   0.339  10.833  0.2283 -0.0201 -0.1959
  785MPD2    C411629   0.818   0.227  10.843 -0.9606 -0.7113  0.0897
  785MPD2    C511630   0.955   0.243  10.830  0.3138 -0.0381 -0.1739
  785MPD2     H11631   0.717   0.528  10.763 -0.4729  0.4928  2.7616
  785MPD2    H111632   0.793   0.124  10.863 -1.2338 -0.5248  0.7238
  785MPD2    H211633   1.118   0.369  10.776 -0.0639 -0.7490 -0.8813
  785MPD2    H311634   1.015   0.155  10.850 -0.6983 -0.8133 -0.5844
  785MPD2     N11635   0.601   0.330  10.836 -0.8251  0.5423  0.7844
  785MPD2    H511636   0.551   0.416  10.816  1.1429  0.8853 -2.5273
  785MPD2    N111637   0.971   0.592  10.712 -0.2679 -0.2751  1.1019
  785MPD2    H711638   0.892   0.653  10.693  1.1266  1.5469  1.0950
  786MPD2     C11639   4.225   3.071  14.851  0.0422 -0.3038  0.2380
  786MPD2    C111640   4.339   3.084  14.777  0.5300 -0.3015 -0.5492
  786MPD2    C211641   4.444   3.160  14.831  0.5547 -0.1325  0.2423
  786MPD2    C311642   4.437   3.216  14.959  0.1935 -0.7407 -0.1230
  786MPD2    C411643   4.321   3.206  15.032 -0.5791 -1.0835 -0.0813
  786MPD2    C511644   4.227   3.122  14.973 -0.0103 -0.9227 -0.6572
  786MPD2     H11645   4.542   3.152  14.786 -0.1231 -2.3693 -0.8409
  786MPD2    H111646   4.305   3.238  15.135  0.2685  1.5876 -0.7899
  786MPD2    H211647   4.150   3.002  14.813 -0.6925  1.5724 -1.7152
  786MPD2    H311648   4.140   3.099  15.032 -2.7311  1.7363 -3.6545
  786MPD2     N11649   4.552   3.286  15.012 -0.0706  0.7030  0.3624
  786MPD2    H511650   4.536   3.311  15.109 -0.1483  2.7557 -0.1887
  786MPD2    N111651   4.359   3.011  14.656  0.3791 -0.0741  0.0069
  786MPD2    H711652   4.447   3.017  14.606 -1.0678 -1.0198 -2.6441
  787MPD2     C11653   4.553   2.517  14.994 -0.2865 -0.3295 -0.1040
  787MPD2    C111654   4.556   2.468  14.866 -0.0941  0.1808 -0.1953
  787MPD2    C211655   4.611   2.339  14.843  0.4002  0.2817 -0.3794
  787MPD2    C311656   4.658   2.260  14.949  0.2668  0.1104 -0.3852
  787MPD2    C411657   4.650   2.308  15.073 -0.0643 -0.6483 -0.1429
  787MPD2    C511658   4.588   2.428  15.097  0.4953 -0.8262 -0.7048
  787MPD2     H11659   4.624   2.303  14.742  1.8029  1.1412 -0.5050
  787MPD2    H111660   4.693   2.256  15.158 -1.1806 -0.3964  0.5812
  787MPD2    H211661   4.526   2.621  15.010 -0.0599 -0.0258 -1.7060
  787MPD2    H311662   4.584   2.461  15.200 -0.8718 -0.4456 -0.8836
  787MPD2     N11663   4.705   2.130  14.919 -0.0950 -0.2208 -0.3624
  787MPD2    H511664   4.715   2.104  14.822 -1.4513  2.7570 -1.3015
  787MPD2    N111665   4.503   2.554  14.763 -0.9702  0.4243  0.1112
  787MPD2    H711666   4.457   2.639  14.796 -0.5916 -0.5312  3.0437
  788MPD2     C11667   2.044   1.636   1.046 -1.4909 -0.3564 -0.3880
  788MPD2    C111668   1.965   1.554   0.967  0.1416  1.1610  0.5120
  788MPD2    C211669   1.889   1.614   0.867  0.3200  0.3988  0.3131
  788MPD2    C311670   1.886   1.752   0.857 -0.0593  0.0299  0.3392
  788MPD2    C411671   1.948   1.833   0.950  0.1596  0.6417 -0.6475
  788MPD2    C511672   2.039   1.773   1.033  0.2096 -0.7658 -0.4177
  788MPD2     H11673   1.841   1.553   0.792  0.1652  0.0953  0.6583
  788MPD2    H111674   1.927   1.939   0.955 -0.1714  0.4955  1.1945
  788MPD2    H211675   2.110   1.593   1.119 -1.1612  0.2106 -0.3528
  788MPD2    H311676   2.086   1.836   1.108 -0.7748 -0.9795  0.3773
  788MPD2     N11677   1.814   1.823   0.761  0.2487 -0.5365  0.1343
  788MPD2    H511678   1.830   1.923   0.753 -1.5360 -0.2088  0.6798
  788MPD2    N111679   1.987   1.414   0.980  0.2121  0.1925  0.0068
  788MPD2    H711680   2.063   1.384   1.041  0.1370 -2.1870 -1.0433
  789MPD2     C11681   1.978   0.888  16.955 -1.0710  0.2473  0.0794
  789MPD2    C111682   1.880   0.871  16.858 -0.7235  0.3871  0.8922
  789MPD2    C211683   1.805   0.976  16.814 -0.7132 -0.3069 -0.5097
  789MPD2    C311684   1.819   1.101  16.863  0.0276 -0.0402  0.2172
  789MPD2    C411685   1.912   1.120  16.959 -0.2557 -0.2263  0.1041
  789MPD2    C511686   1.992   1.017  17.006 -0.5439 -0.0852  0.3876
  789MPD2     H11687   1.736   0.960  16.733 -1.2860  0.1439 -0.1171
  789MPD2    H111688   1.923   1.219  17.001 -0.7052 -0.0206 -0.2607
  789MPD2    H211689   2.039   0.806  16.992 -1.5257  0.4050  1.1783
  789MPD2    H311690   2.064   1.042  17.083 -0.0466 -1.8952  0.5040
  789MPD2     N11691   1.737   1.209  16.825  0.1757 -0.3965  0.3880
  789MPD2    H511692   1.731   1.288  16.889  0.9355  1.1535 -1.4478
  789MPD2    N111693   1.836   0.742  16.811  0.3295  0.4202 -0.4470
  789MPD2    H711694   1.756   0.738  16.748 -1.1971 -0.0743  1.5399
  790MPD2     C11695   2.503   2.691  13.556 -0.5451  0.2644 -0.1840
  790MPD2    C111696   2.592   2.591  13.549 -0.2771 -0.3667  0.5877
  790MPD2    C211697   2.631   2.549  13.426 -0.1576 -0.4410  0.8234
  790MPD2    C311698   2.581   2.599  13.306 -0.0534  0.0785  0.0866
  790MPD2    C411699   2.496   2.710  13.316 -0.4076  0.0937 -0.1964
  790MPD2    C511700   2.453   2.744  13.434 -0.2577 -0.2124  0.1412
  790MPD2     H11701   2.702   2.467  13.421  0.7444  0.5123 -2.2394
  790MPD2    H111702   2.454   2.756  13.228 -2.3318  1.0273  1.2308
  790MPD2    H211703   2.462   2.733  13.648 -0.2468 -1.6993  0.8358
  790MPD2    H311704   2.386   2.830  13.435  0.0241  0.0081 -0.0138
  790MPD2     N11705   2.630   2.545  13.182 -0.0641  0.1597  0.4725
  790MPD2    H511706   2.674   2.453  13.186 -3.3265 -1.3712  1.1929
  790MPD2    N111707   2.646   2.553  13.673 -0.1563 -0.0726 -0.1282
  790MPD2    H711708   2.603   2.581  13.760 -0.4682  1.6568 -0.8559
  791MPD2     C11709   2.266   2.418  12.539  0.7081  0.5266 -0.4043
  791MPD2    C111710   2.295   2.338  12.647 -0.1832 -1.6092  0.1083
  791MPD2    C211711   2.194   2.253  12.695 -0.4586  0.3558 -0.3035
  791MPD2    C311712   2.068   2.248  12.642  0.5796  0.8756  0.0952
  791MPD2    C411713   2.042   2.337  12.543  0.7897  0.2911 -0.2444
  791MPD2    C511714   2.134   2.426  12.493  0.0697  0.0653  0.1603
  791MPD2     H11715   2.208   2.172  12.765  0.5003 -0.7498 -1.7707
  791MPD2    H111716   1.945   2.350  12.497  0.3720 -0.5017  0.4156
  791MPD2    H211717   2.343   2.482  12.498  2.8004 -2.1012 -0.5812
  791MPD2    H311718   2.107   2.492  12.411  0.4586 -0.6287 -0.5248
  791MPD2     N11719   1.970   2.167  12.703  0.9014  0.2059 -0.6991
  791MPD2    H511720   1.995   2.107  12.781 -0.5513  1.8046  0.9936
  791MPD2    N111721   2.427   2.344  12.698 -0.3094  0.0430 -0.2637
  791MPD2    H711722   2.499   2.406  12.661 -0.9012  1.5908  1.1912
  792MPD2     C11723   2.628   2.777  11.473  0.2248  0.2564  0.1358
  792MPD2    C111724   2.606   2.763  11.336  0.0116  0.4687 -0.6564
  792MPD2    C211725   2.495   2.699  11.286  0.9985  0.1172 -0.0718
  792MPD2    C311726   2.400   2.654  11.374  0.3455 -0.8005 -0.0766
  792MPD2    C411727   2.413   2.684  11.508  0.5163 -0.2431 -0.0860
  792MPD2    C511728   2.524   2.750  11.551  0.9086 -0.0052 -0.1144
  792MPD2     H11729   2.487   2.688  11.179  1.0797 -0.4052 -0.0249
  792MPD2    H111730   2.351   2.642  11.587 -0.7946  1.5192 -0.1717
  792MPD2    H211731   2.711   2.815  11.531 -0.9840 -0.2396  2.1804
  792MPD2    H311732   2.528   2.754  11.660 -1.0751 -1.1396  0.0126
  792MPD2     N11733   2.282   2.589  11.332 -0.2028  0.0755 -0.1946
  792MPD2    H511734   2.210   2.567  11.401 -0.2616  0.7720 -0.0351
  792MPD2    N111735   2.709   2.811  11.250  0.4517 -0.2849 -0.2573
  792MPD2    H711736   2.778   2.865  11.300  0.5470 -0.7899  0.1544
  793MPD2     C11737   1.920   2.314  10.400 -0.9432  0.7411  0.2829
  793MPD2    C111738   2.049   2.287  10.449  0.3670  0.3759  0.6134
  793MPD2    C211739   2.074   2.308  10.579  0.1232  0.1177 -0.8487
  793MPD2    C311740   1.982   2.349  10.667 -0.3019  0.3140 -0.2401
  793MPD2    C411741   1.854   2.387  10.619  0.5764 -0.7755  0.1992
  793MPD2    C511742   1.825   2.369  10.486  0.7513 -0.3298  0.0372
  793MPD2     H11743   2.173   2.300  10.622 -0.3781 -0.5036  0.1826
  793MPD2    H111744   1.775   2.432  10.678  1.9285  2.3009 -0.3336
  793MPD2    H211745   1.895   2.303  10.295 -0.7406  1.1994  0.1884
  793MPD2    H311746   1.725   2.392  10.451  0.5762 -1.0098  0.0937
  793MPD2     N11747   2.014   2.374  10.806  0.1052  0.3546  0.3972
  793MPD2    H511748   2.109   2.366  10.839  0.9274  3.7028 -1.1752
  793MPD2    N111749   2.155   2.245  10.363 -0.2084 -0.0515 -0.0158
  793MPD2    H711750   2.248   2.240  10.404 -0.0371  1.0919 -0.2597
  794MPD2     C11751   2.465   2.013  17.144  0.1700 -0.0598  0.3113
  794MPD2    C111752   2.455   1.909  17.056  0.0783  0.1053  0.0035
  794MPD2    C211753   2.411   1.928  16.929  0.8343 -0.0138  0.3424
  794MPD2    C311754   2.388   2.053  16.882 -0.1222  0.0064 -0.2352
  794MPD2    C411755   2.405   2.156  16.968 -0.1333  0.5051 -0.1816
  794MPD2    C511756   2.442   2.143  17.098 -0.3220  0.5124 -0.0102
  794MPD2     H11757   2.402   1.844  16.862 -0.5634 -1.3468  2.1834
  794MPD2    H111758   2.386   2.253  16.924  2.1720  0.4077 -1.4306
  794MPD2    H211759   2.486   2.003  17.250  2.4799  2.0343  0.0548
  794MPD2    H311760   2.441   2.223  17.171  1.5023 -0.8816  1.5080
  794MPD2     N11761   2.351   2.087  16.748  0.1020 -0.0556  0.0688
  794MPD2    H511762   2.332   2.186  16.735  2.3211  0.2761 -0.6976
  794MPD2    N111763   2.481   1.777  17.093 -1.2797 -0.1326  0.2356
  794MPD2    H711764   2.488   1.709  17.018  0.5895 -0.5779  0.8131
  795MPD2     C11765   4.645   3.878  13.544  0.7513 -0.4668 -0.3821
  795MPD2    C111766   4.715   3.843  13.431 -0.6742  0.4441 -0.1024
  795MPD2    C211767   0.095   3.769  13.440 -0.0202  1.0321  0.2262
  795MPD2    C311768   0.141   3.724  13.561 -0.2151  0.1109  0.7992
  795MPD2    C411769   0.073   3.768  13.671  0.1748 -0.8017  0.2758
  795MPD2    C511770   4.693   3.844  13.665  0.0553 -0.2910 -0.1181
  795MPD2     H11771   0.157   3.744  13.354 -0.8163  1.8437 -0.5884
  795MPD2    H111772   0.107   3.736  13.769  0.5162 -0.8064  0.1566
  795MPD2    H211773   4.549   3.928  13.534  0.6819 -0.9700 -2.3996
  795MPD2    H311774   4.646   3.871  13.759  2.3236 -1.2916  1.3134
  795MPD2     N11775   0.247   3.630  13.570  0.0263  0.3301 -0.6017
  795MPD2    H511776   0.300   3.598  13.490  0.6884 -0.6084  0.2023
  795MPD2    N111777   4.673   3.886  13.305 -0.5474  0.3259 -0.6386
  795MPD2    H711778   4.721   3.855  13.221 -0.3140 -0.2703 -0.2883
  796MPD2     C11779   4.442   0.682  15.924  0.4075 -0.0278  0.4222
  796MPD2    C111780   4.549   0.736  15.983 -0.2719  0.9556 -0.1186
  796MPD2    C211781   4.562   0.874  15.996  0.2068  0.0580  0.6466
  796MPD2    C311782   4.460   0.950  15.942  0.1525 -0.6707 -0.4466
  796MPD2    C411783   4.350   0.894  15.888 -0.1732 -0.2165  0.9040
  796MPD2    C511784   4.342   0.762  15.879 -0.0023  0.3091 -0.4162
  796MPD2     H11785   4.641   0.922  16.053 -0.5040  1.7626  0.2053
  796MPD2    H111786   4.267   0.955  15.854  0.8023 -0.4127 -1.7740
  796MPD2    H211787   4.444   0.576  15.899  1.2862  0.2034 -0.4837
  796MPD2    H311788   4.254   0.712  15.838  1.1646 -1.8550 -0.2950
  796MPD2     N11789   4.481   1.094  15.945 -0.4528  0.3824 -0.2686
  796MPD2    H511790   4.570   1.114  15.990  0.8365 -1.1634 -2.1152
  796MPD2    N111791   4.647   0.641  16.023  0.6525 -0.5186  0.6733
  796MPD2    H711792   4.647   0.545  15.989  0.5235 -0.2200 -0.1707
  797MPD2     C11793   0.893   0.003  17.378  0.3522  0.3598  0.2690
  797MPD2    C111794   0.966   0.117  17.388  0.3195 -0.2586  0.6451
  797MPD2    C211795   1.009   0.191  17.280 -0.2728 -0.3351  0.4964
  797MPD2    C311796   0.956   0.164  17.158 -0.0016 -0.3029 -0.3637
  797MPD2    C411797   0.876   0.048  17.142 -0.4955 -0.4756  0.0722
  797MPD2    C511798   0.847   4.709  17.255 -0.0307  0.1764 -0.6457
  797MPD2     H11799   1.096   0.255  17.286 -1.7845  1.7224  0.2475
  797MPD2    H111800   0.851   0.027  17.039  1.9787 -0.4959 -0.5353
  797MPD2    H211801   0.852   4.683  17.460  0.9497 -0.2247  0.1697
  797MPD2    H311802   0.790   4.617  17.246  0.7306 -0.2577 -1.1162
  797MPD2     N11803   1.010   0.243  17.052 -0.3033  0.5892  0.0582
  797MPD2    H511804   1.076   0.311  17.087 -2.3891  2.4331  0.3763
  797MPD2    N111805   1.012   0.166  17.512  0.5060  0.4496 -0.3714
  797MPD2    H711806   1.068   0.251  17.503  2.5442 -0.7547  0.9478
  798MPD2     C11807   1.262   0.817  17.326  0.2790  0.1136 -0.3120
  798MPD2    C111808   1.230   0.691  17.283  0.0499 -0.1357  0.1140
  798MPD2    C211809   1.219   0.587  17.384  0.1021 -0.6125 -0.4740
  798MPD2    C311810   1.252   0.616  17.513  0.0809 -0.6389  0.2539
  798MPD2    C411811   1.283   0.735  17.554 -0.2489 -0.2965 -0.4197
  798MPD2    C511812   1.293   0.835  17.461  0.2954 -0.1886  0.1818
  798MPD2     H11813   1.188   0.487  17.357 -3.1608 -0.5571  3.1329
  798MPD2    H111814   1.303   0.757  17.658 -0.0726  0.2938 -0.5729
  798MPD2    H211815   1.255   0.901  17.257  1.1692 -0.2542 -0.8587
  798MPD2    H311816   1.332   0.930  17.495  1.3089 -1.3901  2.3469
  798MPD2     N11817   1.237   0.511  17.601 -0.7413  1.0598 -0.8796
  798MPD2    H511818   1.223   0.420  17.557  2.9222  0.7159 -1.3379
  798MPD2    N111819   1.202   0.672  17.151 -0.2447  0.1738  0.0881
  798MPD2    H711820   1.209   0.748  17.083 -0.2672  0.4796  0.4293
  799MPD2     C11821   4.542   1.636  14.592 -0.7839 -0.0523  0.0096
  799MPD2    C111822   4.562   1.622  14.450  0.0750  0.2585 -0.0497
  799MPD2    C211823   4.508   1.725  14.373 -0.2367 -0.2745 -0.2776
  799MPD2    C311824   4.469   1.836  14.438  0.0818  0.4261  0.3187
  799MPD2    C411825   4.463   1.852  14.567 -0.1546 -0.1920  0.1454
  799MPD2    C511826   4.499   1.751  14.650  0.1747  0.2903  0.1122
  799MPD2     H11827   4.507   1.715  14.265 -0.0010 -1.4399 -0.1803
  799MPD2    H111828   4.437   1.950  14.606 -0.7710  0.9279 -3.1174
  799MPD2    H211829   4.575   1.555  14.656 -2.8989  1.9613  3.6696
  799MPD2    H311830   4.483   1.767  14.756  1.4320  1.9629  0.0561
  799MPD2     N11831   4.439   1.951  14.361  0.1773  0.6607  0.0431
  799MPD2    H511832   4.431   2.041  14.406 -2.0211 -0.3118  1.5921
  799MPD2    N111833   4.623   1.515  14.379 -0.6497  0.2715  0.5021
  799MPD2    H711834   4.642   1.535  14.282  1.4964 -0.7115  0.7196
  800MPD2     C11835   0.142   2.953  13.939 -1.1528  0.2296  0.8066
  800MPD2    C111836   0.271   2.922  13.974 -0.0107 -0.2381 -0.9253
  800MPD2    C211837   0.332   2.823  13.900  1.3934  0.0382 -0.2728
  800MPD2    C311838   0.253   2.735  13.822 -0.4524  0.3560 -0.6856
  800MPD2    C411839   0.119   2.761  13.797 -0.6782 -0.1973  0.7123
  800MPD2    C511840   0.069   2.873  13.857  0.4809  0.8146  0.0891
  800MPD2     H11841   0.439   2.810  13.896  1.4078  0.0995 -0.0860
  800MPD2    H111842   0.055   2.710  13.726  0.5898 -2.5173  1.2348
  800MPD2    H211843   0.097   3.044  13.977  0.3097  1.1528  0.3504
  800MPD2    H311844   4.710   2.910  13.821 -0.3795  0.6267  2.1906
  800MPD2     N11845   0.334   2.637  13.760  0.4769  0.3421  0.9512
  800MPD2    H511846   0.431   2.622  13.788  0.0205  0.2332  2.4589
  800MPD2    N111847   0.348   3.009  14.063 -0.0399  0.3829  0.0551
  800MPD2    H711848   0.310   3.096  14.100 -0.2464 -0.1856  1.1778
  801MPD2     C11849   0.519   3.702  13.958 -0.2289 -0.5489 -0.1599
  801MPD2    C111850   0.432   3.624  14.029 -0.2620  0.7245  0.5559
  801MPD2    C211851   0.299   3.661  14.051  0.1041  0.5961 -0.8522
  801MPD2    C311852   0.245   3.777  13.994 -1.1109  0.1993  0.2244
  801MPD2    C411853   0.335   3.866  13.935  0.3083  0.3863  0.2268
  801MPD2    C511854   0.470   3.821  13.921  0.2923 -0.5089  0.1163
  801MPD2     H11855   0.235   3.601  14.115  0.7810  2.7788  1.8725
  801MPD2    H111856   0.308   3.958  13.886 -1.6570 -0.8802 -1.0691
  801MPD2    H211857   0.625   3.684  13.942 -0.3620 -1.2760 -0.2436
  801MPD2    H311858   0.535   3.893  13.873 -0.0522 -1.5821 -1.9699
  801MPD2     N11859   0.119   3.827  14.019  0.0219  0.3319  0.1487
  801MPD2    H511860   0.088   3.922  14.005 -0.1015  0.1680 -0.6568
  801MPD2    N111861   0.472   3.500  14.083 -0.3938 -0.1693  1.0235
  801MPD2    H711862   0.410   3.451  14.147  1.3240 -2.0455  1.2583
  802MPD2     C11863   0.211   3.549   0.607 -0.3401 -0.5568 -0.1257
  802MPD2    C111864   0.129   3.650   0.561  0.2605 -0.7953 -0.1675
  802MPD2    C211865   0.127   3.681   0.429  0.6683 -0.1754 -0.3545
  802MPD2    C311866   0.216   3.617   0.339  0.1318  0.0199 -0.3292
  802MPD2    C411867   0.309   3.526   0.384 -0.4591  0.4143 -0.1871
  802MPD2    C511868   0.300   3.489   0.511 -0.5326  0.5040  0.2759
  802MPD2     H11869   0.062   3.762   0.398  2.8318  1.2530 -1.1390
  802MPD2    H111870   0.372   3.465   0.320 -1.2379 -1.3844  0.7910
  802MPD2    H211871   0.225   3.528   0.713  2.5549  0.1911 -0.3535
  802MPD2    H311872   0.377   3.423   0.550 -0.9710  0.3668  0.9083
  802MPD2     N11873   0.203   3.657   0.204 -0.5620  0.0280  0.0687
  802MPD2    H511874   0.121   3.710   0.174  0.3206  1.1157 -0.4130
  802MPD2    N111875   0.043   3.718   0.643 -0.2974  0.3016  0.3226
  802MPD2    H711876   4.733   3.802   0.608  0.5104  0.9327  0.7674
  803MPD2     C11877   0.217   2.329  12.304  0.1890  0.1750  0.1392
  803MPD2    C111878   0.308   2.439  12.308  0.9497 -0.2534 -0.0778
  803MPD2    C211879   0.386   2.448  12.417 -0.3045  0.0160  0.2715
  803MPD2    C311880   0.387   2.342  12.508 -0.5722 -0.5708  0.2970
  803MPD2    C411881   0.305   2.233  12.499 -0.6452 -0.1011 -0.4585
  803MPD2    C511882   0.215   2.229  12.397  0.8654  0.2107  0.3476
  803MPD2     H11883   0.456   2.531  12.413 -3.2823  2.5803  1.0385
  803MPD2    H111884   0.302   2.152  12.571  2.5870 -1.6562 -2.0856
  803MPD2    H211885   0.148   2.326  12.221 -0.8691 -1.6739  1.1003
  803MPD2    H311886   0.146   2.146  12.393  1.4865 -0.2850 -0.1452
  803MPD2     N11887   0.480   2.333  12.609 -0.7745  0.0897 -0.7358
  803MPD2    H511888   0.469   2.253  12.671  1.8909 -0.1625 -0.5920
  803MPD2    N111889   0.309   2.542  12.209  0.1902  0.0763 -0.1091
  803MPD2    H711890   0.353   2.630  12.231  1.0189 -1.1971  3.2648
  804MPD2     C11891   0.348   3.818  16.824  0.5990  0.2947 -0.2621
  804MPD2    C111892   0.360   3.766  16.951 -0.6284 -0.6432  0.1578
  804MPD2    C211893   0.416   3.837  17.055  0.0393 -0.8179 -0.4724
  804MPD2    C311894   0.474   3.964  17.028  0.3772  0.7508 -0.6656
  804MPD2    C411895   0.454   4.018  16.897  0.0267  0.2506  0.5820
  804MPD2    C511896   0.394   3.947  16.801 -0.0587 -0.1780 -0.8543
  804MPD2     H11897   0.442   3.796  17.152  2.7613 -0.4040 -1.0375
  804MPD2    H111898   0.493   4.116  16.875  2.0455 -0.3554  1.4544
  804MPD2    H211899   0.304   3.761  16.743  1.2251  1.4188 -1.3983
  804MPD2    H311900   0.385   3.987  16.700  0.2456  0.2349 -0.7195
  804MPD2     N11901   0.550   4.027  17.128 -0.6385 -0.4152  0.4881
  804MPD2    H511902   0.553   3.986  17.221 -2.5006 -1.2780  0.1823
  804MPD2    N111903   0.309   3.636  16.979 -0.1087  0.2441 -0.5340
  804MPD2    H711904   0.285   3.607  17.073 -1.9809 -1.3568 -1.5130
  805MPD2     C11905   4.024   1.812  15.463  0.0712  0.5277 -0.5337
  805MPD2    C111906   4.092   1.912  15.395 -0.0869 -0.2205  0.0029
  805MPD2    C211907   4.208   1.959  15.441  0.1513 -0.2227  0.1786
  805MPD2    C311908   4.266   1.889  15.547 -0.2882 -0.5528 -0.9071
  805MPD2    C411909   4.206   1.792  15.613 -0.1508  0.3898 -0.3840
  805MPD2    C511910   4.082   1.751  15.570 -0.4812 -0.0680 -0.0881
  805MPD2     H11911   4.266   2.035  15.391 -0.1803  0.1725  0.3934
  805MPD2    H111912   4.248   1.746  15.702  1.7773  1.0412 -0.9542
  805MPD2    H211913   3.926   1.772  15.439  0.0989 -0.2061  0.5936
  805MPD2    H311914   4.033   1.665  15.614  2.1695 -1.6732 -0.2351
  805MPD2     N11915   4.397   1.938  15.594 -0.0004 -0.3079  0.2396
  805MPD2    H511916   4.431   2.022  15.549  0.6944  0.1234  1.5802
  805MPD2    N111917   4.048   1.968  15.270 -0.0992  0.5566  0.1830
  805MPD2    H711918   4.113   2.034  15.228 -1.8960 -0.3263 -4.0464
  806MPD2     C11919   4.468   1.182   0.424 -0.1715 -0.0163  0.0018
  806MPD2    C111920   4.598   1.212   0.443  0.4465  0.0906 -0.3286
  806MPD2    C211921   4.678   1.205   0.335  0.8940 -0.6119 -0.3216
  806MPD2    C311922   4.642   1.186   0.206  0.1424 -0.0977  0.4160
  806MPD2    C411923   4.509   1.160   0.186  0.8246 -0.0995  0.1959
  806MPD2    C511924   4.427   1.148   0.294 -0.0105  0.0523  0.1345
  806MPD2     H11925   0.048   1.229   0.339  0.9577 -0.9352 -0.1054
  806MPD2    H111926   4.476   1.145   0.084  0.8846 -0.8755  0.2955
  806MPD2    H211927   4.393   1.193   0.502  0.9516  0.7453  0.9588
  806MPD2    H311928   4.321   1.133   0.274 -0.1226 -0.0529  0.8198
  806MPD2     N11929   0.009   1.192   0.111  0.9634  0.5858 -0.0819
  806MPD2    H511930   0.106   1.190   0.142  1.1197 -0.8034 -0.6378
  806MPD2    N111931   4.640   1.264   0.561  0.0678 -0.2103 -0.5147
  806MPD2    H711932   4.565   1.293   0.622  1.4851 -1.7992  1.9836
  807MPD2     C11933   4.703   0.991   1.247 -0.1953  0.2146 -0.5627
  807MPD2    C111934   0.079   1.026   1.181 -0.1082  0.1606 -1.1098
  807MPD2    C211935   0.198   0.963   1.205 -0.0545 -0.7778 -1.1643
  807MPD2    C311936   0.210   0.861   1.299 -0.4147  0.2717 -0.4743
  807MPD2    C411937   0.091   0.830   1.375  0.2816  0.1868  0.7707
  807MPD2    C511938   4.709   0.895   1.344  0.3902 -0.0360  0.5768
  807MPD2     H11939   0.286   0.988   1.148 -0.6528  0.3081 -1.6115
  807MPD2    H111940   0.090   0.766   1.463 -2.3325 -2.4693 -1.1892
  807MPD2    H211941   4.606   1.033   1.220  0.3563  1.9967  0.1771
  807MPD2    H311942   4.616   0.874   1.395 -0.0448  1.2442  0.3082
  807MPD2     N11943   0.329   0.781   1.303 -0.7899 -0.4254 -0.3524
  807MPD2    H511944   0.406   0.810   1.243  0.8614 -0.3818  1.7832
  807MPD2    N111945   0.077   1.131   1.083  0.3237  0.0734 -0.0593
  807MPD2    H711946   0.168   1.149   1.042 -1.3704 -0.7692 -4.2370
  808MPD2     C11947   0.868   3.686  10.221 -0.2804 -0.0137 -0.2493
  808MPD2    C111948   0.747   3.743  10.244 -0.0813 -0.0680 -0.3849
  808MPD2    C211949   0.730   3.881  10.262 -0.0614 -0.0194 -0.4643
  808MPD2    C311950   0.842   3.961  10.260 -0.4719  0.3726  0.1131
  808MPD2    C411951   0.962   3.908  10.216 -0.3171 -0.1118  0.0373
  808MPD2    C511952   0.981   3.773  10.206 -0.1481  0.2121 -0.0261
  808MPD2     H11953   0.632   3.923  10.280  1.2568  2.0013  1.9425
  808MPD2    H111954   1.047   3.974  10.208  0.5914 -1.4642 -1.3894
  808MPD2    H211955   0.877   3.579  10.212 -0.6791  0.1496 -2.8076
  808MPD2    H311956   1.078   3.729  10.188 -0.8093 -0.7055 -1.3302
  808MPD2     N11957   0.839   4.101  10.286  0.2905 -0.2284 -0.5068
  808MPD2    H511958   0.919   4.152  10.248  1.2409 -1.6083 -0.3721
  808MPD2    N111959   0.626   3.672  10.254  0.4883  0.5048  0.5335
  808MPD2    H711960   0.544   3.726  10.277  0.0911 -0.0435  0.3933
  809MPD2     C11961   0.989   0.249   9.883  0.2617 -0.7440 -0.3712
  809MPD2    C111962   0.980   0.119   9.835 -0.3165  0.6910  0.4215
  809MPD2    C211963   0.911   0.015   9.901  0.2806  0.0017  0.1352
  809MPD2    C311964   0.855   0.040  10.022 -0.3967  0.7206  0.1676
  809MPD2    C411965   0.867   0.164  10.070 -0.2185  0.0790  0.1558
  809MPD2    C511966   0.937   0.266  10.009  0.3315  0.3109  0.3907
  809MPD2     H11967   0.911   4.653   9.857 -1.1409  0.5037 -1.0301
  809MPD2    H111968   0.804   0.185  10.155 -0.7102 -0.9499  0.0490
  809MPD2    H211969   1.041   0.334   9.840 -4.0663  1.7519 -0.6202
  809MPD2    H311970   0.937   0.370  10.042  2.4836 -0.0114  1.4121
  809MPD2     N11971   0.783   4.683  10.102 -0.3117  0.2482 -0.0134
  809MPD2    H511972   0.759   4.708  10.197  0.2965  0.8158 -0.0073
  809MPD2    N111973   1.019   0.092   9.700  0.5984  0.0015 -0.5776
  809MPD2    H711974   1.021   4.732   9.669 -2.0291 -0.2624  0.0965
  810MPD2     C11975   4.293   2.589  10.681  0.0194  0.0603 -0.5550
  810MPD2    C111976   4.297   2.603  10.545 -0.0244  0.2772  0.6173
  810MPD2    C211977   4.277   2.735  10.487  0.1379  1.1198  0.1554
  810MPD2    C311978   4.240   2.842  10.574 -0.1042  0.4129 -0.0971
  810MPD2    C411979   4.232   2.826  10.710 -0.0059  0.2314 -0.6930
  810MPD2    C511980   4.257   2.699  10.756  0.1759 -0.4672  0.6295
  810MPD2     H11981   4.291   2.751  10.381 -0.1386 -0.2363 -0.0912
  810MPD2    H111982   4.214   2.907  10.780  0.2561 -0.3641  0.0661
  810MPD2    H211983   4.315   2.496  10.733 -3.1690  0.1382  0.9722
  810MPD2    H311984   4.263   2.686  10.864  1.0889 -0.8917  0.5298
  810MPD2     N11985   4.192   2.973  10.531 -0.5592  0.7055  0.1827
  810MPD2    H511986   4.161   3.041  10.601 -0.0773 -1.1603  2.2044
  810MPD2    N111987   4.344   2.503  10.459  0.0993  0.2638  0.0770
  810MPD2    H711988   4.359   2.525  10.361  0.7544  3.3586  0.8693
  811MPD2     C11989   3.980   2.417   9.824  0.8452  0.8206 -0.1897
  811MPD2    C111990   4.059   2.463   9.927  0.3209 -0.0543 -0.4036
  811MPD2    C211991   4.097   2.601   9.923  0.8188  0.9625 -0.3162
  811MPD2    C311992   4.043   2.690   9.828  0.7386 -0.7347 -0.3646
  811MPD2    C411993   3.968   2.635   9.727  0.2594  0.9619  0.1941
  811MPD2    C511994   3.945   2.503   9.723  0.8539  0.6491 -0.0076
  811MPD2     H11995   4.161   2.642  10.001 -0.6326  1.2191  0.7435
  811MPD2    H111996   3.931   2.692   9.642  0.3382 -0.5844 -0.8989
  811MPD2    H211997   3.960   2.311   9.823  0.2592  0.9384 -1.2623
  811MPD2    H311998   3.887   2.461   9.641  0.4600  0.4132  0.3931
  811MPD2     N11999   4.078   2.828   9.835  0.3496 -0.7456 -0.2569
  811MPD2    H512000   4.112   2.851   9.928 -2.1487  1.9454 -0.0282
  811MPD2    N112001   4.107   2.373  10.024  0.4120  0.0171 -0.3116
  811MPD2    H712002   4.067   2.280  10.024 -2.2373  1.1623 -1.8298
  812MPD2     C12003   3.102   2.549  11.921  0.1923  0.4072 -0.2043
  812MPD2    C112004   3.163   2.664  11.954 -0.2380 -0.0367  0.3552
  812MPD2    C212005   3.241   2.657  12.064  0.0290  0.7643 -0.4607
  812MPD2    C312006   3.258   2.542  12.138  0.6657 -0.2871  0.1989
  812MPD2    C412007   3.186   2.430  12.107 -0.1542  0.8995 -0.0060
  812MPD2    C512008   3.118   2.435  11.990 -0.0543  0.3811  0.4667
  812MPD2     H12009   3.307   2.739  12.092 -0.7048  1.0492  0.4345
  812MPD2    H112010   3.206   2.332  12.148  1.3154  1.3978  0.4862
  812MPD2    H212011   3.038   2.538  11.835  1.3540 -2.4902 -0.7100
  812MPD2    H312012   3.075   2.343  11.951 -0.1308  0.7902 -0.4039
  812MPD2     N12013   3.337   2.553  12.258  0.1869  0.3441  0.5761
  812MPD2    H512014   3.389   2.639  12.272  0.6026 -0.0542  1.4795
  812MPD2    N112015   3.128   2.786  11.886  0.0705 -0.1018  0.4039
  812MPD2    H712016   3.065   2.768  11.809 -0.6980 -1.2415  1.3034
  813MPD2     C12017   2.158   4.210  12.874 -0.0591  0.2190 -0.3860
  813MPD2    C112018   2.244   4.283  12.948 -0.0801  0.0780 -0.0979
  813MPD2    C212019   2.209   4.317  13.077  0.1926 -0.4874  0.0698
  813MPD2    C312020   2.092   4.275  13.135 -0.3993 -0.5608 -0.5205
  813MPD2    C412021   1.997   4.217  13.056  0.1645 -0.0293 -0.0845
  813MPD2    C512022   2.030   4.182  12.922  0.4753  0.7893 -0.5654
  813MPD2     H12023   2.283   4.364  13.140 -2.5494  2.4955  1.0679
  813MPD2    H112024   1.898   4.183  13.086 -0.0635 -1.2924 -2.2571
  813MPD2    H212025   2.186   4.161  12.781 -1.8094  0.8612 -1.2557
  813MPD2    H312026   1.957   4.131  12.860  0.3871 -0.5691  0.6694
  813MPD2     N12027   2.071   4.300  13.273 -0.0151  0.1503 -0.6451
  813MPD2    H512028   2.139   4.357  13.322 -0.4338  0.5931 -0.5765
  813MPD2    N112029   2.377   4.315  12.912 -0.1641 -0.4056 -0.2942
  813MPD2    H712030   2.440   4.357  12.979 -0.6519  0.3989 -0.3428
  814MPD2     C12031   2.813   0.689  12.328  0.3809 -0.1512 -0.1121
  814MPD2    C112032   2.863   0.740  12.206 -0.0995 -0.7886  0.1826
  814MPD2    C212033   2.923   0.864  12.202 -0.3723  0.0878  0.1932
  814MPD2    C312034   2.952   0.923  12.327 -0.8061 -0.1383 -0.5863
  814MPD2    C412035   2.912   0.865  12.443  0.6186  0.5092 -0.1214
  814MPD2    C512036   2.845   0.750  12.445  0.2011  0.7902 -0.1399
  814MPD2     H12037   2.961   0.913  12.113  0.5931  1.9926  1.6498
  814MPD2    H112038   2.939   0.918  12.534 -0.2997 -0.3438  0.6515
  814MPD2    H212039   2.763   0.593  12.336 -3.4362  1.8685  0.4126
  814MPD2    H312040   2.825   0.704  12.541  1.3586  0.5962  0.0095
  814MPD2     N12041   3.006   1.050  12.328 -0.8223 -0.8359 -0.3042
  814MPD2    H512042   3.017   1.088  12.422  0.5508 -0.8806 -0.4440
  814MPD2    N112043   2.857   0.667  12.087 -0.6554  0.0823  0.3645
  814MPD2    H712044   2.873   0.720  12.002 -0.5603  1.7233  1.4067
  815MPD2     C12045   3.437   4.289  11.770  0.2257  0.3942  0.0646
  815MPD2    C112046   3.433   4.188  11.674  0.1223 -0.0208 -0.3541
  815MPD2    C212047   3.336   4.086  11.686 -0.4304 -0.3618  0.5787
  815MPD2    C312048   3.258   4.078  11.798  0.2970 -0.1147 -0.0858
  815MPD2    C412049   3.265   4.178  11.890 -0.2133 -0.0389 -0.1958
  815MPD2    C512050   3.350   4.283  11.873 -0.4140 -0.2642  0.0923
  815MPD2     H12051   3.333   4.006  11.613 -0.8183  0.9423 -0.8214
  815MPD2    H112052   3.203   4.189  11.979  0.0534  3.1141 -0.4081
  815MPD2    H212053   3.508   4.371  11.777  0.8810 -0.4802  4.1071
  815MPD2    H312054   3.354   4.356  11.953  0.2633  1.3038 -1.3649
  815MPD2     N12055   3.182   3.967  11.806 -0.7863 -0.1065 -0.2405
  815MPD2    H512056   3.195   3.891  11.740 -1.1081  0.6460 -1.1676
  815MPD2    N112057   3.537   4.176  11.575 -0.0659  0.9978  0.2761
  815MPD2    H712058   3.527   4.102  11.505  0.2284  1.9920 -0.8120
  816MPD2     C12059   4.140   3.124  17.382  0.2679 -0.2182 -0.4331
  816MPD2    C112060   4.045   3.160  17.291 -0.3312 -0.0063  0.3811
  816MPD2    C212061   4.054   3.145  17.154  0.1406 -0.1975  0.1113
  816MPD2    C312062   4.168   3.090  17.099 -0.5511 -0.3742 -0.1158
  816MPD2    C412063   4.267   3.047  17.192  0.5991  0.7436 -0.6014
  816MPD2    C512064   4.254   3.068  17.331 -0.2704 -0.0218 -0.1736
  816MPD2     H12065   3.976   3.181  17.088  1.5825 -3.9971 -3.6373
  816MPD2    H112066   4.362   3.006  17.161 -0.2335 -0.2495 -1.8401
  816MPD2    H212067   4.141   3.136  17.490 -3.1804 -0.0502 -0.4399
  816MPD2    H312068   4.333   3.036  17.399  0.5147 -1.0452 -1.5675
  816MPD2     N12069   4.181   3.077  16.954 -0.1964 -0.1558 -0.2695
  816MPD2    H512070   4.107   3.120  16.899 -0.6583  1.3173  1.4915
  816MPD2    N112071   3.929   3.214  17.353  0.0088  0.0713  0.5229
  816MPD2    H712072   3.943   3.216  17.454  0.4311 -0.4446  0.4746
  817MPD2     C12073   3.384   0.857   9.527 -0.1227 -0.5366  0.4495
  817MPD2    C112074   3.292   0.754   9.489  0.7773  0.9470 -0.0302
  817MPD2    C212075   3.167   0.792   9.446 -0.0650 -0.0900 -0.2677
  817MPD2    C312076   3.130   0.920   9.443 -0.5200  0.0884  0.0293
  817MPD2    C412077   3.216   1.023   9.475 -0.1239 -0.2105 -0.1237
  817MPD2    C512078   3.340   0.989   9.528 -0.1998 -0.0888  0.1924
  817MPD2     H12079   3.094   0.720   9.410 -0.7805  1.1293 -1.3039
  817MPD2    H112080   3.186   1.126   9.459  0.3070  0.0513  0.7186
  817MPD2    H212081   3.487   0.836   9.555 -0.2264 -2.8843 -0.8953
  817MPD2    H312082   3.403   1.077   9.538 -0.4191  0.0750  0.1546
  817MPD2     N12083   2.996   0.939   9.407  0.5215 -0.1242  0.6481
  817MPD2    H512084   2.951   0.859   9.363 -1.3120  1.5495 -0.5235
  817MPD2    N112085   3.324   0.613   9.483  0.4278  0.0456  0.6235
  817MPD2    H712086   3.279   0.558   9.411  1.0755  0.3320 -0.0017
  818MPD2     C12087   1.932   0.474   9.823  0.7882 -0.2451 -0.1109
  818MPD2    C112088   1.828   0.381   9.826 -0.9585  0.2307 -0.5746
  818MPD2    C212089   1.824   0.286   9.724 -0.0522 -0.9267  0.7948
  818MPD2    C312090   1.921   0.285   9.619  0.0009  0.5627 -0.0439
  818MPD2    C412091   2.018   0.386   9.619  0.3192 -0.2620 -0.3487
  818MPD2    C512092   2.026   0.475   9.724 -0.8701  0.1287  0.1390
  818MPD2     H12093   1.760   0.201   9.746 -0.0205 -1.4760 -1.2973
  818MPD2    H112094   2.088   0.393   9.536  2.0302 -0.3654  1.0944
  818MPD2    H212095   1.931   0.560   9.889 -1.6081 -1.9784  2.1423
  818MPD2    H312096   2.105   0.549   9.716  1.2143 -2.1717 -0.8701
  818MPD2     N12097   1.922   0.172   9.526 -0.8400 -0.3204  0.7321
  818MPD2    H512098   1.993   0.185   9.454  0.2724 -1.9764  1.5132
  818MPD2    N112099   1.732   0.380   9.934  0.2619  0.0858 -0.0285
  818MPD2    H712100   1.660   0.309   9.925  2.2345 -2.0144  0.6479
  819MPD2     C12101   0.189   1.860  15.555  0.1189 -0.2617  0.3894
  819MPD2    C112102   0.150   1.738  15.606  0.6158 -0.2755 -0.7199
  819MPD2    C212103   0.238   1.667  15.685 -0.7370 -0.2894  0.2757
  819MPD2    C312104   0.354   1.728  15.718  0.3581  0.8753 -0.0219
  819MPD2    C412105   0.389   1.855  15.680 -0.1108  0.4212 -0.0558
  819MPD2    C512106   0.307   1.914  15.595 -0.2855  0.2086  0.0430
  819MPD2     H12107   0.227   1.565  15.720 -0.2191 -1.1887 -2.1783
  819MPD2    H112108   0.484   1.897  15.712  0.3487  0.7685 -1.8634
  819MPD2    H212109   0.128   1.898  15.474  1.2933  1.5056  0.3314
  819MPD2    H312110   0.338   1.999  15.535 -0.5290  1.6162  1.8898
  819MPD2     N12111   0.448   1.643  15.789  0.2671 -0.5863  0.0553
  819MPD2    H512112   0.423   1.546  15.805  1.1529 -0.7914  0.1908
  819MPD2    N112113   0.021   1.699  15.571  0.1278  0.0976  0.2832
  819MPD2    H712114   4.712   1.753  15.498 -2.7796 -0.7758  1.4394
  820MPD2     C12115   4.220   1.609  14.774 -0.3941  0.3294  0.2032
  820MPD2    C112116   4.237   1.714  14.860 -0.2626  0.4424  0.2248
  820MPD2    C212117   4.277   1.678  14.986 -0.0212 -0.1282  0.1961
  820MPD2    C312118   4.309   1.547  15.028 -0.5871 -0.2878  0.4066
  820MPD2    C412119   4.299   1.445  14.940 -0.6728  1.1232 -0.1669
  820MPD2    C512120   4.249   1.478  14.816 -0.2668  0.5046 -0.3700
  820MPD2     H12121   4.269   1.769  15.043 -0.5875 -0.4801  0.6733
  820MPD2    H112122   4.305   1.340  14.967  3.1465  1.7928  1.5850
  820MPD2    H212123   4.178   1.618  14.675  0.5827 -0.7620 -0.3212
  820MPD2    H312124   4.244   1.396  14.745  0.5187  1.9380 -2.0834
  820MPD2     N12125   4.362   1.526  15.161 -0.0302  0.3814 -0.5198
  820MPD2    H512126   4.404   1.435  15.181  0.3014  0.2153 -1.9040
  820MPD2    N112127   4.205   1.842  14.823 -0.1550  0.5370 -0.4330
  820MPD2    H712128   4.153   1.845  14.736  0.5522 -2.0441 -0.9321
  821MPD2     C12129   0.577   2.700  13.010  0.8925 -0.1157 -0.4638
  821MPD2    C112130   0.634   2.729  13.131 -0.4495 -1.0542 -0.4501
  821MPD2    C212131   0.715   2.840  13.141  0.0952 -0.5412 -0.2920
  821MPD2    C312132   0.762   2.918  13.029 -0.1002  0.3872  0.2915
  821MPD2    C412133   0.699   2.887  12.907 -0.0814  0.6177 -0.4934
  821MPD2    C512134   0.608   2.782  12.902  0.2106 -0.8058  0.2950
  821MPD2     H12135   0.762   2.855  13.238 -0.7317  2.2755 -0.3143
  821MPD2    H112136   0.712   2.938  12.813 -1.2499  0.1284 -0.9237
  821MPD2    H212137   0.509   2.621  12.980 -1.0562  0.7386  1.7322
  821MPD2    H312138   0.580   2.749  12.803 -3.2876 -1.3978  1.5037
  821MPD2     N12139   0.857   3.019  13.038  0.3121  0.3757  0.2771
  821MPD2    H512140   0.871   3.076  12.956  1.7783 -0.8708 -0.3366
  821MPD2    N112141   0.612   2.652  13.238 -0.2453  0.1885 -0.2775
  821MPD2    H712142   0.665   2.674  13.322 -0.3762 -0.9328  0.0957
  822MPD2     C12143   1.309   2.952  15.696  0.5495  0.2495 -0.3485
  822MPD2    C112144   1.279   2.941  15.835  0.4834  0.2402 -0.1067
  822MPD2    C212145   1.189   3.029  15.889  0.7845  0.1688 -0.3437
  822MPD2    C312146   1.132   3.138  15.824 -0.3162 -0.4540 -0.2394
  822MPD2    C412147   1.163   3.149  15.694 -0.2381  0.6302 -0.0107
  822MPD2    C512148   1.261   3.067  15.639  0.2799 -0.0554  0.6852
  822MPD2     H12149   1.152   3.020  15.991  1.4162  1.4665 -0.0035
  822MPD2    H112150   1.125   3.225  15.627 -0.5473  0.6997  0.2378
  822MPD2    H212151   1.362   2.883  15.632 -0.4770 -1.0353  0.1827
  822MPD2    H312152   1.294   3.091  15.539 -1.6863 -1.4563 -0.2985
  822MPD2     N12153   1.042   3.227  15.896  0.2656 -0.5109  0.3502
  822MPD2    H512154   1.033   3.204  15.995  1.9716  0.7971  0.8118
  822MPD2    N112155   1.337   2.834  15.912  0.2474 -0.2609  0.1707
  822MPD2    H712156   1.312   2.836  16.010 -0.0842 -1.3273  0.1067
  823MPD2     C12157   0.677   3.393  16.626 -1.2799  0.0788  0.1230
  823MPD2    C112158   0.748   3.324  16.527  0.2209  0.0697  0.7103
  823MPD2    C212159   0.812   3.207  16.567 -0.4304  0.1134  0.3343
  823MPD2    C312160   0.808   3.160  16.695 -0.2281 -0.4928 -0.0853
  823MPD2    C412161   0.737   3.230  16.786 -0.2819 -0.5892  0.0831
  823MPD2    C512162   0.669   3.348  16.755 -0.2113  0.0012  0.2340
  823MPD2     H12163   0.857   3.142  16.492  1.8602  0.5599  1.3042
  823MPD2    H112164   0.742   3.193  16.888  2.7231 -0.8420 -0.1632
  823MPD2    H212165   0.636   3.491  16.604 -0.1643  0.8803  1.6417
  823MPD2    H312166   0.612   3.406  16.828 -0.8186 -0.1742 -0.1037
  823MPD2     N12167   0.883   3.046  16.743  0.1435 -0.3030 -0.1418
  823MPD2    H512168   0.859   3.007  16.833  0.1520  0.4565  0.1842
  823MPD2    N112169   0.757   3.383  16.400 -0.2688 -0.1558 -0.1732
  823MPD2    H712170   0.723   3.479  16.395 -1.6761 -0.4615  3.6410
  824MPD2     C12171   1.837   2.113  16.294 -0.3658 -0.2419 -0.3567
  824MPD2    C112172   1.827   2.181  16.166  0.4543 -0.0549  0.2003
  824MPD2    C212173   1.891   2.133  16.056  0.2655  0.1295 -0.0030
  824MPD2    C312174   1.968   2.014  16.073 -0.3413  0.0973 -0.0620
  824MPD2    C412175   1.974   1.953  16.198 -0.6431  0.5406  0.5714
  824MPD2    C512176   1.909   1.999  16.306 -0.1075  0.0291  0.1363
  824MPD2     H12177   1.890   2.188  15.962 -0.9518  0.0833 -0.0196
  824MPD2    H112178   2.031   1.861  16.206 -0.3100  0.5329 -1.7307
  824MPD2    H212179   1.783   2.152  16.380 -0.1424  1.7106 -1.1079
  824MPD2    H312180   1.906   1.939  16.396  0.0629  1.9231  1.3932
  824MPD2     N12181   2.034   1.964  15.958  0.0731  0.1307  0.2841
  824MPD2    H512182   2.033   2.023  15.876  0.4076 -0.2618 -0.0038
  824MPD2    N112183   1.740   2.295  16.153  0.0116 -0.3696 -0.3491
  824MPD2    H712184   1.710   2.332  16.242 -1.5993 -0.0848 -1.0258
  825MPD2     C12185   2.237   1.989  15.157 -0.2488 -0.1167 -0.0022
  825MPD2    C112186   2.266   2.046  15.279 -0.4651 -0.0389  0.4381
  825MPD2    C212187   2.299   2.185  15.290  0.1230 -0.0260  0.7270
  825MPD2    C312188   2.290   2.265  15.181  0.4934 -0.3052  0.2016
  825MPD2    C412189   2.252   2.207  15.063  0.1191 -0.5213 -0.0744
  825MPD2    C512190   2.224   2.071  15.049 -0.6409 -0.3529 -0.0948
  825MPD2     H12191   2.317   2.227  15.388 -0.0778 -2.0861  1.6501
  825MPD2    H112192   2.232   2.259  14.971 -1.8782 -2.7434 -0.8963
  825MPD2    H212193   2.217   1.882  15.151  2.1360 -0.4286 -2.4211
  825MPD2    H312194   2.206   2.030  14.950 -1.9206 -2.9989  1.2305
  825MPD2     N12195   2.331   2.399  15.181 -0.8214  0.7969 -0.0535
  825MPD2    H512196   2.309   2.455  15.098 -1.1144  0.3079 -0.3068
  825MPD2    N112197   2.269   1.959  15.389  0.3271 -0.3458 -0.0956
  825MPD2    H712198   2.236   1.864  15.381  1.4394 -0.8004  0.7025
  826MPD2     C12199   2.054   2.280  13.894 -0.5093  0.0092  0.1315
  826MPD2    C112200   1.945   2.293  13.809 -0.2270  0.8018 -0.3823
  826MPD2    C212201   1.831   2.360  13.861  0.7241 -0.4370 -0.1717
  826MPD2    C312202   1.840   2.431  13.977  0.5739  0.1339  0.3247
  826MPD2    C412203   1.955   2.427  14.053 -0.2890  0.5943  0.3536
  826MPD2    C512204   2.058   2.350  14.014  0.4809  0.3392 -0.6422
  826MPD2     H12205   1.739   2.361  13.803  0.1981 -0.1197  0.6516
  826MPD2    H112206   1.963   2.469  14.152  1.1793 -1.7114  1.2135
  826MPD2    H212207   2.144   2.232  13.858 -1.0917 -1.2017  0.2702
  826MPD2    H312208   2.151   2.341  14.069  0.7639  1.0591 -1.0063
  826MPD2     N12209   1.739   2.517  14.018  0.0591 -0.1873 -0.5237
  826MPD2    H512210   1.761   2.565  14.105  3.2847 -2.9907  0.2004
  826MPD2    N112211   1.944   2.233  13.679 -0.0465 -0.3840 -0.0370
  826MPD2    H712212   2.030   2.183  13.658  1.5643  2.5908 -0.4723
  827MPD2     C12213   2.671   3.865   9.635  0.5535  0.0289  0.7522
  827MPD2    C112214   2.675   3.772   9.730 -0.3393  0.7662 -0.1786
  827MPD2    C212215   2.560   3.705   9.769  0.3628 -0.2799  0.4906
  827MPD2    C312216   2.435   3.737   9.706  0.5794  0.2134  0.2076
  827MPD2    C412217   2.428   3.845   9.622  0.5151  0.1543 -0.0213
  827MPD2    C512218   2.547   3.904   9.586 -0.1894 -0.1055 -0.5744
  827MPD2     H12219   2.562   3.624   9.841  0.9352 -2.5881 -2.1162
  827MPD2    H112220   2.340   3.874   9.567  0.2953  0.0654  0.2840
  827MPD2    H212221   2.760   3.912   9.594 -0.7672  0.3907 -1.6762
  827MPD2    H312222   2.535   3.990   9.519 -0.5505 -0.8425 -1.4592
  827MPD2     N12223   2.331   3.642   9.729 -0.6156 -0.5079 -0.2653
  827MPD2    H512224   2.347   3.555   9.779 -0.1254  0.3275  1.0345
  827MPD2    N112225   2.802   3.744   9.793  0.1081  0.1444  0.9019
  827MPD2    H712226   2.887   3.788   9.758  0.3707  1.2320  2.9307
  828MPD2     C12227   1.356   3.353  12.362  0.3476 -0.2450  0.9093
  828MPD2    C112228   1.275   3.416  12.267  0.1176 -0.7071 -0.4737
  828MPD2    C212229   1.327   3.422  12.145  0.0805  0.4575  0.3045
  828MPD2    C312230   1.438   3.346  12.101 -0.2784  0.4647  0.2298
  828MPD2    C412231   1.515   3.290  12.194  0.5623  0.0651  0.7316
  828MPD2    C512232   1.477   3.303  12.320  0.2485 -0.0140  0.4060
  828MPD2     H12233   1.262   3.477  12.079 -1.7622  0.7056  2.3588
  828MPD2    H112234   1.608   3.239  12.175 -0.3857 -2.0069  1.6502
  828MPD2    H212235   1.337   3.335  12.468 -2.2263 -0.6943  0.3649
  828MPD2    H312236   1.544   3.269  12.399 -0.0866  0.7197  1.0116
  828MPD2     N12237   1.483   3.329  11.971 -0.2636  0.4274  0.3177
  828MPD2    H512238   1.550   3.254  11.955 -1.0848 -0.0799 -0.7265
  828MPD2    N112239   1.153   3.478  12.292 -0.0495  0.4117  0.4523
  828MPD2    H712240   1.104   3.503  12.206  0.0256  0.3720  0.3981
  829MPD2     C12241   0.472   3.572  11.769  0.7408  0.1534 -0.2313
  829MPD2    C112242   0.412   3.506  11.881  0.2204  0.6640  0.0857
  829MPD2    C212243   0.489   3.481  11.992 -0.3043 -1.0244 -0.4140
  829MPD2    C312244   0.620   3.522  11.996 -0.4757 -0.0540 -0.1375
  829MPD2    C412245   0.680   3.571  11.886 -0.7992  0.6028  0.0454
  829MPD2    C512246   0.613   3.583  11.767  0.3070  0.6131  0.3406
  829MPD2     H12247   0.457   3.439  12.087  2.9856  0.4761  1.3325
  829MPD2    H112248   0.788   3.581  11.890 -0.8430  0.3413  1.8254
  829MPD2    H212249   0.424   3.610  11.679  1.9055  0.7427 -0.5916
  829MPD2    H312250   0.657   3.626  11.678  3.6034 -0.4742  1.4294
  829MPD2     N12251   0.694   3.523  12.116 -0.5190  0.3890 -0.3278
  829MPD2    H512252   0.794   3.541  12.111 -0.4806 -0.0314 -1.1099
  829MPD2    N112253   0.274   3.520  11.895  0.0553  0.5466 -0.5050
  829MPD2    H712254   0.227   3.597  11.848 -1.4591  0.3738  0.7175
  830MPD2     C12255   0.666   1.166  15.356 -0.3503  0.6485  0.1407
  830MPD2    C112256   0.743   1.238  15.440 -0.0357  0.8878 -0.8753
  830MPD2    C212257   0.863   1.288  15.394 -0.5190  0.6766  1.0186
  830MPD2    C312258   0.897   1.266  15.262 -0.2950  0.0641 -0.4798
  830MPD2    C412259   0.815   1.194  15.175 -0.3752  0.1196 -0.3345
  830MPD2    C512260   0.698   1.137  15.223  0.1588  0.0541  0.7834
  830MPD2     H12261   0.934   1.339  15.456  0.7745  1.3544 -1.0148
  830MPD2    H112262   0.846   1.180  15.072  0.8612  0.6596 -0.0413
  830MPD2    H212263   0.574   1.134  15.402  0.4612 -1.4526  0.2980
  830MPD2    H312264   0.642   1.066  15.164  1.2264  0.3623 -0.5892
  830MPD2     N12265   1.005   1.342  15.203 -0.8241  0.3920  0.2179
  830MPD2    H512266   1.012   1.330  15.103 -1.6146 -1.8738  0.4386
  830MPD2    N112267   0.700   1.262  15.572 -0.3706  0.4830 -0.0137
  830MPD2    H712268   0.606   1.236  15.601 -0.2603 -0.4775 -0.5236
  831MPD2     C12269   1.313   3.320  16.219 -0.0164 -0.0917 -0.6611
  831MPD2    C112270   1.360   3.201  16.166  0.1468 -0.4255  0.5593
  831MPD2    C212271   1.292   3.083  16.194 -0.3696  0.0800 -0.1981
  831MPD2    C312272   1.181   3.086  16.275 -0.0363 -0.8584 -0.0537
  831MPD2    C412273   1.146   3.204  16.334  1.2432  0.4076  0.4454
  831MPD2    C512274   1.205   3.320  16.297 -0.0583  0.4511 -0.4126
  831MPD2     H12275   1.323   2.989  16.150  1.1548  0.2920  0.4238
  831MPD2    H112276   1.051   3.208  16.385  0.6920 -1.2373 -0.4477
  831MPD2    H212277   1.343   3.423  16.200 -0.8138 -0.0794 -1.8572
  831MPD2    H312278   1.167   3.412  16.340  2.3899  1.5627 -0.6749
  831MPD2     N12279   1.081   2.984  16.286 -0.1321  0.9985 -0.0573
  831MPD2    H512280   0.995   3.014  16.330 -0.4435  1.2808 -0.8525
  831MPD2    N112281   1.478   3.210  16.084  0.2076 -0.1851 -0.3760
  831MPD2    H712282   1.504   3.305  16.061  0.4746 -0.7571 -2.4423
  832MPD2     C12283   4.532   3.966  17.501 -0.4129  0.1918 -0.6691
  832MPD2    C112284   4.547   4.083  17.432 -0.1754 -0.2219 -0.5781
  832MPD2    C212285   4.461   4.101  17.321 -0.5201 -0.1747  0.1164
  832MPD2    C312286   4.348   4.013  17.313  0.2201  0.1915  0.5932
  832MPD2    C412287   4.337   3.893  17.388 -0.0621  0.3447 -0.6001
  832MPD2    C512288   4.432   3.874  17.482 -0.9193  0.3774 -0.2554
  832MPD2     H12289   4.465   4.192  17.263 -0.3014 -0.6336 -0.5960
  832MPD2    H112290   4.260   3.817  17.381 -2.9585  3.0869  1.1137
  832MPD2    H212291   4.605   3.944  17.578  0.3644  0.0913 -1.4288
  832MPD2    H312292   4.440   3.791  17.550  1.7408 -0.5056 -1.6390
  832MPD2     N12293   4.250   4.024  17.210  0.0802  0.2092 -0.2238
  832MPD2    H512294   4.194   3.939  17.207  2.1902 -1.2250  1.4164
  832MPD2    N112295   4.645   4.176  17.470 -0.6961  0.0548 -1.0179
  832MPD2    H712296   4.705   4.154  17.548 -0.7822  0.9525 -0.7072
  833MPD2     C12297   1.273   1.697  12.237  0.1835 -0.0156 -0.1467
  833MPD2    C112298   1.159   1.619  12.249 -0.3416 -0.1287  0.3575
  833MPD2    C212299   1.174   1.481  12.235 -0.0474  0.1359  0.2761
  833MPD2    C312300   1.292   1.416  12.203  0.2483 -0.3505 -0.2392
  833MPD2    C412301   1.405   1.497  12.182 -0.3637  0.6510  0.4569
  833MPD2    C512302   1.398   1.633  12.204 -0.4158 -0.1085 -0.0289
  833MPD2     H12303   1.089   1.417  12.249  0.2203 -0.1605  0.5421
  833MPD2    H112304   1.504   1.455  12.165 -0.6607 -0.2275  0.8999
  833MPD2    H212305   1.267   1.805  12.250  0.4270  0.4795 -4.0426
  833MPD2    H312306   1.491   1.688  12.197 -0.8282  0.5054 -0.7036
  833MPD2     N12307   1.306   1.276  12.193 -0.4612  0.5495  0.0447
  833MPD2    H512308   1.397   1.242  12.165 -1.2010  1.3716 -3.2721
  833MPD2    N112309   1.033   1.672  12.279 -0.4408 -0.3036 -0.2025
  833MPD2    H712310   0.967   1.599  12.305 -0.2202  0.6938  3.1580
  834MPD2     C12311   1.813   0.716  11.607 -0.0578 -0.2632 -0.4973
  834MPD2    C112312   1.710   0.631  11.629 -0.3656 -0.3701  1.3059
  834MPD2    C212313   1.619   0.649  11.733  0.3418  0.1723 -0.7537
  834MPD2    C312314   1.634   0.748  11.822 -0.1937  0.3732 -0.3058
  834MPD2    C412315   1.738   0.837  11.798  0.3500  0.5199  0.4974
  834MPD2    C512316   1.825   0.823  11.691  0.1417 -0.0537  0.0682
  834MPD2     H12317   1.528   0.591  11.743 -0.6226  1.6699 -0.8180
  834MPD2    H112318   1.760   0.923  11.859 -2.9043  1.2333  0.6520
  834MPD2    H212319   1.867   0.719  11.513  0.5333  0.5274 -0.1263
  834MPD2    H312320   1.908   0.891  11.677  0.8843 -1.7874 -4.1414
  834MPD2     N12321   1.528   0.778  11.906  0.6106  0.1354 -0.2774
  834MPD2    H512322   1.452   0.712  11.921  0.8263 -0.5410 -2.2023
  834MPD2    N112323   1.698   0.516  11.546  0.5251 -0.8359  0.2782
  834MPD2    H712324   1.759   0.502  11.466  1.8486  0.3574  1.0718
  835MPD2     C12325   1.378   3.570  10.764  0.0868 -0.5818  0.1257
  835MPD2    C112326   1.294   3.673  10.810  0.3137  0.2454  0.4220
  835MPD2    C212327   1.297   3.698  10.944  0.1654  0.0808 -0.4723
  835MPD2    C312328   1.361   3.614  11.038 -0.1357 -0.3252 -0.6965
  835MPD2    C412329   1.436   3.505  10.993  0.5744 -0.8399  0.2309
  835MPD2    C512330   1.438   3.484  10.857 -0.5075  0.4652  0.6818
  835MPD2     H12331   1.249   3.785  10.987 -0.0445  1.3596 -3.3154
  835MPD2    H112332   1.488   3.433  11.055  2.0906 -1.7620 -2.1190
  835MPD2    H212333   1.403   3.563  10.659 -0.7229 -1.0734 -0.0328
  835MPD2    H312334   1.505   3.408  10.818 -1.6273  0.1072 -0.5858
  835MPD2     N12335   1.364   3.629  11.175 -1.0517  0.7921 -0.2116
  835MPD2    H512336   1.417   3.557  11.224  0.9548  1.5352 -1.3095
  835MPD2    N112337   1.224   3.758  10.727 -0.3242 -0.1110  0.7032
  835MPD2    H712338   1.173   3.836  10.769  1.9663  1.0986  1.2154
  836MPD2     C12339   0.830   3.922  11.621 -0.0871  0.7418  1.0887
  836MPD2    C112340   0.933   3.880  11.705 -0.3354  0.0102  0.1874
  836MPD2    C212341   0.908   3.880  11.842 -0.2985  0.1175 -0.4537
  836MPD2    C312342   0.788   3.935  11.893 -0.2484  0.8846 -0.0030
  836MPD2    C412343   0.692   3.988  11.804 -0.5122 -0.1713  0.3966
  836MPD2    C512344   0.707   3.969  11.670  0.1491  0.4425  0.0313
  836MPD2     H12345   0.989   3.843  11.904  1.1978 -0.3397 -2.6936
  836MPD2    H112346   0.592   4.009  11.840 -0.5828  1.1576 -0.5914
  836MPD2    H212347   0.845   3.918  11.513 -0.7410  0.2605  1.0132
  836MPD2    H312348   0.619   3.993  11.612 -0.2975 -1.4894 -0.0718
  836MPD2     N12349   0.758   3.937  12.035  0.3983  0.3165 -0.9362
  836MPD2    H512350   0.680   3.997  12.059  0.5603  0.2495 -0.2534
  836MPD2    N112351   1.060   3.848  11.648 -0.1229  0.1803 -0.0746
  836MPD2    H712352   1.062   3.860  11.547 -1.4307 -0.5941 -0.1928
  837MPD2     C12353   4.494   3.327  10.242 -0.3834  0.5550 -0.4750
  837MPD2    C112354   4.397   3.378  10.159 -0.4401 -0.6825 -0.2537
  837MPD2    C212355   4.374   3.515  10.163  0.3115 -0.1977  0.5554
  837MPD2    C312356   4.428   3.596  10.260  0.0320  0.0123  0.3563
  837MPD2    C412357   4.506   3.539  10.356 -0.2922 -0.5124 -0.1675
  837MPD2    C512358   4.540   3.407  10.341  0.2886  0.8945  0.3004
  837MPD2     H12359   4.313   3.561  10.086  1.2552  1.9456  1.0852
  837MPD2    H112360   4.558   3.594  10.433  0.9587  0.2652 -1.5539
  837MPD2    H212361   4.537   3.228  10.231  0.2651  0.6328  1.3907
  837MPD2    H312362   4.611   3.360  10.407 -0.5666 -1.4842 -0.4669
  837MPD2     N12363   4.390   3.732  10.260  0.1945 -0.4598  0.0106
  837MPD2    H512364   4.324   3.762  10.188  0.7294  0.5467 -0.0668
  837MPD2    N112365   4.339   3.307  10.051  0.5482  0.0873 -0.0513
  837MPD2    H712366   4.261   3.354  10.006 -0.9665 -0.9142  1.5430
  838MPD2     C12367   2.910   2.080  11.872  0.0560 -0.6143 -0.7190
  838MPD2    C112368   2.863   1.960  11.825 -0.1296 -1.1804  0.3223
  838MPD2    C212369   2.848   1.852  11.903 -0.2980  0.5358  0.1913
  838MPD2    C312370   2.877   1.865  12.040 -0.2468  0.8669  0.4250
  838MPD2    C412371   2.926   1.980  12.090  0.2770 -0.1914  1.2138
  838MPD2    C512372   2.932   2.092  12.007 -0.5011  0.3567  1.0800
  838MPD2     H12373   2.804   1.764  11.858  1.9524 -0.8627  0.7053
  838MPD2    H112374   2.953   1.993  12.194  1.2629  4.0059  0.4207
  838MPD2    H212375   2.896   2.170  11.813  0.4571  0.3004  0.5895
  838MPD2    H312376   2.946   2.195  12.040  0.1882  0.9004 -0.9063
  838MPD2     N12377   2.853   1.758  12.126 -0.3249 -0.5245  0.7077
  838MPD2    H512378   2.881   1.777  12.222 -1.2612 -1.0058  1.0828
  838MPD2    N112379   2.837   1.937  11.689 -0.7003  0.1788  0.2023
  838MPD2    H712380   2.791   1.847  11.679 -1.8612  0.6362  1.4977
  839MPD2     C12381   2.471   1.225  11.598 -0.5467 -0.1216  0.1737
  839MPD2    C112382   2.542   1.221  11.480 -0.2536  0.1240 -0.6202
  839MPD2    C212383   2.603   1.333  11.434  0.7071  0.4660 -0.0881
  839MPD2    C312384   2.584   1.458  11.494  0.3172  0.0097  0.0753
  839MPD2    C412385   2.515   1.453  11.620  0.9890 -0.0612 -0.0986
  839MPD2    C512386   2.463   1.338  11.671 -0.2695  0.2207 -0.9816
  839MPD2     H12387   2.653   1.330  11.338 -0.9797 -2.6157 -0.8903
  839MPD2    H112388   2.497   1.543  11.677  1.5625 -0.4512  0.7140
  839MPD2    H212389   2.440   1.137  11.654 -2.2220  0.1452 -0.3236
  839MPD2    H312390   2.404   1.349  11.761  3.1665 -1.1117  1.4177
  839MPD2     N12391   2.637   1.583  11.454 -0.4040 -0.2956  0.7165
  839MPD2    H512392   2.619   1.662  11.515  2.6496 -0.0571  1.2991
  839MPD2    N112393   2.548   1.099  11.402  0.8387  0.1551 -0.7172
  839MPD2    H712394   2.601   1.099  11.316  1.8194  1.0634 -0.1126
  840MPD2     C12395   3.105   4.325   9.954 -0.4732  0.3246  0.1548
  840MPD2    C112396   3.171   4.227  10.026  0.5139 -0.6550 -0.7994
  840MPD2    C212397   3.281   4.263  10.105  0.4384  0.5854 -0.6779
  840MPD2    C312398   3.303   4.399  10.125  0.2479  0.0708 -0.1442
  840MPD2    C412399   3.236   4.496  10.059 -0.0804 -0.0691 -0.3545
  840MPD2    C512400   3.137   4.458   9.973 -0.0977  0.4137  0.4940
  840MPD2     H12401   3.335   4.188  10.161  1.4994  0.9945 -1.1613
  840MPD2    H112402   3.255   4.602  10.067  0.2082 -0.3393  2.3970
  840MPD2    H212403   3.028   4.296   9.884  0.7783 -1.2535 -0.5590
  840MPD2    H312404   3.078   4.532   9.921 -1.3141 -0.7120  0.2569
  840MPD2     N12405   3.401   4.455  10.204 -0.0698  0.3123 -0.7489
  840MPD2    H512406   3.404   4.556  10.213 -0.1453  0.2740 -0.2936
  840MPD2    N112407   3.132   4.087  10.014  0.4267  0.0527 -0.4545
  840MPD2    H712408   3.046   4.058   9.968 -0.1671 -0.2258  0.8297
  841MPD2     C12409   2.999   4.105  14.034 -0.2990 -0.1653  0.3135
  841MPD2    C112410   2.980   4.055  14.162  0.2886 -0.2323  0.0964
  841MPD2    C212411   3.085   3.983  14.212  0.4642 -0.5392  0.2609
  841MPD2    C312412   3.207   3.964  14.147 -0.9630 -0.3178 -0.2756
  841MPD2    C412413   3.231   4.027  14.022  1.0814 -0.1530 -0.0756
  841MPD2    C512414   3.122   4.090  13.968  0.3257  0.4798 -0.4096
  841MPD2     H12415   3.072   3.933  14.308  1.5286 -2.1969 -0.4472
  841MPD2    H112416   3.317   4.012  13.958  1.3578 -2.0633  0.7452
  841MPD2    H212417   2.923   4.171  13.994 -0.2059 -0.1922  0.0877
  841MPD2    H312418   3.123   4.143  13.874  1.1813  1.3391  0.0830
  841MPD2     N12419   3.305   3.889  14.211  0.0923 -0.3722 -0.3187
  841MPD2    H512420   3.285   3.860  14.306 -0.4340 -1.6731 -0.8299
  841MPD2    N112421   2.853   4.060  14.228  0.4375  0.1061  0.3326
  841MPD2    H712422   2.846   4.016  14.319  0.4906 -1.2313 -0.3016
  842MPD2     C12423   2.794   4.166  16.654 -0.5578  0.2249 -0.3029
  842MPD2    C112424   2.914   4.224  16.632  0.4975  0.4396  0.7942
  842MPD2    C212425   3.030   4.168  16.693 -0.6728 -0.2680  1.0748
  842MPD2    C312426   3.018   4.064  16.780  0.5474 -0.4300 -0.2671
  842MPD2    C412427   2.894   4.005  16.805 -0.7915 -0.4165 -0.0080
  842MPD2    C512428   2.787   4.060  16.741 -0.1849 -0.7070  0.5261
  842MPD2     H12429   3.117   4.233  16.694 -1.1337  0.4001 -2.3093
  842MPD2    H112430   2.883   3.916  16.867 -1.9022 -1.4591 -1.7046
  842MPD2    H212431   2.712   4.218  16.604 -0.5654  1.0096  0.5226
  842MPD2    H312432   2.695   4.018  16.781 -1.5499  1.6963 -0.0358
  842MPD2     N12433   3.129   4.016  16.865 -0.8255  0.8130  0.6719
  842MPD2    H512434   3.111   3.951  16.941  2.4979 -0.6834  0.1830
  842MPD2    N112435   2.921   4.349  16.563  0.3058  0.2435  0.8585
  842MPD2    H712436   2.830   4.395  16.560  0.8225  1.1083 -1.5243
  843MPD2     C12437   0.797   0.841  17.169  0.4096 -0.1337  0.5087
  843MPD2    C112438   0.811   0.759  17.276  0.0670 -0.3645  0.5560
  843MPD2    C212439   0.890   0.800  17.390 -0.0521  0.3013  0.3460
  843MPD2    C312440   0.954   0.917  17.395  0.0792 -0.0788  0.3223
  843MPD2    C412441   0.949   0.994  17.282  0.5358  0.3725 -0.0060
  843MPD2    C512442   0.874   0.959  17.177  0.7727 -0.3790  0.0369
  843MPD2     H12443   0.888   0.746  17.484  0.0887 -1.0540 -0.4191
  843MPD2    H112444   0.995   1.092  17.282  0.8271  0.2428  2.7274
  843MPD2    H212445   0.734   0.820  17.084 -0.8662  0.2456  1.3527
  843MPD2    H312446   0.876   1.031  17.096 -0.6269 -2.0055 -1.4466
  843MPD2     N12447   1.016   0.971  17.507  0.0657 -0.3563  0.0735
  843MPD2    H512448   1.067   1.057  17.488 -0.4963  0.2768  1.3762
  843MPD2    N112449   0.757   0.629  17.267  0.5360 -0.4084 -0.2452
  843MPD2    H712450   0.697   0.612  17.187  1.1443  0.4364 -0.8796
  844MPD2     C12451   3.778   3.614  16.691 -0.1138  0.3214  0.0116
  844MPD2    C112452   3.817   3.714  16.603  0.1609 -0.3238  0.0256
  844MPD2    C212453   3.937   3.781  16.626 -0.4067  0.1322 -0.3777
  844MPD2    C312454   4.027   3.740  16.728 -0.1604 -0.4457 -0.0746
  844MPD2    C412455   3.981   3.637  16.802 -0.1198  0.1855 -0.2990
  844MPD2    C512456   3.864   3.573  16.786 -0.2929  0.2925  0.0631
  844MPD2     H12457   3.975   3.838  16.542 -1.3654  1.3987  0.0570
  844MPD2    H112458   4.034   3.606  16.891  2.4351  2.3873 -1.0673
  844MPD2    H212459   3.683   3.562  16.695 -0.6645  1.1546 -2.7681
  844MPD2    H312460   3.833   3.492  16.850 -0.3399  0.8141  0.6994
  844MPD2     N12461   4.151   3.806  16.731  0.0862  0.1675  0.1922
  844MPD2    H512462   4.158   3.882  16.665 -0.8596  0.1518  0.0709
  844MPD2    N112463   3.742   3.749  16.487 -0.2845  0.0774 -0.1375
  844MPD2    H712464   3.788   3.813  16.422 -0.8305 -0.9896 -1.5908
  845MPD2     C12465   4.456   4.688  16.694  0.3348  0.1292  0.2542
  845MPD2    C112466   4.531   4.646  16.803  1.1055  0.6631  0.4509
  845MPD2    C212467   4.550   4.512  16.811  0.2830 -0.3830  0.7223
  845MPD2    C312468   4.479   4.428  16.727 -0.3720  0.1910  0.1927
  845MPD2    C412469   4.409   4.471  16.618 -0.5006 -0.3052  0.1081
  845MPD2    C512470   4.397   4.604  16.603 -0.2984 -0.5776  0.1825
  845MPD2     H12471   4.608   4.477  16.895 -0.7052 -0.7939  1.2287
  845MPD2    H112472   4.349   4.401  16.559  0.8049  1.2367 -3.0725
  845MPD2    H212473   4.436   0.057  16.684  1.3017  0.2893  0.0047
  845MPD2    H312474   4.327   4.640  16.529  0.6032 -0.2282 -0.5023
  845MPD2     N12475   4.489   4.291  16.764  0.1471  0.6465 -0.0572
  845MPD2    H512476   4.551   4.271  16.842  1.0517  3.9725  0.0704
  845MPD2    N112477   4.576   0.005  16.901 -0.3322  0.7016 -0.6088
  845MPD2    H712478   4.536   0.098  16.892 -2.0525  0.1254  1.0448
  846MPD2     C12479   0.442   0.699  13.457  0.4760  0.0308 -0.2739
  846MPD2    C112480   0.465   0.824  13.496  0.2032 -0.4009  0.4930
  846MPD2    C212481   0.429   0.864  13.622  0.7008  0.3976  0.1795
  846MPD2    C312482   0.361   0.781  13.710 -0.0720  0.0482  0.5010
  846MPD2    C412483   0.331   0.657  13.661 -0.3751 -0.2792 -0.0097
  846MPD2    C512484   0.379   0.616  13.543  1.1911 -0.5940  0.1333
  846MPD2     H12485   0.449   0.967  13.650 -1.2424  0.2974  1.8998
  846MPD2    H112486   0.290   0.578  13.723 -2.5438 -0.4279 -1.6739
  846MPD2    H212487   0.486   0.659  13.367  0.3218 -1.1957  0.1895
  846MPD2    H312488   0.370   0.512  13.512 -0.9119  0.2741 -2.1420
  846MPD2     N12489   0.323   0.834  13.839  0.3291 -0.5676 -0.3559
  846MPD2    H512490   0.358   0.927  13.858  0.8531 -0.6969 -0.6834
  846MPD2    N112491   0.516   0.939  13.426  0.1571  0.4682 -0.8771
  846MPD2    H712492   0.531   1.023  13.480  0.8096  0.6488 -1.3410
  847MPD2     C12493   1.315   1.466  14.361  0.2782 -0.9801  0.0837
  847MPD2    C112494   1.268   1.568  14.433  0.0693 -0.0258  0.7744
  847MPD2    C212495   1.349   1.625  14.532  0.7192 -0.4723  0.5453
  847MPD2    C312496   1.480   1.587  14.547  0.6345 -0.6479  0.1645
  847MPD2    C412497   1.526   1.480  14.480 -0.3217 -1.0619  0.3160
  847MPD2    C512498   1.439   1.413  14.393 -0.7613  0.1672 -0.4202
  847MPD2     H12499   1.305   1.706  14.589  0.5976 -0.3576  0.2894
  847MPD2    H112500   1.627   1.441  14.491 -0.6514 -1.4911  1.9432
  847MPD2    H212501   1.256   1.401  14.296 -0.0985 -2.6111  2.0520
  847MPD2    H312502   1.469   1.319  14.348  1.1747  1.0710 -1.0264
  847MPD2     N12503   1.556   1.664  14.647 -0.0846  0.1150  0.7264
  847MPD2    H512504   1.501   1.725  14.707 -0.1472  0.6931  0.0720
  847MPD2    N112505   1.139   1.612  14.435 -0.4718 -0.3085 -0.0410
  847MPD2    H712506   1.116   1.678  14.508  1.5901  0.3721 -0.0330
  848MPD2     C12507   4.081   4.257  16.395 -0.1340 -0.0554 -1.1609
  848MPD2    C112508   4.074   4.342  16.506 -0.2170  0.5273  0.0922
  848MPD2    C212509   4.077   4.476  16.493 -0.4011  0.7498 -0.7538
  848MPD2    C312510   4.080   4.540  16.371 -0.5197  1.1285 -0.2221
  848MPD2    C412511   4.091   4.459  16.260  0.0423 -0.0342  0.2851
  848MPD2    C512512   4.089   4.316  16.268  0.8565  0.1072 -0.4038
  848MPD2     H12513   4.075   4.531  16.587 -0.3033  1.7561 -1.3454
  848MPD2    H112514   4.086   4.503  16.161  0.3959  0.4821  0.5001
  848MPD2    H212515   4.094   4.150  16.403  0.4694  0.0222 -1.1085
  848MPD2    H312516   4.094   4.258  16.177 -1.1397  1.2699 -1.2680
  848MPD2     N12517   4.074   4.684  16.352  0.5507 -0.0870 -0.4154
  848MPD2    H512518   4.077   4.719  16.257 -0.8349 -0.4737 -0.6065
  848MPD2    N112519   4.072   4.295  16.636  0.0533 -0.1559 -1.0165
  848MPD2    H712520   4.061   4.360  16.713  0.0382  0.6793 -1.7207
  849MPD2     C12521   2.918   4.377  14.454 -0.0866 -0.1595  0.8031
  849MPD2    C112522   2.978   4.400  14.332 -0.2689  0.6562  0.2880
  849MPD2    C212523   3.111   4.379  14.317  0.8381 -0.1928  0.9168
  849MPD2    C312524   3.188   4.321  14.420 -0.1851 -0.0572  0.0745
  849MPD2    C412525   3.127   4.289  14.539  0.4794  0.3268  0.6142
  849MPD2    C512526   2.995   4.321  14.559 -0.4064 -0.3584 -0.4812
  849MPD2     H12527   3.168   4.433  14.242  1.6755 -2.7599 -0.2919
  849MPD2    H112528   3.189   4.246  14.618  0.3394 -2.7300 -0.9320
  849MPD2    H212529   2.813   4.398  14.473 -0.3840 -0.9762  0.0647
  849MPD2    H312530   2.943   4.287  14.648  1.7859 -1.4551  0.4004
  849MPD2     N12531   3.325   4.301  14.413  0.4814  0.1046  0.6160
  849MPD2    H512532   3.378   4.286  14.498  0.7423 -1.5365  0.1603
  849MPD2    N112533   2.911   4.447  14.214  0.0788 -0.2974  0.0870
  849MPD2    H712534   2.966   4.450  14.129 -0.1212 -0.5002 -0.0504
  850MPD2     C12535   0.981   2.376  14.595  0.9485  0.3862  0.1008
  850MPD2    C112536   0.986   2.476  14.681 -0.2017 -0.0535 -0.0328
  850MPD2    C212537   1.100   2.555  14.701  0.4800  0.2947 -0.3072
  850MPD2    C312538   1.218   2.514  14.650  0.1992 -0.5269 -0.0685
  850MPD2    C412539   1.215   2.416  14.548  0.0365 -0.0551 -0.2117
  850MPD2    C512540   1.097   2.356  14.512  0.3378 -0.6765  0.9772
  850MPD2     H12541   1.095   2.634  14.775 -2.1030  0.3289 -0.5050
  850MPD2    H112542   1.301   2.386  14.491  0.7141 -1.1321  1.3720
  850MPD2    H212543   0.893   2.314  14.580  1.4075 -0.2055 -0.1790
  850MPD2    H312544   1.103   2.267  14.451  0.3025 -0.1089  0.1546
  850MPD2     N12545   1.350   2.554  14.689  0.0432 -0.5591 -0.1785
  850MPD2    H512546   1.422   2.518  14.627 -1.5756  1.1435 -3.0713
  850MPD2    N112547   0.872   2.488  14.758 -0.5557 -0.1778  0.1840
  850MPD2    H712548   0.784   2.451  14.723  0.0779 -0.6990 -0.8688
  851MPD2     C12549   1.061   2.321  15.404  0.3390 -0.3088  0.1669
  851MPD2    C112550   0.984   2.265  15.303  0.1889  0.0187 -0.7737
  851MPD2    C212551   1.016   2.138  15.258 -0.1511  0.2566  0.7382
  851MPD2    C312552   1.119   2.069  15.306  0.2435 -0.4860 -0.4784
  851MPD2    C412553   1.196   2.122  15.406  1.0669  0.1864 -0.1969
  851MPD2    C512554   1.165   2.249  15.451  0.2543  0.0959  0.0405
  851MPD2     H12555   0.951   2.090  15.186 -0.6867  1.4692  0.4108
  851MPD2    H112556   1.266   2.055  15.455 -0.5048  0.2475  2.1270
  851MPD2    H212557   1.050   2.418  15.451  0.5108  0.2209 -0.8802
  851MPD2    H312558   1.211   2.291  15.540 -0.5262  0.0381  0.4713
  851MPD2     N12559   1.137   1.937  15.257 -0.5737  0.4576 -0.3150
  851MPD2    H512560   1.070   1.899  15.191 -0.8669  0.3611  0.0376
  851MPD2    N112561   0.872   2.339  15.256  0.0351 -0.6863  0.7996
  851MPD2    H712562   0.853   2.427  15.302  1.6092  0.7612 -1.3639
  852MPD2     C12563   0.271   0.066  10.209 -0.6595  0.0016 -0.5075
  852MPD2    C112564   0.345   0.176  10.252 -0.9424  1.2689 -0.3278
  852MPD2    C212565   0.415   0.245  10.151 -0.3874  0.7860 -0.0870
  852MPD2    C312566   0.412   0.189  10.021  0.6326  0.5670  0.7640
  852MPD2    C412567   0.349   0.073   9.981 -0.0609 -0.2078 -0.1694
  852MPD2    C512568   0.280   0.016  10.081  0.0953  0.2608 -0.5962
  852MPD2     H12569   0.470   0.333  10.182 -0.8841  0.4453  1.7325
  852MPD2    H112570   0.341   0.038   9.879  1.9226 -0.3968 -0.2627
  852MPD2    H212571   0.198   0.019  10.273 -1.3447  0.0328 -1.2604
  852MPD2    H312572   0.223   4.663  10.056 -1.2856  0.6392  1.2174
  852MPD2     N12573   0.493   0.257   9.927  0.1706 -0.6026  0.1244
  852MPD2    H512574   0.533   0.347   9.951 -0.1794 -0.7751  1.3326
  852MPD2    N112575   0.331   0.233  10.377 -0.1380 -0.0247  0.1117
  852MPD2    H712576   0.372   0.324  10.397 -1.3012  0.4341  0.3601
  853MPD2     C12577   2.423   4.613  12.374 -0.3144  0.1887 -0.9317
  853MPD2    C112578   2.327   4.704  12.338  0.6279 -0.2792 -0.1390
  853MPD2    C212579   2.287   4.703  12.205  0.2240  0.9855 -0.2076
  853MPD2    C312580   2.349   4.621  12.111  0.3096 -0.1694  0.4912
  853MPD2    C412581   2.444   4.534  12.158 -0.2611 -0.1050  0.0926
  853MPD2    C512582   2.476   4.526  12.286  0.4052  0.1846  0.1017
  853MPD2     H12583   2.212   0.038  12.172  0.4971  1.2264 -0.3119
  853MPD2    H112584   2.500   4.473  12.089  0.8924  1.0019  0.0471
  853MPD2    H212585   2.447   4.598  12.479 -2.4436 -0.2406 -0.5107
  853MPD2    H312586   2.556   4.457  12.313  0.7539  0.9619  1.0610
  853MPD2     N12587   2.330   4.623  11.968 -0.4563 -0.0520 -0.1991
  853MPD2    H512588   2.381   4.551  11.919 -0.9233 -0.8287  0.4649
  853MPD2    N112589   2.270   0.046  12.448 -0.0577  0.1357 -0.5481
  853MPD2    H712590   2.318   0.034  12.536  1.8555  0.5399 -1.5172
  854MPD2     C12591   4.079   0.013  12.929 -0.0089  0.1433  0.6719
  854MPD2    C112592   4.132   0.060  12.807 -0.0326  0.1372 -0.4443
  854MPD2    C212593   4.261   0.026  12.764 -0.3979 -0.2473  0.0276
  854MPD2    C312594   4.342   4.694  12.849  0.2303  0.0504 -0.1624
  854MPD2    C412595   4.285   4.646  12.962 -0.0955 -0.3510  0.4056
  854MPD2    C512596   4.154   4.659  12.999  0.5410  0.2280  0.1373
  854MPD2     H12597   4.298   0.048  12.664 -0.4671 -3.2472 -0.6626
  854MPD2    H112598   4.351   4.590  13.027  1.7916  0.1449 -1.0609
  854MPD2    H212599   3.974   0.021  12.957 -0.0500  0.4822  0.4156
  854MPD2    H312600   4.112   4.610  13.086  1.3810 -0.9810 -0.1408
  854MPD2     N12601   4.472   4.651  12.816  0.1376 -0.3664 -0.1336
  854MPD2    H512602   4.515   4.580  12.873  2.4956 -1.0273 -2.7411
  854MPD2    N112603   4.039   0.141  12.732 -0.1608 -0.4205 -0.3110
  854MPD2    H712604   3.948   0.169  12.767  0.2968 -1.3046  1.6017
  855MPD2     C12605   0.241   4.061  13.278  0.1973 -0.7723  0.5217
  855MPD2    C112606   0.162   4.169  13.291 -0.0871  0.3658 -0.4701
  855MPD2    C212607   0.137   4.243  13.176  0.6048  0.0389  0.3992
  855MPD2    C312608   0.195   4.215  13.054 -0.1804 -0.6209 -0.5409
  855MPD2    C412609   0.268   4.094  13.050 -0.0251 -0.2810 -0.0001
  855MPD2    C512610   0.287   4.013  13.156  0.4439  0.2103  0.0524
  855MPD2     H12611   0.074   4.332  13.180  0.6513  0.2006 -2.2753
  855MPD2    H112612   0.301   4.060  12.952 -2.0206 -0.2608 -0.6894
  855MPD2    H212613   0.254   3.991  13.359  1.2942 -0.9115  0.2360
  855MPD2    H312614   0.338   3.918  13.160  1.3093  0.7183  1.1277
  855MPD2     N12615   0.165   4.286  12.934  0.2873  0.0799  0.0210
  855MPD2    H512616   0.187   4.247  12.843 -0.4861  3.4075 -1.6060
  855MPD2    N112617   0.107   4.198  13.421 -0.1070 -0.0280  1.0333
  855MPD2    H712618   0.131   4.135  13.497  0.4634 -0.1581  0.7429
  856MPD2     C12619   1.854   0.757  13.284 -0.3598  0.0064 -0.4916
  856MPD2    C112620   1.921   0.863  13.338  0.1719 -0.1310  0.3267
  856MPD2    C212621   1.862   0.986  13.356  0.5522 -0.2072  0.2742
  856MPD2    C312622   1.724   0.990  13.347  0.4953 -0.2656  0.0386
  856MPD2    C412623   1.653   0.889  13.287 -0.2628 -0.4605  0.9333
  856MPD2    C512624   1.719   0.774  13.249  0.6430 -0.0066 -0.2551
  856MPD2     H12625   1.914   1.071  13.398 -0.3001  1.2228 -1.5946
  856MPD2    H112626   1.546   0.898  13.269 -0.7096 -2.3655  2.5355
  856MPD2    H212627   1.901   0.661  13.266  0.2116  0.2450 -0.2790
  856MPD2    H312628   1.657   0.693  13.215  0.5337 -0.3892  0.8791
  856MPD2     N12629   1.645   1.096  13.398  0.5889 -0.3242  0.0438
  856MPD2    H512630   1.552   1.103  13.357  0.3539  1.0274  0.8255
  856MPD2    N112631   2.060   0.845  13.379  0.5574 -0.2917  0.6079
  856MPD2    H712632   2.119   0.927  13.388 -0.9463  1.1327 -2.7777
  857MPD2     C12633   3.184   3.418  12.519  0.5563  0.1912  0.1026
  857MPD2    C112634   3.317   3.425  12.551  0.2089 -1.1738  0.6975
  857MPD2    C212635   3.363   3.552  12.579  0.3484  0.2504  0.1230
  857MPD2    C312636   3.295   3.670  12.556 -0.2948 -0.4477  0.1193
  857MPD2    C412637   3.164   3.661  12.525  0.7796 -0.5875 -0.8099
  857MPD2    C512638   3.110   3.534  12.508 -0.7529  0.6296 -0.1215
  857MPD2     H12639   3.469   3.559  12.598  0.2101 -0.1577  1.0482
  857MPD2    H112640   3.104   3.751  12.533  0.4276 -0.8621 -0.3727
  857MPD2    H212641   3.134   3.323  12.509  1.7659 -0.2315 -1.9190
  857MPD2    H312642   3.003   3.524  12.493 -0.5866 -2.1810  0.6247
  857MPD2     N12643   3.359   3.791  12.576  0.1164 -0.2940  0.3267
  857MPD2    H512644   3.457   3.785  12.604 -0.5905 -3.1713  2.0974
  857MPD2    N112645   3.396   3.309  12.546 -0.1730 -0.6272  0.2033
  857MPD2    H712646   3.352   3.224  12.513 -0.6654 -0.9922  1.8174
  858MPD2     C12647   4.444   2.304  17.104 -0.1633  0.9753 -1.1485
  858MPD2    C112648   4.419   2.163  17.110 -0.1063 -0.5448  0.4835
  858MPD2    C212649   4.408   2.102  17.236  0.2548  0.3802  0.2941
  858MPD2    C312650   4.403   2.173  17.357 -0.0923  0.8106 -0.2339
  858MPD2    C412651   4.423   2.312  17.347  0.1139  0.4701  0.1710
  858MPD2    C512652   4.433   2.374  17.224  0.1598  0.2656  0.8612
  858MPD2     H12653   4.381   1.997  17.242 -1.3579  0.8680  1.5500
  858MPD2    H112654   4.414   2.381  17.430  0.6266 -0.5037  1.0372
  858MPD2    H212655   4.443   2.353  17.008  1.3395  2.8911 -0.1903
  858MPD2    H312656   4.444   2.481  17.214  3.9487 -0.3102 -1.1893
  858MPD2     N12657   4.376   2.107  17.487  0.5698  0.9653 -0.5452
  858MPD2    H512658   4.379   2.166  17.570  0.2658  1.2493 -0.7324
  858MPD2    N112659   4.382   2.094  16.986  0.5764 -0.5109  0.7120
  858MPD2    H712660   4.369   2.154  16.905  1.0401  1.8453  2.3690
  859MPD2     C12661   3.063   4.304  15.521  0.4722 -0.6173  0.2445
  859MPD2    C112662   3.066   4.279  15.385 -0.0777 -0.1276  0.6639
  859MPD2    C212663   3.046   4.150  15.345  0.3192  0.8980 -0.0276
  859MPD2    C312664   3.019   4.046  15.431 -0.6362  0.6050  0.1513
  859MPD2    C412665   3.022   4.071  15.567  0.0739 -0.4916  0.3083
  859MPD2    C512666   3.038   4.200  15.610 -0.8097  0.3682  0.8322
  859MPD2     H12667   3.039   4.126  15.239 -1.5913  0.7141  0.1310
  859MPD2    H112668   3.011   3.993  15.642 -0.6514 -0.4896  0.2037
  859MPD2    H212669   3.078   4.404  15.561  1.5976 -0.5112 -0.4293
  859MPD2    H312670   3.032   4.223  15.715  0.1154 -0.5499  1.0869
  859MPD2     N12671   2.984   3.913  15.394  0.3717 -0.6807  0.1084
  859MPD2    H512672   2.967   3.846  15.468 -3.4215  0.0934 -0.0367
  859MPD2    N112673   3.074   4.388  15.299 -0.0843  0.1811 -0.3040
  859MPD2    H712674   3.117   4.473  15.336 -1.7963  1.0632 -0.3489
  860MPD2     C12675   0.633   4.711  11.276 -0.1685 -0.3683  0.3775
  860MPD2    C112676   0.597   4.640  11.390  0.1648 -0.2575 -0.2019
  860MPD2    C212677   0.469   4.613  11.416 -0.0355 -1.0963  0.5539
  860MPD2    C312678   0.374   4.687  11.351  0.3679  0.0202  0.3289
  860MPD2    C412679   0.409   0.020  11.238  0.1821 -0.2127  0.7519
  860MPD2    C512680   0.534   0.028  11.199  0.1909 -0.3015  0.7234
  860MPD2     H12681   0.441   4.558  11.505  0.2026 -0.3015  1.1228
  860MPD2    H112682   0.336   0.078  11.184 -0.7812 -2.9583 -0.9111
  860MPD2    H212683   0.739   4.719  11.255  0.2107  0.4773  2.6457
  860MPD2    H312684   0.562   0.086  11.112  1.2334 -1.5350  0.2535
  860MPD2     N12685   0.246   4.690  11.403  0.2573 -0.7427  0.0033
  860MPD2    H512686   0.230   4.617  11.472  2.8032 -0.2904  1.0902
  860MPD2    N112687   0.686   4.589  11.481 -0.1158  0.1616  0.1276
  860MPD2    H712688   0.649   4.539  11.560 -0.6353 -0.4104 -0.4755
  861MPD2     C12689   3.853   2.999  10.838 -0.0564 -0.2779 -0.6648
  861MPD2    C112690   3.743   3.063  10.900 -0.0862  0.3765 -0.2495
  861MPD2    C212691   3.649   3.141  10.836  0.5315  0.4452  0.3826
  861MPD2    C312692   3.666   3.162  10.702 -0.4829  0.1739 -0.2809
  861MPD2    C412693   3.766   3.096  10.631  0.4427 -0.1185 -0.5247
  861MPD2    C512694   3.858   3.013  10.699 -0.3555  0.4092  0.5938
  861MPD2     H12695   3.564   3.178  10.891 -0.6474 -3.5498  1.2603
  861MPD2    H112696   3.787   3.117  10.526  1.4731  0.4525 -0.2086
  861MPD2    H212697   3.927   2.939  10.890  1.2505 -0.9383 -3.2971
  861MPD2    H312698   3.941   2.964  10.650  1.5793  3.5121  0.7878
  861MPD2     N12699   3.594   3.260  10.634 -0.2616  0.1383 -0.8629
  861MPD2    H512700   3.613   3.277  10.536 -0.4464  2.7161 -0.4564
  861MPD2    N112701   3.725   3.051  11.043 -0.0499  0.2034  0.2924
  861MPD2    H712702   3.658   3.118  11.079 -0.8102 -0.4944  0.1762
  862MPD2     C12703   3.443   3.458   9.977  0.1088 -0.1454  0.6940
  862MPD2    C112704   3.435   3.384  10.094 -0.5773  0.5450 -0.3211
  862MPD2    C212705   3.445   3.247  10.083  0.1069  0.5824 -0.6317
  862MPD2    C312706   3.453   3.178   9.959 -0.2652 -0.3096 -0.1427
  862MPD2    C412707   3.444   3.266   9.850  0.2785 -0.2341  0.1952
  862MPD2    C512708   3.441   3.403   9.856 -0.2111 -0.6812 -0.7740
  862MPD2     H12709   3.446   3.183  10.170 -0.0649  0.6359 -0.5901
  862MPD2    H112710   3.447   3.224   9.750  1.1049  0.6104 -0.1344
  862MPD2    H212711   3.427   3.565   9.973  0.8368 -0.0424  0.5069
  862MPD2    H312712   3.431   3.465   9.768  0.1502 -1.8590 -1.6415
  862MPD2     N12713   3.444   3.036   9.947  0.2770 -0.1318 -0.0528
  862MPD2    H512714   3.409   2.994   9.861  2.7746 -0.7178 -0.7606
  862MPD2    N112715   3.424   3.439  10.228 -0.0360  0.1988  0.0821
  862MPD2    H712716   3.412   3.372  10.303 -0.0511  1.8085  1.5219
  863MPD2     C12717   2.096   0.770  16.612 -0.2156  0.1952 -0.3754
  863MPD2    C112718   2.161   0.891  16.640  0.4444 -0.2332  0.5679
  863MPD2    C212719   2.283   0.891  16.705 -0.7679 -0.6128  1.1664
  863MPD2    C312720   2.350   0.775  16.710  0.8251  0.8996  0.3879
  863MPD2    C412721   2.287   0.655  16.690  0.3479 -0.1507  0.6408
  863MPD2    C512722   2.159   0.653  16.639  0.4232 -0.8456  0.0405
  863MPD2     H12723   2.329   0.986  16.729  1.0724 -2.0653  3.4458
  863MPD2    H112724   2.335   0.561  16.712  1.4500  0.1798 -0.3706
  863MPD2    H212725   1.992   0.776  16.583  0.0964 -0.1573 -1.5835
  863MPD2    H312726   2.104   0.560  16.632  1.6754 -1.7532  2.0265
  863MPD2     N12727   2.482   0.776  16.756 -0.7739  0.0256  0.2954
  863MPD2    H512728   2.524   0.685  16.770  1.9951  0.9513 -1.9292
  863MPD2    N112729   2.091   1.008  16.617  0.2574 -0.4975 -0.2214
  863MPD2    H712730   2.015   1.009  16.549 -1.9272 -1.7769  2.2136
  864MPD2     C12731   3.305   2.947  17.336  0.1363  0.8597 -0.7344
  864MPD2    C112732   3.336   2.845  17.250 -0.3622 -0.5791  0.3944
  864MPD2    C212733   3.468   2.813  17.249 -0.2076  0.6375 -0.5371
  864MPD2    C312734   3.564   2.875  17.326  0.5995 -0.0620  0.7391
  864MPD2    C412735   3.529   2.975  17.412  0.1786  0.1813 -0.3151
  864MPD2    C512736   3.398   3.017  17.411  0.7484  0.1015  0.0216
  864MPD2     H12737   3.511   2.736  17.186 -1.4692 -0.0519 -0.5487
  864MPD2    H112738   3.606   3.025  17.469 -0.2209 -1.5135  1.7010
  864MPD2    H212739   3.203   2.985  17.334 -0.1847  0.0594  0.5069
  864MPD2    H312740   3.353   3.101  17.463  0.9942  0.0543  0.3111
  864MPD2     N12741   3.707   2.836  17.313 -0.0889 -0.4667 -0.5271
  864MPD2    H512742   3.719   2.774  17.234 -1.5984 -1.7379  0.2358
  864MPD2    N112743   3.237   2.770  17.173  0.7596 -0.3617  0.5847
  864MPD2    H712744   3.141   2.801  17.185  1.4547  0.9902  2.5979
  865MPD2     C12745   3.714   2.785  16.554  0.3096  0.4328 -0.0912
  865MPD2    C112746   3.807   2.689  16.593  0.2905  0.0632 -0.7438
  865MPD2    C212747   3.874   2.708  16.715 -0.5862  0.5587  0.8967
  865MPD2    C312748   3.852   2.821  16.794  0.0764  0.5553 -0.8077
  865MPD2    C412749   3.764   2.921  16.746  0.8834  0.0027 -0.2058
  865MPD2    C512750   3.696   2.900  16.629  0.1229  0.7564  0.2641
  865MPD2     H12751   3.948   2.632  16.737 -0.3364  1.0805  1.8692
  865MPD2    H112752   3.757   3.018  16.796 -0.3684 -0.0973 -0.1807
  865MPD2    H212753   3.659   2.778  16.461 -0.5960 -1.5731  0.5775
  865MPD2    H312754   3.633   2.976  16.584 -1.9092 -0.6431  0.7279
  865MPD2     N12755   3.913   2.836  16.918 -0.5093 -0.6435  0.6249
  865MPD2    H512756   3.864   2.901  16.979  0.1068 -1.1106  1.6191
  865MPD2    N112757   3.818   2.567  16.518 -0.1371 -0.2191  0.2657
  865MPD2    H712758   3.788   2.560  16.421  2.3685 -1.0589 -0.4699
  866MPD2     C12759   4.380   2.802  11.111 -0.3684 -0.3513  0.7036
  866MPD2    C112760   4.416   2.887  11.010  0.6558  0.2266 -0.5351
  866MPD2    C212761   4.346   3.001  10.982  1.1882 -0.1188  0.7443
  866MPD2    C312762   4.230   3.034  11.051  0.6266  0.0158 -0.3851
  866MPD2    C412763   4.196   2.949  11.156 -0.0653 -0.7673 -0.4970
  866MPD2    C512764   4.265   2.833  11.183 -0.2734 -0.1210  0.1112
  866MPD2     H12765   4.377   3.068  10.903  0.9876 -0.4780  0.3609
  866MPD2    H112766   4.104   2.965  11.210 -0.1769  0.0050 -0.9170
  866MPD2    H212767   4.441   2.718  11.143 -0.3546 -1.1900 -1.5728
  866MPD2    H312768   4.222   2.769  11.260 -0.5326 -0.1687 -0.0755
  866MPD2     N12769   4.138   3.138  11.013  0.3367 -0.0989  0.0684
  866MPD2    H512770   4.073   3.159  11.088 -0.0442 -0.5306 -0.1440
  866MPD2    N112771   4.535   2.859  10.943 -0.3575  0.2441  0.6647
  866MPD2    H712772   4.568   2.765  10.960  1.1087  1.2086  3.1945
  867MPD2     C12773   1.915   2.627  16.272 -0.6701  0.1925 -0.6626
  867MPD2    C112774   1.947   2.549  16.382  0.5646 -0.0513 -1.0331
  867MPD2    C212775   1.894   2.589  16.505 -0.0521 -0.0974  0.5902
  867MPD2    C312776   1.828   2.708  16.525  0.3279 -0.2976  0.4137
  867MPD2    C412777   1.786   2.777  16.414 -0.3836 -0.7721 -0.1192
  867MPD2    C512778   1.833   2.729  16.293  0.4170  0.1036 -0.4781
  867MPD2     H12779   1.908   2.519  16.587  0.2572 -1.5389 -0.6772
  867MPD2    H112780   1.718   2.861  16.409  1.0900  0.4413  0.1248
  867MPD2    H212781   1.953   2.612  16.172 -0.4842 -0.3680 -0.5059
  867MPD2    H312782   1.791   2.779  16.208 -2.8242  1.2504  1.7977
  867MPD2     N12783   1.790   2.761  16.650  0.2882 -0.1531 -0.1618
  867MPD2    H512784   1.749   2.854  16.653  1.5284  0.4341 -1.3582
  867MPD2    N112785   2.027   2.434  16.367  0.1523  0.0034 -0.0089
  867MPD2    H712786   2.058   2.401  16.276  1.0652 -2.1861  1.0885
  868MPD2     C12787   3.371   2.224  13.217 -0.2253 -0.1027 -0.3704
  868MPD2    C112788   3.436   2.108  13.266 -0.4335 -0.0474 -0.0885
  868MPD2    C212789   3.384   2.044  13.376 -0.5469  0.0224 -0.7405
  868MPD2    C312790   3.277   2.103  13.441  0.0506  0.8256  0.0439
  868MPD2    C412791   3.209   2.210  13.387 -0.8762 -0.3531 -0.1997
  868MPD2    C512792   3.260   2.277  13.280 -0.1045 -0.5481  0.3127
  868MPD2     H12793   3.438   1.961  13.422 -1.0939  1.0338  1.7123
  868MPD2    H112794   3.123   2.254  13.435  0.8769 -0.5411  3.1428
  868MPD2    H212795   3.408   2.275  13.130 -1.4438 -0.2083 -0.9473
  868MPD2    H312796   3.223   2.367  13.233  1.3551  1.1532  2.3995
  868MPD2     N12797   3.236   2.032  13.550  0.0565  0.3400 -0.1053
  868MPD2    H512798   3.280   1.943  13.571  3.3930  1.5561 -1.8324
  868MPD2    N112799   3.554   2.062  13.200  0.2239 -0.1639  0.2095
  868MPD2    H712800   3.577   2.116  13.117  2.3300  0.2284  1.0543
  869MPD2     C12801   0.367   3.894   0.736 -0.3940 -0.3707 -0.1276
  869MPD2    C112802   0.307   3.999   0.805  0.6797  0.3362 -0.0451
  869MPD2    C212803   0.321   4.132   0.765 -0.2545  0.2330 -0.5041
  869MPD2    C312804   0.367   4.160   0.639  0.5666 -0.0168  0.1564
  869MPD2    C412805   0.429   4.060   0.575 -0.1596 -0.2561 -0.1349
  869MPD2    C512806   0.432   3.932   0.619  0.2085  0.3549 -0.0615
  869MPD2     H12807   0.278   4.218   0.815  0.6943 -0.3038  1.1952
  869MPD2    H112808   0.466   4.086   0.477  0.9092  2.4583  0.9663
  869MPD2    H212809   0.346   3.789   0.756 -4.1329  0.2623 -0.6399
  869MPD2    H312810   0.476   3.856   0.556 -1.1133 -0.5283  0.0682
  869MPD2     N12811   0.364   4.291   0.579 -0.3462  0.2028 -0.3597
  869MPD2    H512812   0.391   4.292   0.481  1.7039  0.6367  0.2033
  869MPD2    N112813   0.229   3.956   0.912 -0.3576 -0.5514 -0.8231
  869MPD2    H712814   0.231   3.856   0.924  0.1985 -0.2621  1.5305
  870MPD2     C12815   0.434   3.124   1.636  0.3538 -0.7969  0.4691
  870MPD2    C112816   0.423   3.025   1.540 -0.9199 -0.1338  0.3629
  870MPD2    C212817   0.310   3.006   1.475  0.9372 -0.6189 -0.4364
  870MPD2    C312818   0.196   3.084   1.491 -0.1859 -0.6325  0.3380
  870MPD2    C412819   0.206   3.179   1.595 -0.2855  0.5880  0.2869
  870MPD2    C512820   0.322   3.196   1.660 -1.1755  0.3652  0.1303
  870MPD2     H12821   0.305   2.946   1.385 -1.5495 -1.3206  0.1836
  870MPD2    H112822   0.122   3.239   1.629 -1.0210 -0.3245  0.0883
  870MPD2    H212823   0.523   3.145   1.694  0.5353 -1.3239  0.3752
  870MPD2    H312824   0.325   3.275   1.735 -0.7810  0.7294 -0.2677
  870MPD2     N12825   0.078   3.064   1.413 -0.0286  0.2195 -0.0745
  870MPD2    H512826   0.068   2.989   1.345  1.4545 -1.2961  1.4062
  870MPD2    N112827   0.543   2.949   1.532 -0.3270 -0.1152  0.3986
  870MPD2    H712828   0.624   2.981   1.584 -0.4187 -0.1471  0.5610
  871MPD2     C12829   1.215   2.505  16.265  0.0215  0.7034 -0.7070
  871MPD2    C112830   1.191   2.467  16.396  0.2515  0.7008  0.2330
  871MPD2    C212831   1.231   2.335  16.442  0.0318 -0.2576  0.2670
  871MPD2    C312832   1.270   2.239  16.349 -0.2314 -0.4267  0.2403
  871MPD2    C412833   1.270   2.276  16.211  0.0703  0.5191 -0.0687
  871MPD2    C512834   1.237   2.402  16.173 -0.0068  0.5237  0.1850
  871MPD2     H12835   1.230   2.315  16.549 -0.8371  2.1175  0.6930
  871MPD2    H112836   1.279   2.203  16.131  2.7930 -0.4986  1.1643
  871MPD2    H212837   1.188   2.597  16.215 -2.0963  0.8664  0.7184
  871MPD2    H312838   1.208   2.405  16.069 -0.7999  2.3862  0.4645
  871MPD2     N12839   1.317   2.116  16.397  0.3548  1.0681  0.4864
  871MPD2    H512840   1.298   2.096  16.495 -1.1076 -0.4008 -0.0847
  871MPD2    N112841   1.145   2.559  16.490 -0.0102 -0.3558 -0.6911
  871MPD2    H712842   1.144   2.658  16.468 -0.2298 -0.2239 -0.1109
  872MPD2     C12843   1.938   0.114  13.836  0.0299 -0.2402  0.0529
  872MPD2    C112844   1.896   0.214  13.751  0.4650 -0.2725  0.1929
  872MPD2    C212845   1.802   0.301  13.798  0.1205  0.0722  0.1451
  872MPD2    C312846   1.726   0.271  13.915 -0.3311  0.5152  0.1959
  872MPD2    C412847   1.758   0.170  13.994 -0.1689  0.2418  0.1116
  872MPD2    C512848   1.879   0.102  13.962  0.2176  0.2270 -0.6128
  872MPD2     H12849   1.781   0.391  13.742  0.7093 -0.3941 -0.8342
  872MPD2    H112850   1.705   0.147  14.086 -1.3827 -0.9674 -0.8954
  872MPD2    H212851   2.012   0.041  13.806  1.4227  1.3690 -0.4072
  872MPD2    H312852   1.912   0.026  14.031  0.4520 -1.0720 -2.1587
  872MPD2     N12853   1.616   0.348  13.956  0.0855 -0.1519  0.0231
  872MPD2    H512854   1.580   0.313  14.044 -1.2426  4.2631  1.2185
  872MPD2    N112855   1.948   0.233  13.621  0.1922  0.5281 -0.3793
  872MPD2    H712856   1.896   0.302  13.567 -2.8317  1.4974  3.7572
  873MPD2     C12857   3.861   4.543   0.519 -0.1311  0.0813 -0.0066
  873MPD2    C112858   3.805   4.576   0.638 -0.3776 -0.2544 -0.0986
  873MPD2    C212859   3.704   4.494   0.695  0.3830 -0.6341  0.5261
  873MPD2    C312860   3.663   4.380   0.630  0.3543  1.2064 -0.4236
  873MPD2    C412861   3.723   4.343   0.514 -0.0060  0.7254 -1.2235
  873MPD2    C512862   3.810   4.433   0.459  0.3726  0.0390 -0.1277
  873MPD2     H12863   3.661   4.514   0.792 -0.5370 -0.0265 -0.0036
  873MPD2    H112864   3.678   4.268   0.450 -0.4639 -0.2931  0.3007
  873MPD2    H212865   3.931   4.606   0.467 -1.3816  0.3246 -1.3985
  873MPD2    H312866   3.840   4.412   0.357  0.8810  1.3546 -0.2484
  873MPD2     N12867   3.546   4.302   0.676 -0.7609 -0.2685 -0.0545
  873MPD2    H512868   3.513   4.240   0.603 -0.0434 -1.1078  0.3306
  873MPD2    N112869   3.847   4.693   0.707  0.3599 -0.3115 -0.0629
  873MPD2    H712870   3.924   0.010   0.669  0.8614 -0.3687  0.8893
  874MPD2     C12871   3.328   0.294  16.081 -0.0600 -0.5712  0.4357
  874MPD2    C112872   3.349   0.213  16.189  0.3242  0.4769  0.1268
  874MPD2    C212873   3.480   0.197  16.225 -0.0274 -0.0836 -0.1349
  874MPD2    C312874   3.583   0.264  16.157 -0.1320  0.0828  0.0003
  874MPD2    C412875   3.554   0.346  16.051 -0.3128  0.2696  0.1238
  874MPD2    C512876   3.425   0.364  16.008  0.9958  1.0564 -0.2944
  874MPD2     H12877   3.514   0.134  16.307  1.6409  0.9702 -0.0060
  874MPD2    H112878   3.628   0.402  15.995  2.3386 -0.3713  3.0065
  874MPD2    H212879   3.225   0.317  16.054  0.3373  0.8572  0.1481
  874MPD2    H312880   3.396   0.434  15.930  0.7920 -0.3671 -1.4958
  874MPD2     N12881   3.713   0.246  16.204 -1.0667  0.0969 -0.3527
  874MPD2    H512882   3.726   0.168  16.269 -0.9117  0.2473 -0.2046
  874MPD2    N112883   3.239   0.147  16.258 -0.2472 -0.1363 -0.1835
  874MPD2    H712884   3.145   0.175  16.232 -0.3706 -1.1371 -0.8045
  875MPD2     C12885   3.555   3.204  14.546  0.7957 -0.6666 -0.2983
  875MPD2    C112886   3.623   3.315  14.500  0.5704  1.1207 -0.2161
  875MPD2    C212887   3.675   3.403  14.591  0.5001  0.3219  0.1815
  875MPD2    C312888   3.651   3.391  14.726  0.3764  0.1400 -0.2594
  875MPD2    C412889   3.586   3.276  14.771 -0.1350 -0.0486  0.2076
  875MPD2    C512890   3.542   3.179  14.681 -0.2986 -0.3739 -0.2171
  875MPD2     H12891   3.736   3.483  14.552 -1.2336  1.6719  0.2218
  875MPD2    H112892   3.561   3.257  14.875 -1.5659 -0.2575 -0.1671
  875MPD2    H212893   3.511   3.134  14.476 -1.5305  0.6189 -0.0925
  875MPD2    H312894   3.488   3.095  14.722 -0.8230  1.0794  2.0118
  875MPD2     N12895   3.682   3.487  14.828  0.4147  0.0740  0.0356
  875MPD2    H512896   3.645   3.467  14.920 -2.0390 -1.2844 -1.2673
  875MPD2    N112897   3.629   3.327  14.359 -0.5423  0.5461 -0.1892
  875MPD2    H712898   3.587   3.248  14.312  1.1732  0.0393 -0.8747
  876MPD2     C12899   2.958   4.576  15.770  0.2995 -0.3129  0.1359
  876MPD2    C112900   3.064   4.649  15.824  0.3085 -0.0566  0.0550
  876MPD2    C212901   3.116   4.607  15.945  0.0872  0.1622 -0.5228
  876MPD2    C312902   3.071   4.490  16.007 -0.0065  0.7528 -0.0050
  876MPD2    C412903   2.959   4.422  15.957  0.4974 -0.3969 -0.4618
  876MPD2    C512904   2.902   4.464  15.836 -0.0962  0.3985  0.2854
  876MPD2     H12905   3.203   4.654  15.990 -0.1403 -0.7259  0.8708
  876MPD2    H112906   2.920   4.331  16.002 -1.4006  0.3058 -0.6811
  876MPD2    H212907   2.910   4.601  15.677 -0.1182  1.5042  0.8487
  876MPD2    H312908   2.814   4.418  15.792 -0.2150  1.4178 -0.5583
  876MPD2     N12909   3.153   4.433  16.110 -0.3100 -0.4203  0.8239
  876MPD2    H512910   3.247   4.471  16.115 -0.2638 -0.1586 -2.4507
  876MPD2    N112911   3.109   0.030  15.759  0.0736 -0.6854  0.4266
  876MPD2    H712912   3.051   0.066  15.684 -0.3990 -0.5894  0.8415
  877MPD2     C12913   2.959   0.281  15.131  0.6479  0.7649  0.8329
  877MPD2    C112914   3.086   0.317  15.145  1.0776 -0.5021  0.3934
  877MPD2    C212915   3.154   0.368  15.037  0.1608 -0.1151  0.4029
  877MPD2    C312916   3.094   0.370  14.910 -0.2822 -0.2058 -0.1238
  877MPD2    C412917   2.970   0.318  14.896  0.5540 -1.1049  0.4451
  877MPD2    C512918   2.905   0.272  15.004 -0.1618 -0.4355  0.5962
  877MPD2     H12919   3.253   0.405  15.063  1.5195 -2.4634 -1.5199
  877MPD2    H112920   2.920   0.327  14.800  1.5370  1.1886  0.1467
  877MPD2    H212921   2.899   0.253  15.217 -0.4692  0.5229 -0.0213
  877MPD2    H312922   2.802   0.244  14.989 -0.0726 -0.2657 -0.3515
  877MPD2     N12923   3.158   0.418  14.794  0.0736  0.0971 -0.8431
  877MPD2    H512924   3.112   0.399  14.706 -0.8059 -1.0389 -0.1303
  877MPD2    N112925   3.159   0.324  15.272 -0.0622 -0.3017 -0.2709
  877MPD2    H712926   3.259   0.337  15.273 -0.4402  2.7459 -3.3866
  878MPD2     C12927   2.433   4.152  13.322 -0.0552  0.9632 -0.3161
  878MPD2    C112928   2.548   4.235  13.306 -0.9492 -0.0761 -0.3805
  878MPD2    C212929   2.610   4.278  13.415 -0.1973  0.1937 -0.3013
  878MPD2    C312930   2.560   4.267  13.541 -0.6349 -0.7667 -0.1426
  878MPD2    C412931   2.445   4.187  13.558 -0.3217 -0.1719  0.1429
  878MPD2    C512932   2.378   4.143  13.449 -0.2903  0.1453 -0.2770
  878MPD2     H12933   2.707   4.324  13.405  0.4103 -0.9080  0.5495
  878MPD2    H112934   2.391   4.191  13.652 -0.9072  1.0774 -0.2326
  878MPD2    H212935   2.377   4.114  13.238 -0.6897  1.9535 -0.3478
  878MPD2    H312936   2.287   4.088  13.470 -0.0077 -0.0444  0.4683
  878MPD2     N12937   2.632   4.322  13.652  0.3853 -0.1064 -0.4927
  878MPD2    H512938   2.714   4.375  13.624  2.0618 -1.8167  1.1829
  878MPD2    N112939   2.600   4.247  13.175  0.2182 -0.5107 -0.4820
  878MPD2    H712940   2.555   4.191  13.103 -0.8153 -1.4398  0.8762
  879MPD2     C12941   4.032   0.781  16.906 -0.5542 -0.1372 -0.3009
  879MPD2    C112942   4.010   0.650  16.950 -0.0802  0.1295  0.1274
  879MPD2    C212943   3.920   0.577  16.872 -0.3828  0.2698 -0.4309
  879MPD2    C312944   3.871   0.630  16.754  0.3521 -0.0816 -0.1574
  879MPD2    C412945   3.889   0.765  16.723 -0.9698 -0.3698 -0.1299
  879MPD2    C512946   3.982   0.838  16.798  0.2576  0.5452 -0.2761
  879MPD2     H12947   3.893   0.475  16.897 -0.7041  0.5532  0.4057
  879MPD2    H112948   3.864   0.804  16.625 -1.1508  2.5778  1.1001
  879MPD2    H212949   4.111   0.836  16.957 -2.5614  1.1799  1.4051
  879MPD2    H312950   4.022   0.936  16.772  2.2612  0.4594  2.5108
  879MPD2     N12951   3.779   0.555  16.677 -0.4384  0.5361 -0.4236
  879MPD2    H512952   3.726   0.606  16.608 -1.4281  0.7393  0.4657
  879MPD2    N112953   4.094   0.604  17.054 -0.1109 -0.1135  0.4609
  879MPD2    H712954   4.157   0.673  17.092  0.5596  1.2273 -3.0503
  880MPD2     C12955   0.354   2.312   0.054  0.7676  0.7276  0.4899
  880MPD2    C112956   0.371   2.379   0.172 -1.0148  0.0607  0.4688
  880MPD2    C212957   0.459   2.327   0.265 -0.6985 -0.4639 -0.2207
  880MPD2    C312958   0.528   2.208   0.244  0.5418 -0.4117 -0.1693
  880MPD2    C412959   0.518   2.151   0.118  0.1721  0.2673 -0.5520
  880MPD2    C512960   0.433   2.205   0.031 -0.5815  0.5997  0.6144
  880MPD2     H12961   0.470   2.377   0.361 -4.0230 -0.2517  0.0400
  880MPD2    H112962   0.576   2.063   0.091  0.1124 -0.5733  2.0582
  880MPD2    H212963   0.292   2.340  17.713 -1.5117  0.3645  2.0190
  880MPD2    H312964   0.423   2.144  17.687  0.2349 -1.2234  1.7595
  880MPD2     N12965   0.592   2.143   0.348 -0.0569  0.5795  0.1964
  880MPD2    H512966   0.585   2.188   0.438  1.9479 -0.9530  1.1320
  880MPD2    N112967   0.299   2.501   0.185 -0.0584  0.2883 -0.8040
  880MPD2    H712968   0.232   2.521   0.112  0.1927 -1.0553 -1.4146
  881MPD2     C12969   4.589   3.203  17.419 -0.0178  0.1985 -0.7228
  881MPD2    C112970   4.725   3.170  17.426  0.2764  0.0510 -0.2293
  881MPD2    C212971   0.023   3.081  17.519  0.4670 -0.4046  0.0347
  881MPD2    C312972   4.667   3.053  17.624  0.6411  0.9572 -0.4524
  881MPD2    C412973   4.538   3.103  17.622  0.2005 -0.0165  0.2170
  881MPD2    C512974   4.505   3.185  17.522  0.1284  0.5863 -0.8746
  881MPD2     H12975   0.127   3.049  17.518  1.0124  1.3960 -0.2722
  881MPD2    H112976   4.481   3.083  17.712  1.8982 -3.0548  0.6259
  881MPD2    H212977   4.567   3.278  17.345  0.3423  1.6764  0.6646
  881MPD2    H312978   4.412   3.238  17.536  1.4387  2.3848  0.9774
  881MPD2     N12979   4.699   2.974  17.737 -0.6565  0.1237 -0.9182
  881MPD2    H512980   4.633   2.969   0.070  0.8798 -0.3023  0.3792
  881MPD2    N112981   0.061   3.184  17.306  0.1653 -0.5950 -0.2662
  881MPD2    H712982   0.147   3.129  17.307  0.8559  0.5184  3.0086
  882MPD2     C12983   3.289   0.276  13.978 -0.3747  0.5086  0.7763
  882MPD2    C112984   3.223   0.292  14.097 -0.5603  0.6483 -0.1041
  882MPD2    C212985   3.096   0.248  14.115 -0.2969 -0.6962 -0.1752
  882MPD2    C312986   3.027   0.197  14.007  0.8361  0.2792 -0.8187
  882MPD2    C412987   3.085   0.177  13.888  0.5673  0.3399 -0.8585
  882MPD2    C512988   3.220   0.215  13.875 -0.3139  0.0719 -0.4922
  882MPD2     H12989   3.033   0.271  14.200 -0.0037 -0.6203  0.0190
  882MPD2    H112990   3.028   0.124  13.813 -1.0031  0.0990  0.5068
  882MPD2    H212991   3.393   0.301  13.962 -0.5812  0.1719 -1.0815
  882MPD2    H312992   3.275   0.195  13.783  0.5852 -1.0357  0.2852
  882MPD2     N12993   2.895   0.155  14.022  0.3981  0.5360  0.3165
  882MPD2    H512994   2.839   0.123  13.943 -1.0752 -1.0855  2.0308
  882MPD2    N112995   3.290   0.350  14.212 -0.3789  0.1036  0.6468
  882MPD2    H712996   3.390   0.364  14.197 -0.3119  0.2508  1.2334
  883MPD2     C12997   0.456   4.509  15.827  0.3000 -0.8712  0.3144
  883MPD2    C112998   0.382   4.608  15.895  0.2903 -0.8014 -0.4591
  883MPD2    C212999   0.425   4.652  16.019  0.5376  0.2934  0.2107
  883MPD2    C313000   0.540   4.603  16.079  0.1951 -0.1747  0.6952
  883MPD2    C413001   0.616   4.507  16.011  0.0611 -0.1366 -0.2342
  883MPD2    C513002   0.564   4.463  15.891 -0.6498  0.4488  0.5326
  883MPD2     H13003   0.370   4.728  16.072  0.3402 -0.7658  1.5117
  883MPD2    H113004   0.702   4.458  16.053 -1.7490 -1.5432  1.8216
  883MPD2    H213005   0.434   4.456  15.734  3.0474  0.7395 -1.2598
  883MPD2    H313006   0.617   4.381  15.846  0.2382  0.6798  1.1410
  883MPD2     N13007   0.573   4.649  16.206 -0.3893  0.2046 -0.2629
  883MPD2    H513008   0.510   4.716  16.248  0.9964  1.7190 -0.6427
  883MPD2    N113009   0.271   4.673  15.836 -0.2913 -0.2012  0.3204
  883MPD2    H713010   0.232   0.006  15.898 -0.9674  0.3011 -0.6785
  884MPD2     C13011   2.332   0.850  15.101 -0.3976 -0.4111 -0.2092
  884MPD2    C113012   2.336   0.985  15.114  0.6607  0.6006  0.0742
  884MPD2    C213013   2.223   1.048  15.169 -0.3062 -0.6063  0.3761
  884MPD2    C313014   2.103   0.977  15.194  0.4724  0.5998 -0.6040
  884MPD2    C413015   2.104   0.839  15.181 -0.6386  0.8083  0.3282
  884MPD2    C513016   2.223   0.778  15.141  0.0132 -0.2391  0.0734
  884MPD2     H13017   2.225   1.156  15.177  0.0878 -0.5465 -0.5397
  884MPD2    H113018   2.016   0.779  15.202  0.2965 -0.4814  0.5459
  884MPD2    H213019   2.412   0.785  15.067 -0.4708  0.3226 -1.7780
  884MPD2    H313020   2.229   0.670  15.133  0.6052 -0.1577 -0.5278
  884MPD2     N13021   1.988   1.055  15.226 -0.2859 -0.0739 -0.3186
  884MPD2    H513022   1.997   1.155  15.209  0.6920  0.3431  2.5140
  884MPD2    N113023   2.451   1.065  15.088  0.1049  0.1135  0.2574
  884MPD2    H713024   2.451   1.157  15.132  0.4799 -0.0792  0.6623
  885MPD2     C13025   0.698   0.757   0.170 -0.1268  0.1792  0.1974
  885MPD2    C113026   0.740   0.887   0.171 -0.2720 -0.6432  0.3557
  885MPD2    C213027   0.709   0.961   0.057 -0.2872  0.0370 -0.2240
  885MPD2    C313028   0.640   0.903  17.698  0.1433 -0.2720  0.0958
  885MPD2    C413029   0.613   0.767  17.700 -0.4352  0.2457  0.8910
  885MPD2    C513030   0.640   0.692   0.068 -0.3389 -0.3005 -0.8327
  885MPD2     H13031   0.733   1.066   0.063  1.2755 -0.3731  0.8344
  885MPD2    H113032   0.570   0.712  17.617  2.3931  1.4466 -1.3952
  885MPD2    H213033   0.719   0.692   0.255 -0.2638  0.1713  0.2243
  885MPD2    H313034   0.625   0.585   0.058  0.6681 -0.4398 -0.8983
  885MPD2     N13035   0.607   0.987  17.591 -0.2054 -0.3844 -0.1467
  885MPD2    H513036   0.637   1.084  17.593 -1.2467 -0.0679 -0.2623
  885MPD2    N113037   0.803   0.947   0.287 -0.3921  0.1303 -0.3048
  885MPD2    H713038   0.824   0.880   0.361 -0.4574  0.5139  0.0623
  886MPD2     C13039   1.943   0.006  15.535 -0.4293  0.0650  0.4869
  886MPD2    C113040   2.024   4.657  15.456  0.1942  1.5035  0.3229
  886MPD2    C213041   2.037   4.684  15.319  0.3569  0.1477  0.1803
  886MPD2    C313042   1.968   0.043  15.249  0.1652  0.5800  0.2863
  886MPD2    C413043   1.879   0.123  15.330 -0.3697 -0.6128 -0.0672
  886MPD2    C513044   1.867   0.102  15.464  0.3262  0.2288 -0.0170
  886MPD2     H13045   2.085   4.610  15.257  1.7501  0.9846  0.2564
  886MPD2    H113046   1.825   0.207  15.289 -0.4362 -0.6221  0.0025
  886MPD2    H213047   1.913   4.721  15.637 -1.2464 -3.3462 -0.4722
  886MPD2    H313048   1.805   0.168  15.525  1.1627  1.2705 -0.2964
  886MPD2     N13049   1.995   0.071  15.115 -0.0071  0.4411 -0.2510
  886MPD2    H513050   2.069   0.018  15.070 -0.0786  0.7002 -0.6764
  886MPD2    N113051   2.101   4.560  15.520 -0.0159 -0.1684  0.0590
  886MPD2    H713052   2.106   4.561  15.622 -1.0621  0.7600  0.1043
  887MPD2     C13053   2.653   4.614  15.980  0.1036 -0.1450 -0.0418
  887MPD2    C113054   2.539   4.643  15.924 -0.8089 -0.4945 -0.0606
  887MPD2    C213055   2.475   0.028  15.939  0.4313  0.0326  0.1378
  887MPD2    C313056   2.541   0.134  16.003 -0.0596  0.7661 -0.3480
  887MPD2    C413057   2.666   0.106  16.054  0.0473 -0.0782  0.4816
  887MPD2    C513058   2.716   4.714  16.046 -0.2700  0.0230 -0.1081
  887MPD2     H13059   2.379   0.049  15.894 -1.0928 -1.4598  2.7011
  887MPD2    H113060   2.723   0.182  16.105  0.4919  0.5021 -0.8613
  887MPD2    H213061   2.696   4.514  15.982 -0.5825 -0.4334  0.6162
  887MPD2    H313062   2.806   4.696  16.104  0.0315 -0.9636 -0.8957
  887MPD2     N13063   2.474   0.256  16.020  0.3398 -0.5492 -0.2034
  887MPD2    H513064   2.375   0.251  16.000 -0.3847  0.2267  3.2241
  887MPD2    N113065   2.472   4.558  15.833  0.7802  0.1489  0.2318
  887MPD2    H713066   2.392   4.589  15.779 -0.2488 -2.0460  0.5014
  888MPD2     C13067   4.435   4.674  14.973 -0.0526 -0.1568  0.4392
  888MPD2    C113068   4.320   4.698  15.045  0.0546 -0.1826 -0.0061
  888MPD2    C213069   4.268   0.088  15.056 -0.1726  0.1693 -0.6804
  888MPD2    C313070   4.336   0.198  15.005  0.3434  0.4212  0.1354
  888MPD2    C413071   4.453   0.173  14.940  0.4269 -0.4482 -0.9262
  888MPD2    C513072   4.501   0.045  14.934 -0.2009  0.4376  1.1259
  888MPD2     H13073   4.174   0.102  15.108  1.4984  2.5871  1.7132
  888MPD2    H113074   4.522   0.252  14.913 -3.7204  3.2927 -0.5591
  888MPD2    H213075   4.491   4.581  14.970  0.3911  0.1625 -1.3141
  888MPD2    H313076   4.601   0.023  14.898 -0.1400 -0.7412  2.0130
  888MPD2     N13077   4.286   0.326  15.013  0.1887  0.0180 -0.2178
  888MPD2    H513078   4.198   0.326  15.064 -1.2547 -1.4332 -2.6495
  888MPD2    N113079   4.265   4.581  15.106 -0.0020 -0.1198  0.0662
  888MPD2    H713080   4.315   4.494  15.093 -0.4242 -0.1187 -1.5785
  889MPD2     C13081   3.212   4.599  12.561  0.5026  0.3293 -0.2479
  889MPD2    C113082   3.328   4.547  12.622 -0.1551  0.1727  0.6775
  889MPD2    C213083   3.365   4.610  12.741 -0.3123  0.0262  0.5348
  889MPD2    C313084   3.297   4.714  12.802 -1.0359  0.4285 -0.4297
  889MPD2    C413085   3.172   0.013  12.747  0.2208  0.4534  0.0195
  889MPD2    C513086   3.146   4.698  12.620 -0.2694 -1.2282  0.1089
  889MPD2     H13087   3.438   4.563  12.805  0.5527 -1.2005 -1.3517
  889MPD2    H113088   3.110   0.094  12.784 -1.9378 -1.3053  0.2197
  889MPD2    H213089   3.170   4.571  12.464  1.7509 -0.3995 -0.5757
  889MPD2    H313090   3.058   4.724  12.562 -0.0784 -0.3035  0.2283
  889MPD2     N13091   3.337   0.019  12.929 -0.1987  0.3896 -0.0436
  889MPD2    H513092   3.416   4.709  12.973 -2.0754 -3.1679 -0.4043
  889MPD2    N113093   3.373   4.419  12.581  0.1055  0.3626 -0.1945
  889MPD2    H713094   3.321   4.371  12.507 -3.0408  0.5331  1.8947
  890MPD2     C13095   2.959   0.802  14.433 -0.0023 -0.8867  0.1154
  890MPD2    C113096   3.044   0.896  14.497  0.2770  0.0398  0.4129
  890MPD2    C213097   3.048   0.888  14.634 -0.7392  0.0252 -0.0582
  890MPD2    C313098   2.981   0.790  14.706  0.0339  0.6238 -0.0804
  890MPD2    C413099   2.904   0.697  14.635  0.4414 -0.1803 -0.1795
  890MPD2    C513100   2.898   0.707  14.504 -0.1387  0.0205  0.5288
  890MPD2     H13101   3.126   0.944  14.685 -0.6586 -1.4914  1.5078
  890MPD2    H113102   2.844   0.621  14.683  0.7631  1.4488  2.8126
  890MPD2    H213103   2.939   0.791  14.327 -0.9451 -0.0112  0.2096
  890MPD2    H313104   2.819   0.645  14.464 -1.3478  1.4076  0.7763
  890MPD2     N13105   2.999   0.780  14.841 -0.0942  0.6391  0.1893
  890MPD2    H513106   3.081   0.825  14.881  0.5969 -0.6219  0.2117
  890MPD2    N113107   3.108   0.994  14.421 -0.3349  1.0421 -0.1635
  890MPD2    H713108   3.077   1.002  14.324 -1.7937 -0.1491  0.2117
  891MPD2     C13109   1.503   4.196  16.372  0.8019  0.1361  0.4227
  891MPD2    C113110   1.424   4.261  16.458 -0.0808  0.2404  0.0004
  891MPD2    C213111   1.476   4.313  16.575 -0.7823  0.4118  0.5063
  891MPD2    C313112   1.609   4.293  16.614 -0.1513 -0.4104 -0.7184
  891MPD2    C413113   1.686   4.224  16.529 -0.2778 -0.4647  0.2960
  891MPD2    C513114   1.638   4.175  16.408  0.1922 -0.2591 -0.3444
  891MPD2     H13115   1.410   4.368  16.640  0.0018 -1.4328  2.8417
  891MPD2    H113116   1.786   4.191  16.554  1.0988  0.3829 -4.0246
  891MPD2    H213117   1.463   4.152  16.281  1.8129 -0.4893  0.2708
  891MPD2    H313118   1.704   4.122  16.340 -1.4307 -2.4432 -0.2199
  891MPD2     N13119   1.655   4.336  16.743  0.3615  0.0414 -0.3521
  891MPD2    H513120   1.588   4.387  16.799  0.9450  0.0482  0.3409
  891MPD2    N113121   1.291   4.287  16.413  0.8392  0.8020 -0.2890
  891MPD2    H713122   1.262   4.259  16.320  0.3053 -0.7677  0.3444
  892MPD2     C13123   2.436   0.530  14.848 -0.5048 -0.1840 -0.1655
  892MPD2    C113124   2.353   0.530  14.739  0.2911 -0.2130  0.4886
  892MPD2    C213125   2.396   0.497  14.618  0.5749  0.1895  0.4948
  892MPD2    C313126   2.520   0.438  14.599  0.3899 -0.6839 -0.2480
  892MPD2    C413127   2.603   0.431  14.708 -0.4460 -0.1774  0.4705
  892MPD2    C513128   2.561   0.488  14.828  0.1183  0.3271  0.2392
  892MPD2     H13129   2.338   0.518  14.529  0.4855  1.7845  0.9335
  892MPD2    H113130   2.702   0.388  14.695  1.5658  4.5618  0.1100
  892MPD2    H213131   2.408   0.567  14.946 -0.1036 -1.1349  0.3129
  892MPD2    H313132   2.625   0.477  14.914 -0.3099 -0.3840  0.4673
  892MPD2     N13133   2.560   0.377  14.477  0.5424  0.2373  0.8039
  892MPD2    H513134   2.655   0.342  14.468  0.5865  0.6063 -0.1400
  892MPD2    N113135   2.231   0.596  14.752 -0.1843  0.5411  0.2149
  892MPD2    H713136   2.194   0.651  14.674 -0.2251  2.8286  1.8378
  893MPD2     C13137   3.268   4.085   1.356  0.0644  1.1856 -0.4846
  893MPD2    C113138   3.355   4.182   1.330  0.1581 -0.2517 -0.3376
  893MPD2    C213139   3.314   4.314   1.365 -0.0208 -0.7633 -0.6455
  893MPD2    C313140   3.201   4.337   1.445 -0.2209  0.5825  0.0874
  893MPD2    C413141   3.138   4.227   1.494 -0.2800  0.0257  0.4154
  893MPD2    C513142   3.158   4.106   1.431  0.5584  0.4461 -0.3011
  893MPD2     H13143   3.378   4.391   1.324 -1.4224 -0.7139 -2.7363
  893MPD2    H113144   3.061   4.235   1.570  0.6626 -1.3361  1.5045
  893MPD2    H213145   3.284   3.982   1.325  2.9991  1.9816 -1.6451
  893MPD2    H313146   3.108   4.018   1.469 -0.3260  1.6686  1.3794
  893MPD2     N13147   3.159   4.471   1.478 -0.2062  0.4329  0.0435
  893MPD2    H513148   3.068   4.480   1.521  0.2157  0.5282  0.9242
  893MPD2    N113149   3.466   4.139   1.252  0.6140  1.0346  0.8240
  893MPD2    H713150   3.474   4.039   1.236 -0.9021  1.2160 -1.1190
  894MPD2     C13151   2.790   2.406   0.722  0.1056  0.4820 -0.3784
  894MPD2    C113152   2.760   2.391   0.589  0.0872 -0.6325  0.0809
  894MPD2    C213153   2.759   2.268   0.531  0.7976 -0.0629 -0.3442
  894MPD2    C313154   2.799   2.160   0.608 -0.2206  0.3672 -0.5690
  894MPD2    C413155   2.844   2.184   0.736  0.3094  0.3162  1.8288
  894MPD2    C513156   2.832   2.301   0.801  0.1573  0.2327 -0.1201
  894MPD2     H13157   2.722   2.250   0.431  2.2779  2.8479 -1.4129
  894MPD2    H113158   2.869   2.099   0.800 -0.0898 -0.9840  0.2459
  894MPD2    H213159   2.782   2.504   0.769  0.5019 -0.0122  0.7307
  894MPD2    H313160   2.857   2.305   0.907 -0.2066  2.1000 -0.1028
  894MPD2     N13161   2.772   2.028   0.559 -0.9174  0.5576 -0.0551
  894MPD2    H513162   2.714   2.018   0.476 -0.2954 -2.3512 -0.1494
  894MPD2    N113163   2.711   2.500   0.510 -0.3646 -0.5117  0.4883
  894MPD2    H713164   2.671   2.483   0.419 -2.0719  0.0854  1.1259
  895MPD2     C13165   1.250   4.365  13.736  0.5560  0.2525 -0.4473
  895MPD2    C113166   1.228   4.414  13.614  0.1892  0.0531  0.6000
  895MPD2    C213167   1.249   4.345  13.496 -0.5637 -0.8374  0.9852
  895MPD2    C313168   1.301   4.218  13.499  0.1251 -0.3426 -0.7997
  895MPD2    C413169   1.316   4.160  13.620 -0.8522 -0.6158 -0.3269
  895MPD2    C513170   1.298   4.234  13.737 -0.3713  0.5087  0.6220
  895MPD2     H13171   1.238   4.391  13.399 -3.0007 -2.2622  0.5642
  895MPD2    H113172   1.375   4.070  13.628  1.4793  0.8411 -1.1600
  895MPD2    H213173   1.253   4.422  13.828  0.1749 -2.1091  1.0543
  895MPD2    H313174   1.324   4.183  13.829 -1.4351  2.3622  1.9349
  895MPD2     N13175   1.314   4.148  13.379 -0.0299 -0.3802  0.1093
  895MPD2    H513176   1.311   4.047  13.383 -1.5395 -0.4997 -3.2023
  895MPD2    N113177   1.188   4.549  13.599 -0.7331  0.0656  0.2054
  895MPD2    H713178   1.174   4.588  13.507 -1.6110 -0.6882  0.0172
  896MPD2     C13179   4.382   1.819   1.719  0.2042  0.3793 -0.1895
  896MPD2    C113180   4.394   1.879   1.594 -0.7266 -0.4863 -0.6602
  896MPD2    C213181   4.278   1.896   1.529  0.1723  0.0028  0.0233
  896MPD2    C313182   4.159   1.858   1.572  0.1414 -0.2485 -1.5173
  896MPD2    C413183   4.147   1.807   1.703  0.4034 -0.3670  0.1417
  896MPD2    C513184   4.258   1.795   1.776  0.0361 -0.6491 -0.5700
  896MPD2     H13185   4.281   1.937   1.429 -0.8361 -2.1620 -0.8907
  896MPD2    H113186   4.056   1.765   1.745  1.0175 -1.4922  0.3214
  896MPD2    H213187   4.471   1.780   1.767  0.9675  1.2079 -0.9348
  896MPD2    H313188   4.253   1.745   1.872 -1.7090  1.6471  0.5389
  896MPD2     N13189   4.053   1.850   1.475  0.2852  0.8429  0.4294
  896MPD2    H513190   4.067   1.880   1.380 -2.5102 -0.7093 -0.4926
  896MPD2    N113191   4.509   1.898   1.519  0.3433 -0.5385  0.0179
  896MPD2    H713192   4.501   1.937   1.425 -0.4457  1.9256  1.0909
  897MPD2     C13193   0.108   3.813  10.764 -0.2470  0.1106 -0.3031
  897MPD2    C113194   0.039   3.935  10.741  0.6032 -0.3318 -0.0483
  897MPD2    C213195   4.661   3.961  10.813  0.1279 -0.7711 -0.8350
  897MPD2    C313196   4.610   3.857  10.891  0.0427  0.1609  0.0703
  897MPD2    C413197   4.682   3.740  10.918 -0.0921 -0.2803 -0.9679
  897MPD2    C513198   0.066   3.724  10.855 -0.3747  0.0247  0.1688
  897MPD2     H13199   4.603   4.050  10.791  2.5246  1.3019  1.1511
  897MPD2    H113200   4.656   3.660  10.985  1.4987 -2.0640 -2.4951
  897MPD2    H213201   0.201   3.793  10.713 -1.1341 -0.0474 -1.8890
  897MPD2    H313202   0.122   3.632  10.865 -0.6513 -0.1706 -0.1021
  897MPD2     N13203   4.482   3.868  10.940  0.5189  0.0222 -0.8175
  897MPD2    H513204   4.430   3.950  10.910  0.8405  0.8140  0.7691
  897MPD2    N113205   0.085   4.011  10.637  0.3255  0.3791  0.7771
  897MPD2    H713206   0.169   3.976  10.593  0.2002  1.8710 -0.6315
  898MPD2     C13207   2.853   0.220   0.148  0.0348  0.3132 -0.3380
  898MPD2    C113208   2.760   0.202   0.046 -0.0853  0.4562 -0.2734
  898MPD2    C213209   2.655   0.292   0.028 -1.2005 -0.1435  0.0920
  898MPD2    C313210   2.643   0.394   0.118 -0.1784 -0.1585 -1.0111
  898MPD2    C413211   2.740   0.416   0.218  0.2634  0.0562 -0.2384
  898MPD2    C513212   2.838   0.327   0.233  0.2417 -0.4927  0.0966
  898MPD2     H13213   2.592   0.294  17.684  1.2853 -1.1858 -1.6974
  898MPD2    H113214   2.738   0.496   0.291  0.9948 -0.3733  0.2517
  898MPD2    H213215   2.949   0.173   0.167  0.1876  0.8804  0.3138
  898MPD2    H313216   2.910   0.341   0.312 -0.8856  1.4027  0.7863
  898MPD2     N13217   2.530   0.480   0.100  0.6789  0.0349 -0.2163
  898MPD2    H513218   2.469   0.459   0.021 -0.4832 -2.2964  1.2908
  898MPD2    N113219   2.776   0.094  17.702  0.5673 -0.5723  0.3202
  898MPD2    H713220   2.705   0.067  17.635  1.8522 -1.1812 -0.7751
  899MPD2     C13221   2.801   0.254  16.792 -0.1396  0.1757  0.1363
  899MPD2    C113222   2.822   0.344  16.896 -0.4676 -0.1376  0.1104
  899MPD2    C213223   2.833   0.291  17.020 -0.8232  0.0039 -0.5628
  899MPD2    C313224   2.794   0.162  17.047 -0.8305  0.1311  0.3363
  899MPD2    C413225   2.759   0.082  16.940  0.2468 -0.3413 -0.0224
  899MPD2    C513226   2.765   0.120  16.808 -0.8296  0.4146  0.3053
  899MPD2     H13227   2.886   0.345  17.098 -1.7261  1.9411 -1.2814
  899MPD2    H113228   2.727   4.717  16.958  0.5881 -0.1447  1.6723
  899MPD2    H213229   2.803   0.283  16.688  1.5517 -0.2956  0.0311
  899MPD2    H313230   2.728   0.063  16.724  0.5150  0.4894 -0.3268
  899MPD2     N13231   2.819   0.095  17.167  0.0429  0.0134 -0.3823
  899MPD2    H513232   2.815   4.731  17.177 -0.1575 -0.0020 -0.6074
  899MPD2    N113233   2.856   0.474  16.863 -0.5691 -0.3497  0.3517
  899MPD2    H713234   2.844   0.505  16.767 -0.8042  2.3917  1.2602
  900MPD2     C13235   2.275   1.990  12.362 -0.3560  0.2062 -0.0454
  900MPD2    C113236   2.159   1.942  12.424 -0.3464 -0.3070  0.2299
  900MPD2    C213237   2.044   2.001  12.390  0.7289 -0.0824 -0.5358
  900MPD2    C313238   2.037   2.110  12.311 -0.3935 -0.2940 -0.4653
  900MPD2    C413239   2.153   2.155  12.259 -0.5042 -0.0385  1.1189
  900MPD2    C513240   2.271   2.101  12.295 -0.0598  0.4282 -0.4908
  900MPD2     H13241   1.947   1.963  12.422  1.1709 -0.1135  0.7877
  900MPD2    H113242   2.152   2.238  12.190  3.2810 -0.7826  0.1870
  900MPD2    H213243   2.372   1.948  12.388  0.5308  2.0319 -0.4383
  900MPD2    H313244   2.359   2.150  12.255  1.0460 -0.7302  0.5111
  900MPD2     N13245   1.910   2.164  12.290 -0.2114  0.7122  0.6046
  900MPD2    H513246   1.834   2.125  12.345 -1.2099  0.8283 -0.6613
  900MPD2    N113247   2.175   1.834  12.508 -0.2579  0.1071 -0.6001
  900MPD2    H713248   2.268   1.799  12.531 -1.1426 -2.5757 -1.0509
  901MPD2     C13249   1.887   0.804  12.456 -0.0855  0.2316 -0.7390
  901MPD2    C113250   2.017   0.820  12.485 -0.2043  1.0078  0.0444
  901MPD2    C213251   2.072   0.943  12.530  0.7118 -0.1558  0.3742
  901MPD2    C313252   1.984   1.045  12.557 -0.4320  0.0069  0.2964
  901MPD2    C413253   1.850   1.024  12.540  0.1061 -0.0709 -0.1126
  901MPD2    C513254   1.801   0.907  12.485 -0.3915 -0.1220 -0.0232
  901MPD2     H13255   2.180   0.955  12.531  0.5816  0.9887  1.6729
  901MPD2    H113256   1.783   1.100  12.578  1.5438  1.4689 -0.6635
  901MPD2    H213257   1.843   0.716  12.411 -2.5178  1.2347 -0.3691
  901MPD2    H313258   1.694   0.889  12.485 -0.6941  1.7849 -1.3928
  901MPD2     N13259   2.041   1.170  12.593  0.0081  0.1152  0.0465
  901MPD2    H513260   2.134   1.177  12.633 -0.0701 -0.6389  0.3730
  901MPD2    N113261   2.098   0.712  12.440 -0.0341 -0.6478  0.0860
  901MPD2    H713262   2.059   0.644  12.375 -2.5244  1.0506 -0.1801
  902MPD2     C13263   1.178   0.788  13.087  0.3776  0.1367 -0.3872
  902MPD2    C113264   1.119   0.755  12.965  0.1280 -0.2473  0.2283
  902MPD2    C213265   1.173   0.654  12.889  0.1840  0.1903  0.8033
  902MPD2    C313266   1.280   0.580  12.937  0.5635 -0.0530  0.5347
  902MPD2    C413267   1.339   0.614  13.060  0.2690  0.4609 -0.1742
  902MPD2    C513268   1.280   0.716  13.131 -0.1749  0.1903 -0.1565
  902MPD2     H13269   1.147   0.637  12.785  0.0028 -1.0563  1.0537
  902MPD2    H113270   1.430   0.571  13.102 -0.8612 -1.1332  0.6348
  902MPD2    H213271   1.144   0.876  13.142  0.5743  0.2456 -0.4381
  902MPD2    H313272   1.323   0.738  13.229  3.9527  0.4538 -2.0332
  902MPD2     N13273   1.335   0.468  12.862  0.0044  0.1258 -0.6254
  902MPD2    H513274   1.423   0.428  12.894  0.3711  0.7532 -0.8434
  902MPD2    N113275   1.011   0.839  12.922 -0.4547  0.5810 -0.5897
  902MPD2    H713276   0.995   0.928  12.968 -1.9664  0.0779 -0.1377
  903MPD2     C13277   1.598   4.734  12.103  0.0796 -0.4460 -0.6598
  903MPD2    C113278   1.482   0.049  12.156 -0.6952 -0.4109 -0.5898
  903MPD2    C213279   1.377   0.051  12.071 -0.0016 -0.7264  0.2389
  903MPD2    C313280   1.369   0.002  11.946  0.0638 -0.1072  0.0642
  903MPD2    C413281   1.486   4.679  11.897 -0.2689 -0.5332  0.8901
  903MPD2    C513282   1.602   4.683  11.975 -0.3897  0.0444 -0.4753
  903MPD2     H13283   1.282   0.083  12.114 -0.4645  0.0481 -1.3505
  903MPD2    H113284   1.489   4.625  11.803 -0.4517  2.1570 -0.6698
  903MPD2    H213285   1.694   0.011  12.151  0.5041 -1.2268 -1.2915
  903MPD2    H313286   1.694   4.639  11.938  0.7891  2.6273 -0.5898
  903MPD2     N13287   1.244   0.007  11.876  0.4585 -0.3565 -0.5238
  903MPD2    H513288   1.163   0.043  11.925 -0.2966 -3.5362  0.5532
  903MPD2    N113289   1.479   0.096  12.294 -0.1528 -0.3301  0.4879
  903MPD2    H713290   1.571   0.102  12.335  0.1483 -0.9590 -0.0974
  904MPD2     C13291   1.546   3.548  13.781 -0.5202  0.5717  0.2779
  904MPD2    C113292   1.519   3.666  13.840 -0.4232  1.2728  0.6876
  904MPD2    C213293   1.584   3.702  13.956 -0.4966 -0.4534 -0.5608
  904MPD2    C313294   1.676   3.614  14.018 -0.0014  0.3625  0.1012
  904MPD2    C413295   1.704   3.495  13.953  0.4465 -0.4241 -0.2534
  904MPD2    C513296   1.640   3.466  13.838  0.1473 -0.2252  0.6890
  904MPD2     H13297   1.559   3.794  14.005  0.2387 -0.7816  0.4284
  904MPD2    H113298   1.769   3.419  13.995  0.7405  1.0555  2.0208
  904MPD2    H213299   1.489   3.515  13.695  3.1214  1.5367 -2.5586
  904MPD2    H313300   1.652   3.369  13.789  1.1653  0.2458 -0.0003
  904MPD2     N13301   1.736   3.659  14.137  0.0302  0.2288 -0.3978
  904MPD2    H513302   1.712   3.754  14.165 -0.8635  0.3122 -1.4814
  904MPD2    N113303   1.416   3.748  13.803 -0.3128 -0.1703 -0.3297
  904MPD2    H713304   1.420   3.840  13.845 -0.3958 -0.5382  0.4886
  905MPD2     C13305   0.804   4.294  13.446  0.3915 -0.0695  0.2266
  905MPD2    C113306   0.870   4.184  13.415  0.0709  0.1665  0.0678
  905MPD2    C213307   0.905   4.157  13.284  0.3678  0.4322 -0.3579
  905MPD2    C313308   0.874   4.246  13.181 -0.6025  0.0990  0.1091
  905MPD2    C413309   0.809   4.360  13.215  0.4241  0.0961 -0.1198
  905MPD2    C513310   0.779   4.389  13.348  0.3585 -0.8961 -0.0069
  905MPD2     H13311   0.955   4.063  13.265  1.4442  1.5440 -3.0859
  905MPD2    H113312   0.759   4.427  13.146 -2.2632  2.6604  4.3266
  905MPD2    H213313   0.776   4.321  13.546 -0.0550  1.4603 -0.3174
  905MPD2    H313314   0.717   4.473  13.377  1.8362  0.3075 -0.2968
  905MPD2     N13315   0.905   4.231  13.041 -0.0028  0.0945 -0.0274
  905MPD2    H513316   0.842   4.282  12.981 -2.0745 -1.4063  0.8577
  905MPD2    N113317   0.916   4.106  13.523 -0.2694  0.4439  0.8863
  905MPD2    H713318   0.918   4.149  13.614  0.1906 -0.4605  1.3081
  906MPD2     C13319   3.470   4.726  10.905 -0.5497  0.1941 -0.1811
  906MPD2    C113320   3.433   4.626  10.821  0.3070 -0.0663  0.9962
  906MPD2    C213321   3.378   4.510  10.871 -0.1303 -0.3011  0.3685
  906MPD2    C313322   3.373   4.487  11.007  0.3428 -0.0293  0.0114
  906MPD2    C413323   3.421   4.583  11.095 -0.5811 -0.2384  0.0779
  906MPD2    C513324   3.453   4.708  11.039 -0.5949 -0.9519 -1.1668
  906MPD2     H13325   3.362   4.431  10.798  1.7001 -0.5548  0.2487
  906MPD2    H113326   3.420   4.573  11.203  0.0681  1.2313  0.2237
  906MPD2    H213327   3.487   0.087  10.860  0.2239  0.4550  0.6993
  906MPD2    H313328   3.475   0.058  11.100 -0.7895 -0.7538 -1.3819
  906MPD2     N13329   3.321   4.362  11.055  0.6409  0.2508  0.5055
  906MPD2    H513330   3.348   4.339  11.150  1.6551  0.3456  0.2362
  906MPD2    N113331   3.446   4.630  10.683 -0.8615  0.0257 -0.0038
  906MPD2    H713332   3.424   4.544  10.635 -1.3145  0.4691 -0.5893
  907MPD2     C13333   3.016   2.839  15.267  1.2374  0.3647  0.6887
  907MPD2    C113334   2.937   2.778  15.361  0.2235  0.1698  0.1755
  907MPD2    C213335   2.987   2.721  15.477  0.0309  0.4483  0.1522
  907MPD2    C313336   3.113   2.752  15.513 -0.0377 -0.1435  0.1076
  907MPD2    C413337   3.195   2.818  15.417 -0.4404  0.2146  0.0604
  907MPD2    C513338   3.147   2.852  15.295  0.6061  0.3952  0.1506
  907MPD2     H13339   2.919   2.674  15.547  0.2612  0.1774  0.1913
  907MPD2    H113340   3.300   2.832  15.442  0.2355  0.2231 -2.7995
  907MPD2    H213341   2.980   2.876  15.172  1.2408 -0.9259  0.1828
  907MPD2    H313342   3.214   2.900  15.225 -0.0467 -1.1123 -1.5213
  907MPD2     N13343   3.150   2.713  15.644 -0.6507  0.1826 -0.3484
  907MPD2    H513344   3.101   2.640  15.694 -0.5370 -0.1461 -0.7104
  907MPD2    N113345   2.791   2.772  15.337 -0.5236 -0.0570  0.6091
  907MPD2    H713346   2.735   2.718  15.402 -2.2213  0.4281 -0.4472
  908MPD2     C13347   4.591   3.571   9.873  0.3488 -0.6088 -0.2764
  908MPD2    C113348   4.678   3.531   9.971  0.1963  0.0985 -0.0006
  908MPD2    C213349   4.719   3.632  10.060  0.2832  0.1066 -1.3895
  908MPD2    C313350   4.688   3.770  10.043  1.0681 -0.6082  0.1222
  908MPD2    C413351   4.615   3.798   9.934  0.9001 -0.4527  0.0997
  908MPD2    C513352   4.561   3.704   9.854  0.4151 -0.2889  1.0113
  908MPD2     H13353   0.026   3.603  10.155 -1.1309  0.1280 -0.7395
  908MPD2    H113354   4.593   3.903   9.917 -2.4520 -1.0108  0.9336
  908MPD2    H213355   4.546   3.498   9.807  2.6912 -1.4176 -0.9571
  908MPD2    H313356   4.483   3.734   9.785 -0.5001 -1.2143  1.6435
  908MPD2     N13357   4.727   3.868  10.142  0.0280  0.5091 -0.2088
  908MPD2    H513358   0.028   3.837  10.232 -1.0642 -1.7971 -0.5588
  908MPD2    N113359   4.703   3.393   9.989  0.2499  0.5478 -0.1488
  908MPD2    H713360   4.666   3.329   9.919  0.4752  0.0915  0.1484
  909MPD2     C13361   4.520   1.871  11.497 -0.3407  1.0976 -0.6060
  909MPD2    C113362   4.610   1.981  11.504 -0.3574 -0.2351  0.3267
  909MPD2    C213363   4.607   2.075  11.613 -0.0057  0.4074 -0.4314
  909MPD2    C313364   4.508   2.056  11.707 -0.0461 -0.1582 -0.3981
  909MPD2    C413365   4.409   1.959  11.690  0.0984 -0.4836  0.6415
  909MPD2    C513366   4.422   1.866  11.589 -0.1171  0.3388 -0.1130
  909MPD2     H13367   4.676   2.158  11.616  2.1551 -1.3318 -2.3387
  909MPD2    H113368   4.331   1.940  11.763 -0.8936  0.9043 -0.0793
  909MPD2    H213369   4.517   1.794  11.421 -0.8011 -1.2398  1.7589
  909MPD2    H313370   4.349   1.786  11.590 -1.3857  1.4857 -2.4781
  909MPD2     N13371   4.502   2.157  11.802 -0.0212 -0.1107 -0.4252
  909MPD2    H513372   4.585   2.214  11.814  0.5230 -0.8855 -0.4754
  909MPD2    N113373   4.716   2.002  11.413  0.7061  0.1206 -0.0347
  909MPD2    H713374   0.032   2.088  11.419 -2.0351  1.9615 -2.5077
  910MPD2     C13375   1.884   3.950  16.175 -0.1615 -0.2796  0.3226
  910MPD2    C113376   1.835   3.827  16.139  0.4444  0.5352  0.4339
  910MPD2    C213377   1.774   3.814  16.011  1.0096 -0.2448  0.3225
  910MPD2    C313378   1.761   3.925  15.925  0.0432 -0.0790  0.4757
  910MPD2    C413379   1.818   4.048  15.964 -0.0533 -1.2471 -0.0512
  910MPD2    C513380   1.883   4.058  16.084  0.0803  0.1856  0.3760
  910MPD2     H13381   1.749   3.714  15.978  0.2696  0.5772 -1.5700
  910MPD2    H113382   1.813   4.135  15.900 -3.1794 -0.6273  1.0026
  910MPD2    H213383   1.915   3.952  16.279  1.0175  2.4431 -0.0827
  910MPD2    H313384   1.935   4.147  16.118  1.2519 -0.4770  0.3136
  910MPD2     N13385   1.707   3.915  15.798 -0.3561  0.0052  0.0865
  910MPD2    H513386   1.712   3.997  15.738 -0.8284 -0.2919 -0.3577
  910MPD2    N113387   1.851   3.706  16.221 -0.2611  0.3480 -0.0126
  910MPD2    H713388   1.834   3.615  16.181  1.3225  1.4576 -3.2071
  911MPD2     C13389   4.506   4.582  16.282  0.9497 -0.0722  0.3609
  911MPD2    C113390   4.480   4.476  16.198 -0.4253  0.8095  0.2022
  911MPD2    C213391   4.385   4.508  16.100  1.0618  0.2610 -0.2315
  911MPD2    C313392   4.331   4.635  16.084 -0.0833  0.1807 -0.2732
  911MPD2    C413393   4.375   4.734  16.161 -0.1266 -0.4169  0.2018
  911MPD2    C513394   4.461   4.713  16.262  0.6518  0.0166  0.1926
  911MPD2     H13395   4.354   4.425  16.037 -0.3965 -0.2360  1.1279
  911MPD2    H113396   4.352   0.101  16.140  0.5342  0.0162  1.6104
  911MPD2    H213397   4.578   4.569  16.362  0.0193 -1.9208  0.9052
  911MPD2    H313398   4.488   0.056  16.330  1.1978  0.9450 -1.0990
  911MPD2     N13399   4.245   4.660  15.974  0.0444  0.0048 -0.0686
  911MPD2    H513400   4.241   4.585  15.906 -0.4765 -1.0338  1.1277
  911MPD2    N113401   4.541   4.349  16.216 -0.2001  0.7328  0.0473
  911MPD2    H713402   4.605   4.342  16.295 -0.3720 -0.2030  0.0995
  912MPD2     C13403   4.132   4.165  15.850  0.4161 -0.5304  0.4960
  912MPD2    C113404   4.021   4.224  15.896 -0.2690  0.2787  0.0289
  912MPD2    C213405   3.926   4.150  15.962  0.1299  0.4832 -0.3062
  912MPD2    C313406   3.940   4.011  15.977  0.0852 -0.0361 -0.3734
  912MPD2    C413407   4.062   3.960  15.942  0.7283  0.3497 -0.1950
  912MPD2    C513408   4.150   4.033  15.876  0.1840 -0.2947 -0.0065
  912MPD2     H13409   3.834   4.200  15.989  0.2356  0.7994 -0.5348
  912MPD2    H113410   4.097   3.861  15.971  0.2139 -0.1884 -1.3743
  912MPD2    H213411   4.206   4.216  15.790  0.6435 -0.0266  1.2112
  912MPD2    H313412   4.245   3.991  15.843  0.8069 -0.0437  1.4949
  912MPD2     N13413   3.841   3.933  16.047 -0.2033  0.2628 -0.1736
  912MPD2    H513414   3.769   3.981  16.100 -1.2446 -0.3942 -0.9867
  912MPD2    N113415   4.008   4.366  15.865 -0.5284  0.0264 -0.0676
  912MPD2    H713416   4.070   4.406  15.795  1.3751 -0.0406  1.5757
  913MPD2     C13417   0.298   0.266   9.391  0.0597  0.6893  0.9232
  913MPD2    C113418   0.362   0.382   9.421 -0.2388 -0.4093  0.8754
  913MPD2    C213419   0.445   0.442   9.330  0.0863  0.3742  0.4236
  913MPD2    C313420   0.450   0.384   9.203  0.5188 -0.5827 -0.9849
  913MPD2    C413421   0.395   0.259   9.177 -0.3138  0.4764  0.4561
  913MPD2    C513422   0.310   0.206   9.269  0.3937  0.1309  0.4699
  913MPD2     H13423   0.498   0.533   9.356 -0.5443  0.5735  1.0319
  913MPD2    H113424   0.388   0.209   9.080  1.0170  0.9155  0.1331
  913MPD2    H213425   0.241   0.210   9.465 -1.8517 -1.2734 -2.0782
  913MPD2    H313426   0.255   0.115   9.248  0.8697  0.4621 -2.2639
  913MPD2     N13427   0.508   0.452   9.091 -0.5512  0.5453 -0.0118
  913MPD2    H513428   0.513   0.402   9.003  0.8473 -2.0451  1.5413
  913MPD2    N113429   0.333   0.426   9.545 -0.1130 -0.3090  0.1927
  913MPD2    H713430   0.268   0.368   9.596 -1.9340  2.0449  0.5412
  914MPD2     C13431   2.636   1.029  11.887  0.1480 -0.5906 -0.9706
  914MPD2    C113432   2.631   1.038  12.024 -0.2657 -0.5452  0.3208
  914MPD2    C213433   2.579   0.926  12.097 -0.1671 -0.7784 -0.3429
  914MPD2    C313434   2.535   0.813  12.036 -0.1218 -0.0685 -0.5185
  914MPD2    C413435   2.536   0.813  11.900  0.1715 -0.4026 -0.5298
  914MPD2    C513436   2.588   0.917  11.826  0.3389 -0.2822 -0.3192
  914MPD2     H13437   2.584   0.925  12.205 -3.0445  0.0073 -0.2051
  914MPD2    H113438   2.494   0.725  11.851  0.1096 -2.2291  2.7912
  914MPD2    H213439   2.652   1.118  11.827 -0.9767  0.4134  0.2123
  914MPD2    H313440   2.587   0.923  11.718  0.1482  0.6948 -0.2663
  914MPD2     N13441   2.479   0.716  12.116  0.1120  0.2529  0.0351
  914MPD2    H513442   2.475   0.739  12.215  1.5311 -0.9966  0.3697
  914MPD2    N113443   2.661   1.164  12.082 -0.3470 -0.0282  0.1797
  914MPD2    H713444   2.674   1.247  12.025 -1.8748 -1.2244 -1.9204
  915MPD2     C13445   0.733   0.848  15.501  1.5979 -0.0213 -0.6216
  915MPD2    C113446   0.597   0.862  15.519 -0.1457  0.0300  0.2759
  915MPD2    C213447   0.543   0.913  15.642 -0.0226 -0.9500  0.2555
  915MPD2    C313448   0.628   0.957  15.744  0.0673 -0.2977  0.1666
  915MPD2    C413449   0.758   0.960  15.716  0.0231 -0.2652 -1.0887
  915MPD2    C513450   0.810   0.900  15.605  0.0199 -0.3182 -0.3433
  915MPD2     H13451   0.437   0.926  15.658  0.0092 -0.8187  0.3581
  915MPD2    H113452   0.830   0.988  15.792 -0.3471 -0.7495 -0.5655
  915MPD2    H213453   0.782   0.799  15.418 -3.3281  0.5603 -3.8724
  915MPD2    H313454   0.917   0.889  15.594  0.2654  0.2999  1.4835
  915MPD2     N13455   0.575   1.026  15.860 -0.7236 -0.0813  0.1272
  915MPD2    H513456   0.485   1.072  15.848 -0.4459  0.6024  0.6796
  915MPD2    N113457   0.514   0.810  15.420 -0.4886 -0.0181 -0.1979
  915MPD2    H713458   0.564   0.787  15.335 -0.2660 -1.4185  0.3238
  916MPD2     C13459   3.652   4.340  15.758 -0.8152 -0.1481 -0.2261
  916MPD2    C113460   3.618   4.224  15.827 -0.8541 -0.1320  0.2903
  916MPD2    C213461   3.665   4.101  15.784 -1.0788 -0.2265 -0.8435
  916MPD2    C313462   3.738   4.085  15.665 -0.5180 -0.0734  0.0656
  916MPD2    C413463   3.755   4.204  15.585  0.1688  0.7726 -0.0151
  916MPD2    C513464   3.714   4.322  15.638  0.5180  0.1283  0.2381
  916MPD2     H13465   3.656   4.013  15.847  1.5498  0.2845  0.2444
  916MPD2    H113466   3.811   4.197  15.492 -1.8603 -1.7635 -1.0379
  916MPD2    H213467   3.635   4.441  15.794  1.0523 -0.2181  0.8381
  916MPD2    H313468   3.742   4.408  15.578  2.0574  0.5015  1.5130
  916MPD2     N13469   3.788   3.954  15.629  0.0906  0.5329  0.1556
  916MPD2    H513470   3.752   3.875  15.680 -0.5709 -0.2409 -1.5132
  916MPD2    N113471   3.554   4.243  15.959 -0.0555  0.3230  0.0769
  916MPD2    H713472   3.516   4.336  15.967  1.0719  1.1062 -3.7573
  917MPD2     C13473   3.029   1.622  11.034  0.0742  0.0001  0.7866
  917MPD2    C113474   3.112   1.660  11.143 -0.7346 -0.3974 -1.0258
  917MPD2    C213475   3.208   1.754  11.122  0.0660  0.5712  0.3160
  917MPD2    C313476   3.221   1.808  10.995 -0.6154 -0.7014  0.2847
  917MPD2    C413477   3.142   1.766  10.882  0.2214 -0.9740  0.2341
  917MPD2    C513478   3.050   1.674  10.908  0.1247 -0.1072  0.3894
  917MPD2     H13479   3.278   1.772  11.203 -1.1113 -1.6160  1.8381
  917MPD2    H113480   3.162   1.812  10.786 -0.9185  1.1413  1.0075
  917MPD2    H213481   2.959   1.540  11.038  0.3470 -0.3233 -1.0415
  917MPD2    H313482   2.999   1.634  10.821 -1.7895  2.2455  0.4503
  917MPD2     N13483   3.318   1.913  10.975 -0.2390 -0.5136 -0.4612
  917MPD2    H513484   3.344   1.923  10.877  2.6719  0.4780  0.4138
  917MPD2    N113485   3.083   1.605  11.267 -0.8251 -0.7111 -0.9351
  917MPD2    H713486   3.011   1.533  11.270 -0.5543 -0.9425  0.1297
  918MPD2     C13487   3.301   1.905  12.225  0.0345 -0.0013  0.0238
  918MPD2    C113488   3.316   1.970  12.104  0.5578 -0.0308  0.3979
  918MPD2    C213489   3.267   1.911  11.987 -0.3120  0.1882  0.0081
  918MPD2    C313490   3.194   1.789  11.997 -0.5695  0.0799  0.1329
  918MPD2    C413491   3.176   1.734  12.122 -0.6849 -0.0215  0.1445
  918MPD2    C513492   3.225   1.797  12.235 -0.7363  0.3322 -0.3826
  918MPD2     H13493   3.291   1.952  11.889  4.2669 -1.5345  0.3862
  918MPD2    H113494   3.111   1.650  12.140 -0.1766 -0.3705  0.3703
  918MPD2    H213495   3.331   1.936  12.324  1.7517 -0.5877 -0.3155
  918MPD2    H313496   3.213   1.745  12.329  0.7092  2.0094  0.7226
  918MPD2     N13497   3.151   1.729  11.869 -0.1666  0.1226  0.4266
  918MPD2    H513498   3.170   1.780  11.783  0.2481 -0.6334  0.0742
  918MPD2    N113499   3.394   2.085  12.090 -0.5805 -0.0131 -0.1517
  918MPD2    H713500   3.408   2.109  11.992 -1.6565  2.0330  0.1862
  919MPD2     C13501   3.915   0.874  11.973  0.1443  0.5527 -0.0199
  919MPD2    C113502   3.909   0.778  11.879 -1.3876  0.2202 -0.3949
  919MPD2    C213503   3.846   0.795  11.757 -0.4512  0.3458 -0.0514
  919MPD2    C313504   3.798   0.925  11.725  0.1180  0.3067 -1.3068
  919MPD2    C413505   3.806   1.026  11.818 -0.3268 -0.0957 -0.4659
  919MPD2    C513506   3.855   1.002  11.944  1.1350 -0.4212 -0.3726
  919MPD2     H13507   3.841   0.714  11.686 -0.7753  1.6254 -1.4939
  919MPD2    H113508   3.787   1.131  11.800 -1.0287 -0.0904  0.2979
  919MPD2    H213509   3.954   0.856  12.072  2.1026 -1.6243 -1.1928
  919MPD2    H313510   3.878   1.086  12.008  1.5506 -0.9202  0.1396
  919MPD2     N13511   3.746   0.952  11.599  0.1666 -0.6281 -0.0194
  919MPD2    H513512   3.727   1.051  11.584  2.6727 -0.3910 -1.6117
  919MPD2    N113513   3.970   0.659  11.916  0.2586 -0.5713  0.0580
  919MPD2    H713514   4.005   0.664  12.011 -0.1256 -2.8493  0.3272
  920MPD2     C13515   3.804   1.403  10.739 -1.0678  0.5950 -0.2962
  920MPD2    C113516   3.697   1.319  10.723 -0.4913  0.5049  0.0245
  920MPD2    C213517   3.649   1.254  10.829  0.9101  0.2557 -0.4596
  920MPD2    C313518   3.694   1.267  10.961 -0.2695 -0.5366 -0.4612
  920MPD2    C413519   3.802   1.354  10.980 -0.1644 -0.1257 -0.1266
  920MPD2    C513520   3.857   1.421  10.870  0.8010 -0.0032 -0.0477
  920MPD2     H13521   3.559   1.194  10.814  1.7787 -0.8709 -1.1237
  920MPD2    H113522   3.844   1.374  11.077 -0.6195 -1.3436  0.3186
  920MPD2    H213523   3.853   1.466  10.665  0.0622  1.6137  1.3255
  920MPD2    H313524   3.941   1.486  10.889  0.1203  0.5498  1.0415
  920MPD2     N13525   3.645   1.180  11.059 -0.4430  0.3231  0.4580
  920MPD2    H513526   3.580   1.109  11.028 -0.2369 -0.3258  1.5208
  920MPD2    N113527   3.637   1.299  10.604 -0.0592 -0.1845  0.4692
  920MPD2    H713528   3.546   1.253  10.605  0.1734 -0.6301  0.8933
  921MPD2     C13529   0.446   4.345  16.653  0.4500  0.2172 -0.3759
  921MPD2    C113530   0.471   4.263  16.544 -0.4599  0.0060 -0.3433
  921MPD2    C213531   0.368   4.187  16.502 -0.3090 -0.4356 -0.7261
  921MPD2    C313532   0.235   4.197  16.557 -0.2410 -0.0989 -0.7393
  921MPD2    C413533   0.218   4.273  16.673 -0.2574 -0.6515 -0.2149
  921MPD2    C513534   0.323   4.345  16.717  0.5411 -0.4690  0.4186
  921MPD2     H13535   0.381   4.121  16.417 -0.2559 -0.2920 -0.8285
  921MPD2    H113536   0.120   4.279  16.718 -0.3990 -1.5551 -0.4133
  921MPD2    H213537   0.523   4.414  16.687 -0.8534  2.4048 -1.8622
  921MPD2    H313538   0.297   4.414  16.797 -2.1200 -0.9190 -0.0627
  921MPD2     N13539   0.122   4.135  16.505  0.1435  0.2139 -0.5730
  921MPD2    H513540   0.037   4.186  16.525  0.3749 -0.0530  1.0531
  921MPD2    N113541   0.599   4.269  16.479  0.5430  0.2291  0.1767
  921MPD2    H713542   0.610   4.221  16.390  0.5701  0.3000  0.1415
  922MPD2     C13543   1.289   2.344  17.144 -0.5021 -0.4016 -0.3516
  922MPD2    C113544   1.242   2.353  17.271  0.5102 -0.0976  0.3860
  922MPD2    C213545   1.173   2.245  17.325  0.2721 -0.1898 -0.1366
  922MPD2    C313546   1.174   2.124  17.263 -0.4250  0.5568 -0.2545
  922MPD2    C413547   1.220   2.113  17.136  0.5246  0.2859 -0.2700
  922MPD2    C513548   1.280   2.228  17.077 -0.3601 -0.2981  0.0470
  922MPD2     H13549   1.135   2.254  17.426  1.3514  0.5685  0.2009
  922MPD2    H113550   1.207   2.021  17.081  1.7950  0.9478 -1.6661
  922MPD2    H213551   1.338   2.426  17.092  0.1172 -1.3658 -1.2872
  922MPD2    H313552   1.313   2.220  16.974  0.9420  1.8641  0.3126
  922MPD2     N13553   1.119   2.017  17.340  0.1800 -0.5949 -0.6153
  922MPD2    H513554   1.094   2.029  17.438  1.8134 -0.2949 -0.2420
  922MPD2    N113555   1.243   2.471  17.347 -0.2066  0.8123  0.3587
  922MPD2    H713556   1.200   2.475  17.439  0.4545 -0.7626  0.7325
  923MPD2     C13557   2.840   3.844   8.952 -0.4124 -0.0530 -0.2089
  923MPD2    C113558   2.826   3.981   8.957 -0.2079  0.5773  0.3616
  923MPD2    C213559   2.901   4.059   9.047  0.3443 -0.4216  0.1614
  923MPD2    C313560   2.993   3.998   9.130 -0.4810 -0.1274 -0.1978
  923MPD2    C413561   3.007   3.864   9.129 -0.5781 -0.6630  0.7518
  923MPD2    C513562   2.927   3.793   9.046 -0.2784 -0.2350  0.2844
  923MPD2     H13563   2.887   4.166   9.063 -0.7452 -0.9624  2.7920
  923MPD2    H113564   3.076   3.814   9.196  0.1712 -0.5650  0.0592
  923MPD2    H213565   2.781   3.784   8.884 -0.5435  3.0507 -2.8004
  923MPD2    H313566   2.935   3.685   9.053 -3.3139 -0.2970  2.5238
  923MPD2     N13567   3.077   4.065   9.219  0.1625 -0.4269 -0.2109
  923MPD2    H513568   3.157   4.009   9.246  0.9714 -0.1620 -2.0550
  923MPD2    N113569   2.714   4.035   8.890 -0.2834 -0.4409  0.1035
  923MPD2    H713570   2.653   3.962   8.856 -0.7267  0.3160 -0.7257
  924MPD2     C13571   2.746   2.207  16.102 -0.3562 -0.0161  0.7722
  924MPD2    C113572   2.797   2.301  16.187 -0.0807  0.0721 -0.5105
  924MPD2    C213573   2.923   2.355  16.160 -0.4460  0.4584 -0.2233
  924MPD2    C313574   2.990   2.321  16.040 -0.0641  0.3034 -0.9142
  924MPD2    C413575   2.938   2.226  15.955  0.1934 -0.0230  0.3486
  924MPD2    C513576   2.816   2.175  15.987 -0.5950 -0.0519 -0.5926
  924MPD2     H13577   2.967   2.417  16.238  1.7425  1.0696 -1.9290
  924MPD2    H113578   2.975   2.195  15.858  1.0048  0.1645  0.6012
  924MPD2    H213579   2.651   2.159  16.121 -1.1314  0.8009 -1.0631
  924MPD2    H313580   2.756   2.112  15.922  0.1564 -0.4561 -0.8967
  924MPD2     N13581   3.110   2.384  15.993 -0.0457  1.0841 -0.2201
  924MPD2    H513582   3.166   2.348  15.917  0.6805 -0.0813  0.8787
  924MPD2    N113583   2.722   2.325  16.300  0.1841  0.0113  0.5086
  924MPD2    H713584   2.638   2.270  16.319 -1.6011  2.1320 -1.2099
  925MPD2     C13585   1.529   0.533  14.619 -0.5771  1.1767  0.2653
  925MPD2    C113586   1.404   0.578  14.578  0.0851  0.2630 -0.6744
  925MPD2    C213587   1.297   0.568  14.675  0.2129 -0.8089 -0.2207
  925MPD2    C313588   1.314   0.503  14.797  0.3534  0.7497 -0.4401
  925MPD2    C413589   1.442   0.470  14.837 -0.5919  0.7363 -0.1760
  925MPD2    C513590   1.541   0.481  14.741  0.3415 -0.1889  0.4539
  925MPD2     H13591   1.197   0.605  14.654  0.9214  2.4632  2.2608
  925MPD2    H113592   1.467   0.426  14.933 -3.6512 -1.7464 -0.5234
  925MPD2    H213593   1.609   0.530  14.546  0.8109  0.2490  1.8076
  925MPD2    H313594   1.638   0.439  14.764  0.9727  1.0255  0.0394
  925MPD2     N13595   1.209   0.481  14.887  0.5234  0.2307 -0.0754
  925MPD2    H513596   1.248   0.433  14.967 -2.2814 -0.0320  1.0947
  925MPD2    N113597   1.375   0.618  14.446 -0.3629  0.5690  0.5433
  925MPD2    H713598   1.277   0.642  14.432 -0.4605 -0.9114 -1.2419
  926MPD2     C13599   4.270   3.207  12.804  0.2000 -0.8125 -0.0434
  926MPD2    C113600   4.314   3.323  12.863 -0.7839 -0.6183  0.4700
  926MPD2    C213601   4.430   3.386  12.810  0.5572 -0.0485 -0.6143
  926MPD2    C313602   4.492   3.338  12.696  0.2002  0.4420 -0.0418
  926MPD2    C413603   4.449   3.220  12.641 -0.3760 -0.4148  0.8265
  926MPD2    C513604   4.338   3.161  12.694 -0.1490 -0.0967  0.2346
  926MPD2     H13605   4.460   3.479  12.857  2.4395 -0.7593 -0.4135
  926MPD2    H113606   4.500   3.181  12.553 -0.7485  0.3724  0.2637
  926MPD2    H213607   4.185   3.155  12.847  0.5029 -0.5603  0.8582
  926MPD2    H313608   4.310   3.068  12.647 -0.7700  1.4121 -2.3498
  926MPD2     N13609   4.612   3.407  12.649 -0.8087  0.5426  0.1987
  926MPD2    H513610   4.645   3.384  12.555  1.1073 -0.7507  1.1748
  926MPD2    N113611   4.240   3.378  12.974  0.0965  0.0247 -0.2812
  926MPD2    H713612   4.272   3.467  13.010  1.1984 -0.6810  0.4877
  927MPD2     C13613   4.548   0.832   0.181  0.4062 -0.1347  0.0153
  927MPD2    C113614   4.459   0.853   0.080 -0.3303  0.5763 -0.2102
  927MPD2    C213615   4.507   0.856  17.696  0.1983  0.7094 -0.4171
  927MPD2    C313616   4.641   0.829  17.675  0.5790  0.5886 -0.2090
  927MPD2    C413617   4.728   0.804   0.039  0.8690 -0.8214 -0.2947
  927MPD2    C513618   4.682   0.824   0.166  0.2943 -0.6573  0.1549
  927MPD2     H13619   4.444   0.885  17.613 -0.1087  0.8859 -0.1235
  927MPD2    H113620   0.097   0.785   0.024  1.5076  0.6170  2.3399
  927MPD2    H213621   4.506   0.843   0.280 -1.4132 -0.4126 -0.7266
  927MPD2    H313622   0.011   0.790   0.245  0.5024  0.2180  0.3552
  927MPD2     N13623   4.687   0.823  17.542  0.3609  0.3892 -0.1331
  927MPD2    H513624   4.629   0.858  17.467 -2.5110 -0.6585  1.6058
  927MPD2    N113625   4.324   0.876   0.117 -0.0280  0.4027 -0.2722
  927MPD2    H713626   4.298   0.857   0.213  2.4334 -0.2645  0.2369
  928MPD2     C13627   2.402   4.400   0.889  0.3637 -0.0220 -0.0842
  928MPD2    C113628   2.333   4.363   0.776 -0.0791  0.0546 -0.5845
  928MPD2    C213629   2.411   4.314   0.680  0.1735 -0.5716  0.0364
  928MPD2    C313630   2.552   4.317   0.692  0.4138  0.5101 -0.1692
  928MPD2    C413631   2.612   4.376   0.796  0.2399 -0.2531 -0.0699
  928MPD2    C513632   2.534   4.419   0.898 -0.0785  0.1570 -0.5712
  928MPD2     H13633   2.362   4.283   0.589  2.1560 -1.4856 -0.7304
  928MPD2    H113634   2.720   4.382   0.799  0.2407 -0.1108 -0.4356
  928MPD2    H213635   2.346   4.440   0.973 -1.1601  0.1231 -1.1573
  928MPD2    H313636   2.576   4.481   0.976 -1.6737 -1.1824  1.3142
  928MPD2     N13637   2.639   4.269   0.590 -0.4166  0.2187  0.6118
  928MPD2    H513638   2.740   4.273   0.605 -0.1675 -3.4724 -0.1625
  928MPD2    N113639   2.195   4.376   0.776 -0.5326  0.5608 -0.3260
  928MPD2    H713640   2.156   4.418   0.860 -0.9730 -1.7018  0.5843
  929MPD2     C13641   2.628   4.446   9.605 -0.0986  0.1978 -0.5414
  929MPD2    C113642   2.514   4.374   9.644  0.1535 -0.0841 -0.7085
  929MPD2    C213643   2.400   4.406   9.573 -0.3243  0.5030 -0.2046
  929MPD2    C313644   2.391   4.523   9.491 -0.6432 -0.8465 -0.2466
  929MPD2    C413645   2.505   4.602   9.476 -0.0777  0.1205 -0.1904
  929MPD2    C513646   2.619   4.560   9.536 -0.2262  0.0598  0.1220
  929MPD2     H13647   2.301   4.376   9.607  0.4934  1.5037  3.0905
  929MPD2    H113648   2.505   4.688   9.410 -1.0684  1.5617  1.6846
  929MPD2    H213649   2.720   4.412   9.651  0.9397  0.6577 -2.2788
  929MPD2    H313650   2.713   4.615   9.532  0.2261 -0.6821  0.3888
  929MPD2     N13651   2.272   4.563   9.422 -0.2246 -0.0215  0.2447
  929MPD2    H513652   2.253   4.662   9.409  0.6458  0.4313  2.4410
  929MPD2    N113653   2.519   4.273   9.739 -0.1329  0.1327 -0.5871
  929MPD2    H713654   2.608   4.230   9.766  0.6874  0.9825 -1.9497
  930MPD2     C13655   4.296   1.379  13.770 -0.8763  0.6884  1.0993
  930MPD2    C113656   4.379   1.472  13.714  1.0839 -1.0849 -0.1049
  930MPD2    C213657   4.441   1.444  13.593  0.0864 -0.3310 -0.1048
  930MPD2    C313658   4.407   1.328  13.522 -0.7395 -0.1448  0.1176
  930MPD2    C413659   4.309   1.240  13.577  0.3836 -0.2289  0.1776
  930MPD2    C513660   4.254   1.275  13.696  0.5904 -0.1957  0.3325
  930MPD2     H13661   4.522   1.508  13.562  1.0293 -0.8838  1.2002
  930MPD2    H113662   4.294   1.140  13.538  1.8553 -1.4841  2.7442
  930MPD2    H213663   4.257   1.392  13.870  0.0850  1.8073  1.3401
  930MPD2    H313664   4.184   1.201  13.735  1.2516 -0.6631  0.6298
  930MPD2     N13665   4.480   1.277  13.410 -0.3711 -0.0161  0.4764
  930MPD2    H513666   4.462   1.178  13.394 -0.5362  0.0122  0.4871
  930MPD2    N113667   4.408   1.584  13.796  0.1302 -0.1383  0.7358
  930MPD2    H713668   4.365   1.591  13.887 -3.6215 -0.8311 -0.9600
  931MPD2     C13669   4.105   1.075   0.748 -0.3579  0.3489 -0.0770
  931MPD2    C113670   4.159   0.979   0.665 -1.1817  0.5340 -0.3082
  931MPD2    C213671   4.278   0.922   0.709 -0.6751  0.0665  0.1103
  931MPD2    C313672   4.329   0.949   0.836 -0.1100  0.3993 -0.0238
  931MPD2    C413673   4.268   1.044   0.917 -0.2291 -0.8330 -0.2022
  931MPD2    C513674   4.151   1.099   0.872  0.1782 -0.1066 -0.1225
  931MPD2     H13675   4.315   0.839   0.651 -0.6268 -0.8582  1.4702
  931MPD2    H113676   4.301   1.068   1.018 -2.9733  2.2174 -0.0088
  931MPD2    H213677   4.025   1.140   0.716 -1.5568 -0.4662  1.2954
  931MPD2    H313678   4.101   1.171   0.936  0.2574 -0.6189  0.5233
  931MPD2     N13679   4.439   0.882   0.891 -0.5622  0.3391 -0.3600
  931MPD2    H513680   4.476   0.906   0.982 -0.3997  1.4580 -0.7208
  931MPD2    N113681   4.114   0.944   0.534  0.0133 -0.0567 -0.0131
  931MPD2    H713682   4.159   0.870   0.482  3.0930  0.9496  1.2529
  932MPD2     C13683   1.662   4.461  11.422 -0.7572  0.3159 -0.2433
  932MPD2    C113684   1.695   4.573  11.494  0.1250 -0.8439  0.7653
  932MPD2    C213685   1.775   4.546  11.604 -0.2216 -0.1583  0.0359
  932MPD2    C313686   1.815   4.420  11.646  0.4632 -0.4111 -0.0285
  932MPD2    C413687   1.771   4.309  11.574 -0.9770 -0.1517  0.2009
  932MPD2    C513688   1.695   4.331  11.460 -0.0565 -0.8459  0.5564
  932MPD2     H13689   1.807   4.636  11.656 -0.5345  1.1170 -2.0064
  932MPD2    H113690   1.793   4.206  11.600 -1.1059 -0.2487 -0.0800
  932MPD2    H213691   1.602   4.476  11.333  0.6197  2.7761 -0.7474
  932MPD2    H313692   1.655   4.246  11.406  2.6262 -0.9570 -1.2542
  932MPD2     N13693   1.895   4.389  11.761  0.5157 -0.0566 -0.2381
  932MPD2    H513694   1.904   4.290  11.783  1.5348 -0.4325 -2.3621
  932MPD2    N113695   1.666   4.712  11.463 -0.9240 -0.2326  0.7650
  932MPD2    H713696   1.710   0.040  11.527 -0.6480  0.9625 -0.6138
  933MPD2     C13697   1.637   4.504   0.239  0.2550 -0.4930  0.9324
  933MPD2    C113698   1.672   4.599   0.334 -0.2512 -0.4482  0.4283
  933MPD2    C213699   1.663   4.736   0.301 -0.3217 -0.3733 -0.7040
  933MPD2    C313700   1.623   0.043   0.172  0.3450 -0.0538  0.2931
  933MPD2    C413701   1.590   4.682   0.074 -1.3153  0.3953  0.0683
  933MPD2    C513702   1.596   4.552   0.115  0.1700 -0.2035 -0.0603
  933MPD2     H13703   1.693   0.079   0.369 -1.2218  0.2495 -1.0431
  933MPD2    H113704   1.555   4.706  17.719  1.5820 -0.2238 -1.0779
  933MPD2    H213705   1.634   4.398   0.262 -1.6370 -0.3702  1.2433
  933MPD2    H313706   1.556   4.476   0.049 -0.6963  0.8287 -0.7213
  933MPD2     N13707   1.636   0.183   0.137 -0.0888 -0.0972  0.4101
  933MPD2    H513708   1.656   0.244   0.215  2.9650 -0.8951  0.2836
  933MPD2    N113709   1.715   4.549   0.458  0.3649 -0.5959  0.7208
  933MPD2    H713710   1.726   4.449   0.472 -0.7545 -1.0052 -1.3203
  934MPD2     C13711   3.767   1.474   1.472  0.5111 -0.0960 -0.6225
  934MPD2    C113712   3.863   1.427   1.388 -0.2119  0.4400 -0.5904
  934MPD2    C213713   3.826   1.358   1.278 -0.4885 -0.6094  0.6079
  934MPD2    C313714   3.693   1.331   1.253  0.5033  0.1464 -0.1027
  934MPD2    C413715   3.600   1.365   1.344  0.1238  0.0604  0.3501
  934MPD2    C513716   3.631   1.445   1.453  0.0684 -0.3135 -0.3683
  934MPD2     H13717   3.903   1.329   1.208  0.7911 -1.9465  2.5541
  934MPD2    H113718   3.499   1.331   1.329  0.6625 -2.2153  1.8360
  934MPD2    H213719   3.791   1.536   1.557 -1.8290 -2.0966  1.4942
  934MPD2    H313720   3.557   1.472   1.527  2.1073  2.4896  0.6736
  934MPD2     N13721   3.641   1.276   1.131  0.7786 -0.4660  0.0467
  934MPD2    H513722   3.541   1.271   1.118  1.0213 -0.8574 -1.6574
  934MPD2    N113723   3.997   1.447   1.418 -0.3068  0.3652 -0.2619
  934MPD2    H713724   4.057   1.424   1.340  0.8339 -0.1122  0.7399
  935MPD2     C13725   3.848   0.505   0.726 -0.4047 -0.7416  0.3148
  935MPD2    C113726   3.748   0.541   0.636 -0.7497 -0.9230  0.1747
  935MPD2    C213727   3.703   0.670   0.637 -0.0151  0.1409  0.1853
  935MPD2    C313728   3.749   0.756   0.729 -0.0906 -0.1120 -0.4308
  935MPD2    C413729   3.863   0.731   0.803 -0.0514 -0.4840 -0.0100
  935MPD2    C513730   3.917   0.609   0.788  0.0112 -0.1511 -0.8329
  935MPD2     H13731   3.610   0.699   0.589  1.8001  0.1971 -3.3002
  935MPD2    H113732   3.915   0.805   0.863 -0.1799  0.4382 -1.0340
  935MPD2    H213733   3.884   0.406   0.750  2.6859  0.5744  1.0919
  935MPD2    H313734   4.002   0.581   0.849 -0.5702 -1.1242 -0.4768
  935MPD2     N13735   3.701   0.891   0.740 -0.0740  0.8272 -0.0016
  935MPD2    H513736   3.756   0.958   0.793  2.7724  0.2662 -2.2573
  935MPD2    N113737   3.680   0.449   0.554 -0.1698 -0.2678  0.4010
  935MPD2    H713738   3.601   0.478   0.497  0.5113  0.9719  0.0950
  936MPD2     C13739   1.883   2.890  12.126 -0.0108 -0.7734  0.3695
  936MPD2    C113740   1.890   2.951  12.249  0.1072  0.1068 -0.4549
  936MPD2    C213741   1.897   3.090  12.249  0.6833  0.5152  0.6852
  936MPD2    C313742   1.888   3.163  12.138  0.2202 -0.6290 -0.6842
  936MPD2    C413743   1.886   3.103  12.019 -0.4542  0.5573 -0.4790
  936MPD2    C513744   1.883   2.967  12.016 -0.0332 -0.4955 -0.0158
  936MPD2     H13745   1.924   3.141  12.341 -2.2207  0.3007  1.6374
  936MPD2    H113746   1.880   3.167  11.933  0.6522 -1.8471 -2.3585
  936MPD2    H213747   1.864   2.784  12.116 -1.4319 -0.2875 -2.1109
  936MPD2    H313748   1.884   2.920  11.919 -2.5814 -1.6770  0.5201
  936MPD2     N13749   1.884   3.302  12.160 -0.4670  0.1509  0.2991
  936MPD2    H513750   1.885   3.329  12.257 -1.3022 -0.4042  0.4635
  936MPD2    N113751   1.887   2.880  12.373  0.2852 -0.8230  0.6524
  936MPD2    H713752   1.870   2.933  12.458 -0.8551  3.2304 -2.0957
  937MPD2     C13753   4.347   4.702  11.634 -0.5068  0.9790 -0.2596
  937MPD2    C113754   4.344   0.104  11.629  0.0957  0.4945  0.1681
  937MPD2    C213755   4.376   0.161  11.509 -0.1510  0.4722 -0.0841
  937MPD2    C313756   4.438   0.101  11.403  0.3672  0.0307 -0.0364
  937MPD2    C413757   4.436   4.699  11.414  0.8840  0.9615 -0.5480
  937MPD2    C513758   4.380   4.637  11.519  0.7753 -0.0861 -0.1133
  937MPD2     H13759   4.359   0.265  11.486 -2.7614  0.5547  2.2343
  937MPD2    H113760   4.471   4.630  11.338  1.1669 -1.4400  1.7366
  937MPD2    H213761   4.323   4.639  11.719 -3.1277  0.6788 -1.2037
  937MPD2    H313762   4.373   4.529  11.523  2.1041 -0.0379  3.2280
  937MPD2     N13763   4.497   0.165  11.293 -0.4109  0.4571  0.1691
  937MPD2    H513764   4.487   0.266  11.292  2.5655  0.7805  0.5195
  937MPD2    N113765   4.280   0.175  11.725  0.2210 -0.4611 -0.3175
  937MPD2    H713766   4.259   0.273  11.709 -0.0465 -1.0356 -3.4601
  938MPD2     C13767   3.031   1.193   0.226  0.5010  0.0555  0.1644
  938MPD2    C113768   3.090   1.244   0.336 -0.6484  0.0688  0.0515
  938MPD2    C213769   3.082   1.174   0.456 -0.5263  0.2705 -0.7672
  938MPD2    C313770   3.005   1.056   0.464  0.2017 -0.1806 -0.2089
  938MPD2    C413771   2.956   1.009   0.346  0.6602  0.3561  0.0246
  938MPD2    C513772   2.981   1.071   0.226 -0.4688  0.4152 -0.4680
  938MPD2     H13773   3.129   1.220   0.542 -2.3499  1.0079 -0.1548
  938MPD2    H113774   2.900   0.916   0.351 -0.2284  0.8296 -1.1188
  938MPD2    H213775   3.054   1.233   0.127 -1.2125 -0.5702 -0.4842
  938MPD2    H313776   2.944   1.032   0.132  1.6010 -0.3041 -0.9752
  938MPD2     N13777   2.980   0.995   0.585  0.3934 -0.4691  0.0814
  938MPD2    H513778   2.895   0.942   0.597  0.8829 -0.8851  1.7120
  938MPD2    N113779   3.178   1.349   0.333  0.0779 -0.3177 -0.1502
  938MPD2    H713780   3.247   1.363   0.406  1.3044 -1.2545 -1.1363
  939MPD2     C13781   3.460   2.574   0.252  0.3988 -0.0933  0.0444
  939MPD2    C113782   3.499   2.441   0.263  0.6795  0.7593 -0.1391
  939MPD2    C213783   3.438   2.337   0.187 -0.8894 -0.6147  0.5638
  939MPD2    C313784   3.330   2.368   0.104 -0.5512  0.0779 -0.5023
  939MPD2    C413785   3.283   2.501   0.106 -0.0482 -0.4143 -0.6387
  939MPD2    C513786   3.348   2.604   0.172  0.7494 -0.3177 -0.7997
  939MPD2     H13787   3.471   2.235   0.202 -0.2226 -0.5579 -0.5124
  939MPD2    H113788   3.204   2.525   0.035  0.8589  1.1245 -1.1303
  939MPD2    H213789   3.514   2.651   0.305  0.1126  1.7197 -2.2850
  939MPD2    H313790   3.319   2.708   0.158 -1.7917 -0.9633 -0.2938
  939MPD2     N13791   3.277   2.262   0.023 -0.4103  0.3249  0.6686
  939MPD2    H513792   3.323   2.172   0.030  2.2217  1.7209  1.1161
  939MPD2    N113793   3.616   2.428   0.344 -0.1458  0.1656 -0.4198
  939MPD2    H713794   3.659   2.515   0.374  0.5863  0.0285 -1.0584
  940MPD2     C13795   1.948   3.477  13.012  0.3152  1.1124 -0.3896
  940MPD2    C113796   2.027   3.501  13.123  0.3369  0.0814  0.2236
  940MPD2    C213797   2.167   3.476  13.127 -0.2879  0.4766  0.4494
  940MPD2    C313798   2.224   3.429  13.007 -0.0975 -0.0467  0.2270
  940MPD2    C413799   2.145   3.401  12.898 -0.0912  0.6716 -0.1985
  940MPD2    C513800   2.008   3.418  12.902 -0.2825  0.0732  0.4614
  940MPD2     H13801   2.227   3.501  13.214  1.0445  0.1140 -0.3653
  940MPD2    H113802   2.197   3.373  12.807  0.0791  0.8708 -0.1622
  940MPD2    H213803   1.843   3.500  13.004 -0.3149 -1.3141  1.0534
  940MPD2    H313804   1.941   3.397  12.820  1.2776  0.7664 -0.9890
  940MPD2     N13805   2.361   3.413  12.995  0.2546  0.1283 -0.1031
  940MPD2    H513806   2.396   3.390  12.903 -0.6915 -0.9545 -0.1946
  940MPD2    N113807   1.983   3.545  13.250 -0.7250 -0.6096 -0.3976
  940MPD2    H713808   2.053   3.540  13.323 -1.5779 -0.6263  0.4203
  941MPD2     C13809   1.531   2.668  10.178 -0.3909 -0.1814  0.3107
  941MPD2    C113810   1.649   2.692  10.252  0.6745 -0.5920  0.3690
  941MPD2    C213811   1.653   2.674  10.391  0.1155 -0.0428 -0.6713
  941MPD2    C313812   1.541   2.643  10.456 -0.0432  1.0300  0.0578
  941MPD2    C413813   1.432   2.622  10.386  0.0632 -0.4574  0.0522
  941MPD2    C513814   1.427   2.625  10.250 -0.2990  0.6843 -0.1322
  941MPD2     H13815   1.746   2.700  10.442  0.4547  2.0806 -2.3558
  941MPD2    H113816   1.335   2.609  10.432 -1.2734  1.8150 -2.0884
  941MPD2    H213817   1.519   2.671  10.070 -3.4687 -0.5074  0.6404
  941MPD2    H313818   1.335   2.604  10.196 -1.3238  0.2953  1.7777
  941MPD2     N13819   1.537   2.628  10.596  0.0409  0.0980  0.1533
  941MPD2    H513820   1.444   2.616  10.634  0.5529 -2.0557  0.7160
  941MPD2    N113821   1.771   2.715  10.188  0.5172 -0.4281 -0.1180
  941MPD2    H713822   1.849   2.715  10.253  0.4815 -0.0631 -0.0760
  942MPD2     C13823   1.037   4.430   8.728  0.8585 -0.7958  0.3856
  942MPD2    C113824   1.151   4.509   8.734  0.2265 -0.3710  0.5285
  942MPD2    C213825   1.276   4.448   8.743  0.3447  0.1708  0.4655
  942MPD2    C313826   1.284   4.306   8.745  0.4332  0.0774  0.2954
  942MPD2    C413827   1.165   4.231   8.740 -0.1247  0.6503  0.1437
  942MPD2    C513828   1.041   4.293   8.722  0.1528  0.2872  0.1927
  942MPD2     H13829   1.364   4.512   8.744  0.6255 -0.1897 -1.4214
  942MPD2    H113830   1.179   4.124   8.743  1.5355  0.9178  2.2329
  942MPD2    H213831   0.937   4.469   8.714  1.2751 -0.0723 -0.6021
  942MPD2    H313832   0.950   4.235   8.704 -0.6150  1.5357  0.0876
  942MPD2     N13833   1.409   4.230   8.762 -0.8836  0.5948  0.5919
  942MPD2    H513834   1.411   4.128   8.765 -2.4343  0.5811  1.6580
  942MPD2    N113835   1.161   4.653   8.725  0.1596 -0.7854  0.1017
  942MPD2    H713836   1.255   4.693   8.725 -0.2760  0.3330 -3.7037
  943MPD2     C13837   0.723   1.847   9.293  0.4617  0.3618 -0.8721
  943MPD2    C113838   0.861   1.848   9.303  0.5803  0.1316  0.1166
  943MPD2    C213839   0.932   1.892   9.418 -0.2288  0.2923 -0.7801
  943MPD2    C313840   0.854   1.959   9.506  0.2973 -0.0488 -0.0492
  943MPD2    C413841   0.721   1.966   9.500 -0.1772  0.0988  0.0651
  943MPD2    C513842   0.651   1.908   9.396 -0.4649  0.3828 -0.0669
  943MPD2     H13843   1.040   1.888   9.415 -0.2247  0.9134 -1.3454
  943MPD2    H113844   0.669   2.021   9.578 -1.9471 -0.3915 -0.7797
  943MPD2    H213845   0.669   1.802   9.211 -0.4580 -1.0527  0.5203
  943MPD2    H313846   0.543   1.910   9.393 -0.6726 -4.9869  2.7497
  943MPD2     N13847   0.916   2.017   9.622 -0.7700  0.2857  0.7912
  943MPD2    H513848   0.863   2.079   9.683 -0.0823 -0.9472  2.6575
  943MPD2    N113849   0.940   1.774   9.208  0.1068 -0.3400 -0.3113
  943MPD2    H713850   0.889   1.712   9.147  0.2360 -1.8342  1.1193
  944MPD2     C13851   4.266   1.704  10.549 -0.6443 -0.0178  0.0055
  944MPD2    C113852   4.382   1.782  10.569  0.1354 -0.7814  0.4494
  944MPD2    C213853   4.395   1.834  10.700  0.2810  0.4911 -0.9591
  944MPD2    C313854   4.301   1.821  10.798 -0.7347 -0.6108 -0.8128
  944MPD2    C413855   4.184   1.746  10.774  0.0150 -0.7635  0.5413
  944MPD2    C513856   4.174   1.687  10.653  0.4662  0.1936  0.2221
  944MPD2     H13857   4.487   1.887  10.723  2.4870 -3.1767 -1.3694
  944MPD2    H113858   4.094   1.736  10.833  0.0644  2.9600  1.2195
  944MPD2    H213859   4.255   1.662  10.449  2.7120 -1.7174  0.3470
  944MPD2    H313860   4.089   1.623  10.632  0.0071  0.8003  0.2265
  944MPD2     N13861   4.320   1.895  10.918  0.2169 -0.1666  0.5168
  944MPD2    H513862   4.385   1.970  10.895  0.3319  0.1520  1.8856
  944MPD2    N113863   4.474   1.790  10.464 -0.5471  0.7121  0.3070
  944MPD2    H713864   4.459   1.731  10.383 -0.3428  1.0480  0.0240
    1TMC1    C113865   3.230   2.164  15.003 -0.3904 -0.2622  0.0946
    1TMC1    C213866   3.361   2.204  14.972  0.3180 -0.1838  0.5600
    1TMC1    C313867   3.443   2.199  15.081 -0.3200 -0.2775 -0.1544
    1TMC1    C413868   3.180   2.131  15.126  0.7417 -0.2877 -0.5643
    1TMC1    C513869   3.275   2.142  15.231  0.4519  0.0125 -0.0044
    1TMC1    C613870   3.407   2.172  15.208  0.8302  0.3950 -0.6916
    1TMC1     C13871   3.129   2.166  14.899 -0.1798 -0.0580 -0.6396
    1TMC1     O13872   3.034   2.094  14.922  0.3030  0.5214  0.1475
    1TMC1     H13873   3.391   2.226  14.870  1.8820 -1.2111  0.8106
    1TMC1    H113874   3.079   2.095  15.140  1.4249 -2.6084 -1.6391
    1TMC1    H213875   3.478   2.187  15.288 -0.1874  0.9404  0.1209
    1TMC1    C713876   3.241   2.116  15.372 -0.1539 -0.4816 -0.1624
    1TMC1    C813877   3.580   2.211  15.050  0.4383 -0.0389  0.5799
    1TMC1    O113878   3.309   2.162  15.462  0.0386 -0.1481 -0.1577
    1TMC1    O213879   3.661   2.240  15.134 -0.2172  0.2246  0.0551
    1TMC1    O313880   3.152   2.012  15.379  0.1789 -0.2325  0.3965
    1TMC1    H313881   3.149   1.959  15.297 -1.5353  0.7557 -0.1784
    1TMC1    O513882   3.603   2.130  14.942  0.0271 -0.0897  0.2852
    1TMC1    H513883   3.518   2.099  14.906 -0.2377 -0.5643  1.3130
    2MPD2     C13884   2.910   2.370  14.458 -0.7860  0.0141  0.3759
    2MPD2    C113885   3.036   2.424  14.481 -0.0117 -0.3377  0.8588
    2MPD2    C213886   3.121   2.377  14.587  0.1053  0.3837  0.3613
    2MPD2    C313887   3.084   2.279  14.677 -0.1023  0.4824  0.3531
    2MPD2    C413888   2.948   2.238  14.656  0.5328  0.5764  0.6346
    2MPD2    C513889   2.874   2.274  14.549 -0.1045 -0.3978 -0.1600
    2MPD2     H13890   3.218   2.426  14.592  1.7130 -2.5788 -1.4572
    2MPD2    H113891   2.915   2.162  14.726 -1.1366  0.7680  0.0488
    2MPD2    H213892   2.827   2.402  14.396 -1.3254 -0.0663  1.0448
    2MPD2    H313893   2.779   2.227  14.526 -0.1998 -0.5746  0.6047
    2MPD2     N13894   3.164   2.242  14.791  0.0100  0.2218 -0.0755
    2MPD2    H513895   3.245   2.302  14.802 -1.0637  1.4298  1.2372
    2MPD2    N113896   3.066   2.530  14.390 -0.3577 -0.4862 -0.3016
    2MPD2    H713897   2.991   2.546  14.323 -1.4644  0.3005  1.1452
    3TMC2    C113898   3.165   2.722  14.311  0.6721 -0.4669 -0.4118
    3TMC2    C213899   3.253   2.827  14.331  0.6995 -0.0682 -0.0738
    3TMC2    C313900   3.261   2.926  14.233 -0.0272  0.7298  0.3780
    3TMC2    C413901   3.097   2.707  14.199 -0.2724 -0.3876 -0.3493
    3TMC2    C513902   3.116   2.794  14.101 -0.4155 -0.4159  0.1840
    3TMC2    C613903   3.196   2.911  14.112 -0.0526  0.1345 -0.0462
    3TMC2     C13904   3.181   2.606  14.392 -0.4373 -0.0581  0.4038
    3TMC2     O13905   3.285   2.590  14.450 -0.6297  0.1521 -0.0159
    3TMC2     H13906   3.306   2.818  14.425 -0.0334 -1.3986  0.2137
    3TMC2    H113907   3.047   2.612  14.180 -0.5521 -0.2898 -0.1023
    3TMC2    H213908   3.222   2.978  14.031  0.2114  1.4231  1.1007
    3TMC2    C713909   3.054   2.772  13.971 -0.0199  0.6744 -0.0781
    3TMC2    C813910   3.315   3.056  14.275 -0.4904  0.2135  0.3844
    3TMC2    O113911   3.002   2.660  13.964 -0.1605 -0.3744 -0.4117
    3TMC2    O213912   3.360   3.147  14.212 -0.1241  0.5659  0.3535
    3TMC2    O513913   3.286   3.060  14.402  0.2641  0.7681 -0.0503
    3TMC2    H513914   3.220   2.993  14.431 -2.2840  2.6110 -1.5764
    4TMC2    C113915   2.639   3.543  13.489  0.4079 -0.0544  0.0427
    4TMC2    C213916   2.708   3.585  13.377 -0.1534 -0.8560  0.3395
    4TMC2    C313917   2.813   3.517  13.338  0.4741  0.6678  0.0648
    4TMC2    C413918   2.680   3.441  13.562 -0.4870 -0.0687 -0.2745
    4TMC2    C513919   2.785   3.371  13.519 -0.7712 -0.5987 -0.2505
    4TMC2    C613920   2.854   3.401  13.401 -0.1106  0.0158  0.6410
    4TMC2     C13921   2.517   3.602  13.532  0.1696 -0.5207 -0.0206
    4TMC2     O13922   2.500   3.610  13.651  0.0554 -0.3613  0.5772
    4TMC2     H13923   2.701   3.689  13.347  1.1219 -0.8370  0.0987
    4TMC2    H113924   2.635   3.404  13.654 -1.9770  1.6070 -0.3323
    4TMC2    H213925   2.930   3.337  13.358 -0.8418 -1.0991  0.9840
    4TMC2    C713926   2.836   3.260  13.604 -0.0885 -0.0268 -0.3130
    4TMC2    C813927   2.864   3.566  13.216  0.6261  0.5435  0.2582
    4TMC2    O113928   2.826   3.280  13.723 -0.2740  0.3337  0.3888
    4TMC2    O213929   2.800   3.637  13.140 -0.2319  0.6387 -0.4614
    4TMC2    O513930   2.983   3.506  13.195  0.1467  0.5484  0.0736
    4TMC2    H513931   3.025   3.457  13.268 -0.3107  0.3901  0.2295
    5MPD2     C13932   2.100   3.884  13.445  0.0942 -0.5405  0.4167
    5MPD2    C113933   2.152   3.848  13.325 -0.1742 -0.4174  0.3493
    5MPD2    C213934   2.265   3.770  13.319 -0.1707  0.1608 -0.6290
    5MPD2    C313935   2.333   3.733  13.434 -0.0543 -0.6996 -0.0229
    5MPD2    C413936   2.298   3.795  13.553  1.0687 -0.0323  0.1411
    5MPD2    C513937   2.174   3.852  13.557  0.3108  0.0780 -0.0396
    5MPD2     H13938   2.301   3.739  13.222  1.8431  3.1557 -0.8566
    5MPD2    H113939   2.358   3.777  13.641 -0.5020 -0.3352  1.1624
    5MPD2    H213940   2.004   3.932  13.461  0.2887  0.3317 -1.0354
    5MPD2    H313941   2.140   3.890  13.654 -1.5654  2.4790 -1.6342
    5MPD2     N13942   2.440   3.649  13.422  0.3909 -0.3355 -0.1066
    5MPD2    H513943   2.463   3.609  13.332  0.7558  0.1029 -0.2094
    5MPD2    N113944   2.076   3.903  13.224 -0.0672 -0.0834 -0.1176
    5MPD2    H713945   1.998   3.960  13.257  1.2529  2.4550 -1.3685
    6MPD1     C13946   0.963   4.245  11.805 -0.3941 -0.4529  0.7555
    6MPD1    C113947   0.958   4.305  11.923 -0.5460 -0.2453 -0.1037
    6MPD1    C213948   1.081   4.357  11.982  0.0762 -0.0762 -0.1165
    6MPD1    C313949   1.199   4.340  11.921  0.3673  0.4340  0.2453
    6MPD1    C413950   1.202   4.284  11.796  0.2479 -0.1502  0.3420
    6MPD1    C513951   1.086   4.237  11.740  0.0014  0.0659  0.2660
    6MPD1     H13952   1.080   4.397  12.082  1.3587  3.9943 -1.7170
    6MPD1    H113953   1.292   4.267  11.738 -2.1256 -0.5673 -3.2495
    6MPD1    H213954   0.876   4.192  11.768  0.8273  0.3381 -3.2667
    6MPD1    H313955   1.097   4.183  11.647 -1.1269 -0.8550  0.6689
    6MPD1     N13956   1.325   4.356  11.984 -0.0062  0.0154 -0.1380
    6MPD1    H513957   1.402   4.341  11.918 -0.5103 -0.4286 -0.6290
    6MPD1    N113958   0.842   4.309  12.000  0.1422  0.3744  0.3610
    6MPD1    H613959   0.821   4.402  12.035 -0.1909  0.4892 -0.1491
    6MPD1    H713960   0.765   4.281  11.940  0.4551  0.3876 -0.0443
    7MPD2     C13961   1.551   4.466  12.818 -0.2567  0.5202  0.9219
    7MPD2    C113962   1.591   4.354  12.750  0.0938  0.2740  0.7171
    7MPD2    C213963   1.636   4.238  12.819  0.1127  0.7275 -0.0541
    7MPD2    C313964   1.620   4.229  12.955 -0.4025  0.7321  0.8523
    7MPD2    C413965   1.584   4.342  13.023 -0.6509  0.0645 -0.4747
    7MPD2    C513966   1.536   4.453  12.954 -0.2617 -0.0604  0.3163
    7MPD2     H13967   1.673   4.157  12.756  0.3299  0.9559 -0.2199
    7MPD2    H113968   1.568   4.337  13.130 -0.4447  1.7178 -0.3763
    7MPD2    H213969   1.514   4.555  12.768 -0.4212 -0.0358  0.0532
    7MPD2    H313970   1.478   4.528  13.008  2.0299  1.7739  0.2250
    7MPD2     N13971   1.638   4.101  13.024  0.3104  0.7262 -0.1768
    7MPD2    H513972   1.639   4.090  13.124 -1.4208 -4.7717 -0.7866
    7MPD2    N113973   1.601   4.348  12.606 -0.0719  0.0688 -0.4679
    7MPD2    H713974   1.660   4.275  12.566 -0.7806 -1.3592  1.0918
    8TMC3    C113975   1.719   3.876  13.016 -0.3253 -1.1071 -0.1739
    8TMC3    C213976   1.836   3.912  13.076 -0.7980  0.6677  0.3559
    8TMC3    C313977   1.954   3.867  13.022 -0.0328  0.2030  0.7235
    8TMC3    C413978   1.718   3.776  12.922  0.0901 -0.5355 -0.0419
    8TMC3    C513979   1.838   3.740  12.864 -0.8915 -0.8791 -1.2522
    8TMC3    C613980   1.952   3.798  12.907 -0.2071  0.0211  0.5726
    8TMC3     C13981   1.645   3.987  12.951 -0.0172 -0.5425  1.0694
    8TMC3     O13982   1.596   3.968  12.841 -0.0201 -0.5973 -0.0370
    8TMC3     H13983   1.836   3.969  13.168  1.4931  0.6474  0.3618
    8TMC3    H113984   1.625   3.743  12.876  0.0263  0.9755 -1.0063
    8TMC3    H213985   2.044   3.766  12.859  0.0472 -0.7900  1.6177
    8TMC3    C713986   1.841   3.715  12.718 -1.1882 -0.3382  0.3612
    8TMC3    C813987   2.081   3.866  13.091  0.5758 -0.1439  0.5797
    8TMC3    O113988   1.927   3.772  12.655 -0.5695  0.2203 -0.5569
    8TMC3    O213989   2.182   3.818  13.036 -0.1816  0.6871 -0.0690
    9TMC3    C113990   1.481   4.396  12.163  0.7458  0.0452  0.2922
    9TMC3    C213991   1.553   4.292  12.131 -0.0810 -0.5008  0.8207
    9TMC3    C313992   1.637   4.234  12.222  0.6495 -0.3881  0.4270
    9TMC3    C413993   1.495   4.445  12.289 -0.2286  0.1491  0.6592
    9TMC3    C513994   1.579   4.397  12.382 -0.0303  0.4249  0.0024
    9TMC3    C613995   1.661   4.291  12.349  0.6477  0.8267 -0.3691
    9TMC3     C13996   1.352   4.426  12.101  0.3066 -0.2571  0.1291
    9TMC3     O13997   1.270   4.475  12.180  0.4748 -0.0242  0.3582
    9TMC3     H13998   1.530   4.240  12.038  0.8429 -1.0223  0.8800
    9TMC3    H113999   1.423   4.517  12.327  0.0336  0.6076  0.2935
    9TMC3    H214000   1.739   4.246  12.410  1.0247  0.7025 -0.9457
    9TMC3    C714001   1.553   4.443  12.518  0.0222 -0.2771  0.0464
    9TMC3    C814002   1.617   4.086  12.216 -0.1528  0.2964  0.4197
    9TMC3    O114003   1.493   4.547  12.538 -0.1020 -0.2279  0.1710
    9TMC3    O214004   1.562   4.029  12.124  0.0834  0.1167  0.2037
   10MPD2     C14005   1.560   3.652  12.484  0.2015  0.5582 -0.0237
   10MPD2    C114006   1.668   3.713  12.541 -0.4126 -0.2445 -0.1920
   10MPD2    C214007   1.711   3.836  12.481  0.1673  0.0057 -0.0631
   10MPD2    C314008   1.647   3.886  12.369 -0.4471 -0.1375 -0.3914
   10MPD2    C414009   1.542   3.821  12.323  0.8154  0.5668 -1.0751
   10MPD2    C514010   1.509   3.701  12.369 -0.0690  0.2335  0.9155
   10MPD2     H14011   1.780   3.901  12.532 -3.2954  2.1763  1.8174
   10MPD2    H114012   1.484   3.848  12.235 -0.3655  0.0761 -0.4502
   10MPD2    H214013   1.520   3.561  12.527 -3.8699  3.5551  2.4305
   10MPD2    H314014   1.415   3.669  12.326  0.1176 -0.3322  0.9376
   10MPD2     N14015   1.673   4.022  12.329 -0.7328  0.0175 -0.3756
   10MPD2    H514016   1.731   4.075  12.394 -0.4785 -0.8938  0.1354
   10MPD2    N114017   1.721   3.670  12.668  0.0274  0.0181  0.0963
   10MPD2    H714018   1.679   3.594  12.721 -0.3050 -1.3177 -2.0656
   11MPD2     C14019   2.937   2.779  13.702 -0.3919  0.2613 -0.0525
   11MPD2    C114020   2.973   2.889  13.775  0.5754 -0.1528 -0.8462
   11MPD2    C214021   2.956   3.012  13.714 -0.0196  0.1731 -0.1201
   11MPD2    C314022   2.900   3.026  13.586  0.1476  0.6465  0.1280
   11MPD2    C414023   2.877   2.911  13.516 -0.1429 -0.2837 -0.2521
   11MPD2    C514024   2.900   2.788  13.569  0.1405  0.4152  0.4358
   11MPD2     H14025   2.982   3.101  13.769  0.3726 -0.8490  1.3639
   11MPD2    H114026   2.840   2.905  13.414 -0.7235  1.3787 -0.1314
   11MPD2    H214027   2.939   2.675  13.732 -0.3565  0.0688 -0.7183
   11MPD2    H314028   2.886   2.696  13.513 -1.7398  0.8180  0.2584
   11MPD2     N14029   2.862   3.151  13.531  0.1271 -0.1147  0.1144
   11MPD2    H514030   2.830   3.156  13.435  0.8500  0.1858 -0.1034
   11MPD2    N114031   3.037   2.888  13.901  0.5132 -0.5414 -0.4158
   11MPD2    H714032   3.067   2.975  13.944  0.0734 -2.0811  2.9779
    1MPD1     C14033   1.668   0.090  17.009  0.2633 -0.5368 -1.0923
    1MPD1    C114034   1.653   0.227  17.041  0.1468 -0.4227 -0.0545
    1MPD1    C214035   1.760   0.299  17.087  0.1118 -0.3031 -0.3917
    1MPD1    C314036   1.878   0.238  17.111 -0.5428 -0.0025 -0.2031
    1MPD1    C414037   1.894   0.103  17.073 -0.3751 -0.5959 -0.1766
    1MPD1    C514038   1.792   0.030  17.021 -0.1734 -0.0270 -0.5177
    1MPD1     H14039   1.759   0.404  17.116 -0.3763 -0.6867  1.0070
    1MPD1    H114040   1.991   0.056  17.083 -0.4328 -1.4097 -3.4908
    1MPD1    H214041   1.585   0.024  16.988 -2.2084  1.6459  1.8950
    1MPD1    H314042   1.812   4.665  16.989  0.6484 -0.2624  0.7147
    1MPD1     N14043   1.988   0.302  17.170 -0.0350  0.1335  0.2472
    1MPD1    H514044   2.071   0.245  17.184  1.5744  2.2133 -0.8626
    1MPD1    N114045   1.527   0.277  17.043 -0.6835  0.1970  0.4000
    1MPD1    H614046   1.471   0.222  16.978 -0.6428 -0.5474  1.0026
    1MPD1    H714047   1.525   0.369  16.999  0.7961  0.8124  1.6424
    2MPD1     C14048   2.306   4.647   0.075 -0.3355 -0.0975 -0.5431
    2MPD1    C114049   2.307   4.615  17.684 -0.7716  0.8912  0.5605
    2MPD1    C214050   2.302   4.715  17.589 -0.0959 -0.5179  0.6288
    2MPD1    C314051   2.330   0.108  17.630 -0.2681 -0.2997  0.0131
    2MPD1    C414052   2.350   0.139   0.020  0.4928 -0.0115  0.5180
    2MPD1    C514053   2.330   0.039   0.112 -0.4934 -0.0085 -0.1515
    2MPD1     H14054   2.281   4.701  17.483 -0.1268 -2.4141  0.8890
    2MPD1    H114055   2.369   0.241   0.049 -1.5397  0.5429 -0.1279
    2MPD1    H214056   2.271   4.576   0.149 -0.5060  0.3427 -0.2006
    2MPD1    H314057   2.330   0.061   0.219 -2.6667 -2.1725  0.3006
    2MPD1     N14058   2.325   0.201  17.525  0.6275  0.6334  0.4361
    2MPD1    H514059   2.288   0.169  17.436 -0.0441  1.5118  0.4014
    2MPD1    N114060   2.274   4.486  17.653  0.1731  0.1896  0.7608
    2MPD1    H614061   2.309   4.454  17.563  1.7399  1.2126  1.0180
    2MPD1    H714062   2.310   4.419  17.721  1.9610 -1.4263 -1.7744
    3TMC3    C114063   2.299   0.424  17.434  0.3680  0.1135  0.0317
    3TMC3    C214064   2.339   0.554  17.441  0.4300 -0.1459 -0.4331
    3TMC3    C314065   2.273   0.650  17.363 -0.0832 -0.0170 -0.1027
    3TMC3    C414066   2.189   0.380  17.360 -0.0345  0.7757 -0.1464
    3TMC3    C514067   2.121   0.476  17.285  0.2195 -0.4305 -0.1247
    3TMC3    C614068   2.164   0.606  17.288  0.9586 -0.0077 -0.1858
    3TMC3     C14069   2.336   0.336  17.542  1.0197  0.4729  0.2773
    3TMC3     O14070   2.371   0.401  17.640  0.3396 -0.0904 -0.2765
    3TMC3     H14071   2.421   0.589  17.504 -0.9093  0.1167  1.1506
    3TMC3    H114072   2.153   0.278  17.366  0.7829  0.6121  1.9578
    3TMC3    H214073   2.123   0.681  17.221 -1.3690 -2.0615 -1.0534
    3TMC3    C714074   2.000   0.440  17.206 -0.4741 -0.5930 -0.4017
    3TMC3    C814075   2.304   0.790  17.396 -0.3780 -0.3202 -0.7140
    3TMC3    O114076   1.919   0.530  17.201 -0.7320 -0.1037  0.6080
    3TMC3    O214077   2.394   0.813  17.472  0.1135  0.4990  0.1254
    4MPD1     C14078   2.210   1.296  17.359  0.2425 -0.1537 -0.4705
    4MPD1    C114079   2.097   1.224  17.330  0.1513 -0.9912  0.0500
    4MPD1    C214080   2.101   1.086  17.320  0.4180 -0.7169 -0.2422
    4MPD1    C314081   2.215   1.020  17.358  0.0410 -0.1773 -0.0055
    4MPD1    C414082   2.330   1.091  17.408  0.3425  0.5790  0.0811
    4MPD1    C514083   2.323   1.227  17.401 -0.4265 -0.0939 -0.5191
    4MPD1     H14084   2.019   1.026  17.284 -0.2946  0.3241 -0.3526
    4MPD1    H114085   2.424   1.049  17.441  0.3547  0.9821  0.5448
    4MPD1    H214086   2.214   1.402  17.340 -0.7045 -0.0966 -0.3515
    4MPD1    H314087   2.416   1.277  17.426  0.0005 -0.7028 -0.9002
    4MPD1     N14088   2.207   0.881  17.346  0.6354 -0.1368 -0.2313
    4MPD1    H514089   2.117   0.845  17.316 -0.1444  0.0879  1.8192
    4MPD1    N114090   1.990   1.298  17.283  0.3275 -0.2800  0.4487
    4MPD1    H614091   1.903   1.246  17.290  0.9875 -1.3738  0.4494
    4MPD1    H714092   1.974   1.388  17.327  2.0993  0.1546  0.1973
    1TCq1    O114093   1.809   3.510  11.005 -0.2265  0.1644 -0.0398
    1TCq1    C114094   1.830   3.620  10.934  0.3080  0.8457 -0.7840
    1TCq1    O214095   1.865   3.616  10.816  0.2147 -0.1321 -0.9550
    1TCq1    C214096   1.723   3.713  10.981 -0.3889  0.2173  0.1529
    1TCq1    C314097   1.706   3.752  11.109 -0.3201 -0.1668  0.3189
    1TCq1    C414098   1.605   3.846  11.124  0.1489 -0.0347 -0.6694
    1TCq1    C514099   1.546   3.914  11.016 -0.3213  1.1587 -0.5605
    1TCq1    C614100   1.578   3.877  10.892 -0.3323 -0.4113  0.0434
    1TCq1    C714101   1.665   3.773  10.871  0.4293  0.2672  0.0667
    1TCq1    C814102   1.511   3.949  10.782 -0.0657 -0.2425 -0.7321
    1TCq1    O414103   1.437   4.040  10.819  0.0694 -0.1936  0.7431
    1TCq1    C914104   1.610   3.918  11.253 -0.5393 -0.2260 -0.2159
    1TCq1    O514105   1.687   3.876  11.341  0.0926 -0.1053 -0.2182
    1TCq1    O614106   1.541   4.022  11.261  0.0259 -0.1197 -0.3817
    1TCq1    H114107   1.775   3.537  11.092 -1.0558  0.9608 -0.6139
    1TCq1    H214108   1.774   3.712  11.184  0.8039 -1.4961 -1.4082
    1TCq1    H314109   1.485   3.999  11.043 -1.3574  0.4521 -0.6754
    1TCq1    H414110   1.680   3.727  10.775 -0.0470  0.4425 -0.0935
    2MPD1     C14111   1.410   4.043  10.296 -0.0520  0.0618 -0.3132
    2MPD1    C114112   1.516   3.955  10.295  0.3017  0.2606 -0.2625
    2MPD1    C214113   1.551   3.907  10.420 -0.2984  0.2462  0.4285
    2MPD1    C314114   1.499   3.963  10.539  0.1285  0.3378  0.3309
    2MPD1    C414115   1.399   4.055  10.528 -0.6518 -0.4893  0.0113
    2MPD1    C514116   1.353   4.098  10.406  0.2435  0.2483 -0.0293
    2MPD1     H14117   1.626   3.829  10.424 -0.4699  0.0009 -1.2677
    2MPD1    H114118   1.362   4.111  10.614 -1.7673 -0.8965 -0.2020
    2MPD1    H214119   1.374   4.088  10.204 -1.9414  0.6559  0.7382
    2MPD1    H314120   1.282   4.179  10.401 -2.4425 -2.1104 -0.4893
    2MPD1     N14121   1.559   3.917  10.661  0.0956  0.1249 -0.1045
    2MPD1    H514122   1.637   3.851  10.662 -0.0987 -0.0864  0.9532
    2MPD1    N114123   1.560   3.901  10.173 -0.1851  0.0207  0.1658
    2MPD1    H614124   1.561   3.968  10.096 -2.3994 -0.0977  0.0539
    2MPD1    H714125   1.648   3.850  10.181 -0.5599 -0.5853  0.4159
    1TMC1    C114126   0.327   2.734   1.756 -0.8390  0.7221  0.2272
    1TMC1    C214127   0.251   2.801   1.850  0.0274 -0.5615 -0.0393
    1TMC1    C314128   0.120   2.813   1.832  0.2766 -0.2478  0.3180
    1TMC1    C414129   0.262   2.663   1.655  0.1044 -0.1113 -0.4725
    1TMC1    C514130   0.126   2.686   1.637 -0.2322  0.3216  0.2883
    1TMC1    C614131   0.052   2.755   1.726 -0.2846 -0.1659  0.7450
    1TMC1     C14132   0.470   2.726   1.784 -0.2646 -0.4213  0.0748
    1TMC1     O14133   0.509   2.805   1.861  0.2616  0.2162 -0.1315
    1TMC1     H14134   0.307   2.836   1.936  0.2465 -1.1458  0.0519
    1TMC1    H114135   0.317   2.601   1.584  0.6826  0.3620 -0.4374
    1TMC1    H214136   4.688   2.782   1.698  0.7375 -0.0127 -2.7800
    1TMC1    C714137   0.049   2.601   1.558  1.1988 -0.2836 -0.2795
    1TMC1    C814138   0.028   2.853   1.939 -0.0979  0.3980 -0.9469
    1TMC1    O114139   0.082   2.563   1.446 -0.5447  0.4889  0.2393
    1TMC1    O214140   4.643   2.838   1.924 -0.0763  0.6419 -0.0493
    1TMC1    O314141   4.700   2.531   1.640  0.2717  1.1319  0.1317
    1TMC1    H314142   4.686   2.572   1.728 -4.3919  3.6332 -1.8052
    1TMC1    O514143   0.094   2.916   2.039  0.1260 -0.0040  0.0784
    1TMC1    H514144   0.186   2.941   2.015 -0.1258  1.2347  0.4238
    2MPD1     C14145   0.943   2.526   1.777 -0.0548 -0.3188  0.1162
    2MPD1    C114146   0.851   2.432   1.740  0.0094  0.1950 -0.3808
    2MPD1    C214147   0.714   2.458   1.725  0.4342  0.9041 -0.3496
    2MPD1    C314148   0.664   2.580   1.763  0.5255 -0.6216  0.1469
    2MPD1    C414149   0.758   2.672   1.808 -0.5450  0.2276 -0.1292
    2MPD1    C514150   0.896   2.644   1.818 -0.3832 -0.3197 -0.7796
    2MPD1     H14151   0.644   2.382   1.695 -1.6977  2.6956  0.0815
    2MPD1    H114152   0.727   2.774   1.830 -0.8120  0.4280 -1.4475
    2MPD1    H214153   1.050   2.513   1.787  0.0763  0.4856 -0.2169
    2MPD1    H314154   0.966   2.720   1.850 -0.2090 -0.3607 -1.0585
    2MPD1     N14155   0.530   2.614   1.728  0.6706  0.2156 -0.1068
    2MPD1    H514156   0.473   2.537   1.694 -0.5148  1.5293 -1.0690
    2MPD1    N114157   0.898   2.312   1.706  0.0603  0.2726  0.3093
    2MPD1    H614158   0.977   2.286   1.766  0.1481  0.1798  0.1528
    2MPD1    H714159   0.820   2.249   1.727 -0.7080  1.8059  2.1182
    1MPD1     C14160   3.514   3.669  11.988  0.7504 -0.2984  0.5131
    1MPD1    C114161   3.433   3.772  12.040  0.0924  0.1117  0.1091
    1MPD1    C214162   3.462   3.901  11.997  0.2027 -0.3429 -0.2604
    1MPD1    C314163   3.578   3.925  11.934 -0.5455 -0.0974  0.3418
    1MPD1    C414164   3.657   3.824  11.887 -0.0330 -0.2231  0.0312
    1MPD1    C514165   3.621   3.688  11.911  0.3643 -0.3189  0.0345
    1MPD1     H14166   3.401   3.986  12.026  1.0692  0.3857 -0.5764
    1MPD1    H114167   3.734   3.838  11.811  0.1470 -0.0224  0.2495
    1MPD1    H214168   3.487   3.567  12.014 -0.8870 -0.3397 -1.2449
    1MPD1    H314169   3.675   3.605  11.865  0.6709  0.1987 -0.5448
    1MPD1     N14170   3.613   4.059  11.908  0.2474 -0.3393 -0.1696
    1MPD1    H514171   3.542   4.129  11.925  1.1225  1.5229 -4.1804
    1MPD1    N114172   3.311   3.739  12.112 -0.0461  0.4995  0.0150
    1MPD1    H614173   3.345   3.662  12.169  0.9791  0.1670 -1.0289
    1MPD1    H714174   3.284   3.821  12.166  1.1599  0.4358  0.7218
    2MPD1     C14175   3.037   4.213  11.415 -0.3407 -0.2395 -0.0767
    2MPD1    C114176   3.083   4.338  11.444  0.4226  0.1204 -0.5052
    2MPD1    C214177   3.065   4.441  11.348  0.6218  0.3733 -0.0867
    2MPD1    C314178   3.010   4.413  11.227  0.5525 -0.4048  0.5042
    2MPD1    C414179   2.982   4.283  11.191  0.3753  0.5037  0.2266
    2MPD1    C514180   2.990   4.186  11.288  0.0397 -0.6370 -0.4678
    2MPD1     H14181   3.094   4.542  11.372  1.4153 -0.2636  1.6376
    2MPD1    H114182   2.954   4.262  11.089 -0.3770 -0.8086  0.7101
    2MPD1    H214183   3.030   4.136  11.491  0.8001  0.8312  1.0973
    2MPD1    H314184   2.953   4.085  11.272 -0.2568 -0.9758  2.2253
    2MPD1     N14185   3.003   4.500  11.114  0.1242  0.5615 -0.2817
    2MPD1    H514186   2.985   4.453  11.026  1.5062  0.6603 -0.6225
    2MPD1    N114187   3.128   4.365  11.569  0.3942 -0.5608  0.6477
    2MPD1    H614188   3.174   4.284  11.609  1.5906 -0.1793  0.0298
    2MPD1    H714189   3.187   4.448  11.569 -1.9141  1.0910  1.1276
    3MPD1     C14190   2.919   4.120  10.381 -0.3396 -0.4301 -0.5851
    3MPD1    C114191   2.910   4.104  10.522 -0.5067  0.1230 -0.1079
    3MPD1    C214192   2.936   4.204  10.604  0.1150 -0.1472  0.1768
    3MPD1    C314193   2.962   4.329  10.550  0.0447  0.0711  0.3805
    3MPD1    C414194   2.991   4.343  10.420  0.1537  0.1588 -0.0662
    3MPD1    C514195   2.966   4.242  10.337 -0.2003 -0.4278 -0.3077
    3MPD1     H14196   2.921   4.189  10.711 -3.2657  0.7471 -0.1821
    3MPD1    H114197   3.026   4.430  10.365  0.3147 -0.7885 -1.4818
    3MPD1    H214198   2.915   4.032  10.317  1.7964 -0.3238 -0.8600
    3MPD1    H314199   2.979   4.252  10.230  2.0484 -0.6012 -0.0391
    3MPD1     N14200   2.980   4.435  10.642 -0.5674  0.2024  0.6960
    3MPD1    H514201   2.963   4.409  10.738  1.5894 -1.2923  0.6690
    3MPD1    N114202   2.876   3.980  10.578  0.1735 -0.8438 -0.0235
    3MPD1    H614203   2.924   3.952  10.663 -1.1954 -0.8897  0.7326
    3MPD1    H714204   2.838   3.902  10.525 -0.1162  0.4646 -1.7288
    4MPD2     C14205   3.506   0.075  11.986 -0.7135 -0.2112 -0.8198
    4MPD2    C114206   3.627   0.036  11.934 -1.3401  0.0071 -0.5597
    4MPD2    C214207   3.687   0.119  11.841 -0.0023  0.1588 -0.2624
    4MPD2    C314208   3.629   0.244  11.804  0.0195  0.0690 -0.1065
    4MPD2    C414209   3.504   0.276  11.857 -0.4544 -0.1670 -0.1388
    4MPD2    C514210   3.446   0.190  11.945  0.1177  0.2707 -0.7006
    4MPD2     H14211   3.780   0.094  11.790  1.0293 -1.0180  2.2194
    4MPD2    H114212   3.435   0.351  11.820 -0.6188 -1.2260 -2.0154
    4MPD2    H214213   3.450   0.014  12.056  1.0485 -0.3170  0.4907
    4MPD2    H314214   3.350   0.217  11.988  1.2331  3.7750 -0.4257
    4MPD2     N14215   3.690   0.344  11.715 -0.2363  0.2141  0.0218
    4MPD2    H514216   3.630   0.424  11.698  0.8763  1.1728  0.5355
    4MPD2    N114217   3.697   4.654  11.964  0.2513  0.5059  0.1989
    4MPD2    H714218   3.787   4.642  11.917 -0.2173 -0.2500 -0.4964
    5TMC3    C114219   3.739   4.435  12.026  0.6776  0.0595 -0.6501
    5TMC3    C214220   3.688   4.314  11.987  0.5519  0.1203 -0.1316
    5TMC3    C314221   3.765   4.243  11.896 -0.4630 -0.2485 -0.2807
    5TMC3    C414222   3.866   4.476  12.001 -0.7616 -0.8475 -0.5857
    5TMC3    C514223   3.933   4.409  11.899 -0.0214 -0.3770  0.3953
    5TMC3    C614224   3.885   4.294  11.843 -0.1514 -0.0522 -0.1739
    5TMC3     C14225   3.644   4.548  12.030 -0.7388  0.1232  0.1077
    5TMC3     O14226   3.528   4.535  12.075 -0.0864  0.2830  0.4774
    5TMC3     H14227   3.582   4.301  12.002  0.5567 -0.6521 -0.7609
    5TMC3    H114228   3.902   4.568  12.045 -1.2634 -1.5531  1.2643
    5TMC3    H214229   3.941   4.249  11.761  0.2956  0.2518 -0.0360
    5TMC3    C714230   3.966   4.513  11.805 -0.4766 -0.4006  0.3702
    5TMC3    C814231   3.732   4.105  11.856  0.1461  0.1618  0.0772
    5TMC3    O114232   3.924   4.628  11.824 -0.6261  0.4824  0.1727
    5TMC3    O214233   3.818   4.049  11.792 -0.0991  0.0762 -0.3415
    6TMC3    C114234   3.019   4.689  10.968  0.3869 -0.0668 -0.0203
    6TMC3    C214235   3.013   4.592  10.866  0.2742 -0.7829 -0.4579
    6TMC3    C314236   3.044   4.638  10.737 -0.0910  0.3375 -0.7082
    6TMC3    C414237   3.069   0.082  10.947  0.2681 -0.4455  0.0079
    6TMC3    C514238   3.102   0.118  10.820 -0.0869  0.3740 -0.8218
    6TMC3    C614239   3.090   0.030  10.711 -0.3352  0.3774 -0.4734
    6TMC3     C14240   3.015   4.642  11.111 -1.6101  0.0897  0.8623
    6TMC3     O14241   3.041   4.720  11.199  0.6413  0.2015 -0.0758
    6TMC3     H14242   3.006   4.485  10.877 -0.0444 -0.8364 -1.1349
    6TMC3    H114243   3.067   0.155  11.028 -0.2306  0.9599 -1.2664
    6TMC3    H214244   3.106   0.064  10.610 -4.1675  0.0934 -1.2006
    6TMC3    C714245   3.177   0.238  10.795  0.0593  0.1172  0.5217
    6TMC3    C814246   3.035   4.557  10.618 -0.1777 -0.3729  0.0555
    6TMC3    O114247   3.158   0.286  10.679  0.2009  0.4549  0.5963
    6TMC3    O214248   3.078   4.602  10.511 -0.0312  0.2077 -0.0418
    7MPD2     C14249   4.017   4.657  11.322 -0.8025  0.7564  0.5595
    7MPD2    C114250   4.003   4.732  11.434  0.7183 -0.5517 -0.5913
    7MPD2    C214251   3.995   4.671  11.556 -0.0817  0.1511  0.3361
    7MPD2    C314252   4.009   4.530  11.563  0.3243  0.3620  0.2180
    7MPD2    C414253   4.021   4.454  11.449  1.2907 -0.6141 -0.1661
    7MPD2    C514254   4.032   4.521  11.335 -0.0491  0.5963 -0.1060
    7MPD2     H14255   3.991   4.732  11.645 -1.7242 -0.4479  0.6692
    7MPD2    H114256   4.040   4.347  11.456  2.3274 -0.4628 -0.6292
    7MPD2    H214257   4.040   4.705  11.228 -1.4467  0.7341  0.3881
    7MPD2    H314258   4.053   4.466  11.245 -0.0297 -1.7965  1.3519
    7MPD2     N14259   4.006   4.463  11.686  0.6063 -0.6445  0.4663
    7MPD2    H514260   4.037   4.366  11.690  0.0665 -0.7351  2.4937
    7MPD2    N114261   4.002   0.137  11.425  1.0121 -0.4288  0.0392
    7MPD2    H714262   3.987   0.185  11.513  0.5129  1.4499 -1.0739
    8TMC3    C114263   3.953   0.356  11.345  0.1721  0.4855 -0.2903
    8TMC3    C214264   3.842   0.386  11.264  0.3927 -0.2805  0.0783
    8TMC3    C314265   3.721   0.414  11.328  0.5148 -0.9013 -0.4693
    8TMC3    C414266   3.940   0.379  11.481  1.0058 -0.1567 -0.3005
    8TMC3    C514267   3.823   0.416  11.539  0.7357 -0.3425 -0.2045
    8TMC3    C614268   3.709   0.422  11.463  0.4795 -0.1397 -0.8116
    8TMC3     C14269   4.010   0.224  11.316 -0.2131 -0.1992 -0.6037
    8TMC3     O14270   4.023   0.190  11.197  0.3896  0.1592  0.5557
    8TMC3     H14271   3.851   0.355  11.160  3.8755  3.4326 -0.7581
    8TMC3    H114272   4.025   0.366  11.547 -2.5896  0.5464  4.4479
    8TMC3    H214273   3.608   0.426  11.502 -0.0947 -0.7882 -2.2219
    8TMC3    C714274   3.813   0.334  11.656  0.4341  0.7486  0.6111
    8TMC3    C814275   3.602   0.426  11.249  0.3654  0.2635 -0.0275
    8TMC3    O114276   3.896   0.247  11.671 -0.1678 -0.1394 -0.1231
    8TMC3    O214277   3.507   0.365  11.293  0.1986  0.3426 -0.8135
    9MPD2     C14278   3.572   0.555  10.907  0.3954 -0.2998 -0.5184
    9MPD2    C114279   3.546   0.472  11.015  0.4029 -0.2132  0.0766
    9MPD2    C214280   3.442   0.380  11.011  0.7871  0.3895 -0.3008
    9MPD2    C314281   3.370   0.368  10.891 -0.0011  0.1953  0.1940
    9MPD2    C414282   3.384   0.458  10.789 -0.0444  0.4163  0.5090
    9MPD2    C514283   3.491   0.553  10.794 -0.0382 -0.0113  0.4227
    9MPD2     H14284   3.419   0.323  11.100  0.1236 -0.4037 -0.9903
    9MPD2    H114285   3.323   0.460  10.699  0.5329  2.9386  0.1862
    9MPD2    H214286   3.657   0.622  10.907  0.6314 -0.5898 -1.1300
    9MPD2    H314287   3.517   0.614  10.708 -0.0603  0.6195  0.8608
    9MPD2     N14288   3.272   0.261  10.894 -0.5283  0.7334  1.0251
    9MPD2    H514289   3.262   0.202  10.976  0.5175 -1.1270 -0.1960
    9MPD2    N114290   3.630   0.481  11.126  0.6983 -0.4784  0.1542
    9MPD2    H714291   3.717   0.532  11.115  0.7102 -0.4914  0.1862
    1MPD1     C14292   2.836   3.337  16.620  0.7167 -0.5640  0.3987
    1MPD1    C114293   2.706   3.316  16.621 -0.3871  0.4553  0.0142
    1MPD1    C214294   2.629   3.316  16.504  0.1235 -0.0603  0.6813
    1MPD1    C314295   2.693   3.350  16.386  0.3208 -0.0244  0.3089
    1MPD1    C414296   2.826   3.388  16.389  0.2723 -0.0490  0.6712
    1MPD1    C514297   2.899   3.375  16.499  0.8263 -0.2880  0.9395
    1MPD1     H14298   2.522   3.302  16.508 -0.0353  0.3143 -2.2646
    1MPD1    H114299   2.881   3.430  16.306 -0.0135 -0.7393  0.1217
    1MPD1    H214300   2.903   3.331  16.706  2.3232  0.7026 -0.7718
    1MPD1    H314301   3.003   3.403  16.508  0.0950  2.1736  1.7374
    1MPD1     N14302   2.623   3.356  16.267  0.1241  0.0107 -0.0546
    1MPD1    H514303   2.674   3.399  16.191  1.2330 -0.5115  0.3745
    1MPD1    N114304   2.639   3.288  16.740  0.7368 -0.2841  0.8124
    1MPD1    H614305   2.706   3.222  16.778  2.5093  0.1143 -1.6400
    1MPD1    H714306   2.557   3.229  16.727  0.7023 -0.0590 -0.0254
    2TMC2    C114307   2.427   3.447  15.924  0.8817  0.0831  0.1684
    2TMC2    C214308   2.309   3.381  15.893  0.3834  0.0753  0.2952
    2TMC2    C314309   2.272   3.266  15.965 -0.1107 -0.5986 -0.0344
    2TMC2    C414310   2.497   3.408  16.032  0.9104  0.1804  0.5193
    2TMC2    C514311   2.446   3.312  16.113  0.3001 -0.0221 -0.6284
    2TMC2    C614312   2.341   3.233  16.074 -0.1687 -0.3326 -0.7394
    2TMC2     C14313   2.476   3.547  15.833  0.4332 -0.0774  0.6990
    2TMC2     O14314   2.435   3.531  15.717  0.0101  0.2958  0.2127
    2TMC2     H14315   2.270   3.393  15.792  1.8122  0.3395 -0.2295
    2TMC2    H114316   2.595   3.454  16.044  1.2359 -0.3623 -0.0663
    2TMC2    H214317   2.308   3.157  16.145 -0.1127  0.3784  0.0495
    2TMC2    C714318   2.505   3.287  16.237 -0.4628  0.2471 -0.0238
    2TMC2    C814319   2.197   3.165  15.894  0.4534  0.5967 -1.2663
    2TMC2    O114320   2.447   3.210  16.314  0.2443 -0.5751  0.5136
    2TMC2    O214321   2.133   3.201  15.795  0.3484 -0.0306  0.0047
    2TMC2    O514322   2.274   3.053  15.889  0.0401  0.0297  0.0267
    2TMC2    H514323   2.336   3.045  15.965  1.5316  0.9147 -1.0959
    3MPD1     C14324   2.680   3.997  15.746  0.4689 -0.3842  0.2447
    3MPD1    C114325   2.658   3.990  15.880  0.1074 -0.2453  0.0888
    3MPD1    C214326   2.635   3.862  15.928 -0.3485  0.3237  0.4724
    3MPD1    C314327   2.586   3.764  15.838  0.2697  0.3189 -0.1745
    3MPD1    C414328   2.590   3.781  15.701 -0.2022  0.1908  0.0795
    3MPD1    C514329   2.640   3.898  15.655  0.0848  0.4425  0.3355
    3MPD1     H14330   2.644   3.837  16.033 -1.1873  1.1659  0.7434
    3MPD1    H114331   2.551   3.706  15.633  0.2733  0.3980 -0.4198
    3MPD1    H214332   2.706   4.091  15.699  1.1176 -0.7663 -0.1606
    3MPD1    H314333   2.650   3.907  15.547 -1.4923 -2.0818 -0.0263
    3MPD1     N14334   2.557   3.639  15.891 -0.0146 -0.3656 -0.7848
    3MPD1    H514335   2.575   3.628  15.990 -3.7143  0.4719 -0.0197
    3MPD1    N114336   2.708   4.097  15.961 -0.5571 -0.0306  0.0403
    3MPD1    H614337   2.670   4.096  16.055  1.0309 -1.2373  0.6658
    3MPD1    H714338   2.692   4.186  15.913  0.9896  1.2123  1.8196
    1TMC1    C114339   1.526   2.484  12.939 -1.1857  1.2298 -0.2744
    1TMC1    C214340   1.480   2.548  13.059 -0.4058  0.0356  0.0558
    1TMC1    C314341   1.349   2.528  13.095  0.3333 -0.4978 -0.3934
    1TMC1    C414342   1.445   2.417  12.856 -0.5612 -0.1164 -0.3594
    1TMC1    C514343   1.313   2.412  12.883  0.1042 -0.1897 -0.0017
    1TMC1    C614344   1.264   2.459  13.005  0.7741 -0.6510 -0.1506
    1TMC1     C14345   1.669   2.465  12.919 -0.2581  0.0192 -0.5391
    1TMC1     O14346   1.705   2.451  12.806 -0.0894 -0.0210 -0.4105
    1TMC1     H14347   1.546   2.607  13.121 -0.7159 -1.5196  1.8582
    1TMC1    H114348   1.488   2.379  12.764 -1.7438  2.3909 -1.9404
    1TMC1    H214349   1.158   2.445  13.018  0.6520  0.6279  0.2382
    1TMC1    C714350   1.223   2.355  12.786 -0.2828  0.2026 -0.5269
    1TMC1    C814351   1.310   2.525  13.239 -0.1706 -0.4711  0.2765
    1TMC1    O114352   1.115   2.304  12.819 -0.3435 -0.3342  0.0191
    1TMC1    O214353   1.382   2.548  13.330 -0.1665 -0.2766 -0.1415
    1TMC1    O314354   1.240   2.435  12.677  0.3581 -0.3732  0.5321
    1TMC1    H314355   1.320   2.491  12.679  1.2362 -1.5342 -1.8931
    1TMC1    O514356   1.173   2.533  13.239  0.6506  0.1152  0.1781
    1TMC1    H514357   1.111   2.504  13.168  1.8688  0.3742 -0.9789
    2MPD2     C14358   1.971   2.459  12.932 -0.3531 -0.3716 -0.0168
    2MPD2    C114359   1.880   2.482  13.041  0.0834  0.4388  0.6623
    2MPD2    C214360   1.935   2.477  13.164 -0.2002  0.0901 -0.2702
    2MPD2    C314361   2.070   2.462  13.182 -0.8018 -0.1113  0.0812
    2MPD2    C414362   2.155   2.461  13.071 -0.9367  0.3702  0.2674
    2MPD2    C514363   2.098   2.461  12.946 -1.5137  1.2237 -0.9252
    2MPD2     H14364   1.866   2.477  13.248 -2.4622  2.9829 -2.1495
    2MPD2    H114365   2.260   2.486  13.079 -1.0040  0.8958 -0.5357
    2MPD2    H214366   1.945   2.457  12.827  1.3000  1.7370 -0.4774
    2MPD2    H314367   2.162   2.470  12.859  2.8432  2.0168  2.3647
    2MPD2     N14368   2.112   2.460  13.319 -0.3758 -0.2564  0.2852
    2MPD2    H514369   2.042   2.486  13.388 -0.5483 -0.9043  0.3529
    2MPD2    N114370   1.740   2.495  13.034 -0.2835 -0.5482  0.3077
    2MPD2    H714371   1.693   2.497  13.124 -1.6406 -2.8313 -0.3584
    3TCq1    O114372   2.229   2.722  13.842  0.5561 -0.3415  0.7906
    3TCq1    C114373   2.146   2.648  13.763 -0.3720  0.7180  0.4093
    3TCq1    O214374   2.039   2.694  13.727 -0.0518  0.3068 -0.2814
    3TCq1    C214375   2.232   2.557  13.683  0.0168  0.1505  0.1617
    3TCq1    C314376   2.301   2.459  13.756 -0.3528 -0.1413 -0.2103
    3TCq1    C414377   2.345   2.349  13.685 -0.5169 -0.1102 -0.2493
    3TCq1    C514378   2.336   2.347  13.551  0.5145  0.0922 -0.5394
    3TCq1    C614379   2.270   2.444  13.486 -0.4248 -0.2615  0.2590
    3TCq1    C714380   2.213   2.550  13.553 -0.1720  0.4274 -0.2184
    3TCq1    C814381   2.241   2.435  13.347  0.1794  0.1203 -0.8327
    3TCq1    O414382   2.327   2.378  13.282  0.3152  0.2752  0.1867
    3TCq1    C914383   2.402   2.242  13.762  0.2735  0.5861 -0.0533
    3TCq1    O514384   2.395   2.256  13.884 -0.4657 -0.1245  0.0358
    3TCq1    O614385   2.421   2.132  13.702  0.5183  0.1188 -0.1985
    3TCq1    H114386   2.320   2.684  13.845  0.3169 -0.9776 -0.0090
    3TCq1    H214387   2.310   2.457  13.864  0.5257 -0.8764 -0.2946
    3TCq1    H314388   2.364   2.263  13.489 -3.2711 -0.9970 -0.7667
    3TCq1    H414389   2.157   2.623  13.495 -1.6716 -1.8936 -1.7392
    1MPD2     C14390   1.119   3.898  14.814 -0.3661 -0.3102 -0.0532
    1MPD2    C114391   1.022   3.813  14.848 -0.0236  0.2133  0.2814
    1MPD2    C214392   1.050   3.677  14.874 -0.5882 -0.1261  0.3214
    1MPD2    C314393   1.181   3.634  14.873  0.0562 -0.1936 -0.0496
    1MPD2    C414394   1.281   3.726  14.851 -0.1023  0.4825  0.1165
    1MPD2    C514395   1.250   3.855  14.824  0.8294 -0.2887 -0.4060
    1MPD2     H14396   0.968   3.606  14.874  0.3912 -1.2327  0.6475
    1MPD2    H114397   1.381   3.685  14.857 -0.7747 -1.1566  0.1374
    1MPD2    H214398   1.094   3.999  14.784 -0.5516 -0.4847 -0.4972
    1MPD2    H314399   1.333   3.922  14.806  0.5848 -0.3504 -1.7591
    1MPD2     N14400   1.199   3.495  14.903 -0.1085 -0.1010  1.0030
    1MPD2    H514401   1.111   3.445  14.909 -0.8834  1.0718 -0.8731
    1MPD2    N114402   0.885   3.854  14.850 -0.1544 -0.2167 -0.0955
    1MPD2    H714403   0.872   3.940  14.798 -2.2788 -0.8125 -0.5495
    2TMC3    C114404   0.655   3.829  14.836  0.4534  0.0794  0.4032
    2TMC3    C214405   0.550   3.756  14.878  0.1832 -0.0488  0.6117
    2TMC3    C314406   0.443   3.731  14.794 -0.0245  0.2486 -0.3632
    2TMC3    C414407   0.650   3.883  14.711  0.1116  0.6989 -0.3089
    2TMC3    C514408   0.543   3.862  14.626  0.1326 -0.3344 -0.3735
    2TMC3    C614409   0.437   3.786  14.671  0.0272  0.2615  0.5665
    2TMC3     C14410   0.776   3.788  14.894  0.2874 -0.9355 -0.3139
    2TMC3     O14411   0.778   3.693  14.969 -0.4559 -0.1599 -0.2549
    2TMC3     H14412   0.548   3.717  14.979 -3.0532 -0.0637  0.5297
    2TMC3    H114413   0.736   3.936  14.671  1.4484 -1.0782  0.1805
    2TMC3    H214414   0.374   3.733  14.601  0.8432 -0.3590  0.3015
    2TMC3    C714415   0.529   3.926  14.495 -0.0003 -0.0650 -0.6103
    2TMC3    C814416   0.413   3.589  14.789 -0.0560  0.2163 -0.0801
    2TMC3    O114417   0.448   3.879  14.418  0.5158  0.1779 -0.2944
    2TMC3    O214418   0.329   3.548  14.711 -0.2511 -0.2807  0.3787
    3TCq1    O114419   1.298   4.704  13.976  0.4376 -0.3559 -0.3572
    3TCq1    C114420   1.369   4.633  14.065 -0.1521 -0.2573 -0.1903
    3TCq1    O214421   1.485   4.661  14.097  0.0082 -0.0777  0.0775
    3TCq1    C214422   1.275   4.579  14.154  0.2560 -0.1826 -0.4399
    3TCq1    C314423   1.313   4.581  14.287 -0.0669 -1.3760  0.0182
    3TCq1    C414424   1.252   4.499  14.377 -0.1637  0.2838  0.5435
    3TCq1    C514425   1.134   4.439  14.345  0.2954  0.2693  0.4402
    3TCq1    C614426   1.095   4.443  14.209 -0.5432  0.5292  0.2366
    3TCq1    C714427   1.166   4.511  14.109 -0.1136 -0.3370 -0.2565
    3TCq1    C814428   0.964   4.393  14.156 -0.5307  0.0415  0.1253
    3TCq1    O414429   0.937   4.399  14.033  0.4686 -0.0617  0.0330
    3TCq1    C914430   1.309   4.498  14.510 -0.2361 -0.8760  0.3020
    3TCq1    O514431   1.275   4.420  14.601  0.8735  0.1520  0.0455
    3TCq1    O614432   1.414   4.574  14.526 -0.0428 -0.0122  0.4124
    3TCq1    H114433   1.206   4.671  13.968  0.8759 -2.3224  2.8539
    3TCq1    H214434   1.399   4.643  14.305  0.4357 -2.0101 -0.1817
    3TCq1    H314435   1.081   4.393  14.427 -0.5002  1.0585  0.3647
    3TCq1    H414436   1.158   4.490  14.003  0.2647  2.8531 -0.9239
    4MPD2     C14437   0.733   4.226  14.137  0.5686 -0.0248  0.4020
    4MPD2    C114438   0.779   4.256  14.255 -0.0523 -0.3466  0.8314
    4MPD2    C214439   0.734   4.199  14.369  0.1838 -0.2066 -0.0490
    4MPD2    C314440   0.632   4.110  14.363  0.0182  0.1380  1.5092
    4MPD2    C414441   0.570   4.079  14.238  0.7004  0.3571  0.0567
    4MPD2    C514442   0.625   4.142  14.129  1.0589 -0.1548  0.2360
    4MPD2     H14443   0.796   4.209  14.458 -0.2827  1.3658  0.0963
    4MPD2    H114444   0.497   4.000  14.229  1.0638  0.0145  0.1114
    4MPD2    H214445   0.765   4.265  14.041 -1.3469 -0.0383 -0.2383
    4MPD2    H314446   0.591   4.114  14.030  0.7909  0.1003  0.2580
    4MPD2     N14447   0.611   4.035  14.480 -0.0998 -0.6215  0.4931
    4MPD2    H514448   0.663   4.058  14.564  1.6401 -0.2632 -0.6742
    4MPD2    N114449   0.899   4.335  14.263 -0.1747 -0.1442 -0.0321
    4MPD2    H714450   0.946   4.342  14.353  1.4517  0.4437 -0.9235
    5TMC2    C114451   1.063   3.201  14.939 -0.4165 -0.1943 -0.1953
    5TMC2    C214452   1.066   3.166  15.071 -0.2106  0.4174 -0.6187
    5TMC2    C314453   1.173   3.214  15.141 -0.0548 -0.3199  0.2358
    5TMC2    C414454   1.165   3.264  14.876 -0.4807 -0.4559  0.3744
    5TMC2    C514455   1.277   3.296  14.948  0.2506 -0.0168  0.1097
    5TMC2    C614456   1.284   3.277  15.085 -1.0319  0.2317  0.3358
    5TMC2     C14457   0.929   3.241  14.891 -0.6577  0.6720  0.4260
    5TMC2     O14458   0.938   3.342  14.823 -0.0393 -0.7150  0.4372
    5TMC2     H14459   0.992   3.113  15.130 -1.6935  0.5756 -2.3345
    5TMC2    H114460   1.162   3.295  14.772  1.8783  0.0409  0.4393
    5TMC2    H214461   1.374   3.302  15.139  0.6249 -1.8239 -1.5078
    5TMC2    C714462   1.313   3.423  14.919  0.2595 -0.1746 -0.5476
    5TMC2    C814463   1.177   3.171  15.279 -0.2626  0.2014 -0.3703
    5TMC2    O114464   1.428   3.458  14.943 -0.5694 -0.1594  0.5730
    5TMC2    O214465   1.088   3.115  15.339  0.0058 -0.1795  0.0674
    5TMC2    O514466   1.311   3.139  15.283 -0.3796  0.1807  0.0575
    5TMC2    H514467   1.349   3.151  15.194  0.8185  2.2531  0.8556
    6MPD2     C14468   0.440   3.283  14.814 -0.7859  0.4918  1.1198
    6MPD2    C114469   0.533   3.378  14.846  0.0373  0.6375  0.7220
    6MPD2    C214470   0.657   3.340  14.888 -0.3722 -0.7706  0.2494
    6MPD2    C314471   0.693   3.205  14.897  0.3321  0.9518 -0.3545
    6MPD2    C414472   0.594   3.110  14.888  0.5760 -0.7767 -0.2013
    6MPD2    C514473   0.475   3.152  14.824 -0.6596 -0.5643  0.5037
    6MPD2     H14474   0.727   3.415  14.922 -2.3978  1.1651  0.1991
    6MPD2    H114475   0.600   3.002  14.892  0.5023 -0.7441  0.7418
    6MPD2    H214476   0.346   3.306  14.764 -1.2685 -3.0110  0.4456
    6MPD2    H314477   0.405   3.075  14.793 -0.7977  0.7396 -2.3933
    6MPD2     N14478   0.824   3.167  14.931 -0.5802  0.4211 -0.5224
    6MPD2    H514479   0.844   3.073  14.964  0.0530  0.4949 -0.6852
    6MPD2    N114480   0.522   3.522  14.837  0.6505 -0.9078 -0.1171
    6MPD2    H714481   0.608   3.571  14.860 -0.9181  0.3268  2.9282
  945NH3     N114482   1.625   4.523   1.380  0.2744  0.9740 -0.0835
  945NH3     H214483   1.684   4.455   1.428 -0.8274  0.7665  0.9736
  945NH3     H314484   1.642   4.613   1.424  2.3266 -0.3941  1.9469
  945NH3     H414485   1.533   4.505   1.419 -0.4088 -0.2828 -2.2604
  946SOD     NA14486   1.335   4.240  10.967 -0.2333 -0.1365 -0.0558
  947SOD     NA14487   4.614   1.454   8.560  0.6680  0.2068  0.4724
  948SOD     NA14488   1.474   2.579   1.647  0.7244  0.0168 -0.4229
  949SOD     NA14489   3.805   4.165  12.921 -0.0540  0.0985  0.1569
  950SOD     NA14490   0.960   0.288  12.737  0.0662 -0.2024 -0.3706
  951SOD     NA14491   3.230   3.708   7.652 -0.5086 -0.0924 -0.0304
  952SOD     NA14492   2.080   2.254  15.597 -0.3062  0.3298  0.1353
  953SOD     NA14493   1.845   3.369  15.371  0.1152  0.1051 -0.1037
  954SOL     OW14494   2.934   2.212   0.214  0.1279 -0.2725 -0.0797
  954SOL    HW114495   2.909   2.122   0.191  0.4663 -0.5877  0.7615
  954SOL    HW214496   3.009   2.198   0.272  0.3060 -0.4745 -0.3578
  955SOL     OW14497   4.462   2.817  14.933  0.6263  0.1770  0.1543
  955SOL    HW114498   4.538   2.865  14.899  0.7649 -1.5557 -1.9788
  955SOL    HW214499   4.461   2.855  15.021  1.5828 -0.6031  0.5109
  956SOL     OW14500   3.152   4.227   5.043  0.4858 -0.5406 -0.8952
  956SOL    HW114501   3.084   4.252   5.106  0.6801  1.3476 -1.4106
  956SOL    HW214502   3.223   4.188   5.094  0.1366 -0.0373 -0.0077
  957SOL     OW14503   0.809   4.275   7.867 -0.3399 -0.2416  0.0277
  957SOL    HW114504   0.759   4.325   7.932  1.9110 -0.1462  1.6650
  957SOL    HW214505   0.771   4.188   7.878  1.6183 -0.9015  1.3289
  958SOL     OW14506   1.384   4.733   4.990  0.0954 -0.5280 -0.4282
  958SOL    HW114507   1.390   0.033   5.078 -2.8276 -0.9838 -0.0323
  958SOL    HW214508   1.447   4.662   4.981  2.0079  0.9482  1.4556
  959SOL     OW14509   4.456   0.685   3.319  0.3080  0.1176 -0.0158
  959SOL    HW114510   4.530   0.677   3.258  0.8822 -0.6177  0.7796
  959SOL    HW214511   4.497   0.641   3.393  1.6906  0.5502 -0.5142
  960SOL     OW14512   3.988   2.819   3.821  0.4124 -0.1387 -0.4268
  960SOL    HW114513   3.939   2.836   3.902  0.9881  2.9787 -0.7426
  960SOL    HW214514   3.923   2.846   3.757  0.2800  0.0457 -0.2149
  961SOL     OW14515   3.336   3.267   6.032  0.2812 -0.9285  0.3571
  961SOL    HW114516   3.408   3.320   5.998 -0.9080  1.5972  1.7501
  961SOL    HW214517   3.358   3.271   6.125 -2.0676 -3.9699  1.0642
  962SOL     OW14518   2.441   2.846   0.988 -0.6233  0.7980 -0.2983
  962SOL    HW114519   2.485   2.929   0.974 -1.2923  1.2347  0.2244
  962SOL    HW214520   2.349   2.872   0.996 -0.0649  1.9208  2.1823
  963SOL     OW14521   3.597   3.051   5.498 -0.0200  0.2040  0.1859
  963SOL    HW114522   3.592   3.049   5.402  1.4393  4.0443  0.0098
  963SOL    HW214523   3.634   3.139   5.509 -0.7051  0.1842  2.6572
  964SOL     OW14524   1.941   4.615   6.927  0.0940 -0.0247 -0.0728
  964SOL    HW114525   1.928   4.703   6.963  0.6412 -0.7717  1.9453
  964SOL    HW214526   1.932   4.561   7.005 -0.8538  0.4053  0.1234
  965SOL     OW14527   4.703   2.795   8.445  0.1086 -0.6318 -0.7377
  965SOL    HW114528   0.040   2.744   8.411  2.5374  1.0110  2.0517
  965SOL    HW214529   0.007   2.793   8.532 -0.2476 -1.0260 -0.5745
  966SOL     OW14530   0.526   0.422  11.628  0.2945 -0.0260  0.7103
  966SOL    HW114531   0.539   0.451  11.538 -2.3503 -1.5646 -0.1752
  966SOL    HW214532   0.437   0.452  11.649 -0.3199 -0.6431 -1.0020
  967SOL     OW14533   3.870   2.331   1.158 -0.6245  0.7689 -0.1526
  967SOL    HW114534   3.848   2.375   1.240  1.5739  2.1968 -0.3311
  967SOL    HW214535   3.920   2.258   1.197 -0.7149  0.3802 -0.7650
  968SOL     OW14536   3.739   3.371   7.766  0.3744  0.2299  0.9640
  968SOL    HW114537   3.667   3.352   7.706  2.0694 -0.3727 -0.8866
  968SOL    HW214538   3.745   3.281   7.799  1.2622  0.0358  0.2864
  969SOL     OW14539   2.884   1.250   3.080 -0.0737 -0.0192 -0.3687
  969SOL    HW114540   2.909   1.197   3.156 -0.0689  0.1665 -0.2403
  969SOL    HW214541   2.936   1.214   3.008  0.5598  0.2126 -0.0275
  970SOL     OW14542   3.762   0.875  15.241  0.2937 -0.5074 -0.3262
  970SOL    HW114543   3.729   0.965  15.246  0.3944 -0.3925 -1.6026
  970SOL    HW214544   3.723   0.843  15.160 -0.4733 -1.2058  0.3230
  971SOL     OW14545   2.007   1.542  16.148 -0.1931 -0.5451  0.3253
  971SOL    HW114546   2.032   1.609  16.085  0.0755  0.2861  1.3093
  971SOL    HW214547   1.991   1.466  16.092 -0.1926 -0.5648  0.3518
  972SOL     OW14548   0.800   2.820  10.468 -0.3897 -0.5188  0.8659
  972SOL    HW114549   0.870   2.809  10.403  0.2372 -2.0157  1.7832
  972SOL    HW214550   0.762   2.902  10.436 -0.4182 -0.8731 -0.0179
  973SOL     OW14551   2.798   3.474   8.887 -0.8748 -0.1530  0.3948
  973SOL    HW114552   2.783   3.389   8.846 -0.4775 -0.8110  1.6117
  973SOL    HW214553   2.768   3.470   8.978 -2.3104  1.7572  0.0124
  974SOL     OW14554   2.421   1.769   2.728 -0.1376  0.4896 -0.2858
  974SOL    HW114555   2.465   1.853   2.737  0.1763  0.4551 -1.5050
  974SOL    HW214556   2.495   1.709   2.731 -0.7303 -0.2900 -1.1887
  975SOL     OW14557   2.348   2.253  11.796  0.1724 -0.2702 -0.8908
  975SOL    HW114558   2.323   2.283  11.883 -4.0223  3.0683 -3.2858
  975SOL    HW214559   2.289   2.309  11.746  2.0813  1.2465 -1.4537
  976SOL     OW14560   0.054   1.358   1.347  0.1232 -0.0807  0.2426
  976SOL    HW114561   0.023   1.298   1.415  3.1371 -1.1236  0.6855
  976SOL    HW214562   4.707   1.400   1.324  1.4484  2.9724  0.9895
  977SOL     OW14563   1.280   0.463  11.440  0.2913  0.3361 -0.6655
  977SOL    HW114564   1.270   0.445  11.347  1.5719 -1.8890 -0.3624
  977SOL    HW214565   1.237   0.546  11.461 -1.4910 -0.3947 -1.3857
  978SOL     OW14566   3.872   4.128   3.601 -0.9894 -0.3555  0.3090
  978SOL    HW114567   3.920   4.148   3.521  1.2038 -1.6205  1.3056
  978SOL    HW214568   3.921   4.175   3.668 -0.1570  0.9067 -1.2141
  979SOL     OW14569   0.873   2.204   3.637  0.0628 -0.4623 -0.6878
  979SOL    HW114570   0.814   2.128   3.638 -0.7981  0.2284  0.7376
  979SOL    HW214571   0.921   2.193   3.554  1.1661 -1.6490  0.1052
  980SOL     OW14572   2.154   3.866   6.949 -0.1057  0.1379 -0.1204
  980SOL    HW114573   2.243   3.839   6.975 -0.3539 -0.0948  0.4948
  980SOL    HW214574   2.155   3.931   7.020  0.8964  0.3243 -0.2996
  981SOL     OW14575   3.855   3.766   4.561  0.3253  0.0105  0.6998
  981SOL    HW114576   3.873   3.685   4.514  0.5279  1.9820 -2.6470
  981SOL    HW214577   3.844   3.729   4.649  0.3211 -0.2450  0.5905
  982SOL     OW14578   1.345   0.645   4.100 -0.6980 -0.6944  0.2285
  982SOL    HW114579   1.371   0.658   4.009  0.9104 -0.3173  0.7390
  982SOL    HW214580   1.276   0.711   4.100  0.3398  0.3883 -0.6028
  983SOL     OW14581   3.194   4.460   2.379  0.1034  0.1005 -0.2152
  983SOL    HW114582   3.172   4.550   2.406 -0.7948  0.3257 -1.6779
  983SOL    HW214583   3.140   4.401   2.432 -0.8490 -0.0185 -1.3118
  984SOL     OW14584   1.249   0.926  11.036 -0.3868 -0.5319 -0.5876
  984SOL    HW114585   1.168   0.976  11.030  0.9592  1.7959  0.4406
  984SOL    HW214586   1.293   0.969  11.110  1.1065 -0.4827 -1.5122
  985SOL     OW14587   4.453   1.236   8.397 -0.0386  0.0402  0.3085
  985SOL    HW114588   4.397   1.256   8.322 -3.2391 -2.0576  2.1653
  985SOL    HW214589   4.532   1.283   8.370 -0.0277 -0.9305 -1.3349
  986SOL     OW14590   3.280   3.602   9.224  0.1189  0.7179 -0.3944
  986SOL    HW114591   3.327   3.532   9.180  0.1314  0.4272  0.0882
  986SOL    HW214592   3.189   3.595   9.195 -0.4375 -0.5451  1.6457
  987SOL     OW14593   1.152   1.654   5.037 -0.0589  0.3485 -0.0553
  987SOL    HW114594   1.079   1.712   5.017 -1.2227 -0.0551  3.0543
  987SOL    HW214595   1.137   1.646   5.131  1.8182  0.7977  0.2906
  988SOL     OW14596   4.482   3.906   6.174  0.0442  0.0904  0.4126
  988SOL    HW114597   4.497   3.814   6.152  0.4605  0.4899 -0.9617
  988SOL    HW214598   4.469   3.949   6.089  1.4121  0.4217  0.3860
  989SOL     OW14599   2.983   0.819   6.141 -0.7147  0.1739  0.5794
  989SOL    HW114600   2.948   0.735   6.110 -1.6595  0.7849 -0.0086
  989SOL    HW214601   2.954   0.876   6.070 -0.8180 -1.8435 -1.0130
  990SOL     OW14602   0.622   3.326  11.123 -0.3034  0.4001  0.1124
  990SOL    HW114603   0.658   3.408  11.089  0.1189 -0.0518 -0.5114
  990SOL    HW214604   0.530   3.350  11.134  0.2251  2.9384 -0.9657
  991SOL     OW14605   3.660   1.758   5.643 -0.0592 -0.5173 -0.2067
  991SOL    HW114606   3.653   1.771   5.738 -0.0260 -2.0673  0.0078
  991SOL    HW214607   3.639   1.847   5.616 -1.8849 -0.7781  0.3687
  992SOL     OW14608   2.956   4.370   6.279 -0.5438  0.1838 -0.6550
  992SOL    HW114609   2.935   4.337   6.366 -2.1372 -0.9120 -1.4382
  992SOL    HW214610   2.876   4.415   6.252 -0.0234  2.5306  1.7794
  993SOL     OW14611   1.181   3.525   0.835  0.0685  0.0241 -0.1153
  993SOL    HW114612   1.243   3.560   0.771  0.3768  3.0504  1.8641
  993SOL    HW214613   1.206   3.432   0.841  0.8562  0.3719  1.8615
  994SOL     OW14614   2.693   0.896   0.516 -0.0118 -0.4657 -0.1471
  994SOL    HW114615   2.611   0.870   0.559 -0.0881  0.8189  0.5030
  994SOL    HW214616   2.719   0.810   0.486  2.1058  0.3519 -0.6184
  995SOL     OW14617   0.502   1.615   1.519 -0.3194 -0.2496  0.2712
  995SOL    HW114618   0.428   1.569   1.479  0.2135 -0.9149  0.0567
  995SOL    HW214619   0.567   1.599   1.451  0.6985  0.7367  1.0260
  996SOL     OW14620   0.572   3.811   4.773 -0.0513 -0.2330  0.0918
  996SOL    HW114621   0.655   3.808   4.820 -0.0130 -0.9070 -0.0169
  996SOL    HW214622   0.562   3.717   4.755  0.1892 -0.0380 -1.1197
  997SOL     OW14623   1.441   0.112   6.552  0.5235 -0.1684  0.3255
  997SOL    HW114624   1.528   0.072   6.549  0.0172 -1.1525 -1.5329
  997SOL    HW214625   1.435   0.118   6.647 -0.8442 -0.1318  0.2337
  998SOL     OW14626   0.458   3.110   2.869  0.4292  0.0855  0.4365
  998SOL    HW114627   0.417   3.024   2.877 -0.0217  0.2328 -0.2536
  998SOL    HW214628   0.381   3.164   2.887  2.1937  3.0387 -0.7128
  999SOL     OW14629   3.845   2.622   1.310 -0.1391  0.0382 -0.8813
  999SOL    HW114630   3.910   2.623   1.240  1.7601  0.5747  0.8888
  999SOL    HW214631   3.759   2.643   1.275 -0.9908 -0.4989  0.8757
 1000SOL     OW14632   0.755   1.113   4.245  0.3331  0.7939  0.1511
 1000SOL    HW114633   0.822   1.131   4.179  0.2690 -1.2669 -0.4725
 1000SOL    HW214634   0.699   1.059   4.190  1.1043 -0.2372  0.3644
 1001SOL     OW14635   2.414   3.046  16.619  0.1851 -0.0680 -0.1209
 1001SOL    HW114636   2.397   3.010  16.706 -3.3397  0.4631 -0.5874
 1001SOL    HW214637   2.489   2.998  16.584 -1.1068 -1.8974 -0.3860
 1002SOL     OW14638   1.500   2.333  14.847  0.3852 -0.6041 -0.0446
 1002SOL    HW114639   1.409   2.301  14.850  0.6149 -1.4565 -2.3418
 1002SOL    HW214640   1.497   2.378  14.931  0.2969 -1.7683  0.5855
 1003SOL     OW14641   3.405   0.821   7.122  0.0945  0.2555  0.1704
 1003SOL    HW114642   3.479   0.762   7.107  0.7791  0.6847  1.9544
 1003SOL    HW214643   3.455   0.900   7.141 -0.8154  1.1494 -1.0928
 1004SOL     OW14644   3.192   1.578  15.650  0.0334  0.0443 -0.1114
 1004SOL    HW114645   3.189   1.672  15.670  3.9732  0.3329 -0.9274
 1004SOL    HW214646   3.161   1.532  15.728  2.1129 -0.1728  0.5889
 1005SOL     OW14647   4.031   2.220   1.339 -0.0001 -0.2139  0.3671
 1005SOL    HW114648   3.965   2.271   1.387  0.4332 -0.2743  1.0224
 1005SOL    HW214649   4.097   2.209   1.407 -0.4828 -1.3566  0.6516
 1006SOL     OW14650   4.526   3.917   2.492 -0.1649 -0.3508  0.1561
 1006SOL    HW114651   4.494   3.951   2.576 -0.2017 -1.2901  0.5162
 1006SOL    HW214652   4.619   3.905   2.513  0.7171  1.9604 -2.4921
 1007SOL     OW14653   1.362   2.236   3.134  0.1482 -0.6570  0.3423
 1007SOL    HW114654   1.429   2.168   3.133  0.4756 -0.3067 -1.5227
 1007SOL    HW214655   1.385   2.277   3.051 -0.2717  1.6693  1.3796
 1008SOL     OW14656   2.192   1.524   5.345  0.3782 -0.1806  0.0156
 1008SOL    HW114657   2.176   1.439   5.386  1.9944  0.8230  2.7262
 1008SOL    HW214658   2.264   1.504   5.285  2.4263  1.3023  1.9671
 1009SOL     OW14659   1.797   1.121  10.709 -0.5004  0.1161  0.2116
 1009SOL    HW114660   1.850   1.053  10.750  0.1269 -0.0557 -0.8884
 1009SOL    HW214661   1.764   1.082  10.628  1.2517  0.2767 -0.5829
 1010SOL     OW14662   3.846   2.437  14.267  0.2865  0.2870 -0.2425
 1010SOL    HW114663   3.897   2.364  14.231 -1.3248 -0.6996 -0.5364
 1010SOL    HW214664   3.917   2.501  14.263  0.0530  0.5223 -0.6517
 1011SOL     OW14665   4.600   2.488   4.554 -0.5447 -0.1634 -1.2191
 1011SOL    HW114666   4.649   2.525   4.480 -0.6152  0.8357 -0.7489
 1011SOL    HW214667   4.637   2.529   4.632 -0.9016  1.8372 -2.0992
 1012SOL     OW14668   3.994   2.912  17.702 -0.2180  0.0019 -0.0752
 1012SOL    HW114669   3.917   2.910   0.014 -1.8468  1.0325 -2.3095
 1012SOL    HW214670   3.966   2.875  17.619  0.1485  2.2986 -1.2247
 1013SOL     OW14671   3.643   2.666  10.671  0.5106  0.2953 -0.2286
 1013SOL    HW114672   3.656   2.711  10.588  0.5331 -0.3653 -0.5767
 1013SOL    HW214673   3.672   2.578  10.649 -1.4316 -0.3507 -0.2221
 1014SOL     OW14674   2.121   4.434   5.888  0.7745  0.3918  0.1839
 1014SOL    HW114675   2.031   4.420   5.917  1.1812  1.3322  1.8667
 1014SOL    HW214676   2.115   4.370   5.817  0.6315  1.2581 -0.5807
 1015SOL     OW14677   4.240   1.084   4.241 -0.2521  0.4630  0.4216
 1015SOL    HW114678   4.290   1.145   4.295 -0.1562  1.5896 -0.9328
 1015SOL    HW214679   4.272   0.997   4.267  0.3444  1.1939  2.1034
 1016SOL     OW14680   2.419   1.968   4.166  0.4443 -0.0248 -0.0066
 1016SOL    HW114681   2.387   1.920   4.089 -1.2156  0.4433  0.4009
 1016SOL    HW214682   2.428   2.056   4.129  0.8973  0.3475  0.9874
 1017SOL     OW14683   2.495   2.652  13.911 -0.3351  0.5778 -0.2569
 1017SOL    HW114684   2.455   2.670  13.996 -1.8886 -2.2521 -0.3845
 1017SOL    HW214685   2.587   2.664  13.935 -0.3166 -2.9147  1.4527
 1018SOL     OW14686   3.007   2.026  12.520 -0.6898 -0.2526 -0.2804
 1018SOL    HW114687   3.079   1.973  12.553 -1.6768 -0.7149  1.1311
 1018SOL    HW214688   3.053   2.109  12.505  0.6695 -0.6000  1.9255
 1019SOL     OW14689   3.108   1.239   2.897  0.4329 -0.2018 -0.2393
 1019SOL    HW114690   3.188   1.230   2.949 -0.1772  3.2852  1.3121
 1019SOL    HW214691   3.114   1.331   2.872 -0.3372 -0.3173 -0.8196
 1020SOL     OW14692   3.529   1.172   5.233 -0.0102  0.0380 -0.2592
 1020SOL    HW114693   3.616   1.212   5.227  1.7147 -3.4724  0.9866
 1020SOL    HW214694   3.480   1.231   5.176 -1.3138  0.1904  1.0335
 1021SOL     OW14695   2.594   0.651  10.362 -0.1813  0.3465 -1.0336
 1021SOL    HW114696   2.542   0.572  10.371  2.3655 -1.2937 -0.8725
 1021SOL    HW214697   2.580   0.690  10.449  2.0872  0.5445 -0.7549
 1022SOL     OW14698   4.051   1.132  10.744  0.0599 -0.4828 -0.1501
 1022SOL    HW114699   3.973   1.109  10.794 -0.1353  0.9556  0.2074
 1022SOL    HW214700   4.078   1.220  10.772  1.2397 -0.4034 -1.5241
 1023SOL     OW14701   2.235   1.784   6.939 -0.2330  0.0513 -0.6107
 1023SOL    HW114702   2.157   1.730   6.952  0.1182 -0.1136  0.8368
 1023SOL    HW214703   2.238   1.799   6.844  0.5203  2.5060 -0.2057
 1024SOL     OW14704   4.706   0.016   8.766 -0.6145  0.4216 -0.2927
 1024SOL    HW114705   0.038   4.686   8.763 -0.9824 -0.0246  1.2980
 1024SOL    HW214706   4.706   0.048   8.676 -1.2684  0.0660 -0.4178
 1025SOL     OW14707   0.573   4.714   3.849  0.8576  0.2132  0.0978
 1025SOL    HW114708   0.570   0.053   3.789 -3.0732 -0.7402 -0.9047
 1025SOL    HW214709   0.644   4.663   3.812  0.1058 -0.6838 -0.0969
 1026SOL     OW14710   2.743   3.775  14.041  0.3249  0.7662  0.1394
 1026SOL    HW114711   2.687   3.741  13.970  1.2926  0.1487 -0.3350
 1026SOL    HW214712   2.679   3.790  14.110  2.0432  0.3497  1.8096
 1027SOL     OW14713   4.048   2.303  14.179  0.3737  0.2237  0.0877
 1027SOL    HW114714   4.073   2.374  14.120 -2.7399  2.6959  1.6668
 1027SOL    HW214715   4.038   2.223  14.129 -1.4422  0.3113  0.3176
 1028SOL     OW14716   0.409   0.661  12.152 -0.4139 -0.2920  0.6833
 1028SOL    HW114717   0.445   0.738  12.197  0.6128 -0.5220  0.2769
 1028SOL    HW214718   0.480   0.598  12.165  0.1438  0.0088 -0.9165
 1029SOL     OW14719   3.305   2.832   0.523  0.3702  0.2512 -0.2760
 1029SOL    HW114720   3.232   2.794   0.473  0.3100  0.3918 -0.2928
 1029SOL    HW214721   3.260   2.891   0.584 -0.1256  0.3987 -0.7855
 1030SOL     OW14722   0.896   0.153   1.168 -0.3886  0.1937 -0.1099
 1030SOL    HW114723   0.922   0.228   1.115 -2.7064  1.3258  0.3843
 1030SOL    HW214724   0.958   0.089   1.132  1.5669  2.1286 -0.2195
 1031SOL     OW14725   3.081   2.393   6.364  0.0055 -0.0698 -0.3922
 1031SOL    HW114726   3.087   2.308   6.319 -0.8211 -0.6170  0.5464
 1031SOL    HW214727   2.989   2.397   6.389  0.1769 -0.7160  0.3192
 1032SOL     OW14728   3.938   3.952   2.013  0.0351 -0.0112  0.2527
 1032SOL    HW114729   3.881   3.883   1.980  1.3148 -2.6377  3.5270
 1032SOL    HW214730   3.935   4.017   1.942  0.0011 -1.1127 -0.7500
 1033SOL     OW14731   0.641   0.011   7.764  0.1622  0.4024  0.6419
 1033SOL    HW114732   0.697   4.671   7.749  1.3637  1.1811  1.1287
 1033SOL    HW214733   0.608   0.035   7.678  0.3571 -0.2748  0.3726
 1034SOL     OW14734   0.279   1.537   1.380 -0.1701 -0.3658  0.1540
 1034SOL    HW114735   0.194   1.493   1.387 -1.2253  1.3154 -1.7375
 1034SOL    HW214736   0.279   1.557   1.286 -1.4256  0.8279  0.3954
 1035SOL     OW14737   0.031   0.510   5.027 -0.2401  0.4516  0.1210
 1035SOL    HW114738   0.017   0.481   4.937 -2.2264  0.0699  0.5672
 1035SOL    HW214739   0.118   0.549   5.014 -1.1835  2.7094  0.5889
 1036SOL     OW14740   0.127   0.596   2.022 -0.1629 -0.5688 -0.0918
 1036SOL    HW114741   0.091   0.605   1.934 -1.2145 -0.4017  0.3602
 1036SOL    HW214742   0.221   0.585   2.008  0.0954  1.1992  0.1349
 1037SOL     OW14743   4.166   2.273  15.263  0.2415 -0.0549 -0.0022
 1037SOL    HW114744   4.177   2.298  15.171 -0.4696  1.0430  0.2220
 1037SOL    HW214745   4.253   2.269  15.304 -0.2297  0.1796  1.0158
 1038SOL     OW14746   2.717   2.848   8.988  0.2500  0.2715 -0.0304
 1038SOL    HW114747   2.644   2.909   8.979  0.8234  1.4976  3.8445
 1038SOL    HW214748   2.671   2.764   8.989 -4.6453  2.9980 -0.8286
 1039SOL     OW14749   2.534   3.168  11.748  0.4337  0.6950 -0.8992
 1039SOL    HW114750   2.598   3.126  11.691  1.1853 -2.2252  2.1233
 1039SOL    HW214751   2.458   3.134  11.701  0.9489 -1.7973  0.1043
 1040SOL     OW14752   2.680   2.889   2.517  0.6647  0.1324 -0.0733
 1040SOL    HW114753   2.768   2.919   2.492  1.1085 -1.8741 -0.9610
 1040SOL    HW214754   2.665   2.965   2.572  0.9946  0.3905 -0.3358
 1041SOL     OW14755   3.767   2.015  10.364 -0.3793  0.2714 -0.4134
 1041SOL    HW114756   3.855   2.051  10.370  0.3174 -1.5776  0.3809
 1041SOL    HW214757   3.792   1.935  10.317  3.2483  0.4328  1.2559
 1042SOL     OW14758   1.654   4.575  14.431  0.0489 -0.0708 -0.0385
 1042SOL    HW114759   1.687   4.637  14.496 -1.5886  0.5777  0.1625
 1042SOL    HW214760   1.561   4.571  14.451  0.1717  0.6092  0.6861
 1043SOL     OW14761   2.812   2.540   8.667  0.3834  0.8121  0.1029
 1043SOL    HW114762   2.843   2.593   8.741  0.2882  1.0166 -0.0052
 1043SOL    HW214763   2.894   2.495   8.647 -0.3355 -0.6612  0.4267
 1044SOL     OW14764   1.757   0.907  10.526  0.0510  0.0643  0.1302
 1044SOL    HW114765   1.730   0.973  10.463  1.0095 -0.1303 -0.4761
 1044SOL    HW214766   1.697   0.835  10.505  1.2074 -1.6261  2.5515
 1045SOL     OW14767   4.366   2.157   0.252  0.6826  0.4037 -0.2045
 1045SOL    HW114768   4.306   2.155   0.327  2.8530 -0.0354  1.5051
 1045SOL    HW214769   4.426   2.229   0.271  2.6542 -1.7172  1.6761
 1046SOL     OW14770   0.866   2.742   2.456 -0.6428 -0.0359  0.4452
 1046SOL    HW114771   0.772   2.736   2.437 -0.9671  0.1368  2.0037
 1046SOL    HW214772   0.883   2.650   2.476  2.4343  0.2861 -0.6362
 1047SOL     OW14773   2.236   4.028   4.658  0.1252  0.5422  0.0053
 1047SOL    HW114774   2.307   4.085   4.688  0.1617  0.2830  0.4112
 1047SOL    HW214775   2.194   4.097   4.607 -0.5508  0.7414  0.8451
 1048SOL     OW14776   0.697   3.853  13.715 -0.2737  0.4978  0.1273
 1048SOL    HW114777   0.751   3.796  13.771  1.3471  2.4771  0.5795
 1048SOL    HW214778   0.698   3.798  13.637 -2.0181  1.7014 -0.7232
 1049SOL     OW14779   1.256   3.075   6.590  0.4273 -0.5766  0.0589
 1049SOL    HW114780   1.312   3.074   6.512 -1.6775  0.1025 -1.4520
 1049SOL    HW214781   1.201   3.002   6.560 -1.5458  1.2463 -0.7120
 1050SOL     OW14782   2.343   3.394   0.523  0.2956  0.4108  0.1343
 1050SOL    HW114783   2.286   3.408   0.599  0.7446  0.4848  0.4546
 1050SOL    HW214784   2.342   3.484   0.490  2.5551  0.7225  0.9410
 1051SOL     OW14785   3.982   3.148   2.540  0.0821 -0.5091  0.1282
 1051SOL    HW114786   4.012   3.141   2.449 -1.1045  0.4324 -0.3282
 1051SOL    HW214787   3.942   3.061   2.535  5.0061 -2.8037  0.8818
 1052SOL     OW14788   1.332   1.556  15.784 -0.1156 -0.5175  0.8210
 1052SOL    HW114789   1.246   1.519  15.765  0.3040 -0.9948 -0.1926
 1052SOL    HW214790   1.315   1.638  15.737  0.2433 -0.5308  0.6640
 1053SOL     OW14791   4.607   2.772  11.429  0.1755  0.3619  0.3577
 1053SOL    HW114792   4.540   2.742  11.491  1.7125  0.0809  1.8920
 1053SOL    HW214793   4.671   2.799  11.495  2.0324 -2.0302 -0.4614
 1054SOL     OW14794   1.812   1.214   2.228 -0.5149  0.5752  0.2080
 1054SOL    HW114795   1.746   1.185   2.291  0.2823 -0.7453  0.4165
 1054SOL    HW214796   1.889   1.171   2.264 -1.1022 -0.7554 -0.1385
 1055SOL     OW14797   1.304   0.296  11.726 -0.0699  0.1813  0.0739
 1055SOL    HW114798   1.333   0.251  11.806 -0.9793  0.3725  0.5106
 1055SOL    HW214799   1.390   0.335  11.711 -0.0448 -0.2669 -0.9238
 1056SOL     OW14800   4.309   0.956  14.102  0.2326  0.1115 -0.6069
 1056SOL    HW114801   4.255   0.901  14.159 -0.3334 -0.2648 -1.5022
 1056SOL    HW214802   4.398   0.942  14.132  0.3069  2.0153  0.0816
 1057SOL     OW14803   3.103   2.053  15.660  0.4056 -0.5097 -0.2191
 1057SOL    HW114804   3.021   2.012  15.635  0.7328 -1.0187 -0.4387
 1057SOL    HW214805   3.148   2.060  15.576 -0.5035  1.6298 -0.5303
 1058SOL     OW14806   3.565   2.139   2.599  0.3405  0.0776 -0.1792
 1058SOL    HW114807   3.529   2.218   2.559 -1.5204 -0.4345  0.4768
 1058SOL    HW214808   3.553   2.076   2.529 -0.4523  1.3741 -1.2101
 1059SOL     OW14809   4.609   3.845   8.405  0.4606 -0.6748  0.2570
 1059SOL    HW114810   4.619   3.785   8.332 -2.0066  1.4504 -1.8033
 1059SOL    HW214811   4.518   3.875   8.401  1.3524  2.0007  0.2010
 1060SOL     OW14812   0.364   2.917  15.738  0.1537  0.0717 -0.7779
 1060SOL    HW114813   0.443   2.891  15.690  0.1308  0.6886 -1.1457
 1060SOL    HW214814   0.315   2.951  15.663  0.5474  0.0274 -1.0593
 1061SOL     OW14815   2.009   3.757   1.293  0.0564  0.2336 -0.1329
 1061SOL    HW114816   1.952   3.751   1.216 -0.2530  2.1682 -0.0431
 1061SOL    HW214817   2.044   3.668   1.297  0.6141  0.5126  1.1922
 1062SOL     OW14818   1.973   0.972   7.747 -0.3011 -0.0659  0.1175
 1062SOL    HW114819   1.993   1.053   7.700  0.8318 -0.5529 -0.2372
 1062SOL    HW214820   2.035   0.976   7.820  0.1805 -4.3231 -0.0494
 1063SOL     OW14821   0.723   2.052   2.550  0.1577 -0.2734 -0.3049
 1063SOL    HW114822   0.738   2.042   2.644  1.5579  0.6251 -0.4411
 1063SOL    HW214823   0.812   2.033   2.522  0.1963  1.8976 -1.6692
 1064SOL     OW14824   1.658   1.801  15.899  0.4962 -0.1850 -0.4572
 1064SOL    HW114825   1.688   1.890  15.883  0.9054 -0.0789  0.8788
 1064SOL    HW214826   1.565   1.819  15.910  0.7108  0.1008  0.9300
 1065SOL     OW14827   2.925   0.573   3.796  0.0868 -0.4338  0.1507
 1065SOL    HW114828   2.986   0.638   3.833 -0.8589  0.6665 -0.2222
 1065SOL    HW214829   2.967   0.493   3.827  1.6244  0.6925  1.0086
 1066SOL     OW14830   2.103   2.747   6.266  0.9951  0.1336  0.0275
 1066SOL    HW114831   2.097   2.837   6.299  0.2157  0.0872 -0.0033
 1066SOL    HW214832   2.173   2.702   6.312  0.7915 -0.9917 -0.7643
 1067SOL     OW14833   4.454   1.003  13.355 -0.3146 -0.4172 -0.0410
 1067SOL    HW114834   4.409   0.982  13.437 -1.8139  0.1870 -0.7008
 1067SOL    HW214835   4.516   0.931  13.353 -1.2473 -1.1511 -2.4664
 1068SOL     OW14836   3.682   4.558  13.012  0.0949  0.0642 -0.2639
 1068SOL    HW114837   3.706   4.618  13.082 -0.1512  0.6870 -0.7133
 1068SOL    HW214838   3.671   4.618  12.938 -1.7716  1.0701  0.8228
 1069SOL     OW14839   1.845   4.269   5.379  0.1549 -0.2387 -0.4755
 1069SOL    HW114840   1.885   4.351   5.349  2.4645 -0.8290  1.0683
 1069SOL    HW214841   1.801   4.251   5.296  1.1065  0.3623 -1.1200
 1070SOL     OW14842   1.724   2.287   4.707  0.3418  0.1235 -0.3974
 1070SOL    HW114843   1.735   2.371   4.751 -2.9987  0.9424 -1.1163
 1070SOL    HW214844   1.629   2.288   4.717  0.3134 -0.9060 -0.5413
 1071SOL     OW14845   3.595   2.922   2.195 -0.3683 -0.4698  0.2118
 1071SOL    HW114846   3.508   2.881   2.194 -0.8047  0.4357  0.7839
 1071SOL    HW214847   3.598   2.968   2.279  0.0136  0.9113 -0.5558
 1072SOL     OW14848   1.331   2.860   3.641  0.8977 -0.3003  0.4630
 1072SOL    HW114849   1.353   2.867   3.734 -1.3523  1.5805  0.8649
 1072SOL    HW214850   1.301   2.769   3.632  1.1724 -0.4364  0.9237
 1073SOL     OW14851   1.216   0.914  17.003 -0.3814 -0.0482 -0.3354
 1073SOL    HW114852   1.140   0.946  16.955  0.1398  1.7333  0.0338
 1073SOL    HW214853   1.288   0.926  16.941 -0.4485  1.4758 -0.1136
 1074SOL     OW14854   2.157   2.402   4.523 -0.1288 -0.0853  0.1145
 1074SOL    HW114855   2.156   2.344   4.599  1.2404 -1.9692 -1.3239
 1074SOL    HW214856   2.160   2.331   4.460  1.2137  0.2880 -0.2486
 1075SOL     OW14857   4.425   2.830  13.580 -0.4595 -0.7538  0.9473
 1075SOL    HW114858   4.422   2.760  13.646 -0.7787 -1.8882 -0.2755
 1075SOL    HW214859   4.339   2.872  13.575 -0.2974 -0.6889 -0.9813
 1076SOL     OW14860   4.681   0.755   4.309 -0.3558  0.0152  0.5305
 1076SOL    HW114861   4.725   0.712   4.235 -2.0623  0.9108 -1.0109
 1076SOL    HW214862   4.723   0.841   4.308 -0.6172  0.1367  0.0141
 1077SOL     OW14863   0.543   3.625   2.173  0.1199  0.9713  0.3449
 1077SOL    HW114864   0.583   3.701   2.132  1.9469 -0.7661 -1.0886
 1077SOL    HW214865   0.478   3.606   2.106  0.3584  1.9423 -0.1504
 1078SOL     OW14866   3.072   3.054   9.644  0.2972  0.1309 -0.1462
 1078SOL    HW114867   3.048   3.109   9.718  0.1927  1.1435 -0.9282
 1078SOL    HW214868   3.094   2.969   9.682 -2.2056  0.2313  1.4865
 1079SOL     OW14869   0.158   4.557   3.838 -0.1107 -0.3099  0.6101
 1079SOL    HW114870   0.068   4.592   3.838 -0.1273 -0.3481 -0.6031
 1079SOL    HW214871   0.190   4.596   3.757  0.2084 -0.4515  0.6709
 1080SOL     OW14872   1.252   4.427   6.943  0.2567 -0.1905  0.0525
 1080SOL    HW114873   1.321   4.367   6.914  0.7935 -1.0467  3.1123
 1080SOL    HW214874   1.217   4.464   6.862  1.6737  0.2977 -0.3328
 1081SOL     OW14875   2.435   2.698  15.966  0.3653 -0.2129  0.4298
 1081SOL    HW114876   2.381   2.773  15.990 -1.6820 -2.5251  3.0637
 1081SOL    HW214877   2.508   2.712  16.026  1.0938  2.3356 -1.0386
 1082SOL     OW14878   1.735   1.210  12.015  0.0347 -0.7223 -0.0700
 1082SOL    HW114879   1.807   1.183  12.073 -0.1918  0.3691  0.7278
 1082SOL    HW214880   1.675   1.136  12.020 -2.8677  1.6865  0.5358
 1083SOL     OW14881   4.162   2.646   8.319 -0.7319  0.5343 -0.0326
 1083SOL    HW114882   4.082   2.678   8.361 -0.6300  2.0592 -0.9885
 1083SOL    HW214883   4.202   2.732   8.309 -3.4786  1.6398 -1.3217
 1084SOL     OW14884   3.546   2.145  17.501  0.0752  0.0583  0.3828
 1084SOL    HW114885   3.610   2.130  17.571 -0.9083 -1.9995  0.8401
 1084SOL    HW214886   3.541   2.241  17.503  1.3652  0.1973 -2.9248
 1085SOL     OW14887   3.013   3.480   4.933  0.1062 -0.2455 -0.0205
 1085SOL    HW114888   3.033   3.430   4.854  2.5477 -0.4544  0.7212
 1085SOL    HW214889   2.983   3.561   4.892  3.0021  0.6233 -0.3937
 1086SOL     OW14890   2.584   2.764   7.598  0.3844  1.1473 -0.1646
 1086SOL    HW114891   2.507   2.731   7.551  0.4449 -0.5150  0.9006
 1086SOL    HW214892   2.653   2.768   7.532 -1.6767 -2.1218 -2.5344
 1087SOL     OW14893   0.916   3.671   6.901 -0.4619 -0.0026  0.2663
 1087SOL    HW114894   0.924   3.593   6.955  2.1592 -0.4566 -0.7632
 1087SOL    HW214895   1.000   3.715   6.915 -0.6461  1.0866 -2.0295
 1088SOL     OW14896   3.915   1.472  11.340 -0.2717  0.6199 -0.2936
 1088SOL    HW114897   3.896   1.547  11.284 -2.1454 -1.1046 -1.9890
 1088SOL    HW214898   3.879   1.398  11.290  1.4004 -0.2860 -0.1802
 1089SOL     OW14899   2.460   3.868   6.660 -0.6366  0.6253 -0.4445
 1089SOL    HW114900   2.496   3.936   6.716  1.2518 -2.2965  1.8874
 1089SOL    HW214901   2.368   3.858   6.685  0.5750 -1.6033  3.1398
 1090SOL     OW14902   2.905   2.057   6.471  0.3330 -0.2877 -0.4264
 1090SOL    HW114903   2.961   2.104   6.410 -0.1718 -1.8486 -2.0924
 1090SOL    HW214904   2.838   2.031   6.408 -1.0479 -1.1187  1.3848
 1091SOL     OW14905   1.674   0.668   2.022  0.1375  0.0771 -0.4160
 1091SOL    HW114906   1.728   0.629   2.091  0.7512 -1.1378 -1.5866
 1091SOL    HW214907   1.618   0.720   2.080  1.8222  0.7363  0.6177
 1092SOL     OW14908   1.089   0.335   5.970 -0.1930 -0.2727  0.6433
 1092SOL    HW114909   1.037   0.409   6.000 -1.0147  0.8708 -3.6376
 1092SOL    HW214910   1.038   0.306   5.894  1.3984 -0.6978 -0.2754
 1093SOL     OW14911   3.487   4.674   8.046  0.0889  0.8740 -0.2702
 1093SOL    HW114912   3.581   4.675   8.067 -0.0803  1.1967  0.4854
 1093SOL    HW214913   3.467   4.581   8.062 -0.0171  1.0039  0.3778
 1094SOL     OW14914   2.370   1.369   4.328  0.2839  0.4828  0.0638
 1094SOL    HW114915   2.455   1.378   4.286 -0.0111  0.4440 -0.5460
 1094SOL    HW214916   2.325   1.429   4.267 -0.8259  0.8319  1.2275
 1095SOL     OW14917   2.036   1.023   4.199 -0.2406 -0.1793 -0.0049
 1095SOL    HW114918   2.109   0.965   4.222 -0.0628  1.2637  3.1710
 1095SOL    HW214919   1.955   0.971   4.201 -0.9564  0.9769  1.3870
 1096SOL     OW14920   1.278   1.628   7.419  0.2283 -0.1315 -0.2188
 1096SOL    HW114921   1.301   1.715   7.451 -5.4450  0.9118  1.1458
 1096SOL    HW214922   1.210   1.641   7.353  0.9616 -1.9480 -1.3316
 1097SOL     OW14923   1.026   4.660   7.721 -0.1974 -0.4099  0.1472
 1097SOL    HW114924   0.935   4.631   7.726 -0.0181 -0.9117  0.4699
 1097SOL    HW214925   1.056   4.614   7.643 -1.2185  0.8023 -0.9599
 1098SOL     OW14926   1.536   2.432   5.189  0.2064 -0.1213 -0.5277
 1098SOL    HW114927   1.455   2.481   5.176 -0.0007 -0.0177  1.1241
 1098SOL    HW214928   1.598   2.490   5.143  1.3998 -1.0201 -0.0509
 1099SOL     OW14929   0.143   2.177   3.166  0.1024  0.8872 -0.0317
 1099SOL    HW114930   0.098   2.256   3.195 -1.4864 -0.6587  1.7069
 1099SOL    HW214931   0.124   2.122   3.241 -0.0555 -0.5681 -1.1361
 1100SOL     OW14932   0.698   1.554  17.488  0.6293 -0.7914  0.6860
 1100SOL    HW114933   0.778   1.581  17.534  1.8470 -1.0145 -1.3142
 1100SOL    HW214934   0.623   1.597  17.528  1.0591 -1.5483  2.2971
 1101SOL     OW14935   2.644   4.446   3.122  0.0759  0.0124  0.5762
 1101SOL    HW114936   2.584   4.508   3.163 -0.0462 -0.3436  0.9472
 1101SOL    HW214937   2.591   4.411   3.050  1.7732 -1.7421  0.1609
 1102SOL     OW14938   1.981   4.642  10.205 -0.2524 -0.3341 -0.2491
 1102SOL    HW114939   1.891   4.658  10.178 -0.6635 -1.6073  0.3712
 1102SOL    HW214940   2.003   4.561  10.158  1.5487  0.2175 -0.3620
 1103SOL     OW14941   3.654   3.712  12.452 -0.0669  0.0732  0.0331
 1103SOL    HW114942   3.694   3.629  12.427  2.3463  1.2514 -0.0753
 1103SOL    HW214943   3.613   3.738  12.370 -2.2587  1.2181  1.4885
 1104SOL     OW14944   0.339   3.895   3.216  0.2811 -0.1869 -0.2785
 1104SOL    HW114945   0.244   3.884   3.216  0.4875 -1.9533  0.7662
 1104SOL    HW214946   0.347   3.967   3.153 -0.7023 -0.7847 -1.0960
 1105SOL     OW14947   3.328   4.703  13.763 -0.3695  0.2134  0.1775
 1105SOL    HW114948   3.246   0.013  13.781 -0.2606 -0.7287  3.1119
 1105SOL    HW214949   3.310   4.614  13.794  0.1607  0.4046  1.0031
 1106SOL     OW14950   3.996   2.522   3.720 -0.0384  0.2571 -0.3949
 1106SOL    HW114951   4.002   2.465   3.797  2.8401 -1.1424 -1.6850
 1106SOL    HW214952   3.950   2.600   3.752 -0.0231  0.8218 -1.7618
 1107SOL     OW14953   3.320   1.118   8.153  0.1208 -0.0095  0.8681
 1107SOL    HW114954   3.375   1.142   8.079 -2.3162 -0.5690 -1.1498
 1107SOL    HW214955   3.234   1.122   8.111  0.5821  1.8280  0.0863
 1108SOL     OW14956   1.598   2.107   4.932 -0.1284  0.1170 -0.5239
 1108SOL    HW114957   1.522   2.070   4.976  1.7048 -2.4615  0.4837
 1108SOL    HW214958   1.551   2.147   4.859 -0.7878 -0.3312 -0.3372
 1109SOL     OW14959   3.914   0.681  10.761 -0.1594  0.1014 -0.2822
 1109SOL    HW114960   3.940   0.697  10.670  3.8722 -0.5931  0.7765
 1109SOL    HW214961   3.875   0.597  10.737 -0.0560 -0.2405  0.7608
 1110SOL     OW14962   2.097   2.607   6.966 -0.2816 -0.1124  0.2137
 1110SOL    HW114963   2.149   2.543   7.013 -1.9991 -0.1013  2.1388
 1110SOL    HW214964   2.138   2.691   6.984 -0.3389  0.0812 -0.5338
 1111SOL     OW14965   3.918   2.623   8.053  0.1442  0.0353 -0.5792
 1111SOL    HW114966   3.990   2.562   8.070  0.8602  0.8670 -0.6434
 1111SOL    HW214967   3.960   2.685   7.994 -3.6118  0.6822 -2.5216
 1112SOL     OW14968   0.774   0.771   4.055 -0.4005  0.6940  0.8662
 1112SOL    HW114969   0.814   0.734   4.134 -0.5022 -1.5968 -0.1539
 1112SOL    HW214970   0.818   0.855   4.040 -1.6766  1.0063 -1.1218
 1113SOL     OW14971   3.153   0.367   4.569 -0.3931 -0.0161 -0.4227
 1113SOL    HW114972   3.090   0.424   4.613 -0.7720 -0.0695 -0.9017
 1113SOL    HW214973   3.238   0.382   4.611  1.0994 -3.0217 -2.4426
 1114SOL     OW14974   2.233   3.329   7.275 -0.1427 -0.0277  0.5323
 1114SOL    HW114975   2.259   3.338   7.183  1.1870  0.0616  0.9162
 1114SOL    HW214976   2.257   3.237   7.289 -1.2698 -0.5333 -0.8257
 1115SOL     OW14977   0.690   4.215  13.797 -0.2663 -0.3205 -0.1780
 1115SOL    HW114978   0.782   4.243  13.801 -0.3695 -0.0022 -0.0604
 1115SOL    HW214979   0.651   4.302  13.807 -0.9712 -0.6510 -0.0682
 1116SOL     OW14980   4.087   0.591  10.272 -0.5187 -0.1469 -0.2717
 1116SOL    HW114981   4.119   0.511  10.313 -2.8169 -1.8045 -1.7205
 1116SOL    HW214982   4.138   0.663  10.308 -0.9432  0.0602 -0.0946
 1117SOL     OW14983   2.888   3.651  15.639  0.4002 -0.5611 -0.6537
 1117SOL    HW114984   2.969   3.653  15.589  0.9791 -0.1666  0.3046
 1117SOL    HW214985   2.875   3.557  15.651 -0.0956 -0.6819 -2.0730
 1118SOL     OW14986   2.452   3.091   6.003 -0.3591 -0.2615  1.0160
 1118SOL    HW114987   2.496   3.100   6.088  1.0145  2.6537  0.0066
 1118SOL    HW214988   2.367   3.061   6.036 -0.2774  0.4636  1.8972
 1119SOL     OW14989   0.184   4.535   1.801  0.0379  0.2319  0.5889
 1119SOL    HW114990   0.278   4.521   1.802  0.4184  2.7624 -0.4764
 1119SOL    HW214991   0.147   4.456   1.840 -1.2367  0.3135 -0.4214
 1120SOL     OW14992   1.338   2.615   3.316 -0.3631 -0.1450 -0.0348
 1120SOL    HW114993   1.368   2.615   3.407 -0.4520 -1.6402 -0.0048
 1120SOL    HW214994   1.395   2.687   3.289 -1.0665 -0.0121 -1.1733
 1121SOL     OW14995   3.313   4.572  11.467 -0.0937  0.1471  0.7365
 1121SOL    HW114996   3.346   4.615  11.545  1.3053 -0.2093  0.3302
 1121SOL    HW214997   3.253   4.643  11.445  0.4399  0.2037 -0.5270
 1122SOL     OW14998   1.779   2.206   8.383  0.1338  0.0011  0.2738
 1122SOL    HW114999   1.709   2.162   8.431  0.9026  1.5386  2.8367
 1122SOL    HW215000   1.726   2.274   8.342  2.7857  2.5220  1.0030
 1123SOL     OW15001   3.613   2.926   8.497  0.5299 -0.4629 -0.3043
 1123SOL    HW115002   3.587   2.851   8.444 -1.5610 -0.5014  0.7491
 1123SOL    HW215003   3.545   2.943   8.562  1.3283 -1.4857  0.8042
 1124SOL     OW15004   4.606   1.167   4.686  0.3977 -0.0303 -0.4497
 1124SOL    HW115005   4.627   1.143   4.596 -2.0036  1.2132 -1.3472
 1124SOL    HW215006   4.690   1.198   4.719  0.3644  0.3136 -0.6850
 1125SOL     OW15007   2.066   2.292   5.166  0.1242 -0.5567 -0.2297
 1125SOL    HW115008   1.982   2.307   5.122 -0.3718  0.6714  1.0913
 1125SOL    HW215009   2.034   2.294   5.257  1.2036 -2.3217  0.1746
 1126SOL     OW15010   0.253   2.748  17.148 -0.0699  0.5264  0.4826
 1126SOL    HW115011   0.218   2.778  17.064 -0.3512  0.4750  0.5777
 1126SOL    HW215012   0.325   2.691  17.122 -2.8478 -2.9000  0.1216
 1127SOL     OW15013   3.014   1.255   3.345 -0.0140  0.7801 -0.4323
 1127SOL    HW115014   3.086   1.297   3.391  2.5059 -1.7808 -2.0674
 1127SOL    HW215015   2.942   1.309   3.379 -1.2302 -0.6542 -0.7151
 1128SOL     OW15016   2.543   2.135   1.474  0.6862  0.0915 -0.1163
 1128SOL    HW115017   2.480   2.122   1.544  1.4148 -0.5170  0.4332
 1128SOL    HW215018   2.495   2.198   1.422 -1.0958 -0.4963  0.8231
 1129SOL     OW15019   0.363   2.563   3.325 -0.4094 -0.0505 -0.0553
 1129SOL    HW115020   0.422   2.543   3.397  1.5330  1.1984 -1.2884
 1129SOL    HW215021   0.286   2.595   3.373  0.2360  1.6842 -0.1599
 1130SOL     OW15022   1.511   4.387   0.952 -0.4695  0.6105 -0.1029
 1130SOL    HW115023   1.550   4.373   0.865  0.1521  0.5307  0.1902
 1130SOL    HW215024   1.592   4.402   1.000 -0.7970 -1.5482  1.1059
 1131SOL     OW15025   3.931   2.958   8.260 -0.5638  0.1470 -0.3115
 1131SOL    HW115026   3.901   2.886   8.315 -1.2423  0.9571  0.3878
 1131SOL    HW215027   3.969   3.014   8.329 -0.5201 -0.7901  0.4218
 1132SOL     OW15028   4.307   1.388  11.452  0.3424  0.3157  0.3658
 1132SOL    HW115029   4.247   1.396  11.526 -1.5741 -0.0723 -1.1605
 1132SOL    HW215030   4.365   1.315  11.474  0.9123  0.8015  0.4676
 1133SOL     OW15031   1.222   2.550  15.033  0.2883 -0.3440 -0.9401
 1133SOL    HW115032   1.256   2.583  14.950  1.3021 -2.6812 -1.4523
 1133SOL    HW215033   1.131   2.558  15.005 -0.3154 -0.6528  0.9427
 1134SOL     OW15034   4.676   1.697  12.387  0.3141  0.4975  0.1187
 1134SOL    HW115035   0.015   1.639  12.382 -1.1459 -1.2047 -1.8175
 1134SOL    HW215036   4.692   1.728  12.477  2.2883  0.0807 -0.0945
 1135SOL     OW15037   1.154   0.958   1.050  0.4211  0.3572 -0.4578
 1135SOL    HW115038   1.229   1.015   1.032  1.1270 -0.4208  0.0639
 1135SOL    HW215039   1.082   1.005   1.008 -0.2680 -2.4650 -2.3962
 1136SOL     OW15040   2.467   0.481   5.230 -0.0765 -0.5946  0.1856
 1136SOL    HW115041   2.373   0.480   5.210 -0.2122 -0.4664  0.8143
 1136SOL    HW215042   2.465   0.539   5.306 -0.9611  0.2089 -0.4493
 1137SOL     OW15043   4.632   2.540   5.024  0.3199 -0.0492 -0.4939
 1137SOL    HW115044   4.613   2.624   5.066  0.6770  0.4543 -1.3583
 1137SOL    HW215045   4.615   2.483   5.100  0.4451  0.4819 -0.0688
 1138SOL     OW15046   0.480   2.358   7.822 -0.6286 -1.1618 -0.3185
 1138SOL    HW115047   0.518   2.309   7.749 -1.4809 -1.0368 -0.8435
 1138SOL    HW215048   0.453   2.287   7.880 -0.9760 -0.3183  0.5641
 1139SOL     OW15049   2.831   0.335   2.386  0.4193 -0.5357 -0.0934
 1139SOL    HW115050   2.825   0.429   2.372  0.8718 -0.3787  0.7509
 1139SOL    HW215051   2.914   0.336   2.435  1.3132  1.2805 -1.6488
 1140SOL     OW15052   0.365   3.537   5.785 -0.7367  0.2391  0.0221
 1140SOL    HW115053   0.429   3.466   5.778 -0.3033  0.4819  1.5439
 1140SOL    HW215054   0.291   3.478   5.796 -1.0754  0.2236 -2.3357
 1141SOL     OW15055   1.009   0.486   5.569 -0.4928 -0.6935 -0.4421
 1141SOL    HW115056   0.920   0.516   5.585  0.2037  0.9499  0.3334
 1141SOL    HW215057   1.062   0.554   5.611 -0.5509 -1.2043  0.4538
 1142SOL     OW15058   4.378   2.570   4.351  0.6410 -0.4505 -0.3528
 1142SOL    HW115059   4.413   2.487   4.383  2.4604  1.0883  1.6383
 1142SOL    HW215060   4.334   2.546   4.269 -2.8295 -2.8525  2.1986
 1143SOL     OW15061   3.847   1.571   5.447 -0.0637 -0.2937 -0.0416
 1143SOL    HW115062   3.873   1.511   5.516  0.2455 -1.4864 -1.2094
 1143SOL    HW215063   3.802   1.632   5.506 -1.4942  1.3307 -2.7834
 1144SOL     OW15064   0.654   3.277   0.266 -0.4998  0.4939  0.1854
 1144SOL    HW115065   0.642   3.364   0.305 -2.3040  0.4871 -0.3706
 1144SOL    HW215066   0.610   3.215   0.324  1.6369  0.1739  1.4805
 1145SOL     OW15067   3.744   0.780   4.608 -0.3836 -0.6357 -0.3110
 1145SOL    HW115068   3.794   0.703   4.581 -2.2533 -2.2003  0.6781
 1145SOL    HW215069   3.669   0.745   4.657  0.9698 -1.9534  0.8147
 1146SOL     OW15070   2.979   3.516   9.238  0.1363  0.1159 -0.3408
 1146SOL    HW115071   2.994   3.435   9.286 -1.9529 -1.4087 -2.2521
 1146SOL    HW215072   2.970   3.581   9.308  0.8328  1.3168 -1.3574
 1147SOL     OW15073   3.645   4.170   4.442  0.8366 -0.5943 -0.3289
 1147SOL    HW115074   3.676   4.085   4.472  0.7638 -0.6899 -0.5286
 1147SOL    HW215075   3.666   4.173   4.349 -1.8975 -1.8429 -0.9628
 1148SOL     OW15076   2.588   3.435   7.240 -0.0024 -0.5674 -0.4177
 1148SOL    HW115077   2.513   3.381   7.214 -0.8121 -0.1307  0.9546
 1148SOL    HW215078   2.552   3.524   7.243  2.6217  0.4975 -1.1702
 1149SOL     OW15079   0.084   1.408  13.647 -0.0428 -0.3014 -0.2952
 1149SOL    HW115080   0.074   1.336  13.584  0.9609 -0.3025 -0.4522
 1149SOL    HW215081   0.116   1.351  13.717  1.6725 -0.7108 -1.4166
 1150SOL     OW15082   2.780   1.247   8.031  0.4821  0.6840  0.3819
 1150SOL    HW115083   2.698   1.234   8.078 -0.7269  2.2411 -1.2967
 1150SOL    HW215084   2.838   1.243   8.107 -1.0661 -0.4744  1.4953
 1151SOL     OW15085   2.667   0.907   7.698 -0.2222 -0.0396  0.0554
 1151SOL    HW115086   2.572   0.919   7.705 -0.2372 -0.8307  1.1166
 1151SOL    HW215087   2.666   0.827   7.644  1.1577 -1.2839  1.8753
 1152SOL     OW15088   4.583   0.374   8.436 -0.0888 -0.1051 -0.0198
 1152SOL    HW115089   4.609   0.381   8.344  1.5723 -0.2593  0.4239
 1152SOL    HW215090   4.504   0.322   8.429 -0.1664 -0.0546  0.4577
 1153SOL     OW15091   3.425   0.708   7.765  0.5020  0.2395  0.4992
 1153SOL    HW115092   3.517   0.709   7.739  0.1089 -1.3806 -0.9167
 1153SOL    HW215093   3.431   0.644   7.836 -1.4573  0.3543  0.7875
 1154SOL     OW15094   0.096   3.230   5.235  0.0873 -0.1052 -0.1575
 1154SOL    HW115095   0.062   3.141   5.230  3.4877 -1.4438  0.8683
 1154SOL    HW215096   0.179   3.205   5.276 -0.7278 -0.3042  1.3554
 1155SOL     OW15097   1.322   3.928   8.777  0.0819 -0.3418  0.5702
 1155SOL    HW115098   1.280   3.938   8.863  2.6843 -0.7492  1.8810
 1155SOL    HW215099   1.363   3.842   8.781 -0.4300 -0.6508 -0.9789
 1156SOL     OW15100   2.502   3.573   9.024 -0.5859  0.4844 -0.4927
 1156SOL    HW115101   2.586   3.545   9.060 -1.4398  0.3020  1.3542
 1156SOL    HW215102   2.467   3.486   9.007  3.8042 -1.4485  0.3841
 1157SOL     OW15103   4.127   2.166   6.349  0.4314 -0.4396  0.1101
 1157SOL    HW115104   4.038   2.192   6.322  1.3244  1.3872 -1.0401
 1157SOL    HW215105   4.177   2.237   6.311 -1.5262  0.7133 -0.3366
 1158SOL     OW15106   2.854   0.497   2.940 -0.2918 -0.3149  0.2791
 1158SOL    HW115107   2.842   0.416   2.990 -0.3905  0.1892  1.0623
 1158SOL    HW215108   2.765   0.518   2.912  0.2598  0.6442 -0.7446
 1159SOL     OW15109   2.580   4.355   1.929  0.0695 -0.2148 -0.8527
 1159SOL    HW115110   2.520   4.281   1.934 -0.7011  0.2211 -3.6362
 1159SOL    HW215111   2.579   4.398   2.015 -1.3425  0.1608 -1.0628
 1160SOL     OW15112   0.565   4.168  12.163  0.2925  0.6646 -0.2141
 1160SOL    HW115113   0.637   4.186  12.223 -0.1670  0.5169  0.3843
 1160SOL    HW215114   0.495   4.145  12.225 -0.3242  0.4331 -1.0013
 1161SOL     OW15115   1.995   0.685   6.320 -0.0271 -0.0137 -0.3544
 1161SOL    HW115116   1.959   0.666   6.233  1.1424  0.6299 -0.9801
 1161SOL    HW215117   2.087   0.659   6.310  0.3714  1.4408 -0.5663
 1162SOL     OW15118   3.799   0.943   5.323 -0.0126 -0.2359 -0.5405
 1162SOL    HW115119   3.831   0.977   5.239  0.1421 -0.9270 -0.7642
 1162SOL    HW215120   3.800   1.022   5.377 -1.5687  0.2899 -1.2936
 1163SOL     OW15121   3.017   0.571   7.119  0.2428 -0.1640 -0.3378
 1163SOL    HW115122   3.031   0.642   7.182 -2.8524 -1.6749  2.0397
 1163SOL    HW215123   3.097   0.583   7.067  0.3656 -3.4900 -0.8948
 1164SOL     OW15124   2.031   2.513  17.315  0.2939 -0.2807 -0.3254
 1164SOL    HW115125   2.014   2.446  17.249 -0.3378 -0.7863  0.3523
 1164SOL    HW215126   2.091   2.564  17.260 -0.9772  0.9838 -0.5383
 1165SOL     OW15127   3.240   0.996  10.852  0.0451 -0.1615  0.5566
 1165SOL    HW115128   3.243   0.921  10.792  1.1200  0.7425 -0.4971
 1165SOL    HW215129   3.270   0.957  10.935  0.7915  2.2128  1.3839
 1166SOL     OW15130   2.537   2.084   2.518  0.4084 -0.3498  0.4015
 1166SOL    HW115131   2.544   2.169   2.475  2.5610  0.7647  2.9177
 1166SOL    HW215132   2.615   2.035   2.494  2.0022  2.3963  0.0077
 1167SOL     OW15133   3.135   3.507   6.178  0.7513 -0.0408  0.2797
 1167SOL    HW115134   3.197   3.459   6.233  0.9689  0.4023  0.4212
 1167SOL    HW215135   3.143   3.597   6.211  1.4315  0.3097 -0.8459
 1168SOL     OW15136   0.189   4.306   5.930 -0.2261  0.4063 -0.0332
 1168SOL    HW115137   0.271   4.291   5.884  0.1391  2.7390 -0.1276
 1168SOL    HW215138   0.173   4.213   5.945 -0.1976  0.0375 -2.3365
 1169SOL     OW15139   2.849   2.765   2.114  0.3449  0.5059  0.3551
 1169SOL    HW115140   2.893   2.680   2.121 -4.4120 -2.0074 -0.1550
 1169SOL    HW215141   2.920   2.822   2.142  0.3634  0.7072 -0.1143
 1170SOL     OW15142   2.788   3.055   7.085 -0.4160  0.3599  0.1152
 1170SOL    HW115143   2.868   3.079   7.039 -0.4024  0.3002  0.1078
 1170SOL    HW215144   2.778   3.141   7.126 -0.6839  1.0585 -1.3962
 1171SOL     OW15145   3.750   1.008   3.281 -0.2262  0.2713  0.3392
 1171SOL    HW115146   3.842   1.033   3.287 -0.0289 -0.1395 -1.0479
 1171SOL    HW215147   3.705   1.013   3.366 -1.2256  2.7070 -0.3247
 1172SOL     OW15148   2.622   0.919   2.566 -0.0407  0.4121  0.3018
 1172SOL    HW115149   2.561   0.988   2.590 -0.3054 -0.0738  1.0369
 1172SOL    HW215150   2.590   0.898   2.479 -1.2837  3.1515  0.1141
 1173SOL     OW15151   3.196   3.085   1.941 -0.9564  0.1270  0.0877
 1173SOL    HW115152   3.264   3.150   1.963  0.0239 -1.2294  1.1034
 1173SOL    HW215153   3.134   3.107   2.011  0.6406 -0.0482  1.5711
 1174SOL     OW15154   1.102   4.087   0.886 -0.2653 -0.1204  0.3715
 1174SOL    HW115155   1.048   4.164   0.902 -2.3185 -1.3644 -0.5678
 1174SOL    HW215156   1.099   4.040   0.969  0.5767 -2.7093 -1.0522
 1175SOL     OW15157   2.690   3.634   8.692 -0.4187  0.3441  0.0729
 1175SOL    HW115158   2.736   3.575   8.752 -1.4303  0.0241  0.5316
 1175SOL    HW215159   2.625   3.575   8.653 -0.2738  0.5747 -0.5278
 1176SOL     OW15160   2.351   1.169   7.826  0.1809 -0.1833 -0.2201
 1176SOL    HW115161   2.433   1.219   7.829 -0.1935  0.4077  0.1013
 1176SOL    HW215162   2.290   1.230   7.867  0.8953  0.3954 -0.0226
 1177SOL     OW15163   2.878   2.413   3.630 -0.4646 -0.2433  0.7338
 1177SOL    HW115164   2.862   2.321   3.649 -1.3339 -0.2455 -0.0407
 1177SOL    HW215165   2.945   2.431   3.696 -0.5196 -0.3475  0.8168
 1178SOL     OW15166   0.817   2.558   5.905  0.5087 -0.3032 -0.3810
 1178SOL    HW115167   0.722   2.564   5.918  0.2756 -0.3780 -2.0779
 1178SOL    HW215168   0.836   2.469   5.935  0.4578  0.0214  0.6162
 1179SOL     OW15169   2.677   3.038   4.961  0.5165  0.7326  0.1101
 1179SOL    HW115170   2.602   3.074   5.009  1.3865  1.2074  1.1039
 1179SOL    HW215171   2.706   2.964   5.015  1.7125 -0.5650 -2.3460
 1180SOL     OW15172   3.762   4.411   9.202  0.3056  0.2294  0.1181
 1180SOL    HW115173   3.741   4.327   9.244 -0.1443  1.4974  2.3951
 1180SOL    HW215174   3.844   4.431   9.246 -0.0260 -0.8681  1.2316
 1181SOL     OW15175   1.142   1.438   9.749 -0.3672 -0.1767 -0.3417
 1181SOL    HW115176   1.092   1.495   9.690 -2.0179 -0.4010  0.8652
 1181SOL    HW215177   1.215   1.494   9.774  1.2787 -1.4829 -2.1928
 1182SOL     OW15178   3.223   2.000   9.730  0.0998  0.2089  0.5825
 1182SOL    HW115179   3.189   2.079   9.773 -0.4554  1.3389 -1.9176
 1182SOL    HW215180   3.317   2.000   9.748  0.2919 -2.2200 -0.4029
 1183SOL     OW15181   4.269   3.382   4.929 -0.0148  0.7350 -0.3522
 1183SOL    HW115182   4.174   3.392   4.925  0.1623  2.7522  0.4738
 1183SOL    HW215183   4.302   3.472   4.933  1.6927  0.0758  0.5470
 1184SOL     OW15184   1.755   4.348   9.536 -0.4588 -0.5361 -0.0392
 1184SOL    HW115185   1.770   4.407   9.610  0.4426 -1.4507  0.5045
 1184SOL    HW215186   1.689   4.396   9.487  0.0435 -0.3728 -0.5536
 1185SOL     OW15187   1.382   0.882  16.770  0.0147 -0.1873 -0.0136
 1185SOL    HW115188   1.369   0.943  16.697 -1.2767  1.4857  1.6363
 1185SOL    HW215189   1.400   0.796  16.732 -0.6226 -0.2034 -0.2734
 1186SOL     OW15190   3.935   0.463   6.585  0.3716  0.3905 -0.3170
 1186SOL    HW115191   3.994   0.388   6.590  0.6566  0.4969 -2.0523
 1186SOL    HW215192   3.900   0.448   6.497  0.4092  1.7047 -0.5676
 1187SOL     OW15193   0.670   0.829   2.335  0.0018 -0.2619 -0.3217
 1187SOL    HW115194   0.691   0.921   2.351 -1.4842  0.1965 -0.9632
 1187SOL    HW215195   0.589   0.828   2.284  0.4617  0.8966 -1.0724
 1188SOL     OW15196   1.075   1.721  13.318  0.5079  0.3089  0.0846
 1188SOL    HW115197   1.137   1.652  13.341 -1.6892 -2.4876 -2.2654
 1188SOL    HW215198   0.992   1.674  13.306  1.5708 -1.6847  0.4040
 1189SOL     OW15199   1.684   0.182   4.781 -0.2610 -0.3223  0.0204
 1189SOL    HW115200   1.600   0.225   4.796 -0.2824 -0.2815 -0.2135
 1189SOL    HW215201   1.675   0.159   4.688 -0.0822 -0.2464 -0.0151
 1190SOL     OW15202   3.814   0.219   8.178 -0.4041 -0.2931 -0.0413
 1190SOL    HW115203   3.801   0.272   8.257  2.4583  1.5219 -0.7823
 1190SOL    HW215204   3.838   0.141   8.229 -0.4646  0.3799  1.0294
 1191SOL     OW15205   3.275   2.161   6.994  0.2865 -0.2210  0.4219
 1191SOL    HW115206   3.264   2.112   7.076 -0.7429 -0.8155 -0.0650
 1191SOL    HW215207   3.200   2.220   6.997 -0.0968 -0.5849 -1.9678
 1192SOL     OW15208   3.566   2.029   4.533 -0.3983 -0.0569  0.0676
 1192SOL    HW115209   3.476   2.045   4.506  0.1417 -1.4662 -2.5522
 1192SOL    HW215210   3.591   2.100   4.592  2.7578  1.0742 -2.6176
 1193SOL     OW15211   0.848   2.572  12.447 -0.4132  0.3633 -0.3140
 1193SOL    HW115212   0.900   2.514  12.503 -0.7604 -1.9183 -2.3918
 1193SOL    HW215213   0.765   2.558  12.493 -1.6830  1.4653 -2.2863
 1194SOL     OW15214   3.687   1.083  17.291  0.4565 -0.3290  0.3698
 1194SOL    HW115215   3.683   1.030  17.370 -0.4931  0.4484  0.8233
 1194SOL    HW215216   3.778   1.079  17.260  0.9709 -1.6496  2.0961
 1195SOL     OW15217   4.377   2.475   4.882 -0.3013  0.9633  0.0212
 1195SOL    HW115218   4.334   2.556   4.854  0.0387  1.6698  1.5273
 1195SOL    HW215219   4.463   2.513   4.897  0.5572 -1.7325  1.7574
 1196SOL     OW15220   1.195   1.163  16.011  0.4251 -0.0386  0.4869
 1196SOL    HW115221   1.278   1.191  15.972  1.0427 -0.6154  1.3732
 1196SOL    HW215222   1.149   1.246  16.022 -2.2596 -1.8025  2.3862
 1197SOL     OW15223   1.198   1.399  14.044  0.3572  0.0526 -0.0579
 1197SOL    HW115224   1.146   1.411  13.964 -0.9972  1.3825  1.0427
 1197SOL    HW215225   1.158   1.450  14.114  1.1234 -1.1293  1.2385
 1198SOL     OW15226   3.161   2.995   0.689  0.1799 -0.0308  0.2384
 1198SOL    HW115227   3.185   3.085   0.711  0.5458  0.1618 -0.9387
 1198SOL    HW215228   3.067   3.003   0.708 -0.0930  0.1895 -1.2599
 1199SOL     OW15229   1.954   1.309   3.265 -0.0293  0.6223 -0.8239
 1199SOL    HW115230   1.946   1.243   3.334  2.6285 -0.0159 -1.1120
 1199SOL    HW215231   2.032   1.354   3.298 -1.0862  0.2058  2.2088
 1200SOL     OW15232   4.618   0.734   8.330  0.4966 -0.4082 -0.3842
 1200SOL    HW115233   4.604   0.652   8.283  0.7418  0.0774 -1.2956
 1200SOL    HW215234   4.605   0.792   8.255 -0.1091 -0.8985 -0.6536
 1201SOL     OW15235   0.654   1.811   7.576  0.3080 -0.4371 -0.4208
 1201SOL    HW115236   0.652   1.767   7.491  0.3772  0.2682 -0.7848
 1201SOL    HW215237   0.747   1.828   7.594 -0.2189  0.6159  1.3989
 1202SOL     OW15238   4.094   1.300   0.270  0.3535  0.1492 -0.2813
 1202SOL    HW115239   4.100   1.275   0.178  0.7444  0.2146 -0.2738
 1202SOL    HW215240   4.115   1.393   0.259 -0.8427  0.2589 -1.6172
 1203SOL     OW15241   2.737   3.628   7.747  0.4843 -0.2064 -0.4387
 1203SOL    HW115242   2.831   3.615   7.736  0.2594 -0.7013 -1.7383
 1203SOL    HW215243   2.742   3.678   7.829  3.0360  1.1282 -1.4238
 1204SOL     OW15244   3.723   1.650   1.785 -0.1319  0.1085 -0.7350
 1204SOL    HW115245   3.649   1.710   1.777 -0.5721 -0.2710  0.5667
 1204SOL    HW215246   3.782   1.705   1.733  1.1294  0.2138  0.7949
 1205SOL     OW15247   3.908   2.330   3.007 -0.2586  0.4144 -0.2018
 1205SOL    HW115248   3.941   2.291   3.088 -1.1730 -0.2395 -0.1471
 1205SOL    HW215249   3.948   2.416   3.014  0.3928  0.0815  0.2242
 1206SOL     OW15250   4.679   2.183   2.986  0.4348  0.1232 -0.1317
 1206SOL    HW115251   4.600   2.205   3.035  0.9054  1.6938 -0.0703
 1206SOL    HW215252   0.013   2.198   3.049  0.0424  0.0681  0.3193
 1207SOL     OW15253   1.805   2.874  17.340 -0.0072  0.0759 -0.1648
 1207SOL    HW115254   1.789   2.781  17.358  1.5810 -0.0561  0.5469
 1207SOL    HW215255   1.732   2.892  17.281 -1.8857  0.1573  2.1883
 1208SOL     OW15256   0.720   0.362   6.912  0.0469 -0.6199 -0.2636
 1208SOL    HW115257   0.713   0.335   7.004  0.1439  1.1896  0.2777
 1208SOL    HW215258   0.662   0.298   6.872  1.3567 -1.5785 -0.6339
 1209SOL     OW15259   4.689   2.560   0.440 -0.5835 -0.0146  0.1592
 1209SOL    HW115260   4.653   2.551   0.528 -0.3557 -1.7501  0.0814
 1209SOL    HW215261   0.041   2.524   0.452 -0.6979 -0.2273  0.3515
 1210SOL     OW15262   2.875   1.553   1.828 -0.1111 -0.0665 -0.4932
 1210SOL    HW115263   2.967   1.572   1.810 -0.3314  1.4071 -0.0507
 1210SOL    HW215264   2.860   1.493   1.755  1.1207  0.3770 -1.1048
 1211SOL     OW15265   2.891   4.457   7.087  0.9519 -0.0650 -0.6468
 1211SOL    HW115266   2.905   4.438   6.994  0.2714  0.2026 -0.8018
 1211SOL    HW215267   2.798   4.437   7.097  0.7432  0.0916 -2.3666
 1212SOL     OW15268   4.243   1.123   9.013  0.3574 -0.0766  0.4497
 1212SOL    HW115269   4.191   1.159   9.085  0.2930 -1.5617  1.1474
 1212SOL    HW215270   4.334   1.150   9.028  0.3266  0.3492 -0.0978
 1213SOL     OW15271   2.163   0.853  11.630 -0.4399 -0.2735  0.4586
 1213SOL    HW115272   2.184   0.822  11.718 -0.1034  1.3853  0.9760
 1213SOL    HW215273   2.252   0.884  11.611 -0.0745 -1.0035  0.9985
 1214SOL     OW15274   0.648   1.789   4.045  0.1782  0.3537  0.3059
 1214SOL    HW115275   0.728   1.736   4.051  0.8593  1.3816  0.2879
 1214SOL    HW215276   0.615   1.758   3.961  1.6652 -1.9225  0.5477
 1215SOL     OW15277   2.205   0.434   2.079 -0.2803 -0.0957 -0.5413
 1215SOL    HW115278   2.171   0.349   2.107 -2.2798  0.9355  0.1048
 1215SOL    HW215279   2.299   0.417   2.093 -0.6910  0.1324  2.3923
 1216SOL     OW15280   0.920   3.815   6.655  0.6490 -0.6720 -0.0013
 1216SOL    HW115281   0.874   3.731   6.649 -1.0457  0.1241  1.9378
 1216SOL    HW215282   0.934   3.821   6.750  0.6277  0.7849 -0.0810
 1217SOL     OW15283   3.629   1.590  13.821  0.4601 -0.1521  0.0884
 1217SOL    HW115284   3.630   1.675  13.863  0.0384 -0.2300  0.2584
 1217SOL    HW215285   3.650   1.625  13.734 -2.5780  2.9895  0.6499
 1218SOL     OW15286   2.769   2.643   5.761  0.7054  0.2737  0.6261
 1218SOL    HW115287   2.807   2.567   5.718 -2.3135 -1.7426  1.4853
 1218SOL    HW215288   2.807   2.708   5.702 -0.9833  0.3764 -0.3689
 1219SOL     OW15289   2.593   1.324   4.486 -0.8628 -0.0976  0.0325
 1219SOL    HW115290   2.612   1.395   4.425 -1.7824  0.0474 -0.0968
 1219SOL    HW215291   2.509   1.298   4.448  0.5984 -1.8047 -2.0247
 1220SOL     OW15292   2.229   0.084   4.696  0.3508 -0.2857 -0.2005
 1220SOL    HW115293   2.288   0.023   4.652 -1.1714 -2.3839  0.7184
 1220SOL    HW215294   2.198   0.143   4.627  0.8404  0.7024  0.4060
 1221SOL     OW15295   3.919   0.421   2.628 -0.4078  0.4051  0.8253
 1221SOL    HW115296   3.948   0.370   2.703  0.7588  1.2099  0.9254
 1221SOL    HW215297   3.827   0.399   2.620 -0.0406 -0.1131 -1.8732
 1222SOL     OW15298   0.786   0.589   2.679  0.5879  0.7269  0.1623
 1222SOL    HW115299   0.760   0.515   2.733  3.4644 -2.0913 -2.3670
 1222SOL    HW215300   0.746   0.571   2.594 -0.0346  3.1986 -0.0906
 1223SOL     OW15301   4.472   3.857   2.227  0.0109  0.2011  0.3601
 1223SOL    HW115302   4.441   3.940   2.192  1.0814  0.0627 -0.9337
 1223SOL    HW215303   4.478   3.888   2.317 -0.5982  0.7652  0.2087
 1224SOL     OW15304   1.338   4.147   3.850 -0.4555 -0.4234  0.0431
 1224SOL    HW115305   1.304   4.223   3.897  1.1445 -0.9909  2.1021
 1224SOL    HW215306   1.422   4.140   3.895 -1.1595 -0.7360  1.3038
 1225SOL     OW15307   2.341   1.965   1.897 -0.0679 -0.2955 -0.4285
 1225SOL    HW115308   2.385   1.923   1.823 -0.8620 -1.7408 -0.0782
 1225SOL    HW215309   2.255   1.927   1.880  0.7192 -2.3885  0.1340
 1226SOL     OW15310   3.289   1.314   5.463  0.3512 -0.7413  0.5195
 1226SOL    HW115311   3.314   1.301   5.554 -0.0126 -0.9087  0.5933
 1226SOL    HW215312   3.361   1.370   5.435 -1.1512  1.0877  0.3367
 1227SOL     OW15313   4.038   3.983   3.892 -0.6608  0.6125 -0.5151
 1227SOL    HW115314   4.065   4.059   3.840 -1.3299  1.3750  0.2594
 1227SOL    HW215315   4.123   3.939   3.900 -2.1869 -2.3740 -0.7433
 1228SOL     OW15316   0.772   1.366   9.484 -0.0705  0.0860 -0.7108
 1228SOL    HW115317   0.792   1.273   9.489 -1.0146 -0.0879 -0.1071
 1228SOL    HW215318   0.775   1.368   9.389  1.5954 -0.9346 -0.6852
 1229SOL     OW15319   2.741   2.674  14.023  0.6127 -0.2204 -0.0485
 1229SOL    HW115320   2.747   2.768  14.039 -1.5892 -0.2293  0.9307
 1229SOL    HW215321   2.832   2.650  14.009  0.2907 -1.5629  0.1404
 1230SOL     OW15322   2.736   2.040   6.237 -0.4035 -0.4227 -0.3907
 1230SOL    HW115323   2.785   2.017   6.158  0.2533 -1.4995  0.3206
 1230SOL    HW215324   2.691   2.114   6.196  0.9806  0.4194 -0.4229
 1231SOL     OW15325   1.615   4.293   0.697  0.6439 -0.0100 -0.2056
 1231SOL    HW115326   1.598   4.277   0.604 -0.6001  2.5924 -0.4496
 1231SOL    HW215327   1.684   4.228   0.709  0.7193  0.0299 -0.4170
 1232SOL     OW15328   2.404   3.704  10.917 -0.3277  0.3851  0.2202
 1232SOL    HW115329   2.312   3.686  10.899 -0.0610  0.2547 -1.0346
 1232SOL    HW215330   2.448   3.624  10.889 -0.2124  0.6590 -0.3890
 1233SOL     OW15331   2.204   2.391   1.064 -0.3091 -0.3852  0.0603
 1233SOL    HW115332   2.175   2.453   0.997 -1.2781  0.1566  0.9632
 1233SOL    HW215333   2.261   2.334   1.014 -0.1714 -0.1954 -0.0013
 1234SOL     OW15334   2.043   0.471  10.242 -0.6013  0.6504  0.0670
 1234SOL    HW115335   2.010   0.559  10.227  1.1306  1.5731  1.8174
 1234SOL    HW215336   1.985   0.435  10.308  0.3271 -0.6574  0.1732
 1235SOL     OW15337   2.804   2.258   1.572 -0.3980 -0.0504 -0.5020
 1235SOL    HW115338   2.746   2.187   1.544 -1.1128  0.3059  0.0833
 1235SOL    HW215339   2.739   2.328   1.575 -1.0815 -0.7285  0.3801
 1236SOL     OW15340   3.653   0.562  12.290 -0.4936  0.1530  0.6831
 1236SOL    HW115341   3.584   0.498  12.307 -0.9418 -0.0621 -1.9899
 1236SOL    HW215342   3.705   0.497  12.241 -0.8971  1.3462 -1.3166
 1237SOL     OW15343   4.689   3.199   3.892 -0.5467 -0.1007 -0.1847
 1237SOL    HW115344   4.640   3.182   3.973 -0.2761  0.3481  0.0745
 1237SOL    HW215345   4.703   3.294   3.900 -2.2769 -0.0835  2.8951
 1238SOL     OW15346   1.876   3.249  14.074  0.2419  0.7502 -0.3478
 1238SOL    HW115347   1.852   3.337  14.103 -2.9779  0.4645 -2.1384
 1238SOL    HW215348   1.948   3.230  14.134  1.3621  0.0445 -1.9234
 1239SOL     OW15349   0.628   4.144   1.902  0.0181 -0.2465 -0.0701
 1239SOL    HW115350   0.722   4.145   1.922  0.5925  1.1677 -2.8289
 1239SOL    HW215351   0.623   4.085   1.827 -1.4932 -1.4828  1.0190
 1240SOL     OW15352   3.967   0.166  10.104  0.7369 -0.3699 -0.8296
 1240SOL    HW115353   4.004   0.078  10.093  1.3566 -0.2028 -0.0194
 1240SOL    HW215354   4.011   0.209  10.031  1.9611 -0.1630  0.0368
 1241SOL     OW15355   1.805   0.111   5.390 -0.2893 -0.5340  0.4948
 1241SOL    HW115356   1.807   0.088   5.297  4.0422  1.0936  0.1416
 1241SOL    HW215357   1.773   0.028   5.424  1.4584 -1.5675 -0.3850
 1242SOL     OW15358   2.242   1.296   3.610  0.5135  0.0868 -0.2843
 1242SOL    HW115359   2.214   1.206   3.622 -0.8705  0.6518  0.7610
 1242SOL    HW215360   2.318   1.273   3.557  1.4422 -0.7990  1.4390
 1243SOL     OW15361   2.506   3.928   3.077  0.6801  0.8023  0.3100
 1243SOL    HW115362   2.554   3.871   3.017 -0.7306  0.8850 -0.8815
 1243SOL    HW215363   2.451   3.971   3.012  2.2072 -0.5867 -1.8729
 1244SOL     OW15364   1.048   3.665   5.903 -0.5190 -0.2435  0.6643
 1244SOL    HW115365   1.026   3.611   5.979  1.5694 -1.1356  0.6346
 1244SOL    HW215366   1.136   3.630   5.884  0.0509  0.3262  2.2508
 1245SOL     OW15367   2.651   2.309   5.603  0.0644  0.2963  0.3783
 1245SOL    HW115368   2.686   2.300   5.692  2.3391  1.4747 -0.4070
 1245SOL    HW215369   2.564   2.271   5.617 -0.3785  1.1692 -0.0173
 1246SOL     OW15370   4.013   4.433   3.184  0.0188 -0.0047  0.0428
 1246SOL    HW115371   3.917   4.441   3.182  0.4051  4.5430  0.6252
 1246SOL    HW215372   4.037   4.481   3.105 -1.1641  1.3832  0.5140
 1247SOL     OW15373   3.415   3.006   8.671 -0.0897  0.5744  0.1192
 1247SOL    HW115374   3.358   2.977   8.742  1.8912 -1.3352  0.9302
 1247SOL    HW215375   3.378   3.091   8.647  0.2730  1.4163  2.5059
 1248SOL     OW15376   1.461   0.460   2.407  0.3884  0.3276 -0.1082
 1248SOL    HW115377   1.491   0.391   2.466  0.1409  0.4858  0.2018
 1248SOL    HW215378   1.459   0.539   2.461  0.1725 -0.3016  0.8112
 1249SOL     OW15379   4.064   2.577   8.982 -0.3955 -0.0574 -0.1373
 1249SOL    HW115380   4.128   2.554   8.914  1.5674 -0.4632  1.8487
 1249SOL    HW215381   4.112   2.647   9.027  1.2699 -1.3692  0.1545
 1250SOL     OW15382   4.136   2.954   4.388  0.2566 -0.2812  0.2832
 1250SOL    HW115383   4.106   2.964   4.479 -1.0184 -2.4259  0.0931
 1250SOL    HW215384   4.064   2.910   4.343  2.7569 -2.3914 -1.6576
 1251SOL     OW15385   3.648   0.434  12.988 -0.1059  0.5253  0.1504
 1251SOL    HW115386   3.613   0.506  13.041 -3.0065 -1.3048  0.7633
 1251SOL    HW215387   3.578   0.420  12.925  0.5080 -0.5417 -0.3035
 1252SOL     OW15388   1.733   4.355   6.913  0.4012  0.4279 -0.3693
 1252SOL    HW115389   1.672   4.409   6.865  0.4003 -0.8912 -1.8443
 1252SOL    HW215390   1.812   4.381   6.866  3.0696 -1.2854  3.0903
 1253SOL     OW15391   2.592   1.859   6.861  0.1139  0.0149 -0.1323
 1253SOL    HW115392   2.537   1.807   6.801 -1.2057 -0.6395  1.6351
 1253SOL    HW215393   2.654   1.886   6.793 -0.0581  3.0513  0.9335
 1254SOL     OW15394   0.112   3.666   8.512  0.2556  0.1351  0.1584
 1254SOL    HW115395   0.158   3.689   8.432 -2.3001  0.8391 -1.1058
 1254SOL    HW215396   0.158   3.587   8.540 -0.4630 -0.7293 -1.1178
 1255SOL     OW15397   2.258   4.047   4.102 -0.3533  0.2173 -0.0929
 1255SOL    HW115398   2.275   4.137   4.077  0.2966  0.2360  0.4353
 1255SOL    HW215399   2.251   4.002   4.017 -1.5927  0.3253 -0.0609
 1256SOL     OW15400   3.967   3.684  10.923 -0.3035  0.7015  0.0712
 1256SOL    HW115401   4.044   3.696  10.868 -0.3114  1.7240  0.2913
 1256SOL    HW215402   4.004   3.644  11.002  1.2053  0.9584 -0.5065
 1257SOL     OW15403   4.143   0.032   5.040  0.4641 -0.4566  0.0224
 1257SOL    HW115404   4.111   0.064   4.956  0.2765 -0.4710  0.0878
 1257SOL    HW215405   4.128   0.107   5.098 -0.0359 -0.2601 -0.3563
 1258SOL     OW15406   2.845   2.162   2.225  0.3588 -0.0363 -0.0069
 1258SOL    HW115407   2.816   2.237   2.276  0.3546  0.5263 -0.8410
 1258SOL    HW215408   2.859   2.200   2.139 -0.7123  0.3326 -0.0251
 1259SOL     OW15409   0.046   3.106  16.717 -0.2055 -0.7051 -0.4221
 1259SOL    HW115410   0.029   3.015  16.740 -1.1649 -0.5501 -0.5579
 1259SOL    HW215411   4.711   3.156  16.757  0.2643 -0.9892  0.7828
 1260SOL     OW15412   4.490   4.461  11.109  0.1336 -0.2154  0.3757
 1260SOL    HW115413   4.581   4.439  11.131  0.4084 -2.0798 -2.6276
 1260SOL    HW215414   4.494   4.556  11.101  1.4700 -0.4925 -2.0788
 1261SOL     OW15415   0.766   4.258  11.145 -0.5818 -0.0173  0.5611
 1261SOL    HW115416   0.687   4.295  11.106 -1.7534  0.7404  3.6616
 1261SOL    HW215417   0.731   4.202  11.214 -1.0619 -1.0088 -0.4904
 1262SOL     OW15418   4.678   0.020   2.235 -0.0015  0.3789  0.0245
 1262SOL    HW115419   4.720   4.736   2.319 -0.3439 -0.7639 -0.0780
 1262SOL    HW215420   4.735   4.715   2.170 -0.2543 -0.7853  0.5430
 1263SOL     OW15421   1.213   0.455  13.422 -0.2665 -0.2596 -0.2290
 1263SOL    HW115422   1.208   0.456  13.518 -0.2759  1.6499 -0.2361
 1263SOL    HW215423   1.295   0.498  13.397 -0.3612 -0.5650 -1.0420
 1264SOL     OW15424   4.105   3.209   6.878  0.2668 -0.2457 -0.0192
 1264SOL    HW115425   4.187   3.200   6.928 -0.2602 -0.4539  0.8105
 1264SOL    HW215426   4.145   3.236   6.796 -0.2202 -0.2565 -0.2592
 1265SOL     OW15427   2.330   1.297  12.019 -0.7356 -0.6869 -0.4590
 1265SOL    HW115428   2.269   1.320  11.949 -1.8345 -0.9751  0.4035
 1265SOL    HW215429   2.393   1.369  12.016 -2.9806  1.3189  0.2280
 1266SOL     OW15430   2.373   1.348   8.306  0.1673 -0.3693 -0.0529
 1266SOL    HW115431   2.380   1.424   8.248 -0.2246 -0.9125 -0.8027
 1266SOL    HW215432   2.446   1.361   8.367  1.6336 -2.3070 -1.4057
 1267SOL     OW15433   1.332   4.647   5.363  0.4342 -0.0080 -0.2542
 1267SOL    HW115434   1.298   4.691   5.441  0.4757 -1.0296  0.3412
 1267SOL    HW215435   1.252   4.599   5.343  0.0894  0.5872 -0.2987
 1268SOL     OW15436   3.156   1.892   6.235 -0.1921 -0.2864  0.5215
 1268SOL    HW115437   3.109   1.850   6.163  2.3139 -1.2179 -0.5536
 1268SOL    HW215438   3.120   1.858   6.317  1.8284 -2.0054  0.7052
 1269SOL     OW15439   0.035   3.407  11.169 -0.0415  0.0881  0.1647
 1269SOL    HW115440   0.009   3.499  11.182  1.8922  1.0013 -2.5041
 1269SOL    HW215441   4.731   3.361  11.243 -1.6499 -0.3406 -0.9852
 1270SOL     OW15442   3.563   0.110  16.938 -0.1253 -0.2980  0.7925
 1270SOL    HW115443   3.644   0.120  16.987  1.8153 -3.0122 -1.8630
 1270SOL    HW215444   3.522   0.032  16.976 -0.0546 -0.1991  1.0730
 1271SOL     OW15445   4.276   2.175  13.026  0.1248  0.4579 -0.6034
 1271SOL    HW115446   4.281   2.270  13.035 -0.1252  0.6611 -2.6680
 1271SOL    HW215447   4.294   2.149  13.116 -2.4739 -3.8599 -1.3169
 1272SOL     OW15448   1.986   1.133   8.971 -0.1639  0.0753 -0.4218
 1272SOL    HW115449   2.056   1.153   9.033  0.6799  0.7992 -1.6198
 1272SOL    HW215450   1.947   1.058   9.017  1.2450  0.1926  0.9774
 1273SOL     OW15451   4.419   2.507   8.155  0.1213  0.0932  0.0688
 1273SOL    HW115452   4.454   2.593   8.175 -2.9128  1.7839 -1.8002
 1273SOL    HW215453   4.378   2.478   8.237  2.0317  0.6653  1.2192
 1274SOL     OW15454   2.541   0.072   5.380  0.5175  0.7566  0.3932
 1274SOL    HW115455   2.549   0.128   5.456 -0.9998  0.9644  0.4085
 1274SOL    HW215456   2.542   0.132   5.306 -0.7973  1.2528  0.7836
 1275SOL     OW15457   3.616   1.230   7.699  0.0947 -0.3435 -0.5012
 1275SOL    HW115458   3.586   1.321   7.703 -1.4296 -0.7807 -1.9878
 1275SOL    HW215459   3.710   1.229   7.682  0.4843  0.7625  1.5827
 1276SOL     OW15460   1.724   3.471   0.810 -0.1304 -0.6775 -0.3133
 1276SOL    HW115461   1.793   3.407   0.826 -0.0608 -1.2012 -2.6844
 1276SOL    HW215462   1.662   3.447   0.878 -2.8925  0.3614 -2.4486
 1277SOL     OW15463   3.087   1.043   1.476 -0.1096  0.2406 -0.1868
 1277SOL    HW115464   3.095   0.982   1.550  0.9238  1.5153  0.7431
 1277SOL    HW215465   3.178   1.074   1.472 -0.7314  1.7765 -2.3628
 1278SOL     OW15466   1.068   3.640   7.929  0.0644  0.1534 -0.2007
 1278SOL    HW115467   1.044   3.731   7.945 -1.4709 -0.3133  0.0693
 1278SOL    HW215468   0.982   3.607   7.905 -0.6375  0.2538  2.2456
 1279SOL     OW15469   0.171   4.612   3.320  0.2916  0.0394 -0.3613
 1279SOL    HW115470   0.136   4.523   3.316  1.0790 -0.2265 -1.4512
 1279SOL    HW215471   0.179   4.639   3.229 -2.1481 -0.8173 -0.8324
 1280SOL     OW15472   1.095   3.593  17.666 -0.3165  0.8048 -0.0132
 1280SOL    HW115473   1.060   3.579  17.578  0.6875 -1.6708 -0.0373
 1280SOL    HW215474   1.175   3.540  17.657 -1.7018 -1.2019 -0.5370
 1281SOL     OW15475   4.376   0.830   4.172  0.4576  0.0969 -0.3908
 1281SOL    HW115476   4.378   0.885   4.094  0.2757 -0.3226 -0.6923
 1281SOL    HW215477   4.464   0.846   4.206  0.7205 -0.0494 -1.0067
 1282SOL     OW15478   3.992   3.293   6.024 -0.3589  0.3802  0.0688
 1282SOL    HW115479   3.961   3.249   6.103 -3.4122  0.8738 -0.8828
 1282SOL    HW215480   3.950   3.247   5.951  1.1419  0.3413 -0.7785
 1283SOL     OW15481   3.588   2.120   9.259  0.1277  0.3961 -0.7915
 1283SOL    HW115482   3.628   2.132   9.345 -2.1599 -0.0066  0.3517
 1283SOL    HW215483   3.631   2.039   9.231  0.7920  0.5124 -0.1141
 1284SOL     OW15484   3.796   2.781   2.090 -0.7283 -0.5723 -0.3085
 1284SOL    HW115485   3.850   2.785   2.169 -2.4928  3.5008  0.7040
 1284SOL    HW215486   3.727   2.840   2.121 -0.8574 -0.4090 -0.8999
 1285SOL     OW15487   1.906   1.884   7.249 -0.0159 -0.0372  0.1163
 1285SOL    HW115488   1.858   1.839   7.318 -0.6163 -2.1356 -1.6364
 1285SOL    HW215489   1.906   1.976   7.273 -0.8069  0.4677 -1.7562
 1286SOL     OW15490   3.418   4.666  11.692 -0.2279 -0.2957 -0.1228
 1286SOL    HW115491   3.422   0.018  11.729  0.2796 -0.1482 -0.5313
 1286SOL    HW215492   3.513   4.664  11.679 -0.1688 -1.1333  0.4653
 1287SOL     OW15493   3.161   3.066   6.005  0.3729  0.1578 -0.6055
 1287SOL    HW115494   3.201   3.152   6.017  1.3073 -0.5364  1.3535
 1287SOL    HW215495   3.213   3.038   5.930  0.5172 -0.6458 -0.2171
 1288SOL     OW15496   1.098   1.584   2.388  0.0168  0.3708 -0.0557
 1288SOL    HW115497   1.157   1.531   2.336  1.4478  1.5367  0.3953
 1288SOL    HW215498   1.037   1.518   2.421  1.8155 -1.9237 -1.3316
 1289SOL     OW15499   3.267   2.263   8.553 -0.5453  0.1329  0.3772
 1289SOL    HW115500   3.319   2.236   8.629  2.0548 -0.1446 -1.4638
 1289SOL    HW215501   3.299   2.208   8.481 -1.9808  0.2195 -0.3162
 1290SOL     OW15502   1.383   3.293   4.042  0.2560  0.2363  0.1550
 1290SOL    HW115503   1.339   3.304   3.958  1.6326  0.9874 -0.4705
 1290SOL    HW215504   1.465   3.256   4.008  0.0496  0.9660 -1.1681
 1291SOL     OW15505   1.802   1.668   3.529 -0.3074  0.5082  0.8083
 1291SOL    HW115506   1.880   1.627   3.565  0.7063  1.5156 -0.2529
 1291SOL    HW215507   1.792   1.624   3.445  2.0015 -1.0142  1.3180
 1292SOL     OW15508   0.016   1.532  10.569  0.4865 -0.7729 -0.1189
 1292SOL    HW115509   0.015   1.591  10.644  1.6059 -1.0038  0.0679
 1292SOL    HW215510   4.671   1.485  10.589 -1.1559  2.4366  0.7362
 1293SOL     OW15511   4.073   2.492   8.695  0.0054 -0.3301 -0.5898
 1293SOL    HW115512   4.102   2.408   8.731  2.0086 -0.1442 -1.7928
 1293SOL    HW215513   4.094   2.495   8.602 -1.3897 -1.8612 -0.9636
 1294SOL     OW15514   0.880   3.419   9.413  0.2114  0.5565 -0.7796
 1294SOL    HW115515   0.847   3.496   9.458 -0.7346 -0.5029  0.3395
 1294SOL    HW215516   0.935   3.465   9.349  0.2575 -1.3221 -2.1097
 1295SOL     OW15517   3.527   3.710   5.085  0.3074  0.6119 -0.1364
 1295SOL    HW115518   3.474   3.715   5.006 -0.4434  1.1580  0.4032
 1295SOL    HW215519   3.543   3.795   5.126 -0.1544  0.7598 -0.2692
 1296SOL     OW15520   0.971   1.351   5.526  0.3434  0.2474  0.7915
 1296SOL    HW115521   0.890   1.402   5.525 -1.3030 -2.4064 -0.8652
 1296SOL    HW215522   0.950   1.294   5.452 -1.1818  2.1044 -0.2007
 1297SOL     OW15523   1.101   0.583  14.407 -1.4223  0.6746  0.0206
 1297SOL    HW115524   1.026   0.524  14.417  0.3277 -1.6868 -0.6949
 1297SOL    HW215525   1.058   0.662  14.376 -0.6330  0.6643 -1.0965
 1298SOL     OW15526   3.815   2.440   9.021 -0.3841  0.0355 -0.1394
 1298SOL    HW115527   3.898   2.481   9.043 -0.8556  0.0809  1.5267
 1298SOL    HW215528   3.766   2.453   9.102 -3.2840  1.3441 -2.1204
 1299SOL     OW15529   3.987   1.984   3.392 -0.3198 -0.0917  0.1432
 1299SOL    HW115530   4.018   1.903   3.352 -1.6078  0.5124 -2.0877
 1299SOL    HW215531   3.914   1.957   3.449 -0.9005  0.9801 -0.1044
 1300SOL     OW15532   1.513   3.517   3.084  0.0937 -0.1135 -0.2228
 1300SOL    HW115533   1.511   3.445   3.147  0.0846 -0.1190 -0.2294
 1300SOL    HW215534   1.606   3.540   3.080  0.2587 -0.3241  2.5270
 1301SOL     OW15535   1.785   2.820   1.105 -0.1491 -0.0586  0.0261
 1301SOL    HW115536   1.732   2.744   1.079  0.4088 -0.0199 -1.1946
 1301SOL    HW215537   1.841   2.776   1.169  0.7534 -2.1705 -2.2335
 1302SOL     OW15538   2.628   0.363   4.159 -0.3724 -0.1578 -0.2683
 1302SOL    HW115539   2.673   0.441   4.127  3.0227 -1.8029  0.5119
 1302SOL    HW215540   2.619   0.395   4.249  0.7922 -0.6130  0.0070
 1303SOL     OW15541   3.556   1.744   8.435  0.7169 -0.1546  0.0895
 1303SOL    HW115542   3.551   1.839   8.440  1.1533 -0.2123  1.4491
 1303SOL    HW215543   3.612   1.736   8.357  0.7174  1.4148 -0.0548
 1304SOL     OW15544   3.526   2.830   7.888 -0.0754  0.1612  0.3428
 1304SOL    HW115545   3.470   2.781   7.827  0.9884  1.4805 -1.7208
 1304SOL    HW215546   3.462   2.844   7.957 -0.3617 -2.2499  0.5671
 1305SOL     OW15547   1.355   1.418   7.778 -0.2288 -0.4930 -0.3334
 1305SOL    HW115548   1.326   1.348   7.836  0.6113  0.0561  0.7340
 1305SOL    HW215549   1.300   1.408   7.699  0.3636 -0.1762 -0.7871
 1306SOL     OW15550   1.824   4.446   3.900 -0.0234 -0.0376 -0.3263
 1306SOL    HW115551   1.732   4.423   3.908  0.1207 -0.7969 -0.8761
 1306SOL    HW215552   1.819   4.541   3.909 -2.3659 -0.1596 -0.4424
 1307SOL     OW15553   2.349   2.885   3.680  0.4225 -0.4138 -0.1774
 1307SOL    HW115554   2.390   2.802   3.655  1.6526  0.1485 -0.0104
 1307SOL    HW215555   2.409   2.947   3.638 -1.1036  1.1406 -0.0635
 1308SOL     OW15556   4.690   1.766  12.905  0.2532 -0.9480 -0.1261
 1308SOL    HW115557   4.601   1.796  12.922  0.3919 -0.1747 -0.7792
 1308SOL    HW215558   4.731   1.791  12.988 -0.1008  0.5531 -0.4171
 1309SOL     OW15559   1.108   2.380   1.490  0.1183  0.1041 -0.0041
 1309SOL    HW115560   1.033   2.395   1.547 -0.5546  0.5844 -1.0201
 1309SOL    HW215561   1.140   2.291   1.506  2.4570  0.6424 -1.6671
 1310SOL     OW15562   3.853   4.726   3.375  0.8598  0.1559 -0.1285
 1310SOL    HW115563   3.947   4.731   3.393  0.8842 -0.5145 -0.0546
 1310SOL    HW215564   3.838   4.640   3.414 -1.0026  0.6774  0.2827
 1311SOL     OW15565   1.333   4.175   6.217 -0.4904  0.2817 -0.2757
 1311SOL    HW115566   1.350   4.107   6.282 -0.4312  1.2920  0.7493
 1311SOL    HW215567   1.266   4.130   6.167  0.9657 -3.7323  1.3787
 1312SOL     OW15568   3.378   1.438   3.888  0.0208 -0.1541  0.0406
 1312SOL    HW115569   3.451   1.377   3.897 -1.6705 -2.1140  0.4625
 1312SOL    HW215570   3.402   1.498   3.818  2.3710  0.4594  1.3823
 1313SOL     OW15571   4.718   0.703   9.589 -1.0384 -0.3143 -0.1647
 1313SOL    HW115572   4.723   0.626   9.532 -1.7667 -0.7689  0.3883
 1313SOL    HW215573   4.634   0.685   9.630 -0.1210 -0.4312  1.6593
 1314SOL     OW15574   4.555   2.410   9.620  0.3558  0.1366  0.0245
 1314SOL    HW115575   4.618   2.344   9.647  2.6420  0.0115 -5.5039
 1314SOL    HW215576   4.593   2.490   9.657  0.3086  0.3020 -0.2843
 1315SOL     OW15577   3.014   0.211  10.450  0.2588 -0.0106  0.2459
 1315SOL    HW115578   3.073   0.238  10.520 -1.2231 -0.4046  1.6250
 1315SOL    HW215579   3.032   0.266  10.373  0.1685 -0.6311 -0.2207
 1316SOL     OW15580   3.422   3.214   2.740  1.2033  0.2898 -0.2349
 1316SOL    HW115581   3.479   3.212   2.817  1.2335 -2.1554 -0.3080
 1316SOL    HW215582   3.422   3.310   2.742 -0.2455  0.2380  2.0489
 1317SOL     OW15583   3.415   3.550   7.022 -0.1373  0.3875  0.3812
 1317SOL    HW115584   3.501   3.518   6.996  0.7239  2.4761  0.6440
 1317SOL    HW215585   3.359   3.478   6.995 -0.3563  0.9191 -0.5805
 1318SOL     OW15586   3.115   0.494   2.532 -0.3387 -0.2596 -0.2734
 1318SOL    HW115587   3.090   0.483   2.624 -0.8996  1.5163 -0.2131
 1318SOL    HW215588   3.106   0.589   2.526  0.6557  0.0357  2.5668
 1319SOL     OW15589   2.088   1.671   4.465 -0.1599  0.3798  0.5162
 1319SOL    HW115590   2.060   1.745   4.519  1.5696  1.7886 -0.5314
 1319SOL    HW215591   2.113   1.714   4.384 -2.8043 -1.3704 -1.2321
 1320SOL     OW15592   3.283   1.710   8.472  0.1968 -0.6203 -0.6443
 1320SOL    HW115593   3.270   1.749   8.559  1.1462 -0.5760 -0.5284
 1320SOL    HW215594   3.377   1.705   8.454 -0.1489 -1.3857 -2.2213
 1321SOL     OW15595   3.278   2.706   2.876 -0.3592  0.1556 -0.0621
 1321SOL    HW115596   3.264   2.739   2.787 -0.3682  0.3465  0.0088
 1321SOL    HW215597   3.358   2.657   2.857 -1.8538 -1.8501 -1.2552
 1322SOL     OW15598   1.836   1.619   2.974 -0.0975  0.4125 -0.1159
 1322SOL    HW115599   1.879   1.704   2.968  2.0805 -0.7020 -0.3394
 1322SOL    HW215600   1.913   1.576   2.937  0.2411 -0.6029  1.8027
 1323SOL     OW15601   1.557   4.135  17.442  0.3212  0.2283 -0.2637
 1323SOL    HW115602   1.478   4.095  17.479  1.0309  1.3766  2.5403
 1323SOL    HW215603   1.576   4.202  17.508  1.4483  1.1021 -1.4808
 1324SOL     OW15604   0.613   0.288   0.105 -0.3370 -0.3576  0.2149
 1324SOL    HW115605   0.616   0.227   0.179  2.4294 -0.7765 -0.2452
 1324SOL    HW215606   0.622   0.217   0.041 -1.3456 -1.7495  1.6097
 1325SOL     OW15607   3.960   3.629   7.271  0.0271 -0.0310  0.1727
 1325SOL    HW115608   3.990   3.553   7.321 -0.0480  1.3643  2.3116
 1325SOL    HW215609   3.869   3.599   7.267  0.1411 -0.3014 -0.4791
 1326SOL     OW15610   3.612   3.924   5.239  0.4951 -0.0557 -0.3307
 1326SOL    HW115611   3.579   3.878   5.316 -3.6456 -0.8342 -2.5517
 1326SOL    HW215612   3.682   3.976   5.278 -0.5515 -0.2414  1.8164
 1327SOL     OW15613   3.317   0.697   3.050 -0.3601 -0.4648  0.5047
 1327SOL    HW115614   3.412   0.685   3.049 -0.5164 -1.7019  1.2049
 1327SOL    HW215615   3.286   0.637   3.117 -0.4424 -1.4401 -0.4090
 1328SOL     OW15616   1.418   1.734   5.938  0.2041 -0.2821  0.6196
 1328SOL    HW115617   1.413   1.803   5.873  2.2777  0.3335  1.1181
 1328SOL    HW215618   1.353   1.766   6.000 -1.2489 -0.6307 -0.7323
 1329SOL     OW15619   3.635   0.855   5.776  0.2035  0.2245  0.2274
 1329SOL    HW115620   3.557   0.909   5.771 -0.8201 -1.2297  0.5404
 1329SOL    HW215621   3.626   0.805   5.694 -4.8218 -0.3196  1.1089
 1330SOL     OW15622   2.064   2.964   8.986  0.1629 -0.2691 -0.5277
 1330SOL    HW115623   1.989   3.004   8.942 -0.2732 -2.5083 -1.8430
 1330SOL    HW215624   2.031   2.962   9.076 -2.1097  0.0735 -1.3419
 1331SOL     OW15625   3.113   1.462   5.275  0.5821 -0.7916  0.6599
 1331SOL    HW115626   3.164   1.407   5.335  0.8539 -1.3095 -0.0452
 1331SOL    HW215627   3.052   1.396   5.244  1.0665 -1.6479  1.5389
 1332SOL     OW15628   1.486   3.720   7.290  0.3197  0.0251  0.9948
 1332SOL    HW115629   1.529   3.783   7.231  0.5510 -1.3416 -0.3081
 1332SOL    HW215630   1.551   3.712   7.359  1.4805 -0.7483 -0.1900
 1333SOL     OW15631   2.550   4.085   5.425  0.3423 -0.2308  0.2112
 1333SOL    HW115632   2.471   4.119   5.382  1.9216  1.1965 -1.5845
 1333SOL    HW215633   2.620   4.103   5.362 -1.0554  1.8199 -0.7686
 1334SOL     OW15634   1.466   0.552  13.410 -0.2290  0.3039  0.0528
 1334SOL    HW115635   1.544   0.502  13.385  0.4354  0.6923  1.3551
 1334SOL    HW215636   1.519   0.624  13.444  0.5825  0.4997 -1.6174
 1335SOL     OW15637   0.089   4.016  12.351 -0.0674  0.2275 -0.0571
 1335SOL    HW115638   0.177   3.978  12.344 -1.6672 -3.0111 -2.6309
 1335SOL    HW215639   0.116   4.100  12.388 -1.3922 -0.0272  1.4967
 1336SOL     OW15640   3.328   2.039   6.596 -0.5766  0.3671  0.0141
 1336SOL    HW115641   3.336   2.126   6.637  0.2768 -0.8675  2.4763
 1336SOL    HW215642   3.418   2.008   6.600 -1.0006 -0.6225  1.8607
 1337SOL     OW15643   3.108   4.704   2.417 -0.2235 -0.1215  0.2926
 1337SOL    HW115644   3.023   4.715   2.460  0.1476 -1.0394  1.2694
 1337SOL    HW215645   3.149   0.052   2.438  1.8507 -1.0383 -0.1034
 1338SOL     OW15646   4.380   0.492  15.630  0.4009  0.2825 -0.2308
 1338SOL    HW115647   4.387   0.447  15.546  0.9978  1.9568 -1.0918
 1338SOL    HW215648   4.350   0.579  15.602 -2.1507 -0.6425 -0.3213
 1339SOL     OW15649   2.792   1.888   6.670  0.1969  0.7810  0.4925
 1339SOL    HW115650   2.817   1.801   6.641  0.5804  1.7681 -2.1715
 1339SOL    HW215651   2.821   1.940   6.595  0.3508  1.2897  0.9013
 1340SOL     OW15652   0.655   0.511  16.347  0.0280  0.0318  0.4538
 1340SOL    HW115653   0.564   0.525  16.371  0.7622  1.6946  2.3137
 1340SOL    HW215654   0.681   0.441  16.407 -0.4255 -1.8992 -1.6374
 1341SOL     OW15655   0.174   3.033   9.082  0.3368  0.2681 -0.2144
 1341SOL    HW115656   0.252   3.085   9.100 -0.0341  0.2116  1.5516
 1341SOL    HW215657   0.123   3.093   9.027 -0.4612 -0.4384 -0.2490
 1342SOL     OW15658   0.413   2.546   6.436  0.1229  0.0101  0.5324
 1342SOL    HW115659   0.371   2.609   6.494  0.0603 -1.1053  1.7057
 1342SOL    HW215660   0.411   2.466   6.490 -1.2148 -1.6686 -1.9987
 1343SOL     OW15661   4.329   1.419   8.200 -0.2281  0.0997 -0.5757
 1343SOL    HW115662   4.409   1.423   8.148 -0.4129  0.8141 -0.8091
 1343SOL    HW215663   4.324   1.514   8.208  2.4483  0.0479  1.7121
 1344SOL     OW15664   3.638   0.766  16.929  0.2751  0.3401 -0.4581
 1344SOL    HW115665   3.594   0.758  17.014 -2.1531 -0.4479 -1.7751
 1344SOL    HW215666   3.730   0.761  16.953  0.0226 -0.5341  0.3238
 1345SOL     OW15667   3.150   1.840  10.084 -0.1587 -0.1163 -0.0961
 1345SOL    HW115668   3.184   1.877  10.165 -0.0553 -2.2296  0.8325
 1345SOL    HW215669   3.083   1.790  10.131  0.8992 -1.4006  0.0579
 1346SOL     OW15670   2.815   1.521   5.065  0.0182 -0.0601 -0.1491
 1346SOL    HW115671   2.777   1.528   5.152  1.9787  3.3254  0.4262
 1346SOL    HW215672   2.868   1.444   5.086  0.5715  0.5247  0.5456
 1347SOL     OW15673   0.291   1.255   6.327 -0.2487  0.1150 -0.3424
 1347SOL    HW115674   0.324   1.332   6.282  0.1844 -0.2995 -0.7396
 1347SOL    HW215675   0.317   1.177   6.278 -0.2649  0.3552 -0.7346
 1348SOL     OW15676   3.628   1.363  16.911  0.1858  0.3461 -0.1688
 1348SOL    HW115677   3.532   1.368  16.903  0.3429 -0.5858 -2.4089
 1348SOL    HW215678   3.654   1.320  16.830 -1.0440 -2.4884  0.9679
 1349SOL     OW15679   0.106   3.544  13.187 -0.1386 -0.1737 -0.9727
 1349SOL    HW115680   0.032   3.484  13.184 -0.9824  0.9464 -2.6046
 1349SOL    HW215681   0.175   3.502  13.136  0.1843  0.7016 -1.2636
 1350SOL     OW15682   2.924   0.187   0.846  0.0831 -0.3709 -0.6288
 1350SOL    HW115683   2.920   0.123   0.917 -4.1967 -0.0912 -0.6040
 1350SOL    HW215684   3.018   0.199   0.836  0.5904 -1.2190  3.1294
 1351SOL     OW15685   0.130   0.529  13.088 -0.3366  0.2148 -0.2950
 1351SOL    HW115686   0.037   0.517  13.105  0.1401  0.0338  2.1689
 1351SOL    HW215687   0.136   0.546  12.994 -0.1425 -0.6487 -0.4375
 1352SOL     OW15688   3.929   1.269  10.168 -0.1390  0.1646 -0.0444
 1352SOL    HW115689   4.004   1.319  10.136  0.8455 -0.8893  0.6207
 1352SOL    HW215690   3.948   1.273  10.262  0.6105  0.3882 -0.1988
 1353SOL     OW15691   0.309   2.583  16.637 -0.1044  0.2383  0.2592
 1353SOL    HW115692   0.401   2.594  16.660  0.1993 -2.0637  0.1668
 1353SOL    HW215693   0.289   2.490  16.623  0.4546  0.0219  0.9128
 1354SOL     OW15694   3.093   2.252   9.520 -0.4292  0.3464 -0.2199
 1354SOL    HW115695   3.088   2.256   9.616  0.0301 -2.2409 -0.0942
 1354SOL    HW215696   3.023   2.316   9.503 -0.1163  1.0571  1.1851
 1355SOL     OW15697   0.499   1.503   5.892 -0.4313 -0.3017  0.0437
 1355SOL    HW115698   0.482   1.591   5.857 -0.9561  0.2376  1.6688
 1355SOL    HW215699   0.418   1.483   5.938 -1.0653  1.4297 -0.2968
 1356SOL     OW15700   2.373   2.306   0.849  0.1205 -0.5713 -0.0286
 1356SOL    HW115701   2.456   2.268   0.821  0.1875 -1.1045  0.8994
 1356SOL    HW215702   2.313   2.235   0.826 -0.4758  0.4010 -1.5199
 1357SOL     OW15703   2.250   2.757   2.866  0.0140 -0.4548  0.0651
 1357SOL    HW115704   2.218   2.810   2.793 -0.0416  0.6973  0.9356
 1357SOL    HW215705   2.166   2.711   2.871 -0.6217  0.6655 -0.4089
 1358SOL     OW15706   4.500   3.276  13.890  0.8181  0.7038 -0.3398
 1358SOL    HW115707   4.483   3.364  13.854  0.4556  0.9467  0.4139
 1358SOL    HW215708   4.594   3.278  13.908  0.5416 -0.5185  1.2002
 1359SOL     OW15709   1.063   3.161   3.750 -0.2759 -0.9614  0.1601
 1359SOL    HW115710   1.151   3.199   3.753 -0.5431 -0.3515  0.4304
 1359SOL    HW215711   1.023   3.237   3.793  0.7556  0.7197 -1.8428
 1360SOL     OW15712   3.730   1.252   7.262  0.1977 -0.0247 -0.2523
 1360SOL    HW115713   3.767   1.213   7.341 -1.6653  1.5580  1.3769
 1360SOL    HW215714   3.778   1.209   7.190  3.4397  3.0291  0.0642
 1361SOL     OW15715   2.704   4.409   7.648  0.6188 -0.5179 -0.1177
 1361SOL    HW115716   2.783   4.398   7.594 -0.3232 -1.3855 -1.3172
 1361SOL    HW215717   2.637   4.347   7.619 -1.0448  0.7538  1.0454
 1362SOL     OW15718   2.733   3.259   5.333  0.3300 -0.8679 -0.2120
 1362SOL    HW115719   2.683   3.187   5.294  1.2334 -1.6734  0.0957
 1362SOL    HW215720   2.783   3.292   5.258 -0.7712 -0.1330 -0.6183
 1363SOL     OW15721   4.690   1.651   6.345  0.0259  0.3653  0.0609
 1363SOL    HW115722   4.728   1.574   6.388 -0.1437 -0.6126 -1.5298
 1363SOL    HW215723   4.596   1.642   6.362 -0.1063 -1.7611 -1.7939
 1364SOL     OW15724   1.911   3.938   6.847 -0.1536  0.4100  0.7851
 1364SOL    HW115725   1.993   3.961   6.892  0.8694 -1.5870 -0.0787
 1364SOL    HW215726   1.853   3.987   6.905  0.3096 -0.4276  1.9548
 1365SOL     OW15727   4.186   0.149   7.818  0.6142 -0.1763  0.8269
 1365SOL    HW115728   4.112   0.117   7.869  0.6317 -0.7976  0.4705
 1365SOL    HW215729   4.233   0.210   7.875  1.5303 -1.1271  1.0851
 1366SOL     OW15730   3.122   3.537  17.074 -0.0374 -0.7169 -0.3015
 1366SOL    HW115731   3.150   3.536  17.166  0.4549 -2.5732 -0.4734
 1366SOL    HW215732   3.131   3.631  17.058 -1.2814 -0.7801 -1.2811
 1367SOL     OW15733   0.449   0.766  11.873  0.1530  0.0875  0.6499
 1367SOL    HW115734   0.538   0.780  11.839 -0.2224 -0.2263 -0.4576
 1367SOL    HW215735   0.457   0.771  11.969 -0.5464  2.0465  0.6194
 1368SOL     OW15736   0.153   3.817   6.802  0.1448  0.6463  0.2383
 1368SOL    HW115737   0.072   3.784   6.764  0.0418 -0.8066  1.6828
 1368SOL    HW215738   0.126   3.905   6.829 -2.4496 -0.4772  1.4120
 1369SOL     OW15739   0.499   1.568   6.443 -0.1765 -0.2864 -0.3143
 1369SOL    HW115740   0.469   1.650   6.484  1.4447  0.7921 -1.3255
 1369SOL    HW215741   0.531   1.520   6.520  3.3098  0.7634 -1.1262
 1370SOL     OW15742   3.551   4.637  17.322 -0.7929  0.5643  0.1240
 1370SOL    HW115743   3.513   4.551  17.341 -0.2281  0.0672 -0.9934
 1370SOL    HW215744   3.481   4.696  17.348 -2.8695 -2.0477  0.3883
 1371SOL     OW15745   0.467   0.973   5.369  0.2588 -0.4136 -0.2938
 1371SOL    HW115746   0.504   1.061   5.378 -1.0018  0.1833 -0.8905
 1371SOL    HW215747   0.377   1.002   5.353 -0.2411 -1.9025 -0.1587
 1372SOL     OW15748   1.812   1.897   6.103 -0.3267  0.2229  0.5476
 1372SOL    HW115749   1.906   1.882   6.093 -0.6696  1.2083 -4.4356
 1372SOL    HW215750   1.774   1.812   6.084 -1.2062  1.1246 -1.8351
 1373SOL     OW15751   2.287   2.940   8.507 -0.1427 -0.3516 -0.0819
 1373SOL    HW115752   2.236   2.914   8.584  1.5463 -0.4323  1.0097
 1373SOL    HW215753   2.216   2.942   8.442 -0.7081 -0.6414  0.5297
 1374SOL     OW15754   4.148   0.591  11.220  0.0565 -0.6020 -0.3844
 1374SOL    HW115755   4.117   0.679  11.204 -1.0102 -0.7585  0.8248
 1374SOL    HW215756   4.192   0.602  11.305 -1.9965  0.0932  0.6001
 1375SOL     OW15757   1.873   3.129   4.131  0.3580 -0.0004  0.4321
 1375SOL    HW115758   1.903   3.047   4.169  0.0738 -0.7871 -1.0463
 1375SOL    HW215759   1.950   3.146   4.077  1.4580 -1.9342  1.3792
 1376SOL     OW15760   3.826   3.220   5.307 -0.1247  0.4881 -0.0845
 1376SOL    HW115761   3.743   3.191   5.269  0.3422 -0.6762 -0.2070
 1376SOL    HW215762   3.879   3.192   5.233  0.0517  0.5700  0.0109
 1377SOL     OW15763   4.510   0.147   0.613  0.2242  0.3622 -0.7896
 1377SOL    HW115764   4.538   0.083   0.678 -0.2550  1.0209  0.0540
 1377SOL    HW215765   4.425   0.170   0.651  0.4586 -1.4501  0.8782
 1378SOL     OW15766   4.442   3.313  16.942  0.1362  0.1273  0.2216
 1378SOL    HW115767   4.507   3.375  16.976  2.0498 -0.7349 -1.9361
 1378SOL    HW215768   4.494   3.234  16.952  2.0361  1.1823 -1.2835
 1379SOL     OW15769   3.936   1.519  14.504 -0.6134  0.0527 -0.3577
 1379SOL    HW115770   3.867   1.577  14.472  0.4969  1.8224  0.4316
 1379SOL    HW215771   3.900   1.471  14.578  1.8201  0.1743  0.8912
 1380SOL     OW15772   2.528   0.994   1.502  0.3421 -0.1674  0.0883
 1380SOL    HW115773   2.482   0.988   1.419  0.7510  3.5405 -0.3920
 1380SOL    HW215774   2.557   1.084   1.487 -2.5010  0.7224  0.0159
 1381SOL     OW15775   4.441   1.107   6.076  0.4228  0.2548  0.2355
 1381SOL    HW115776   4.364   1.075   6.123 -1.7341  3.1696 -1.3006
 1381SOL    HW215777   4.469   1.173   6.138 -0.2134  0.0364  0.7564
 1382SOL     OW15778   3.205   4.716   7.270  0.2905  0.2980  0.1301
 1382SOL    HW115779   3.220   4.694   7.362 -1.2064  0.0691  0.3316
 1382SOL    HW215780   3.112   4.696   7.256 -0.6539  3.1107  2.1338
 1383SOL     OW15781   0.719   4.292   3.398  0.1567 -0.2484 -0.4833
 1383SOL    HW115782   0.808   4.268   3.375  0.6820  1.2723 -0.0342
 1383SOL    HW215783   0.714   4.387   3.390 -0.0712 -0.3407 -1.4304
 1384SOL     OW15784   2.621   1.183  16.473  0.4934 -0.0943 -0.0225
 1384SOL    HW115785   2.592   1.206  16.561  3.8254  0.5429  0.8884
 1384SOL    HW215786   2.599   1.265  16.428  1.0334 -0.0819 -0.2620
 1385SOL     OW15787   1.177   0.304  15.417 -0.9511  0.4753  0.2618
 1385SOL    HW115788   1.263   0.315  15.457 -0.9081  0.0240  0.3014
 1385SOL    HW215789   1.158   0.214  15.446 -1.1194  0.6836  0.7978
 1386SOL     OW15790   2.429   2.678   2.276 -0.2952  0.0616  0.1795
 1386SOL    HW115791   2.398   2.674   2.186  2.0893 -1.5334 -0.5678
 1386SOL    HW215792   2.434   2.774   2.280  0.3013  0.0874 -1.2919
 1387SOL     OW15793   0.822   3.030   4.064  0.5539 -0.1643 -0.1991
 1387SOL    HW115794   0.880   3.105   4.067  0.9230 -0.4429 -0.3822
 1387SOL    HW215795   0.745   3.086   4.058  1.2565  0.9671  1.3233
 1388SOL     OW15796   2.113   0.000   5.208  0.2445 -0.3402 -0.4464
 1388SOL    HW115797   2.040   0.039   5.160 -0.8588  0.3071  1.7264
 1388SOL    HW215798   2.111   0.061   5.282  2.8431 -0.4702 -0.2742
 1389SOL     OW15799   4.254   4.219   6.435 -0.4265  0.4892 -0.6943
 1389SOL    HW115800   4.267   4.126   6.413  1.2845  0.3210  0.9866
 1389SOL    HW215801   4.162   4.241   6.445 -0.5016 -0.3482  0.3748
 1390SOL     OW15802   0.599   1.391  14.786  0.4047 -0.2254 -0.2022
 1390SOL    HW115803   0.509   1.358  14.791  0.2670 -0.0613 -1.5114
 1390SOL    HW215804   0.608   1.456  14.717  1.0044 -0.6835 -0.5549
 1391SOL     OW15805   1.128   0.486   8.063 -0.2801 -0.6923 -0.2608
 1391SOL    HW115806   1.119   0.390   8.066  1.7455 -0.8842 -0.1998
 1391SOL    HW215807   1.127   0.498   8.158  0.5846  0.1292 -0.3597
 1392SOL     OW15808   2.913   3.594   5.888 -0.6668  0.1624 -0.1766
 1392SOL    HW115809   2.942   3.683   5.908 -2.0328  0.1094  1.9993
 1392SOL    HW215810   2.822   3.622   5.880 -0.4960  1.3481  2.1322
 1393SOL     OW15811   0.199   1.079  10.061  0.1051  0.3484  0.0171
 1393SOL    HW115812   0.181   0.991  10.094  2.1097  0.5672  1.7011
 1393SOL    HW215813   0.236   1.076   9.973 -2.3573 -0.5576 -0.9621
 1394SOL     OW15814   0.292   3.169   5.400  0.6236  0.4709  0.9749
 1394SOL    HW115815   0.353   3.243   5.392  0.8943  0.1994  0.5295
 1394SOL    HW215816   0.354   3.097   5.406  0.9971  0.6220 -1.2563
 1395SOL     OW15817   3.769   2.682   7.826 -0.0041 -0.5454 -0.0089
 1395SOL    HW115818   3.686   2.724   7.803 -0.6140 -1.5441  0.3693
 1395SOL    HW215819   3.773   2.685   7.922 -0.6976  2.1573 -0.0649
 1396SOL     OW15820   2.669   0.038   1.973  0.3461  0.6028 -0.2356
 1396SOL    HW115821   2.714   4.694   1.945  2.6753  1.5856  0.6530
 1396SOL    HW215822   2.736   0.078   2.027 -0.7407  1.8532  0.1605
 1397SOL     OW15823   0.098   2.135   7.195  0.1180 -0.2916  0.2796
 1397SOL    HW115824   0.005   2.126   7.217 -0.1198  0.9297 -0.2264
 1397SOL    HW215825   0.141   2.124   7.279  0.3325  2.3539  0.5303
 1398SOL     OW15826   1.516   4.362  10.884 -0.1650  0.0689  0.3240
 1398SOL    HW115827   1.596   4.309  10.879 -1.4819 -1.8694 -0.5183
 1398SOL    HW215828   1.546   4.453  10.879 -1.6191  0.4819 -0.9466
 1399SOL     OW15829   0.641   4.232   6.591  0.2068  0.4641 -0.5605
 1399SOL    HW115830   0.669   4.235   6.683  2.0411 -0.8962 -1.0709
 1399SOL    HW215831   0.671   4.144   6.570 -2.8764 -0.5258 -0.7782
 1400SOL     OW15832   4.136   2.749  12.670  0.0913  0.1841 -0.0804
 1400SOL    HW115833   4.064   2.789  12.621 -0.6919 -0.7815  0.2624
 1400SOL    HW215834   4.107   2.658  12.664 -1.6645  0.7805 -0.6493
 1401SOL     OW15835   2.119   4.522   8.349 -0.6098  0.4632  0.2816
 1401SOL    HW115836   2.059   4.476   8.408  0.6031 -1.5764 -0.0805
 1401SOL    HW215837   2.084   4.505   8.261 -0.8832 -0.2696  0.5328
 1402SOL     OW15838   4.163   0.519  10.732  0.1912 -0.0993  0.0232
 1402SOL    HW115839   4.216   0.522  10.811 -1.5530 -0.1288  1.1862
 1402SOL    HW215840   4.083   0.488  10.774 -0.4156 -1.0487 -1.8064
 1403SOL     OW15841   2.703   4.116   7.523  0.6076 -0.0462 -0.4621
 1403SOL    HW115842   2.714   4.182   7.455 -0.1039  0.5530  0.0021
 1403SOL    HW215843   2.727   4.034   7.481 -2.0019 -0.6192 -0.8440
 1404SOL     OW15844   4.268   4.017   4.218 -0.5120  0.0742  0.1898
 1404SOL    HW115845   4.263   3.983   4.128 -3.0653  0.1690  0.2867
 1404SOL    HW215846   4.187   4.061   4.244 -1.1779 -0.9451 -0.1770
 1405SOL     OW15847   3.154   2.416   3.029 -0.7791  0.2198  0.0282
 1405SOL    HW115848   3.204   2.381   2.956 -0.7890  0.7484 -0.2348
 1405SOL    HW215849   3.173   2.510   3.025 -2.0698  0.4656 -0.3465
 1406SOL     OW15850   4.341   3.072   7.057 -0.4710 -0.2387  0.4468
 1406SOL    HW115851   4.402   2.998   7.052 -0.8625 -0.3772 -2.3024
 1406SOL    HW215852   4.355   3.118   6.974  0.4004 -0.2575  0.5845
 1407SOL     OW15853   2.610   3.644   4.930  0.5255 -0.2300 -0.8343
 1407SOL    HW115854   2.517   3.624   4.918 -0.0191  3.1057 -2.3427
 1407SOL    HW215855   2.636   3.652   4.838 -0.0731  0.9004 -0.9056
 1408SOL     OW15856   0.049   0.264  17.629  0.3433 -0.5067 -0.1753
 1408SOL    HW115857   0.062   0.174  17.599  0.9273 -0.3467 -0.3981
 1408SOL    HW215858   0.124   0.271  17.688  0.6925  1.9541 -0.8766
 1409SOL     OW15859   3.714   0.251  10.792  1.0807  0.2292 -0.4121
 1409SOL    HW115860   3.642   0.201  10.752 -0.6177  0.4448  2.3681
 1409SOL    HW215861   3.726   0.200  10.872  0.5907 -0.0479 -0.5142
 1410SOL     OW15862   4.179   1.368  11.952  0.0231  0.5964  0.2980
 1410SOL    HW115863   4.195   1.444  12.008  1.0301  0.0135  0.8104
 1410SOL    HW215864   4.185   1.293  12.011 -1.5134  1.6115  1.7373
 1411SOL     OW15865   2.385   2.307   5.625 -0.5867  0.0134 -0.7201
 1411SOL    HW115866   2.295   2.321   5.655 -0.4093 -0.2559 -0.0585
 1411SOL    HW215867   2.388   2.337   5.534 -1.1573 -1.2242 -1.1558
 1412SOL     OW15868   1.571   4.063   6.758 -0.7420 -0.3001 -0.1479
 1412SOL    HW115869   1.512   3.987   6.751 -0.1040 -0.7867 -0.2968
 1412SOL    HW215870   1.545   4.115   6.681  0.0922  0.1782 -0.1008
 1413SOL     OW15871   0.990   2.340   4.746  0.0938  0.5071  0.4008
 1413SOL    HW115872   0.997   2.303   4.658 -0.4902 -1.9505  1.3717
 1413SOL    HW215873   0.934   2.416   4.735 -0.4135  0.3457  1.8713
 1414SOL     OW15874   0.149   4.523   7.944  0.1929  0.5676  0.3190
 1414SOL    HW115875   0.149   4.449   8.004 -0.7436  2.2200  2.3482
 1414SOL    HW215876   0.183   4.596   7.997  0.0433  0.8387  0.0409
 1415SOL     OW15877   3.292   4.507   6.069 -0.5193 -0.3544  0.3997
 1415SOL    HW115878   3.234   4.557   6.012  1.8430  0.6130 -1.1491
 1415SOL    HW215879   3.370   4.498   6.015 -0.8220 -0.2410 -0.0586
 1416SOL     OW15880   2.015   3.451   6.375 -0.4320  0.3465  0.5318
 1416SOL    HW115881   2.027   3.527   6.319 -1.8026 -0.4260 -0.7969
 1416SOL    HW215882   2.100   3.439   6.419 -1.2802 -2.0450  1.4845
 1417SOL     OW15883   0.320   1.319   2.140  0.2009  0.1340 -0.4758
 1417SOL    HW115884   0.396   1.261   2.146  1.8860  2.5611  1.9366
 1417SOL    HW215885   0.309   1.333   2.234 -0.7928  2.5993 -0.9536
 1418SOL     OW15886   2.935   0.099   8.857 -0.3240 -0.1048 -0.1299
 1418SOL    HW115887   2.943   0.070   8.766 -2.1683 -1.6062  0.2077
 1418SOL    HW215888   2.840   0.112   8.859 -0.7249 -2.9414 -1.4384
 1419SOL     OW15889   2.602   1.090  12.696 -0.8104 -0.2994  0.0959
 1419SOL    HW115890   2.532   1.155  12.696 -1.0809 -0.5810  1.4957
 1419SOL    HW215891   2.554   1.007  12.701 -1.3715 -0.1812 -3.5669
 1420SOL     OW15892   1.960   1.096   5.478  0.0613  0.4953 -0.2625
 1420SOL    HW115893   1.982   1.039   5.405  2.3330  1.2295 -0.1503
 1420SOL    HW215894   1.903   1.158   5.434  0.0126  1.7979  1.6365
 1421SOL     OW15895   2.575   3.117  17.547  0.2750 -0.1543  0.1266
 1421SOL    HW115896   2.649   3.081  17.500  0.8365  1.5467 -0.3064
 1421SOL    HW215897   2.619   3.177  17.607  0.1830  1.8418 -1.7910
 1422SOL     OW15898   4.598   0.361   7.206 -0.1080  0.1069 -0.2361
 1422SOL    HW115899   4.532   0.293   7.190 -1.2314  0.7665  1.6744
 1422SOL    HW215900   4.679   0.311   7.216  0.7844  1.3264 -1.3773
 1423SOL     OW15901   3.080   4.109   3.475  0.5849 -0.3741 -0.1520
 1423SOL    HW115902   3.043   4.192   3.505 -1.5255 -0.6772 -1.8832
 1423SOL    HW215903   3.023   4.052   3.527  1.0606 -0.6772  0.0317
 1424SOL     OW15904   0.811   4.075   1.336  0.0542 -0.2200  0.5309
 1424SOL    HW115905   0.860   4.115   1.264  0.5924  0.3141  1.2037
 1424SOL    HW215906   0.811   4.161   1.378 -0.9862  1.0540 -2.0705
 1425SOL     OW15907   2.196   4.204   6.447  0.7762 -0.3249  0.2197
 1425SOL    HW115908   2.275   4.150   6.445 -0.2486 -1.8209  0.2061
 1425SOL    HW215909   2.178   4.200   6.354  1.8877 -2.9808  0.1101
 1426SOL     OW15910   1.309   1.746   5.486 -0.1130  0.8660  0.0539
 1426SOL    HW115911   1.266   1.674   5.532  1.2250 -0.0913 -0.1578
 1426SOL    HW215912   1.259   1.729   5.406 -0.4382  0.8363  0.2652
 1427SOL     OW15913   0.311   1.914  12.785 -0.0989 -0.7865  0.4880
 1427SOL    HW115914   0.289   1.826  12.814  3.5340 -2.2200 -1.1135
 1427SOL    HW215915   0.309   1.897  12.691  1.9537 -0.0663  0.3082
 1428SOL     OW15916   2.351   0.823  15.469 -0.0764 -0.3162  0.1705
 1428SOL    HW115917   2.399   0.879  15.531  0.9450 -0.5337 -0.4285
 1428SOL    HW215918   2.364   0.870  15.387 -0.5975  0.3905  0.4915
 1429SOL     OW15919   4.629   0.815   7.587 -0.4037 -0.4337  0.3503
 1429SOL    HW115920   4.725   0.822   7.584 -0.3939 -1.4159 -1.7997
 1429SOL    HW215921   4.598   0.885   7.645  1.2729 -1.6101  2.6648
 1430SOL     OW15922   2.877   3.258   5.074 -0.2884  0.1077  0.2759
 1430SOL    HW115923   2.932   3.303   5.010  0.1929 -0.8870  0.0018
 1430SOL    HW215924   2.878   3.172   5.033  0.9337  0.9015 -1.3704
 1431SOL     OW15925   4.514   3.630   8.583 -0.0057 -0.2736 -0.3880
 1431SOL    HW115926   4.580   3.564   8.602  1.4986  1.5349  0.6068
 1431SOL    HW215927   4.558   3.684   8.518  1.0225 -0.7005 -0.0427
 1432SOL     OW15928   2.136   2.082   4.451  0.2415 -0.1556  0.4269
 1432SOL    HW115929   2.221   2.110   4.417 -0.0034  2.2151  1.7880
 1432SOL    HW215930   2.118   1.997   4.411  0.1399  0.3957 -0.6782
 1433SOL     OW15931   0.666   3.641  16.414 -1.0943 -0.6330 -0.0322
 1433SOL    HW115932   0.581   3.661  16.455 -0.3297 -1.5677  2.0147
 1433SOL    HW215933   0.688   3.728  16.381 -3.2567 -1.1310 -2.8197
 1434SOL     OW15934   2.046   4.120   5.078 -0.4192  0.1627 -0.6544
 1434SOL    HW115935   2.132   4.145   5.044  0.7497 -0.2835  1.9077
 1434SOL    HW215936   2.075   4.046   5.131  1.0407 -0.2250 -2.0133
 1435SOL     OW15937   0.537   1.979   8.502 -0.1918  0.3636 -0.1111
 1435SOL    HW115938   0.498   1.992   8.415 -1.8906 -2.7910  0.2058
 1435SOL    HW215939   0.626   2.014   8.489  1.0653 -2.8253 -0.0791
 1436SOL     OW15940   1.872   4.642  10.609 -0.0975  0.0329  0.0197
 1436SOL    HW115941   1.885   4.729  10.570  2.3028  0.0075  0.7458
 1436SOL    HW215942   1.802   4.651  10.673  1.4339 -0.4435  1.7534
 1437SOL     OW15943   0.686   3.295  15.720  0.6951  0.5927 -0.3275
 1437SOL    HW115944   0.622   3.287  15.791  4.4906 -0.5972  2.9630
 1437SOL    HW215945   0.759   3.338  15.765 -0.6963  3.5306 -0.8928
 1438SOL     OW15946   1.014   2.994  10.148  0.5620  0.7951 -0.7495
 1438SOL    HW115947   1.013   3.052  10.072  1.3634  3.0905  1.0245
 1438SOL    HW215948   0.999   3.046  10.226 -1.7038 -2.0128  0.6953
 1439SOL     OW15949   1.546   1.750   1.967  0.4033 -0.1490 -0.2260
 1439SOL    HW115950   1.616   1.800   1.926 -0.8085  2.1699  0.5228
 1439SOL    HW215951   1.571   1.763   2.059  2.9272  0.3383 -0.9868
 1440SOL     OW15952   1.303   2.442  13.755 -0.2137  0.1998 -0.0553
 1440SOL    HW115953   1.326   2.510  13.692 -1.1589 -0.9711 -1.6669
 1440SOL    HW215954   1.384   2.452  13.805  0.4778 -2.4871 -0.5879
 1441SOL     OW15955   0.576   2.667   2.428  0.2143 -0.1110  0.2182
 1441SOL    HW115956   0.526   2.741   2.396  1.5286  0.5977 -0.1792
 1441SOL    HW215957   0.543   2.666   2.518  1.1051 -0.9967  0.5440
 1442SOL     OW15958   2.924   1.250   7.794  0.1338 -0.0166  0.6433
 1442SOL    HW115959   2.908   1.155   7.794 -0.3779  0.0601 -1.3419
 1442SOL    HW215960   2.866   1.266   7.868 -0.9703  0.5165 -0.3209
 1443SOL     OW15961   4.478   1.085   3.073  0.1759  0.3068  0.0311
 1443SOL    HW115962   4.511   1.015   3.016 -2.5776 -0.8961 -0.0763
 1443SOL    HW215963   4.412   1.031   3.116  1.3702 -2.7689 -1.9451
 1444SOL     OW15964   0.478   3.395  15.521  0.0256 -0.4652  0.3439
 1444SOL    HW115965   0.415   3.384  15.592 -0.5920 -2.1574 -0.4678
 1444SOL    HW215966   0.550   3.340  15.551  0.2179 -0.9317 -0.9660
 1445SOL     OW15967   4.089   0.864   1.112 -0.1859  0.0736 -0.1891
 1445SOL    HW115968   4.077   0.946   1.064  1.1794  0.8502  0.7897
 1445SOL    HW215969   4.037   0.881   1.190  2.4620  3.3113  0.8560
 1446SOL     OW15970   3.666   2.302   4.203 -0.3738  0.2980 -0.1486
 1446SOL    HW115971   3.752   2.340   4.183  1.4298 -1.3026  4.4397
 1446SOL    HW215972   3.616   2.380   4.178  0.0980  0.1815 -1.4501
 1447SOL     OW15973   2.991   0.698   7.934  0.2972  0.0694  0.4626
 1447SOL    HW115974   3.004   0.634   8.004  2.9944  1.3442  1.1119
 1447SOL    HW215975   2.917   0.751   7.962  1.4406  2.6614 -1.3470
 1448SOL     OW15976   0.000   2.233   4.858 -0.0998  0.4896  0.3928
 1448SOL    HW115977   0.053   2.177   4.801  0.3842  0.8173  0.5210
 1448SOL    HW215978   0.051   2.254   4.936  1.2913 -1.2921 -0.0321
 1449SOL     OW15979   4.714   1.377   2.241  0.2310 -0.3885  0.2349
 1449SOL    HW115980   4.624   1.352   2.222 -0.2035  1.7122 -0.4615
 1449SOL    HW215981   4.730   1.461   2.196 -1.0783  0.0699  0.6283
 1450SOL     OW15982   2.716   3.327   7.675 -0.4713 -0.3279  0.3126
 1450SOL    HW115983   2.709   3.350   7.767 -1.1253  0.6833 -0.0002
 1450SOL    HW215984   2.719   3.231   7.686  2.5295 -0.4078 -1.0382
 1451SOL     OW15985   2.445   0.825  10.575 -0.3262  0.5876  0.0118
 1451SOL    HW115986   2.395   0.905  10.554  0.5280  0.4618 -2.4848
 1451SOL    HW215987   2.494   0.856  10.651  0.5989 -1.6217  0.3041
 1452SOL     OW15988   4.310   4.236   6.125 -0.4331 -0.9330 -0.2513
 1452SOL    HW115989   4.390   4.216   6.174 -0.8146  0.2108  0.8440
 1452SOL    HW215990   4.242   4.215   6.189  1.0489 -1.6776  1.0917
 1453SOL     OW15991   4.030   1.389   9.380  0.5107 -0.0630  0.2181
 1453SOL    HW115992   3.936   1.396   9.395  0.5732  0.4386  0.3608
 1453SOL    HW215993   4.068   1.426   9.460 -1.2056  1.3578  0.3758
 1454SOL     OW15994   3.693   2.027  12.587 -0.3848  0.2144  0.5023
 1454SOL    HW115995   3.727   2.106  12.544 -1.3132 -0.4050 -1.3603
 1454SOL    HW215996   3.750   1.959  12.553 -1.4733 -0.6149  0.3521
 1455SOL     OW15997   4.263   0.388   2.309  0.3712 -0.4468  0.1848
 1455SOL    HW115998   4.342   0.340   2.335  0.5393 -0.4361 -0.2892
 1455SOL    HW215999   4.291   0.421   2.223 -0.7995  2.2641  0.8674
 1456SOL     OW16000   1.802   3.888  17.549 -0.3915  0.0792 -0.5754
 1456SOL    HW116001   1.736   3.908  17.483 -1.4474  2.0862  1.1103
 1456SOL    HW216002   1.858   3.964  17.533  1.5153 -0.9484  1.1869
 1457SOL     OW16003   4.566   2.052   7.265  0.4776 -0.3279  0.1925
 1457SOL    HW116004   4.576   2.007   7.349 -3.2602 -0.4032  0.5871
 1457SOL    HW216005   4.485   2.102   7.272  1.4883  1.7430 -2.7799
 1458SOL     OW16006   3.396   2.188   2.040 -0.2601  0.2852 -0.3327
 1458SOL    HW116007   3.471   2.202   2.098 -0.1008  0.1317 -0.4985
 1458SOL    HW216008   3.442   2.174   1.957  0.3487  0.4998 -0.0376
 1459SOL     OW16009   4.462   4.614   4.364  0.0527  0.2620  0.1205
 1459SOL    HW116010   4.464   4.553   4.437  1.3814  0.3713  0.1774
 1459SOL    HW216011   4.442   4.547   4.299 -0.1237 -0.4838  0.9504
 1460SOL     OW16012   4.585   0.725  10.980 -0.2872  0.1378  0.1582
 1460SOL    HW116013   4.505   0.723  11.032 -1.3000 -2.0293 -1.5073
 1460SOL    HW216014   4.553   0.662  10.915  0.5180  0.2452 -0.3381
 1461SOL     OW16015   1.347   2.620   8.432 -0.5642  0.2106  0.1002
 1461SOL    HW116016   1.295   2.566   8.371  0.4700 -1.1146  0.3882
 1461SOL    HW216017   1.358   2.556   8.502  3.2482  1.1727  0.3708
 1462SOL     OW16018   0.481   1.904   3.460  0.2440 -0.2067 -0.6855
 1462SOL    HW116019   0.478   2.000   3.461 -0.4947 -0.2523  1.7164
 1462SOL    HW216020   0.513   1.884   3.372  3.6671  1.8804  0.0948
 1463SOL     OW16021   0.067   1.886   8.153  0.2760 -0.4772  0.8429
 1463SOL    HW116022   0.086   1.967   8.105 -0.7392 -0.6584  0.1341
 1463SOL    HW216023   0.139   1.884   8.216  2.0041 -1.4554 -1.1886
 1464SOL     OW16024   1.924   0.914   2.633 -0.3306  0.6364 -0.0439
 1464SOL    HW116025   1.916   0.903   2.727  2.0635 -2.0554 -0.1725
 1464SOL    HW216026   1.854   0.979   2.630 -1.8653 -1.0403 -0.7028
 1465SOL     OW16027   3.765   4.049  16.490  0.2358 -0.1749  0.3789
 1465SOL    HW116028   3.852   4.074  16.520  1.8409 -3.0621 -1.7465
 1465SOL    HW216029   3.775   4.098  16.408  0.3219 -1.0465 -0.1403
 1466SOL     OW16030   1.691   1.708   1.648  0.6910 -0.2187 -0.7000
 1466SOL    HW116031   1.730   1.745   1.569 -2.4161  1.6085 -1.3701
 1466SOL    HW216032   1.723   1.774   1.710  2.2749 -1.5708 -0.0678
 1467SOL     OW16033   2.090   3.818   0.899 -0.5541  0.5245 -0.4743
 1467SOL    HW116034   2.000   3.848   0.890 -0.3650  0.8462 -1.3116
 1467SOL    HW216035   2.077   3.737   0.948  0.3563  0.6511 -0.0215
 1468SOL     OW16036   1.754   3.814   6.213 -0.3465 -0.2686 -0.3778
 1468SOL    HW116037   1.845   3.799   6.239 -0.3358 -0.5763 -0.5927
 1468SOL    HW216038   1.743   3.903   6.247  0.9223 -0.3343  0.2052
 1469SOL     OW16039   2.645   3.382   1.400  0.1322 -0.6670 -0.3136
 1469SOL    HW116040   2.685   3.305   1.439 -2.1348 -1.4697  0.4472
 1469SOL    HW216041   2.605   3.407   1.483  1.0784  0.4114 -0.1816
 1470SOL     OW16042   0.533   4.068   9.016  0.2115  0.0552  0.0578
 1470SOL    HW116043   0.468   4.007   9.050 -0.2088  1.6076  1.9634
 1470SOL    HW216044   0.585   4.102   9.088 -0.6824  0.4614  0.5011
 1471SOL     OW16045   4.483   4.329   9.701  0.4264  0.1429  0.0131
 1471SOL    HW116046   4.451   4.249   9.743 -2.1955  2.6496  2.8196
 1471SOL    HW216047   4.530   4.297   9.624  1.1236  1.7416 -0.2387
 1472SOL     OW16048   0.137   4.547   9.087 -0.7491  0.4997 -0.0551
 1472SOL    HW116049   0.091   4.541   9.170 -0.6603 -3.1591 -0.2723
 1472SOL    HW216050   0.225   4.534   9.120 -0.5380  1.4110 -0.2396
 1473SOL     OW16051   3.390   3.406   3.750 -0.0566  0.1552 -0.2143
 1473SOL    HW116052   3.451   3.475   3.777 -1.3278  1.5859 -1.0515
 1473SOL    HW216053   3.366   3.377   3.838 -0.6206  0.0770 -0.3950
 1474SOL     OW16054   1.927   3.017   6.460  0.0147  0.5693  0.2999
 1474SOL    HW116055   1.897   2.939   6.413 -0.7833  1.8182 -1.2681
 1474SOL    HW216056   1.899   2.994   6.548 -0.5599 -0.8084 -0.2321
 1475SOL     OW16057   2.360   3.842  17.701 -0.8331  0.0478 -0.6960
 1475SOL    HW116058   2.403   3.903   0.016 -2.4015 -0.8568  1.3753
 1475SOL    HW216059   2.277   3.885  17.678 -1.0811  0.4265  0.9531
 1476SOL     OW16060   0.348   2.432  12.905 -0.1896  0.1292 -0.1856
 1476SOL    HW116061   0.337   2.354  12.851 -1.0546  0.6673 -0.7767
 1476SOL    HW216062   0.385   2.395  12.985 -0.5850 -0.7384 -0.3996
 1477SOL     OW16063   2.287   0.702   4.859 -0.0969  0.3210 -0.2261
 1477SOL    HW116064   2.294   0.607   4.866  1.1352  0.1689 -3.9211
 1477SOL    HW216065   2.370   0.724   4.901  1.1934 -1.3539 -1.9242
 1478SOL     OW16066   3.681   0.413   2.789 -0.2557  0.0510  0.7285
 1478SOL    HW116067   3.732   0.451   2.861  0.2806 -2.1378  1.5247
 1478SOL    HW216068   3.662   0.483   2.727  0.5053 -0.4712 -0.0908
 1479SOL     OW16069   2.967   4.735   4.490 -0.1143 -0.1907 -0.3655
 1479SOL    HW116070   3.060   0.022   4.490 -0.1119 -0.1977 -0.7365
 1479SOL    HW216071   2.970   4.641   4.502  2.0538 -0.0639  0.1685
 1480SOL     OW16072   1.960   2.776   7.889 -0.0339 -0.0613  0.2719
 1480SOL    HW116073   1.959   2.744   7.799  1.8056  0.0473  0.2167
 1480SOL    HW216074   2.038   2.732   7.922  0.5437 -1.3978 -2.8877
 1481SOL     OW16075   2.258   0.020   5.997 -0.0364 -0.3847 -0.1907
 1481SOL    HW116076   2.312   0.077   5.943  2.1939 -0.7512  1.6480
 1481SOL    HW216077   2.201   4.725   5.927 -2.0915  1.5840  0.5818
 1482SOL     OW16078   2.546   0.266   1.871 -0.1513 -0.1694  0.2481
 1482SOL    HW116079   2.613   0.326   1.839 -1.2287  1.6767  1.4663
 1482SOL    HW216080   2.594   0.190   1.901  1.2143  1.0764  1.1966
 1483SOL     OW16081   1.124   0.811  12.356  0.1981  0.2990 -0.1339
 1483SOL    HW116082   1.202   0.858  12.386  0.1882 -1.2789  2.3769
 1483SOL    HW216083   1.124   0.743  12.423 -0.6916 -1.3400 -1.8365
 1484SOL     OW16084   3.842   1.830   4.757 -0.1217 -0.2592 -0.2002
 1484SOL    HW116085   3.907   1.880   4.806  1.1407 -2.2056  0.1106
 1484SOL    HW216086   3.874   1.740   4.757  0.1551 -0.1577  0.7966
 1485SOL     OW16087   1.129   2.498   7.606 -0.0746 -0.1911  0.5479
 1485SOL    HW116088   1.192   2.569   7.617 -0.4016  0.0721  0.7116
 1485SOL    HW216089   1.090   2.524   7.522 -1.1584  0.2363  1.1791
 1486SOL     OW16090   0.094   0.712  11.517  0.1954 -0.4459  0.1888
 1486SOL    HW116091   0.126   0.796  11.549 -2.5310  0.3461  0.8435
 1486SOL    HW216092   0.120   0.720  11.425 -1.1318  0.8992 -0.0827
 1487SOL     OW16093   4.152   1.380   0.527 -0.0288  0.2896 -0.1522
 1487SOL    HW116094   4.127   1.321   0.456  0.2414 -0.1689  0.1300
 1487SOL    HW216095   4.088   1.450   0.514 -0.0626  0.4939  1.0752
 1488SOL     OW16096   0.981   3.999   2.165 -0.1377 -0.4760  0.0123
 1488SOL    HW116097   0.944   4.042   2.087 -0.6145  0.7687  0.9146
 1488SOL    HW216098   0.945   4.061   2.229 -4.5622 -0.3693 -2.5512
 1489SOL     OW16099   4.188   2.743   3.611  0.1614  0.2546 -0.1805
 1489SOL    HW116100   4.187   2.808   3.681  0.4259  0.5709 -0.4759
 1489SOL    HW216101   4.121   2.691   3.655 -0.7648  1.6240  0.0270
 1490SOL     OW16102   3.061   1.411   8.583 -0.1447 -0.3503 -0.2830
 1490SOL    HW116103   3.079   1.317   8.589 -2.1979 -0.5792  2.4308
 1490SOL    HW216104   3.150   1.445   8.582  0.1714 -1.1722 -0.4896
 1491SOL     OW16105   0.984   2.605   0.406  0.3420  0.0051  0.3433
 1491SOL    HW116106   1.027   2.674   0.457  0.5945  0.7308 -0.8325
 1491SOL    HW216107   1.052   2.539   0.390  0.0239 -0.0574 -0.7476
 1492SOL     OW16108   0.647   3.774   6.842 -0.4723  0.2607 -0.5036
 1492SOL    HW116109   0.729   3.737   6.874 -0.7241  0.9091  0.8971
 1492SOL    HW216110   0.580   3.736   6.899 -0.1157  1.0396  0.4437
 1493SOL     OW16111   3.475   1.473   7.741  0.9312  0.1663  0.0012
 1493SOL    HW116112   3.494   1.536   7.810 -1.9883  0.7128  0.2894
 1493SOL    HW216113   3.405   1.424   7.783 -0.0831  1.8980  0.3252
 1494SOL     OW16114   1.024   2.266   0.993 -0.2115  0.0883  0.5064
 1494SOL    HW116115   0.974   2.339   1.030  1.2016  1.4310 -0.2296
 1494SOL    HW216116   1.037   2.220   1.076  0.7881  1.2813  1.0151
 1495SOL     OW16117   3.170   4.655  15.450 -0.4383 -0.0848  0.1021
 1495SOL    HW116118   3.228   4.623  15.519 -2.7947 -0.5022  1.8887
 1495SOL    HW216119   3.235   4.709  15.404  1.2625 -1.1377  1.2584
 1496SOL     OW16120   2.431   2.365   2.996  0.3442  0.9968  0.1812
 1496SOL    HW116121   2.369   2.298   3.026  2.2139 -1.4858 -1.5189
 1496SOL    HW216122   2.483   2.369   3.077  2.6320 -1.5684 -1.1624
 1497SOL     OW16123   1.790   1.259   5.293  0.1346 -0.1403  0.0572
 1497SOL    HW116124   1.714   1.220   5.250 -0.0153 -0.6460  0.7882
 1497SOL    HW216125   1.794   1.346   5.252  0.6757 -0.5704 -0.7960
 1498SOL     OW16126   1.398   0.766   2.737 -0.0594 -0.2366  0.5320
 1498SOL    HW116127   1.346   0.832   2.782 -2.6809 -1.4281 -0.7767
 1498SOL    HW216128   1.340   0.690   2.737  0.1776 -0.4221  1.2582
 1499SOL     OW16129   3.904   3.477  16.358  0.5953 -0.3154 -0.0015
 1499SOL    HW116130   3.910   3.564  16.397 -1.0375  0.0229 -0.4881
 1499SOL    HW216131   3.991   3.461  16.321  1.4083  0.6938  1.4591
 1500SOL     OW16132   4.249   0.609   4.269  0.0445  0.3811  0.9676
 1500SOL    HW116133   4.301   0.681   4.234  1.4503 -1.7477 -1.3715
 1500SOL    HW216134   4.229   0.636   4.358  0.8659 -0.3822  1.3820
 1501SOL     OW16135   3.683   2.724   6.397 -0.1427 -0.4742 -0.1391
 1501SOL    HW116136   3.651   2.763   6.478  3.8986  2.7047 -0.0839
 1501SOL    HW216137   3.667   2.802   6.343 -0.1596  1.7357  3.0726
 1502SOL     OW16138   1.459   2.717   5.298 -0.7168 -0.1556 -0.6994
 1502SOL    HW116139   1.405   2.693   5.223 -2.5494  0.0238  0.5655
 1502SOL    HW216140   1.401   2.746   5.368  0.2998 -0.0252  0.0802
 1503SOL     OW16141   3.470   3.934   4.225  0.0213 -0.4096 -0.3199
 1503SOL    HW116142   3.562   3.908   4.231 -0.0773 -0.7679 -0.3734
 1503SOL    HW216143   3.436   3.936   4.314  0.6087 -2.3468 -0.0342
 1504SOL     OW16144   2.869   2.462  11.257 -0.8464  0.1174  0.3590
 1504SOL    HW116145   2.834   2.423  11.337 -0.1224  1.6546  1.4413
 1504SOL    HW216146   2.863   2.392  11.192  2.6265 -0.7212  0.9475
 1505SOL     OW16147   4.357   2.473  16.055 -0.2174 -0.4883  0.0470
 1505SOL    HW116148   4.441   2.433  16.030 -1.2076 -0.5967 -3.1419
 1505SOL    HW216149   4.331   2.522  15.977  0.2588  0.2955  0.3834
 1506SOL     OW16150   4.708   3.432   8.654 -0.0728 -0.1143  0.0835
 1506SOL    HW116151   0.018   3.490   8.714 -0.7445 -0.3111  0.7924
 1506SOL    HW216152   0.035   3.415   8.584 -1.0069  0.1100 -0.8128
 1507SOL     OW16153   0.176   3.084   4.056  0.4931  0.3345 -0.1960
 1507SOL    HW116154   0.100   3.106   4.002  0.0611 -0.4176  0.1045
 1507SOL    HW216155   0.226   3.021   4.004 -2.7796 -1.6136 -0.9600
 1508SOL     OW16156   2.952   1.714   8.864 -0.4423 -0.0160 -0.2711
 1508SOL    HW116157   3.039   1.755   8.867 -0.1809 -0.4373 -2.1405
 1508SOL    HW216158   2.949   1.679   8.953 -1.3896  1.7588  0.3952
 1509SOL     OW16159   3.636   1.440   4.183  0.3837 -0.3659 -0.1236
 1509SOL    HW116160   3.546   1.437   4.216  0.6133  2.5753  0.7373
 1509SOL    HW216161   3.685   1.468   4.260 -0.2950 -1.0505  0.5700
 1510SOL     OW16162   1.262   1.633  11.940 -0.3348  0.0655  0.1849
 1510SOL    HW116163   1.221   1.548  11.951  0.6565 -0.4455 -0.0299
 1510SOL    HW216164   1.343   1.630  11.992 -1.4081 -0.3547  1.8120
 1511SOL     OW16165   2.460   1.034   6.096  0.5462 -0.2998 -0.1402
 1511SOL    HW116166   2.514   1.111   6.078  1.2447 -0.4480  1.3417
 1511SOL    HW216167   2.514   0.960   6.068 -0.6874 -1.1052 -0.4037
 1512SOL     OW16168   0.506   2.517   3.102 -0.4185  0.0013 -0.3219
 1512SOL    HW116169   0.591   2.562   3.096 -0.1468 -0.1171  2.4984
 1512SOL    HW216170   0.475   2.549   3.186 -0.0633 -1.0203  0.1951
 1513SOL     OW16171   0.557   1.496   9.298  0.0532  0.1569  0.4672
 1513SOL    HW116172   0.586   1.459   9.214 -1.6996  0.8342 -0.4247
 1513SOL    HW216173   0.646   1.513   9.330  0.1795 -1.6932  1.1038
 1514SOL     OW16174   4.465   1.370   3.132  0.3241  0.0328 -0.5878
 1514SOL    HW116175   4.477   1.278   3.108  0.8651  0.1415 -0.7171
 1514SOL    HW216176   4.551   1.408   3.115  1.7009 -3.0641 -0.5648
 1515SOL     OW16177   0.688   1.095   3.508  0.0936 -0.0952  0.7544
 1515SOL    HW116178   0.741   1.144   3.571  2.3245 -0.9901 -0.4580
 1515SOL    HW216179   0.759   1.045   3.468  0.0669  2.1512 -2.0552
 1516SOL     OW16180   1.066   2.109   8.410  0.0464 -0.2254  0.2914
 1516SOL    HW116181   1.020   2.092   8.492 -2.2719  0.6866 -0.8106
 1516SOL    HW216182   0.990   2.107   8.352  0.1076 -0.7417  0.2329
 1517SOL     OW16183   1.138   2.418   8.016 -0.3982  0.1440  0.6816
 1517SOL    HW116184   1.053   2.378   7.995 -0.6181  0.8290  0.2565
 1517SOL    HW216185   1.102   2.493   8.065  1.3432  0.4617  1.4631
 1518SOL     OW16186   4.136   2.191   0.907 -0.0130  0.8093 -0.4493
 1518SOL    HW116187   4.169   2.220   0.992 -0.7644 -0.6804  0.3538
 1518SOL    HW216188   4.136   2.096   0.918 -1.7747  0.7391 -0.9033
 1519SOL     OW16189   2.251   1.748   6.657  0.1228 -0.2680 -1.0317
 1519SOL    HW116190   2.234   1.730   6.564 -1.6648  2.2626 -1.1846
 1519SOL    HW216191   2.345   1.760   6.665  0.0339  0.1080 -0.6032
 1520SOL     OW16192   4.478   2.888   0.190  0.0808 -0.1235 -0.1231
 1520SOL    HW116193   4.469   2.796   0.216  0.4952  0.4302  1.9616
 1520SOL    HW216194   4.396   2.895   0.141 -1.7516  0.6954  3.0396
 1521SOL     OW16195   0.069   1.719   7.936 -0.0756 -0.7275 -0.4469
 1521SOL    HW116196   0.036   1.644   7.987  0.6581 -0.7601 -0.0136
 1521SOL    HW216197   0.069   1.780   8.010  1.5355 -0.1048 -0.9650
 1522SOL     OW16198   1.793   3.939   5.130  0.6231  0.1339 -0.0372
 1522SOL    HW116199   1.776   3.948   5.036 -0.3396 -0.2711  0.1015
 1522SOL    HW216200   1.792   4.035   5.136 -1.0608  0.1284 -0.2407
 1523SOL     OW16201   2.349   0.793   6.362 -0.0838 -0.4174 -0.1402
 1523SOL    HW116202   2.308   0.743   6.291 -1.2362  1.6864 -0.9488
 1523SOL    HW216203   2.365   0.881   6.329 -1.7584  1.0470  2.9047
 1524SOL     OW16204   2.948   3.034   4.703  0.2484  1.0166 -0.0735
 1524SOL    HW116205   2.915   2.948   4.678 -0.6509  0.1582  4.0649
 1524SOL    HW216206   2.932   3.085   4.623 -1.7290  0.6396  0.0927
 1525SOL     OW16207   0.748   3.377   7.445 -0.6007 -0.4720 -0.3235
 1525SOL    HW116208   0.739   3.287   7.415 -0.2149 -0.8260  0.5931
 1525SOL    HW216209   0.722   3.422   7.365  1.9300 -0.1027 -0.9374
 1526SOL     OW16210   0.276   0.966  15.893  0.0167 -0.0348 -0.0723
 1526SOL    HW116211   0.274   0.870  15.894  2.3858 -0.0572  1.7941
 1526SOL    HW216212   0.187   0.985  15.920 -0.1339 -1.2428  0.2711
 1527SOL     OW16213   3.738   3.733   5.457 -0.3115  0.1679  0.1318
 1527SOL    HW116214   3.643   3.743   5.455 -0.1354  1.8313  0.3213
 1527SOL    HW216215   3.755   3.772   5.543 -0.9165  0.7913 -0.0360
 1528SOL     OW16216   1.620   3.669   8.373 -0.2759 -0.0309  0.3940
 1528SOL    HW116217   1.612   3.743   8.433 -1.2067 -0.5048  0.8522
 1528SOL    HW216218   1.525   3.658   8.361 -0.1077 -1.5986  0.4633
 1529SOL     OW16219   4.201   2.776   9.096  0.0124 -0.0622  0.1131
 1529SOL    HW116220   4.232   2.820   9.018 -0.1682  0.6063  0.4233
 1529SOL    HW216221   4.207   2.844   9.163 -1.5855 -0.1068  0.3122
 1530SOL     OW16222   3.981   2.058   7.105 -0.4185  0.5791 -0.0274
 1530SOL    HW116223   3.972   2.143   7.149 -0.7475  0.4509  0.1545
 1530SOL    HW216224   3.972   2.082   7.013  0.8252  0.3488 -0.2027
 1531SOL     OW16225   0.920   2.028   4.509  0.0639 -0.5813  0.3460
 1531SOL    HW116226   0.867   1.997   4.582 -1.5089 -2.4636 -1.6280
 1531SOL    HW216227   0.858   2.075   4.453  0.6806  1.2384  1.1763
 1532SOL     OW16228   0.263   1.661  15.196  0.1571 -0.5251 -0.8210
 1532SOL    HW116229   0.326   1.593  15.169 -2.1823 -3.4698  1.1438
 1532SOL    HW216230   0.323   1.733  15.216 -2.9518  1.8722 -0.1927
 1533SOL     OW16231   0.685   2.199   6.488  0.5775 -0.3200 -0.3734
 1533SOL    HW116232   0.700   2.107   6.505  0.4768 -0.3886 -0.6473
 1533SOL    HW216233   0.680   2.231   6.578 -2.1055  0.5415 -0.8464
 1534SOL     OW16234   2.117   0.248   7.796 -0.0381 -0.1549  0.5977
 1534SOL    HW116235   2.207   0.273   7.777  0.5395 -1.0547  2.1775
 1534SOL    HW216236   2.094   0.311   7.864 -0.5660 -0.3875  0.6359
 1535SOL     OW16237   3.398   0.758  14.346 -0.0344 -0.0696  0.0326
 1535SOL    HW116238   3.467   0.728  14.287 -1.5956  0.9095 -2.2694
 1535SOL    HW216239   3.335   0.782  14.278  0.4066 -2.7378 -1.3236
 1536SOL     OW16240   3.818   4.433   3.488 -0.0061  0.0678  0.2462
 1536SOL    HW116241   3.784   4.372   3.552 -1.2432 -0.1436 -0.6176
 1536SOL    HW216242   3.833   4.373   3.415  0.6391 -0.2073  0.6068
 1537SOL     OW16243   2.437   1.844   5.072  0.6855  0.2744  0.1309
 1537SOL    HW116244   2.455   1.901   5.147 -2.1079  2.9006 -1.1865
 1537SOL    HW216245   2.508   1.885   5.023 -0.1322  0.2044 -1.1024
 1538SOL     OW16246   4.720   1.353  12.432  0.1909  0.3033 -0.1547
 1538SOL    HW116247   0.066   1.401  12.432  1.4375 -1.8071  0.3960
 1538SOL    HW216248   4.686   1.401  12.356  2.6365  1.1208 -0.7395
 1539SOL     OW16249   2.783   3.562   2.434  0.0193  0.0324 -0.1961
 1539SOL    HW116250   2.821   3.630   2.489  3.7351 -0.3739 -2.2328
 1539SOL    HW216251   2.755   3.616   2.360 -1.5465 -0.8236 -0.2146
 1540SOL     OW16252   1.723   4.426   2.842  0.4243  0.4459  0.2084
 1540SOL    HW116253   1.698   4.429   2.935  1.6088  1.5920  0.4863
 1540SOL    HW216254   1.791   4.360   2.855  2.0939  2.2146  0.4157
 1541SOL     OW16255   3.307   1.088   3.296 -0.1265 -0.1958  0.0662
 1541SOL    HW116256   3.277   1.178   3.283  2.5248  0.6826 -0.0088
 1541SOL    HW216257   3.258   1.047   3.224  1.6547  0.1236 -1.3292
 1542SOL     OW16258   2.741   4.588   5.958  0.6180 -0.4241 -0.1585
 1542SOL    HW116259   2.674   4.651   5.984  1.6521  1.1726 -1.3584
 1542SOL    HW216260   2.735   4.588   5.862 -2.3836 -0.1913  0.0223
 1543SOL     OW16261   4.722   1.140   6.671 -0.2397 -0.8818 -0.1163
 1543SOL    HW116262   4.631   1.156   6.646 -0.4270  1.8473  2.3202
 1543SOL    HW216263   0.015   1.171   6.585 -0.5986 -2.2276 -0.7324
 1544SOL     OW16264   0.004   0.262   7.535 -0.4593  0.0292 -0.0426
 1544SOL    HW116265   0.093   0.298   7.539 -0.2226 -0.7187  1.2919
 1544SOL    HW216266   0.023   0.209   7.457  0.7509 -0.4044  0.5454
 1545SOL     OW16267   2.930   0.460   5.874  0.6039  0.4981  0.0456
 1545SOL    HW116268   2.926   0.463   5.970  0.8490 -2.5456  0.1365
 1545SOL    HW216269   2.981   0.541   5.863  1.6904 -0.6188 -2.9715
 1546SOL     OW16270   2.923   4.532   9.288 -0.6080 -0.0443 -0.0510
 1546SOL    HW116271   2.993   4.576   9.241  0.2285 -0.7476  0.5509
 1546SOL    HW216272   2.937   4.443   9.257  1.0197  0.5993 -1.1415
 1547SOL     OW16273   3.100   0.068   0.339  0.3204  0.1524  0.1030
 1547SOL    HW116274   3.094   0.014   0.418  2.1292  0.1291  0.2170
 1547SOL    HW216275   3.121   0.154   0.375  1.6229 -0.7194  1.3983
 1548SOL     OW16276   2.994   2.788   4.057  0.3303 -0.0582 -0.1810
 1548SOL    HW116277   2.995   2.868   4.004 -1.4771 -2.4881 -3.9113
 1548SOL    HW216278   2.990   2.825   4.145 -1.6694 -0.0375 -0.2844
 1549SOL     OW16279   3.714   4.534   5.309 -0.2752 -0.2842  0.1765
 1549SOL    HW116280   3.625   4.566   5.303  0.6023  1.6541 -2.5123
 1549SOL    HW216281   3.745   4.588   5.382  0.0315 -0.3383  0.0899
 1550SOL     OW16282   4.433   4.017   7.742 -0.0890  0.2882  0.1592
 1550SOL    HW116283   4.414   4.110   7.752  3.1476  1.1047 -1.0018
 1550SOL    HW216284   4.384   4.003   7.661 -1.0544  1.8187  0.4782
 1551SOL     OW16285   0.507   2.048  16.575  0.2315 -0.1349  0.2245
 1551SOL    HW116286   0.600   2.041  16.596 -0.0569 -0.9266  1.2672
 1551SOL    HW216287   0.515   2.118  16.511  0.1139 -0.6118 -0.3169
 1552SOL     OW16288   3.461   0.547   6.984  0.8481  0.1666  0.5590
 1552SOL    HW116289   3.417   0.559   6.900  0.0791  0.3980  0.9870
 1552SOL    HW216290   3.462   0.451   6.982  1.7046  0.1880  0.0000
 1553SOL     OW16291   4.458   1.244  15.155  0.1917 -0.4258 -0.0789
 1553SOL    HW116292   4.488   1.200  15.076 -0.7397 -0.0274 -0.6542
 1553SOL    HW216293   4.384   1.186  15.175  1.1600 -1.7065 -0.2595
 1554SOL     OW16294   2.815   3.642  10.675  0.1189  0.2994  0.4143
 1554SOL    HW116295   2.853   3.721  10.713  0.2952  0.3288  0.1752
 1554SOL    HW216296   2.887   3.580  10.683 -0.6240 -0.6390 -0.1586
 1555SOL     OW16297   3.633   2.161   7.722  0.6953  0.8237 -0.3563
 1555SOL    HW116298   3.707   2.109   7.753 -0.3406 -0.3747  0.0917
 1555SOL    HW216299   3.600   2.208   7.798 -0.1628 -2.4722  1.3064
 1556SOL     OW16300   3.303   0.813   3.902  0.3148  0.3150 -0.4456
 1556SOL    HW116301   3.221   0.860   3.886 -0.0502 -0.2698 -0.2632
 1556SOL    HW216302   3.338   0.853   3.982  0.6942 -0.7826 -0.0696
 1557SOL     OW16303   2.764   1.253  14.286  0.0403 -0.7054 -0.9395
 1557SOL    HW116304   2.835   1.317  14.281  0.7145 -1.3851 -0.0203
 1557SOL    HW216305   2.704   1.305  14.232 -0.2014 -0.7694 -0.7309
 1558SOL     OW16306   1.574   3.439   1.038 -0.2553  0.2624 -0.2077
 1558SOL    HW116307   1.620   3.442   1.122 -0.5838 -0.0420 -0.0182
 1558SOL    HW216308   1.491   3.397   1.061  1.3188 -1.6234  1.9660
 1559SOL     OW16309   0.529   4.606   9.665 -0.5029  0.3026  0.1824
 1559SOL    HW116310   0.537   4.533   9.726  0.3184 -0.4913 -0.8864
 1559SOL    HW216311   0.480   4.670   9.717  2.0805 -1.2216  4.4486
 1560SOL     OW16312   1.676   3.178   3.007 -0.7983 -0.0087  0.4707
 1560SOL    HW116313   1.724   3.239   2.950 -1.8708 -0.4196 -0.8722
 1560SOL    HW216314   1.745   3.113   3.016 -1.4702 -0.7004  0.5754
 1561SOL     OW16315   1.177   0.193  14.231 -0.0524  0.4295  0.0876
 1561SOL    HW116316   1.264   0.202  14.270 -0.4157  2.0545  0.5145
 1561SOL    HW216317   1.122   0.197  14.309 -2.5188 -0.9337 -1.5623
 1562SOL     OW16318   3.106   3.051   8.578  0.1849 -0.3874  0.1222
 1562SOL    HW116319   3.051   3.129   8.565 -0.6076 -0.9828 -0.1199
 1562SOL    HW216320   3.165   3.084   8.645 -1.4150  2.9155 -0.0455
 1563SOL     OW16321   1.854   1.723   7.011 -0.1197  0.3985 -0.1226
 1563SOL    HW116322   1.865   1.773   7.092  0.3747  0.7140 -0.3764
 1563SOL    HW216323   1.935   1.744   6.964 -0.0124 -0.0073 -0.1197
 1564SOL     OW16324   4.370   0.694   3.756 -0.1672  0.1103  0.1176
 1564SOL    HW116325   4.308   0.766   3.745 -0.7073 -0.7045 -2.1275
 1564SOL    HW216326   4.446   0.748   3.776 -1.2945  1.3558  1.0444
 1565SOL     OW16327   1.247   0.998   7.160 -0.6716  0.7277 -0.0468
 1565SOL    HW116328   1.190   0.922   7.172  0.1066  0.7429  3.6720
 1565SOL    HW216329   1.322   0.970   7.107  0.2148  0.6531  1.2534
 1566SOL     OW16330   3.339   3.292   3.969  0.6583  0.8323  0.0056
 1566SOL    HW116331   3.329   3.197   3.970  1.7040  0.7089 -0.4070
 1566SOL    HW216332   3.316   3.312   4.059  1.7360  1.1977  0.2072
 1567SOL     OW16333   4.002   0.333   2.883  0.1809 -0.0708 -0.0195
 1567SOL    HW116334   3.986   0.246   2.920  0.2953  0.5748  1.5716
 1567SOL    HW216335   3.954   0.390   2.943 -1.6972 -0.2396 -1.3640
 1568SOL     OW16336   0.777   4.731   6.396 -0.3337  0.4331 -0.0212
 1568SOL    HW116337   0.839   0.006   6.323 -0.3981 -1.1776 -0.3184
 1568SOL    HW216338   0.762   0.088   6.414  0.6109  0.4798  0.5617
 1569SOL     OW16339   1.046   1.652   9.602  0.1996 -0.3067  0.9553
 1569SOL    HW116340   1.123   1.641   9.547  1.0421 -0.1458  2.1111
 1569SOL    HW216341   1.044   1.745   9.624  1.4118 -0.1048  0.1310
 1570SOL     OW16342   2.509   0.286   3.944  0.1658 -0.2949  0.1867
 1570SOL    HW116343   2.416   0.270   3.963  0.1638  3.1783  3.1466
 1570SOL    HW216344   2.548   0.314   4.027 -1.0568 -2.9743  1.6618
 1571SOL     OW16345   3.479   1.949   2.799  0.2619 -0.3022 -0.2952
 1571SOL    HW116346   3.387   1.969   2.816  0.2917 -0.9443  0.5965
 1571SOL    HW216347   3.510   2.011   2.732  1.5700 -0.2700  0.3356
 1572SOL     OW16348   3.195   3.586   1.117 -0.6402 -0.2850 -0.7988
 1572SOL    HW116349   3.187   3.584   1.021 -2.9567  1.5187 -0.6515
 1572SOL    HW216350   3.142   3.664   1.134  0.1332 -0.2942  1.5922
 1573SOL     OW16351   4.621   1.660   5.852  0.0146  0.0658  0.2003
 1573SOL    HW116352   4.606   1.572   5.886  0.1640 -0.9316 -2.3609
 1573SOL    HW216353   4.654   1.634   5.767  0.7779 -2.7732  1.3638
 1574SOL     OW16354   3.192   0.020   4.189  0.0924  0.2656 -0.1685
 1574SOL    HW116355   3.227   4.735   4.276  1.3839  2.3474 -0.1763
 1574SOL    HW216356   3.101   4.727   4.187  0.6489 -1.4536  0.1606
 1575SOL     OW16357   0.770   2.581   7.509 -0.1048  0.5142  0.7444
 1575SOL    HW116358   0.799   2.587   7.418  0.4429 -1.2963  0.8035
 1575SOL    HW216359   0.702   2.516   7.488 -0.9132  1.8898 -0.9264
 1576SOL     OW16360   2.410   2.722   0.634  0.3981  0.4009  0.1541
 1576SOL    HW116361   2.458   2.802   0.654  1.7563  0.1563 -2.1393
 1576SOL    HW216362   2.441   2.672   0.709  2.6344 -0.2701 -1.2370
 1577SOL     OW16363   3.183   1.233   4.489 -0.0673 -0.0634 -0.8066
 1577SOL    HW116364   3.187   1.304   4.425  1.3768  3.1068  2.8464
 1577SOL    HW216365   3.262   1.255   4.538 -0.3804  0.7012 -0.6505
 1578SOL     OW16366   0.176   2.130  16.629 -0.0908 -0.7415 -0.1741
 1578SOL    HW116367   0.227   2.050  16.639  0.2915 -0.6855 -1.7004
 1578SOL    HW216368   0.122   2.104  16.554 -1.1637 -0.1107  0.3662
 1579SOL     OW16369   2.608   0.457   0.877  0.2710  0.3399 -0.3376
 1579SOL    HW116370   2.517   0.454   0.848  0.5459 -0.9050 -1.0867
 1579SOL    HW216371   2.613   0.552   0.886 -0.6590  0.4637 -1.1359
 1580SOL     OW16372   3.545   0.022   7.502 -0.2476 -0.3370  0.2806
 1580SOL    HW116373   3.588   4.696   7.445  0.2015 -0.0578  0.3136
 1580SOL    HW216374   3.528   0.088   7.435  1.1288  0.8099  1.0523
 1581SOL     OW16375   2.012   4.279   4.254  0.2175  0.2165  0.3038
 1581SOL    HW116376   1.938   4.340   4.258  0.4025  0.4887 -0.3318
 1581SOL    HW216377   2.051   4.304   4.170  0.2899  0.5170  0.4290
 1582SOL     OW16378   4.241   1.691   8.700 -0.1299 -0.1665  0.3013
 1582SOL    HW116379   4.235   1.638   8.779  1.3026  1.2932  1.3903
 1582SOL    HW216380   4.153   1.728   8.704 -0.3516 -0.5214 -1.3048
 1583SOL     OW16381   1.342   2.327   6.268 -0.1494  0.4346 -0.3250
 1583SOL    HW116382   1.384   2.404   6.305  0.2927  0.5674 -1.1119
 1583SOL    HW216383   1.357   2.267   6.341 -0.6473 -0.8914 -1.3071
 1584SOL     OW16384   4.731   3.755   9.138  0.1925 -0.2157  0.0619
 1584SOL    HW116385   4.693   3.808   9.069  0.2695  3.5853  2.9766
 1584SOL    HW216386   0.018   3.816   9.208 -1.7377  0.2067  0.3235
 1585SOL     OW16387   3.805   2.257   3.782 -0.1205 -0.0082  0.1851
 1585SOL    HW116388   3.748   2.212   3.720  2.2008 -2.2446 -0.3308
 1585SOL    HW216389   3.878   2.197   3.795  0.6084  1.1119  1.2260
 1586SOL     OW16390   0.563   4.604   5.321  0.7604 -0.1073  0.4252
 1586SOL    HW116391   0.571   4.677   5.382  1.7851 -0.5825  0.8685
 1586SOL    HW216392   0.559   4.534   5.386 -1.8765 -0.5271 -0.1909
 1587SOL     OW16393   4.258   1.641   4.475  0.4214 -0.2640 -0.1346
 1587SOL    HW116394   4.235   1.610   4.387  2.3122  0.0330 -0.7367
 1587SOL    HW216395   4.205   1.586   4.532 -1.8549 -0.2869 -2.2913
 1588SOL     OW16396   4.346   1.396  10.424  0.1799  0.1772  0.5025
 1588SOL    HW116397   4.400   1.428  10.496 -1.0901  0.6197  1.2729
 1588SOL    HW216398   4.262   1.416  10.466 -0.5849 -1.0152 -0.4354
 1589SOL     OW16399   3.370   4.131   3.083 -0.0647 -0.0576  0.2041
 1589SOL    HW116400   3.283   4.101   3.111 -0.8747  3.0094  0.9779
 1589SOL    HW216401   3.336   4.218   3.062  1.6691  0.4259 -0.5938
 1590SOL     OW16402   1.171   2.428   0.603 -0.1915  0.0707 -0.1711
 1590SOL    HW116403   1.165   2.448   0.696 -0.6669 -0.8455 -0.0120
 1590SOL    HW216404   1.181   2.516   0.567 -0.9648  0.0778 -0.3661
 1591SOL     OW16405   4.164   1.688  11.360  0.1681 -0.2809  0.7072
 1591SOL    HW116406   4.081   1.643  11.344  0.0146 -0.7221  2.6526
 1591SOL    HW216407   4.215   1.612  11.389  1.0668 -1.0818 -2.9486
 1592SOL     OW16408   2.670   2.929   5.922  0.2221  0.0188 -0.1430
 1592SOL    HW116409   2.591   2.983   5.933  1.0131  1.0801  0.3279
 1592SOL    HW216410   2.643   2.847   5.879 -0.0038  0.2770 -0.4959
 1593SOL     OW16411   3.036   2.794  10.741 -0.8718 -0.1007  0.1905
 1593SOL    HW116412   2.944   2.818  10.756 -0.1761  3.3559 -1.0823
 1593SOL    HW216413   3.040   2.774  10.648 -1.0175  1.7358 -0.2146
 1594SOL     OW16414   2.403   3.132   3.180  0.1619  0.1000  0.0882
 1594SOL    HW116415   2.360   3.056   3.141 -0.3937 -0.1276  1.1368
 1594SOL    HW216416   2.486   3.092   3.208 -0.5477 -0.9142  0.7181
 1595SOL     OW16417   2.432   4.374   7.756 -0.1033 -0.4660 -0.4153
 1595SOL    HW116418   2.427   4.436   7.829 -1.6989 -0.9903 -0.0794
 1595SOL    HW216419   2.449   4.435   7.684  3.1900 -1.4070 -0.4382
 1596SOL     OW16420   2.889   3.898   4.683 -0.5464  0.2845  0.3202
 1596SOL    HW116421   2.826   3.834   4.716  1.4830 -1.4908  0.7853
 1596SOL    HW216422   2.852   3.919   4.597  1.4153 -2.6577 -1.2501
 1597SOL     OW16423   4.455   4.143   8.239 -0.5739  0.4406 -0.3780
 1597SOL    HW116424   4.425   4.055   8.261  2.5666 -0.2410  1.1610
 1597SOL    HW216425   4.475   4.121   8.148  1.2538 -1.4707  0.4791
 1598SOL     OW16426   1.025   0.840  14.348 -0.5384  0.0931 -0.4742
 1598SOL    HW116427   0.952   0.902  14.346 -1.5649 -1.0738  0.7832
 1598SOL    HW216428   1.067   0.846  14.262 -0.5754  0.4119 -0.4699
 1599SOL     OW16429   2.308   0.907   3.665  0.0966  1.0318 -0.2235
 1599SOL    HW116430   2.231   0.941   3.619 -1.0361 -0.3710  0.6408
 1599SOL    HW216431   2.278   0.926   3.754  0.4880 -0.9983  0.3302
 1600SOL     OW16432   3.062   3.648   5.631  0.0731 -0.1380  0.3975
 1600SOL    HW116433   3.057   3.604   5.546 -0.7762  2.2739 -0.7958
 1600SOL    HW216434   2.977   3.630   5.673 -0.2378  2.0952  0.7176
 1601SOL     OW16435   4.029   4.730  17.518 -0.5610 -0.0358 -0.4744
 1601SOL    HW116436   4.045   0.016  17.609 -0.4129 -2.4554  0.1053
 1601SOL    HW216437   3.933   4.734  17.517 -0.5875 -0.5433  0.1480
 1602SOL     OW16438   2.505   2.597  17.117  0.2643 -0.3297  0.3204
 1602SOL    HW116439   2.508   2.597  17.021 -0.3935 -2.0504  0.3178
 1602SOL    HW216440   2.587   2.645  17.133  0.1247 -0.2175  0.6998
 1603SOL     OW16441   0.934   0.570   5.999  0.3727 -0.0453 -0.4016
 1603SOL    HW116442   0.977   0.648   5.963  1.7873 -0.7226 -0.1863
 1603SOL    HW216443   0.849   0.607   6.025  0.4839  0.8852 -1.3554
 1604SOL     OW16444   3.549   0.001   6.695 -0.3949  0.2663 -0.1457
 1604SOL    HW116445   3.533   4.667   6.759  1.7303 -0.3860 -0.3421
 1604SOL    HW216446   3.560   0.078   6.751 -2.6753  0.3445  0.2307
 1605SOL     OW16447   0.344   4.262   0.247  0.2437 -0.0489  0.2212
 1605SOL    HW116448   0.273   4.301   0.196  1.0697 -0.4477 -1.2512
 1605SOL    HW216449   0.391   4.205   0.185 -2.6821 -2.0864 -0.1158
 1606SOL     OW16450   1.329   1.226   4.566 -0.0118  0.1352 -1.1277
 1606SOL    HW116451   1.289   1.304   4.527 -1.9779 -0.2212  0.2100
 1606SOL    HW216452   1.420   1.252   4.551 -0.0967  2.2614  1.9547
 1607SOL     OW16453   1.675   2.066   7.297  0.0061  0.4193  0.3164
 1607SOL    HW116454   1.667   2.042   7.390 -1.3371  0.5352  0.2240
 1607SOL    HW216455   1.762   2.106   7.297 -0.2569  1.0095  1.5086
 1608SOL     OW16456   0.470   2.638   4.206  0.1722 -0.2761 -0.1418
 1608SOL    HW116457   0.405   2.599   4.148  1.6339  0.6020 -2.3550
 1608SOL    HW216458   0.407   2.653   4.277  1.4808  0.5760  0.8394
 1609SOL     OW16459   1.420   0.281   3.826  0.1357 -0.2434 -0.0923
 1609SOL    HW116460   1.516   0.282   3.831  0.1767  0.0291 -1.1416
 1609SOL    HW216461   1.404   0.266   3.733  1.4996 -1.9819 -0.0564
 1610SOL     OW16462   1.732   2.231   0.993  0.3203 -0.1156 -0.6151
 1610SOL    HW116463   1.647   2.266   0.967 -0.8723 -2.7493 -0.1715
 1610SOL    HW216464   1.757   2.197   0.907  1.8439 -1.4779  0.3673
 1611SOL     OW16465   2.033   2.324  17.143  0.2252  0.0633  0.0998
 1611SOL    HW116466   1.956   2.337  17.088  3.5745  2.0729 -4.0434
 1611SOL    HW216467   2.094   2.380  17.096 -0.8912  0.8354 -0.4291
 1612SOL     OW16468   0.271   2.848   5.207  0.0001 -0.1579  0.1983
 1612SOL    HW116469   0.248   2.755   5.196  1.2473 -0.4752  0.2751
 1612SOL    HW216470   0.186   2.891   5.199 -0.3720 -1.1495 -1.3412
 1613SOL     OW16471   0.141   2.099   7.746 -0.1440 -0.6563 -0.1473
 1613SOL    HW116472   0.056   2.088   7.787 -0.6844  1.8621 -0.5783
 1613SOL    HW216473   0.164   2.007   7.734  1.9584 -0.1220 -0.3556
 1614SOL     OW16474   1.747   3.172   7.454  0.1682  0.8017  0.1641
 1614SOL    HW116475   1.755   3.206   7.543  0.9165 -1.6289  1.0243
 1614SOL    HW216476   1.698   3.244   7.414 -0.5957  0.6531  0.8466
 1615SOL     OW16477   0.294   1.561   6.779 -0.5431  0.1044  0.3908
 1615SOL    HW116478   0.282   1.588   6.869  0.8514  0.7244  0.3942
 1615SOL    HW216479   0.258   1.472   6.781 -1.5799  0.5582  1.3079
 1616SOL     OW16480   0.766   0.703  15.941 -0.0725 -0.1941 -0.1282
 1616SOL    HW116481   0.786   0.794  15.919  0.1369 -0.3331 -0.4990
 1616SOL    HW216482   0.793   0.690  16.032 -0.7228 -0.6569  0.0011
 1617SOL     OW16483   3.017   3.297  12.026  0.5486  0.4550 -0.0092
 1617SOL    HW116484   3.072   3.371  11.999  1.6557 -0.3947 -0.0888
 1617SOL    HW216485   2.930   3.335  12.013  0.1153 -0.4595  0.1848
 1618SOL     OW16486   0.446   3.390   5.423  0.4092  0.9988 -0.0197
 1618SOL    HW116487   0.495   3.422   5.499  0.7491 -0.1205  0.2263
 1618SOL    HW216488   0.476   3.447   5.353 -0.5357  3.2126  1.3783
 1619SOL     OW16489   0.112   1.333   9.530  1.0577 -0.9105 -0.9347
 1619SOL    HW116490   0.071   1.301   9.450 -1.4977 -0.2616  0.1286
 1619SOL    HW216491   0.207   1.327   9.520  0.8028 -1.1377 -3.1545
 1620SOL     OW16492   0.519   1.475   7.382 -0.2574  0.3489 -0.1897
 1620SOL    HW116493   0.434   1.514   7.398  0.8263  1.8761  1.8086
 1620SOL    HW216494   0.557   1.560   7.361 -0.7933  0.7715  0.5688
 1621SOL     OW16495   4.720   0.782   3.507  0.1236 -0.4026  0.1813
 1621SOL    HW116496   0.062   0.737   3.474  1.4603  2.8659 -1.1125
 1621SOL    HW216497   4.664   0.705   3.521  0.1648 -0.3162  0.8159
 1622SOL     OW16498   3.544   0.212   5.533  0.8389 -0.3371  0.0000
 1622SOL    HW116499   3.575   0.299   5.508  0.7557  0.0178  1.1067
 1622SOL    HW216500   3.453   0.232   5.557  1.5229  0.5855  1.8848
 1623SOL     OW16501   2.936   3.840   5.251  0.1821 -0.3174  0.0910
 1623SOL    HW116502   2.897   3.826   5.337 -0.8698 -2.8565 -0.7823
 1623SOL    HW216503   2.986   3.914   5.285  0.7654 -0.5897 -0.1860
 1624SOL     OW16504   1.490   1.089   2.725  0.0914  0.4000  0.1360
 1624SOL    HW116505   1.542   1.168   2.738  0.2406  0.5625 -1.4805
 1624SOL    HW216506   1.490   1.053   2.813 -3.0875 -1.6864 -0.6856
 1625SOL     OW16507   1.563   1.814   7.228 -0.1637 -0.0951 -0.6134
 1625SOL    HW116508   1.593   1.904   7.237  3.1202 -1.1756 -0.6463
 1625SOL    HW216509   1.611   1.763   7.293  2.2564  1.3037 -1.2980
 1626SOL     OW16510   1.441   3.958   1.173  0.0599  0.7030 -0.5940
 1626SOL    HW116511   1.416   3.907   1.096 -1.2753 -0.2182  0.4557
 1626SOL    HW216512   1.354   3.993   1.194  0.1561  0.4779  0.1816
 1627SOL     OW16513   1.079   3.503   6.240 -0.2410  0.3211  0.3552
 1627SOL    HW116514   1.124   3.580   6.205  3.5157 -1.0253  2.2317
 1627SOL    HW216515   1.117   3.492   6.327 -0.0888  0.2898  0.2849
 1628SOL     OW16516   2.001   0.361   1.782  0.0039  0.0288 -0.0539
 1628SOL    HW116517   2.085   0.385   1.820 -0.6478 -0.2444  1.5574
 1628SOL    HW216518   1.955   0.443   1.802  2.9256  1.2867  1.4180
 1629SOL     OW16519   1.102   1.582   5.293 -0.0241  0.4551 -0.0999
 1629SOL    HW116520   1.007   1.578   5.296  0.0419 -1.0746 -0.3145
 1629SOL    HW216521   1.132   1.492   5.283  0.8966  0.7583 -0.1038
 1630SOL     OW16522   1.312   2.983  11.790 -0.2056 -0.0819 -0.1258
 1630SOL    HW116523   1.312   2.891  11.814 -1.2596 -0.2291 -0.6808
 1630SOL    HW216524   1.353   2.970  11.705 -1.5519  0.1748 -0.8148
 1631SOL     OW16525   0.351   1.311   9.733 -0.5332  0.0135  0.5366
 1631SOL    HW116526   0.365   1.352   9.648 -0.3429  1.4476  1.2547
 1631SOL    HW216527   0.444   1.307   9.753 -0.4197  1.9965  0.4254
 1632SOL     OW16528   2.406   4.062   7.417  1.1086  0.5153  0.6971
 1632SOL    HW116529   2.398   3.967   7.424  0.5850  0.6393  1.8005
 1632SOL    HW216530   2.410   4.078   7.511 -2.4877 -3.3392  1.5092
 1633SOL     OW16531   2.988   2.906   3.094 -0.1933 -0.2000  0.0319
 1633SOL    HW116532   3.033   2.986   3.068 -0.4067  0.5648  2.0369
 1633SOL    HW216533   2.939   2.940   3.169 -0.5840  0.1369 -0.3824
 1634SOL     OW16534   4.543   3.533  13.105  0.2819  0.2018 -0.2731
 1634SOL    HW116535   4.474   3.583  13.061 -1.1945 -2.1735 -0.6539
 1634SOL    HW216536   4.617   3.542  13.044  2.4838 -4.1903  1.7269
 1635SOL     OW16537   1.396   4.636   4.436  0.1326 -0.4842 -0.1562
 1635SOL    HW116538   1.322   4.682   4.475 -0.3474 -1.1956 -0.2316
 1635SOL    HW216539   1.407   4.553   4.483 -1.0727 -1.2423 -1.2148
 1636SOL     OW16540   3.778   4.706   7.835  0.0810 -0.1372  0.5325
 1636SOL    HW116541   3.718   4.733   7.766 -0.1449 -1.0822  0.3561
 1636SOL    HW216542   3.851   4.683   7.778 -0.3618 -1.2865  0.4271
 1637SOL     OW16543   3.124   0.083  10.046  0.0608  0.6294  0.0280
 1637SOL    HW116544   3.067   0.013  10.017  1.2396 -0.2229 -0.2267
 1637SOL    HW216545   3.138   0.058  10.138  2.3213 -0.2086 -0.5461
 1638SOL     OW16546   3.727   4.563   8.063 -0.2455 -0.4029 -0.3490
 1638SOL    HW116547   3.783   4.486   8.064  1.7300  1.0008 -1.2895
 1638SOL    HW216548   3.744   4.598   7.975 -3.4112 -2.5354 -1.7962
 1639SOL     OW16549   2.525   2.667   3.548  0.1495 -0.5573  0.1499
 1639SOL    HW116550   2.567   2.608   3.611  1.7964 -0.1009 -0.5120
 1639SOL    HW216551   2.590   2.660   3.478 -1.2195  1.2873 -1.3013
 1640SOL     OW16552   2.991   4.566   2.188  0.0813 -0.6339 -0.2042
 1640SOL    HW116553   2.944   4.649   2.180  0.7896 -0.2177 -0.1539
 1640SOL    HW216554   3.025   4.561   2.277  0.0942  1.1982 -0.1058
 1641SOL     OW16555   0.402   2.822   4.644  0.4436  0.0870 -0.4797
 1641SOL    HW116556   0.380   2.832   4.736  0.6364 -2.5327 -0.1414
 1641SOL    HW216557   0.478   2.879   4.642 -0.6015  1.4856 -0.9235
 1642SOL     OW16558   1.345   3.588  15.880 -0.2013 -0.0383 -0.2595
 1642SOL    HW116559   1.433   3.621  15.861 -0.3486  0.2295 -0.4643
 1642SOL    HW216560   1.308   3.672  15.907 -2.1151 -0.4970 -1.5213
 1643SOL     OW16561   4.515   0.692   9.172  0.2478  0.2121  0.4056
 1643SOL    HW116562   4.482   0.762   9.116  0.3494  0.4426  0.6365
 1643SOL    HW216563   4.464   0.713   9.250  0.3320  2.4715 -0.1626
 1644SOL     OW16564   0.161   0.210   4.584 -0.2713 -0.9070  0.2707
 1644SOL    HW116565   0.122   0.229   4.498  3.3950  0.7042 -1.0387
 1644SOL    HW216566   0.175   0.116   4.572  1.7022 -0.7576  1.4656
 1645SOL     OW16567   1.977   3.712   7.290  0.1338 -0.2056  0.7996
 1645SOL    HW116568   1.922   3.784   7.257 -0.0047 -1.2079 -1.1881
 1645SOL    HW216569   1.946   3.714   7.381  1.0565  0.6262  1.0877
 1646SOL     OW16570   0.722   2.544  10.486 -0.2360  0.1907 -0.6184
 1646SOL    HW116571   0.750   2.633  10.467  0.6755  0.2534  0.9700
 1646SOL    HW216572   0.772   2.499  10.418 -0.5796 -0.9754 -0.1128
 1647SOL     OW16573   4.563   1.933   3.166 -0.1236 -0.1233  0.0568
 1647SOL    HW116574   4.596   1.873   3.233 -0.9710  0.7831  1.2950
 1647SOL    HW216575   4.642   1.953   3.115  0.4395 -0.6392  0.7198
 1648SOL     OW16576   1.215   4.221   8.005 -0.2462 -0.7578  0.0201
 1648SOL    HW116577   1.185   4.217   7.914  2.6103 -0.4816 -0.9114
 1648SOL    HW216578   1.135   4.248   8.052 -0.2797 -2.0904  0.7142
 1649SOL     OW16579   1.962   3.367   8.836 -0.1056  0.3426 -0.4309
 1649SOL    HW116580   1.869   3.390   8.834 -0.1710  0.1382  0.2218
 1649SOL    HW216581   1.996   3.421   8.907 -1.7337 -2.5496  2.5682
 1650SOL     OW16582   3.375   2.750   4.222  0.1240  0.4975  0.4997
 1650SOL    HW116583   3.459   2.794   4.206  0.2072  0.7343  1.5960
 1650SOL    HW216584   3.343   2.733   4.133  1.1037 -3.5075  0.9150
 1651SOL     OW16585   3.260   1.448   6.321  0.6986 -0.1052 -0.2063
 1651SOL    HW116586   3.328   1.488   6.375  0.9964  2.1419 -2.2079
 1651SOL    HW216587   3.194   1.423   6.386 -0.3776  2.6346 -0.2500
 1652SOL     OW16588   1.174   2.845  15.422 -0.1860 -0.3176 -0.1213
 1652SOL    HW116589   1.249   2.835  15.365 -0.4251 -0.1704 -0.4602
 1652SOL    HW216590   1.144   2.934  15.404 -1.5859 -0.7417  0.0898
 1653SOL     OW16591   1.857   1.722  10.014  0.1079  0.1841  0.2517
 1653SOL    HW116592   1.861   1.816  10.034  0.5857  0.3403 -0.5712
 1653SOL    HW216593   1.938   1.720   9.963  0.0097  2.5151  0.0217
 1654SOL     OW16594   0.982   3.138   1.986 -0.4084 -0.4816  0.0223
 1654SOL    HW116595   0.967   3.044   1.998 -0.4449 -0.4630  0.1189
 1654SOL    HW216596   1.077   3.143   2.001 -0.5159 -1.0909  0.8591
 1655SOL     OW16597   0.545   1.390   3.482 -0.4500 -0.3042 -0.3992
 1655SOL    HW116598   0.617   1.451   3.497 -0.9495  0.1294  0.2676
 1655SOL    HW216599   0.597   1.310   3.479 -0.6531 -0.5385  2.3449
 1656SOL     OW16600   0.271   1.190   9.008 -0.0042 -0.4836  0.1212
 1656SOL    HW116601   0.314   1.263   8.964  1.6014 -1.3181  0.3065
 1656SOL    HW216602   0.340   1.125   9.015 -1.7118 -2.2079  0.8610
 1657SOL     OW16603   3.900   1.738   9.387  0.0789  0.3405  0.5307
 1657SOL    HW116604   3.815   1.783   9.386  0.1128  0.3811 -0.0793
 1657SOL    HW216605   3.871   1.648   9.369  1.9590 -0.3752  1.1399
 1658SOL     OW16606   1.663   2.060  10.135  0.9812 -0.0367 -0.4490
 1658SOL    HW116607   1.664   2.152  10.107  1.1177 -0.3287 -1.4125
 1658SOL    HW216608   1.587   2.034  10.084  0.3844  0.2665  0.2933
 1659SOL     OW16609   3.561   1.532  13.433 -0.0089  0.1405 -0.3825
 1659SOL    HW116610   3.607   1.449  13.419 -1.8164 -0.4371 -2.8088
 1659SOL    HW216611   3.525   1.545  13.345 -0.3026  0.0868 -0.2690
 1660SOL     OW16612   0.317   2.509   7.697  0.9338 -0.2395  0.2338
 1660SOL    HW116613   0.234   2.469   7.722  1.7796 -2.2204 -0.1127
 1660SOL    HW216614   0.390   2.465   7.741  0.6962 -0.0424  0.8294
 1661SOL     OW16615   1.988   1.674  10.333  0.3947  0.0056  0.7045
 1661SOL    HW116616   1.946   1.759  10.321  0.7834  0.2718  1.2224
 1661SOL    HW216617   2.055   1.692  10.399  1.3761 -0.8515 -0.0439
 1662SOL     OW16618   0.626   4.256   2.235  0.8426  0.3017  0.1350
 1662SOL    HW116619   0.678   4.308   2.296  0.6513  0.0230  0.5295
 1662SOL    HW216620   0.618   4.318   2.162 -1.1703  1.1722  1.0988
 1663SOL     OW16621   2.463   2.391  17.652 -0.5166 -0.0754  0.5932
 1663SOL    HW116622   2.454   2.483  17.678  0.5083  0.5789 -1.3647
 1663SOL    HW216623   2.376   2.376  17.615 -0.2703 -0.5679  0.2153
 1664SOL     OW16624   3.783   0.352   8.852 -0.1293  0.3457 -0.0591
 1664SOL    HW116625   3.689   0.364   8.864  0.0882 -0.7340  2.9619
 1664SOL    HW216626   3.821   0.397   8.928 -0.5679 -0.6273  0.7446
 1665SOL     OW16627   2.162   1.370   6.985 -0.0811 -0.0159 -0.8184
 1665SOL    HW116628   2.147   1.431   7.057  0.0187  0.6445 -1.3656
 1665SOL    HW216629   2.075   1.360   6.947 -0.0051 -1.9337 -0.4882
 1666SOL     OW16630   1.019   3.885   6.218 -0.1489  0.1981 -0.1662
 1666SOL    HW116631   1.107   3.852   6.232  0.0268  1.0915  0.7977
 1666SOL    HW216632   0.962   3.834   6.275 -0.5244 -1.3732 -1.9425
 1667SOL     OW16633   1.799   3.761   0.740 -0.2064 -0.3009 -0.5400
 1667SOL    HW116634   1.802   3.679   0.788  0.3185  0.1413  0.1764
 1667SOL    HW216635   1.805   3.828   0.808  0.6063 -1.3876  0.4562
 1668SOL     OW16636   4.182   2.740   0.665 -0.0127  0.1003 -0.7440
 1668SOL    HW116637   4.096   2.757   0.702  0.6680  2.4672 -0.2589
 1668SOL    HW216638   4.196   2.813   0.604  0.7636  0.1309 -0.5331
 1669SOL     OW16639   0.098   2.295  14.482 -0.1069  0.1210 -0.4057
 1669SOL    HW116640   0.030   2.363  14.481 -0.6006 -0.3758 -0.0932
 1669SOL    HW216641   0.124   2.290  14.390  1.7147  0.4823  0.0908
 1670SOL     OW16642   1.086   2.410   8.352  0.4644  0.2752  0.4221
 1670SOL    HW116643   1.054   2.484   8.301 -1.9513 -0.5320  0.7771
 1670SOL    HW216644   1.013   2.349   8.346 -0.0567  1.0404 -1.1185
 1671SOL     OW16645   2.752   3.957   5.972 -0.0221  0.2376  0.4780
 1671SOL    HW116646   2.846   3.956   5.956 -0.1353  0.1475 -0.1881
 1671SOL    HW216647   2.732   4.042   5.931 -1.4819 -0.1330  0.4033
 1672SOL     OW16648   2.559   0.743  14.444  0.1901 -0.1531  0.1908
 1672SOL    HW116649   2.614   0.810  14.405  0.2149  1.5318  3.0945
 1672SOL    HW216650   2.574   0.745  14.539 -0.1730  2.6166  0.1651
 1673SOL     OW16651   1.212   0.109   2.209  0.8717  0.4189 -0.0444
 1673SOL    HW116652   1.125   0.148   2.218  0.5667  0.3600 -2.6246
 1673SOL    HW216653   1.254   0.179   2.159  1.8795 -1.0700 -1.3047
 1674SOL     OW16654   0.029   1.885   9.656 -0.0449 -0.0268  0.4169
 1674SOL    HW116655   0.027   1.790   9.647  2.3123  0.2080 -2.3634
 1674SOL    HW216656   0.051   1.898   9.748  1.6149  2.4391 -0.3285
 1675SOL     OW16657   1.540   3.719   8.922 -0.6653 -0.1494 -0.4001
 1675SOL    HW116658   1.491   3.697   9.001  0.6041  0.2244  0.4893
 1675SOL    HW216659   1.613   3.763   8.964 -0.2529 -0.7309 -0.5047
 1676SOL     OW16660   0.557   4.336  11.935 -0.0734  0.6717  0.3819
 1676SOL    HW116661   0.564   4.285  12.016 -0.9527 -0.4864 -0.2786
 1676SOL    HW216662   0.521   4.418  11.968 -1.7756  0.0382  0.0708
 1677SOL     OW16663   3.469   4.474   1.703 -0.6648  0.3037  0.1010
 1677SOL    HW116664   3.557   4.441   1.720 -0.7758  0.1362  0.3507
 1677SOL    HW216665   3.479   4.464   1.608 -0.6244  0.9168  0.0387
 1678SOL     OW16666   4.472   1.634   2.857 -0.3869  0.1680 -0.4397
 1678SOL    HW116667   4.549   1.577   2.866 -0.0959  0.6575  0.2341
 1678SOL    HW216668   4.404   1.568   2.850 -0.3877  0.4405 -2.9540
 1679SOL     OW16669   1.575   0.377  11.933  0.4718 -0.2792  0.0515
 1679SOL    HW116670   1.490   0.419  11.920 -0.3487 -2.1630 -0.7614
 1679SOL    HW216671   1.616   0.382  11.847  1.1626  0.2344  0.4093
 1680SOL     OW16672   1.045   3.969   5.813  0.5225  0.2233  0.7141
 1680SOL    HW116673   0.955   4.000   5.821  0.7969  1.3227 -0.6178
 1680SOL    HW216674   1.032   3.874   5.813 -0.3753  0.3460  0.3702
 1681SOL     OW16675   0.132   3.001   2.699 -0.2638 -0.3278 -0.2872
 1681SOL    HW116676   0.098   3.048   2.623 -0.7145 -1.0904 -0.5540
 1681SOL    HW216677   0.213   3.052   2.708  0.2317 -0.9219 -1.3317
 1682SOL     OW16678   2.640   2.708  15.591  0.3223  0.7022 -0.1925
 1682SOL    HW116679   2.558   2.740  15.628  0.5156 -1.1204  1.7744
 1682SOL    HW216680   2.670   2.663  15.670 -1.4897  1.5355  0.9470
 1683SOL     OW16681   1.626   1.369  16.259 -0.2156  0.5207  0.1137
 1683SOL    HW116682   1.644   1.405  16.172 -1.4622  1.0355  0.0711
 1683SOL    HW216683   1.672   1.285  16.262 -1.0071  0.0636 -1.1985
 1684SOL     OW16684   0.035   2.741   4.407  0.2264  0.1045 -0.2101
 1684SOL    HW116685   0.128   2.721   4.395  1.0210  2.3468  2.1410
 1684SOL    HW216686   4.736   2.707   4.325  1.8277  1.2810 -1.4038
 1685SOL     OW16687   3.169   2.000   7.248  0.4337  0.0718 -0.4586
 1685SOL    HW116688   3.163   1.909   7.220  1.1274 -0.1638  0.1495
 1685SOL    HW216689   3.080   2.033   7.240  0.2151 -0.0436  1.5820
 1686SOL     OW16690   4.471   1.179   6.622  0.1695  0.0620  0.2518
 1686SOL    HW116691   4.439   1.117   6.687 -0.2502  0.3898  0.3501
 1686SOL    HW216692   4.390   1.194   6.574  0.6263  0.3564 -0.4294
 1687SOL     OW16693   4.073   1.006   3.300  0.2398  0.0568 -0.0226
 1687SOL    HW116694   4.093   0.916   3.329  1.3787 -0.3919 -2.2148
 1687SOL    HW216695   4.129   1.007   3.222  0.2557 -0.0453 -0.0126
 1688SOL     OW16696   2.161   1.370   7.481  0.4448  0.3859  0.8660
 1688SOL    HW116697   2.132   1.448   7.433  3.2882  0.1445 -1.1971
 1688SOL    HW216698   2.222   1.330   7.420  1.3584  1.2672  1.1993
 1689SOL     OW16699   3.212   4.153   4.190 -0.2645 -0.7637 -0.1945
 1689SOL    HW116700   3.286   4.161   4.252  2.2625 -2.4015 -2.9764
 1689SOL    HW216701   3.145   4.135   4.256 -0.4730 -0.2842 -0.2800
 1690SOL     OW16702   2.461   4.023   8.403 -0.2724  0.0209 -0.1479
 1690SOL    HW116703   2.530   4.014   8.468  1.2841  0.6585 -1.7089
 1690SOL    HW216704   2.480   4.108   8.363  1.7263  0.4062  1.6069
 1691SOL     OW16705   1.814   1.450  16.999  0.4537 -0.6050  0.3259
 1691SOL    HW116706   1.908   1.437  17.009  0.5000 -0.9443 -0.5230
 1691SOL    HW216707   1.791   1.473  17.089  1.2271 -0.5809  0.5209
 1692SOL     OW16708   0.742   3.243   9.569  0.4246  0.3497  0.5891
 1692SOL    HW116709   0.653   3.244   9.535  0.1908 -1.2963  1.1475
 1692SOL    HW216710   0.791   3.304   9.514 -0.0958  1.1967  1.0766
 1693SOL     OW16711   1.918   1.210  10.258 -0.3661  0.3169  0.2356
 1693SOL    HW116712   1.847   1.163  10.300 -1.4955 -0.7473 -2.8404
 1693SOL    HW216713   1.873   1.290  10.229 -1.3120 -0.0200  0.7778
 1694SOL     OW16714   0.105   4.587   2.103 -0.0273 -0.2125 -0.1054
 1694SOL    HW116715   0.116   4.607   2.010 -0.2820  0.6593  0.0519
 1694SOL    HW216716   0.157   4.509   2.121  1.6242  0.7986 -0.5093
 1695SOL     OW16717   2.920   2.670   8.879  0.2299  0.2469 -0.1042
 1695SOL    HW116718   2.987   2.636   8.938 -1.5043 -1.7727  0.7345
 1695SOL    HW216719   2.851   2.670   8.945 -0.9549 -1.8118 -1.3380
 1696SOL     OW16720   4.605   1.760   3.376 -0.5441 -0.1882  0.4050
 1696SOL    HW116721   4.560   1.679   3.353 -1.6894  0.3036  0.8964
 1696SOL    HW216722   4.668   1.738   3.444  1.3965  2.2807 -0.5734
 1697SOL     OW16723   0.373   1.433  14.592 -0.2402 -0.2636 -0.0805
 1697SOL    HW116724   0.351   1.396  14.677 -0.8301  2.0534  0.7893
 1697SOL    HW216725   0.309   1.504  14.596 -0.7787 -0.6317 -2.7062
 1698SOL     OW16726   2.773   2.323  11.026 -0.5039 -0.6501 -0.1185
 1698SOL    HW116727   2.688   2.344  11.065 -1.2146  0.5665 -2.2958
 1698SOL    HW216728   2.753   2.256  10.959  2.5665 -0.6174 -1.0402
 1699SOL     OW16729   4.276   1.995   2.314 -0.4044 -0.2841  0.0675
 1699SOL    HW116730   4.344   2.040   2.365  3.0001 -1.2160 -3.5678
 1699SOL    HW216731   4.299   1.906   2.339 -0.1985 -0.3980 -0.5118
 1700SOL     OW16732   4.660   3.312   6.124  0.4631  0.7065 -0.3333
 1700SOL    HW116733   4.570   3.288   6.101  0.5376  0.4572 -0.3741
 1700SOL    HW216734   4.689   3.248   6.189  0.2611  3.0029  1.9717
 1701SOL     OW16735   1.805   0.803   7.250  0.9199 -0.0032 -0.0920
 1701SOL    HW116736   1.720   0.777   7.215  0.4742  1.5686 -0.1636
 1701SOL    HW216737   1.797   0.895   7.274 -1.0655 -0.0438 -0.6157
 1702SOL     OW16738   1.400   3.840   1.409  0.6728  0.4311 -0.3441
 1702SOL    HW116739   1.448   3.901   1.465  4.2441 -0.4980 -2.4063
 1702SOL    HW216740   1.436   3.862   1.323 -0.8805 -1.4257 -1.4646
 1703SOL     OW16741   2.181   1.706   2.540  0.0548  0.2598 -0.4086
 1703SOL    HW116742   2.266   1.727   2.580  0.8728 -0.1143 -1.9404
 1703SOL    HW216743   2.212   1.690   2.451  2.5979 -1.1363  0.7428
 1704SOL     OW16744   0.220   4.462   9.563 -0.1003 -0.3373  0.1357
 1704SOL    HW116745   0.229   4.549   9.603 -2.8972 -0.0726  0.2563
 1704SOL    HW216746   0.262   4.477   9.478 -0.9041  1.1954 -0.0028
 1705SOL     OW16747   3.783   2.249   6.570 -0.2735 -1.1717 -0.1045
 1705SOL    HW116748   3.697   2.291   6.565  1.1621  1.3270 -3.2023
 1705SOL    HW216749   3.843   2.321   6.593  0.5658 -1.6648 -0.7645
 1706SOL     OW16750   4.418   1.535   4.062  0.0945 -0.7007  0.7988
 1706SOL    HW116751   4.401   1.470   3.994 -0.8750  0.3533  0.0399
 1706SOL    HW216752   4.354   1.604   4.046 -2.0135 -2.7755  0.2487
 1707SOL     OW16753   0.680   1.142   9.089 -0.3357  0.3315 -0.0581
 1707SOL    HW116754   0.738   1.079   9.131 -0.2084 -0.4448 -1.3661
 1707SOL    HW216755   0.615   1.081   9.053  0.7290 -1.1010  0.4498
 1708SOL     OW16756   1.379   0.725   8.391 -0.3987  0.5788 -0.8304
 1708SOL    HW116757   1.424   0.647   8.358  0.5144  0.6421  0.2542
 1708SOL    HW216758   1.443   0.745   8.460 -2.1825 -1.1630  1.3133
 1709SOL     OW16759   3.294   4.106   9.708  0.0369  0.4729 -0.0692
 1709SOL    HW116760   3.358   4.178   9.705  1.7814 -1.1560 -1.4427
 1709SOL    HW216761   3.348   4.037   9.670  1.3025  0.9921  0.8147
 1710SOL     OW16762   3.467   3.444   0.558 -0.2719  0.2895  0.5058
 1710SOL    HW116763   3.455   3.433   0.652  0.2114  1.5778  0.7293
 1710SOL    HW216764   3.382   3.477   0.528  0.6172  1.7731 -0.4182
 1711SOL     OW16765   2.112   0.810   1.525  0.3971 -0.1066  0.1673
 1711SOL    HW116766   2.054   0.744   1.486 -1.0610  0.4028  1.4924
 1711SOL    HW216767   2.131   0.774   1.611 -0.7396  0.8451  0.8092
 1712SOL     OW16768   0.282   3.389  13.023 -0.1067  0.6529 -0.8036
 1712SOL    HW116769   0.222   3.318  13.003 -1.1270  1.5046 -0.7921
 1712SOL    HW216770   0.362   3.337  13.031  0.5963  1.6866 -1.0901
 1713SOL     OW16771   4.148   1.363   7.339 -0.5568  0.1813 -0.1804
 1713SOL    HW116772   4.224   1.364   7.281 -1.5386 -1.3247 -1.5059
 1713SOL    HW216773   4.139   1.270   7.356  2.8050 -0.1318 -0.1180
 1714SOL     OW16774   4.510   1.218   5.068 -0.6126  0.4724  0.0128
 1714SOL    HW116775   4.511   1.181   5.156  0.9939 -1.3150 -0.7482
 1714SOL    HW216776   4.600   1.247   5.052 -0.8071 -0.1308 -2.2361
 1715SOL     OW16777   0.931   0.988   6.930 -0.3146  0.2053 -0.1202
 1715SOL    HW116778   0.871   1.027   6.866 -0.1222 -0.4324 -0.6959
 1715SOL    HW216779   0.913   0.897   6.906  0.9448 -0.2030  0.4901
 1716SOL     OW16780   2.914   0.905   2.544 -0.4923 -0.1495  0.3983
 1716SOL    HW116781   2.827   0.906   2.585  0.6772 -0.8698  2.9347
 1716SOL    HW216782   2.933   0.998   2.560 -2.2880  0.5135 -1.3656
 1717SOL     OW16783   2.812   3.353   7.965  0.2355  0.5809  0.1809
 1717SOL    HW116784   2.725   3.340   8.002  0.9726 -1.1138  1.3122
 1717SOL    HW216785   2.842   3.437   8.002 -0.3784  0.3584  1.2051
 1718SOL     OW16786   3.460   1.651  15.842  0.8204  0.4231 -0.3394
 1718SOL    HW116787   3.388   1.689  15.792 -1.1312 -0.9861  1.4123
 1718SOL    HW216788   3.433   1.559  15.835 -1.5667  1.1811 -1.2832
 1719SOL     OW16789   1.633   1.118   5.048 -0.1414 -0.3169  0.3744
 1719SOL    HW116790   1.637   1.026   5.075 -2.1700 -0.9669 -1.5988
 1719SOL    HW216791   1.537   1.120   5.049 -0.1172  0.7163  0.4083
 1720SOL     OW16792   0.296   2.013   5.066 -0.0915  0.8562  0.1401
 1720SOL    HW116793   0.347   2.091   5.087 -0.2459  0.6709  1.1989
 1720SOL    HW216794   0.333   1.954   5.131 -0.4934  2.1676  1.5595
 1721SOL     OW16795   1.699   0.693   2.856  0.5030  0.4571 -0.1572
 1721SOL    HW116796   1.751   0.773   2.861 -0.4490  0.9881  1.2023
 1721SOL    HW216797   1.610   0.722   2.836  0.4712  1.0232  0.8282
 1722SOL     OW16798   0.668   3.940   8.453 -0.1391  0.0103 -0.3732
 1722SOL    HW116799   0.686   4.008   8.517 -1.0119 -1.7768  1.7873
 1722SOL    HW216800   0.575   3.960   8.455 -0.6051 -2.3804  1.4607
 1723SOL     OW16801   4.028   3.137   3.222  0.0939  0.1686  1.0090
 1723SOL    HW116802   4.039   3.059   3.277  0.9541  0.3340  1.0707
 1723SOL    HW216803   4.087   3.204   3.257  0.1277  0.3051  0.6857
 1724SOL     OW16804   4.042   0.363   9.951  0.1894 -0.1425  0.1631
 1724SOL    HW116805   3.949   0.384   9.947  0.1620 -0.2566  0.2217
 1724SOL    HW216806   4.074   0.454   9.945  1.5455 -0.7162 -1.4717
 1725SOL     OW16807   1.430   1.923   8.551  0.2386  0.4938 -0.1746
 1725SOL    HW116808   1.406   1.974   8.628  1.8790  1.2085 -0.1358
 1725SOL    HW216809   1.434   1.989   8.481  0.8340  1.2210  0.5475
 1726SOL     OW16810   4.175   2.216   6.930  0.2198  0.1080  0.4471
 1726SOL    HW116811   4.161   2.251   7.018 -0.8844 -0.5029  0.5128
 1726SOL    HW216812   4.232   2.279   6.886 -2.5641  2.4557  0.1870
 1727SOL     OW16813   3.552   4.239   3.759  0.0153 -0.0370  0.4498
 1727SOL    HW116814   3.477   4.180   3.767 -0.6516  0.8538  0.7860
 1727SOL    HW216815   3.559   4.282   3.674  0.6267 -1.9947 -0.4831
 1728SOL     OW16816   0.149   4.104   5.607 -0.0725  0.2066 -0.0118
 1728SOL    HW116817   0.166   4.061   5.523  1.4807  0.9262 -0.0549
 1728SOL    HW216818   0.219   4.074   5.665 -0.2186  1.2483  0.6992
 1729SOL     OW16819   1.332   2.606  15.533  0.3541  0.2866  0.0337
 1729SOL    HW116820   1.264   2.667  15.561 -1.4247 -1.4748 -0.4646
 1729SOL    HW216821   1.400   2.624  15.599  1.0925 -0.8743 -0.4101
 1730SOL     OW16822   2.711   2.954   2.913 -0.1238  0.5226  0.0913
 1730SOL    HW116823   2.617   2.965   2.927 -0.5530 -3.2553  0.1661
 1730SOL    HW216824   2.748   3.038   2.940  0.1929 -0.0057  1.3103
 1731SOL     OW16825   3.362   3.866  16.019 -0.5353  0.5555  0.7270
 1731SOL    HW116826   3.441   3.918  16.011  0.0341 -0.0424  2.4908
 1731SOL    HW216827   3.395   3.787  15.975 -2.3197 -0.6632  1.5542
 1732SOL     OW16828   4.651   0.434   9.649 -0.2272 -0.4772  0.3867
 1732SOL    HW116829   4.622   0.394   9.567  0.5656  1.0630 -0.6390
 1732SOL    HW216830   4.568   0.441   9.696 -0.2801 -0.0962  0.2394
 1733SOL     OW16831   4.375   2.176   8.163 -0.4629  0.3302  0.6577
 1733SOL    HW116832   4.360   2.132   8.247 -1.7365 -0.3442  0.0793
 1733SOL    HW216833   4.307   2.244   8.163 -0.8104 -0.0134  2.7816
 1734SOL     OW16834   1.017   3.971   4.761 -0.4805  0.2618  0.0612
 1734SOL    HW116835   0.962   3.996   4.835  1.6454  4.1555  0.3105
 1734SOL    HW216836   0.986   4.028   4.691  0.1060  0.5651  0.0435
 1735SOL     OW16837   2.102   2.452  16.080  0.2156 -0.1788  0.2022
 1735SOL    HW116838   2.169   2.509  16.118 -2.5551  2.7139  0.7333
 1735SOL    HW216839   2.073   2.499  16.002 -1.9252 -0.1837  1.0024
 1736SOL     OW16840   4.630   0.185   1.328 -0.5246  0.7395  0.2042
 1736SOL    HW116841   4.637   0.130   1.250  1.2277  0.7491  0.3527
 1736SOL    HW216842   4.573   0.255   1.294 -2.3223 -2.7565 -3.9879
 1737SOL     OW16843   3.494   0.920   5.273 -0.5607 -0.2046  0.2325
 1737SOL    HW116844   3.589   0.908   5.273 -0.4724  0.4980  1.6090
 1737SOL    HW216845   3.492   1.014   5.256  0.0747 -0.1952  0.1988
 1738SOL     OW16846   2.522   4.062   7.183 -0.7201 -0.4311  0.1307
 1738SOL    HW116847   2.486   4.078   7.270 -0.0962 -0.9917  0.4899
 1738SOL    HW216848   2.602   4.014   7.203 -0.5151  0.4413  1.3642
 1739SOL     OW16849   2.281   0.221   5.649 -0.2294 -0.5626  0.3476
 1739SOL    HW116850   2.366   0.262   5.634 -0.6485 -0.3394 -1.4068
 1739SOL    HW216851   2.301   0.128   5.640  1.9197  0.0307 -0.8727
 1740SOL     OW16852   4.432   2.651  11.574 -0.6398  0.2568 -0.0327
 1740SOL    HW116853   4.463   2.572  11.530 -0.1933 -0.6774  1.9975
 1740SOL    HW216854   4.338   2.632  11.585 -1.4235  3.9683 -0.1984
 1741SOL     OW16855   3.939   1.236   2.887  1.0184  0.2206 -0.4096
 1741SOL    HW116856   3.988   1.158   2.913  2.9418  1.4896 -0.2550
 1741SOL    HW216857   3.858   1.214   2.933  0.9644  2.0385  0.3700
 1742SOL     OW16858   2.170   1.459   8.479  0.4740  0.1368  0.0103
 1742SOL    HW116859   2.258   1.442   8.447 -0.7109 -1.6215 -2.3066
 1742SOL    HW216860   2.160   1.417   8.564 -1.3038  0.2227 -0.1449
 1743SOL     OW16861   2.805   2.124   8.865  0.0184  0.9275  0.4593
 1743SOL    HW116862   2.778   2.038   8.834  2.1635 -0.6128  2.8109
 1743SOL    HW216863   2.785   2.114   8.958 -1.5980 -0.7938 -0.0760
 1744SOL     OW16864   1.640   3.882   0.379 -0.4577  0.4259 -0.1000
 1744SOL    HW116865   1.678   3.920   0.300  2.5543 -1.3370  0.4980
 1744SOL    HW216866   1.546   3.880   0.360 -1.0311 -0.4570  2.7369
 1745SOL     OW16867   4.085   1.396   2.000  0.2552 -0.2453 -0.0727
 1745SOL    HW116868   4.113   1.308   2.027 -0.2779  0.8407  4.0038
 1745SOL    HW216869   4.156   1.449   2.034 -0.3587 -1.0790  2.4825
 1746SOL     OW16870   0.054   0.175   5.533  0.2209 -0.0986  0.1904
 1746SOL    HW116871   0.043   0.264   5.566 -2.1791 -0.1614 -0.3711
 1746SOL    HW216872   0.069   0.189   5.439 -0.6734 -0.8385 -0.0617
 1747SOL     OW16873   0.252   0.606   7.730 -0.1147 -0.2763  0.0083
 1747SOL    HW116874   0.306   0.641   7.800 -0.7598 -0.1344  0.4279
 1747SOL    HW216875   0.326   0.574   7.677  0.9756 -0.3528  1.5819
 1748SOL     OW16876   4.697   1.946   4.572  0.4756  0.5793 -0.4119
 1748SOL    HW116877   4.646   1.875   4.533  0.9200  1.3616 -2.3936
 1748SOL    HW216878   4.637   1.984   4.636  0.2030 -0.8646  0.1900
 1749SOL     OW16879   4.064   2.252   2.138 -0.1645 -0.3296 -0.7358
 1749SOL    HW116880   3.983   2.225   2.182 -0.0684  0.5214 -0.0273
 1749SOL    HW216881   4.064   2.195   2.062 -1.9470 -0.1815 -0.8452
 1750SOL     OW16882   2.687   3.224   8.881  0.2074  0.2922  0.5975
 1750SOL    HW116883   2.646   3.172   8.950 -0.3288 -0.7126 -0.4813
 1750SOL    HW216884   2.708   3.155   8.817  0.7223  1.0261 -0.0345
 1751SOL     OW16885   1.939   2.086  15.684  0.1434  0.4875 -0.4355
 1751SOL    HW116886   1.926   2.015  15.622  1.1323 -0.5539  0.5429
 1751SOL    HW216887   1.859   2.068  15.734 -0.3049 -1.2913 -1.7755
 1752SOL     OW16888   0.704   0.304   7.198 -0.3246  0.3660  0.2253
 1752SOL    HW116889   0.669   0.233   7.252  0.2632 -1.1820 -1.4412
 1752SOL    HW216890   0.754   0.351   7.264  0.0787  0.0121  0.1666
 1753SOL     OW16891   2.706   3.032   7.712 -0.3087 -0.7365  0.6743
 1753SOL    HW116892   2.770   2.982   7.762 -0.5434 -1.4441  0.2729
 1753SOL    HW216893   2.633   2.996   7.762 -2.3481  0.5569 -1.3720
 1754SOL     OW16894   1.964   0.063   8.226 -0.3117  0.1392  0.1553
 1754SOL    HW116895   1.955   4.709   8.255 -2.6188  0.0101 -0.9853
 1754SOL    HW216896   1.871   0.084   8.216 -1.1387 -3.6167  0.2983
 1755SOL     OW16897   3.724   3.214   3.787  0.3312  0.9220 -0.3500
 1755SOL    HW116898   3.789   3.268   3.833 -0.5385  1.3531  0.3721
 1755SOL    HW216899   3.664   3.279   3.750  0.0003 -0.6852 -2.6191
 1756SOL     OW16900   2.570   2.131   8.495 -0.3808  0.0281  0.2603
 1756SOL    HW116901   2.639   2.071   8.469  0.5357  0.6514  1.2844
 1756SOL    HW216902   2.594   2.215   8.457 -1.1526  1.2899  2.5281
 1757SOL     OW16903   3.815   1.732  10.541  0.4143  0.2026  0.2867
 1757SOL    HW116904   3.820   1.639  10.518  2.9410  0.5781 -0.6191
 1757SOL    HW216905   3.871   1.774  10.476  2.3833 -1.5388  0.8626
 1758SOL     OW16906   2.194   4.184   4.434  0.1098 -0.0309  0.4111
 1758SOL    HW116907   2.163   4.098   4.402  1.0058 -0.5609  0.9754
 1758SOL    HW216908   2.141   4.237   4.375  0.1680  1.4052  1.6773
 1759SOL     OW16909   0.662   1.049   5.836  1.2750  0.0573 -0.5053
 1759SOL    HW116910   0.669   1.119   5.771  0.5724  1.4820  0.9478
 1759SOL    HW216911   0.745   1.063   5.882  2.3261 -0.3686 -2.2580
 1760SOL     OW16912   4.545   4.455   7.036 -0.4501  0.2385  0.1288
 1760SOL    HW116913   4.578   4.434   6.949 -0.7090  2.9626 -0.6153
 1760SOL    HW216914   4.548   4.365   7.070  0.5193  0.1033 -0.3258
 1761SOL     OW16915   3.644   2.161  16.946 -0.4214  0.0428 -0.1740
 1761SOL    HW116916   3.613   2.136  17.032  2.0741  1.4092  1.1118
 1761SOL    HW216917   3.580   2.118  16.889  0.5874 -0.5649 -0.8434
 1762SOL     OW16918   4.188   2.212  16.518  0.2842  0.7142 -0.3741
 1762SOL    HW116919   4.201   2.264  16.597 -1.7696  0.7076 -0.0313
 1762SOL    HW216920   4.265   2.234  16.466 -0.6601  0.8277 -1.7537
 1763SOL     OW16921   2.160   0.418   3.957 -0.2415  0.2134  0.2726
 1763SOL    HW116922   2.081   0.471   3.968  0.4605  1.7988 -2.2713
 1763SOL    HW216923   2.206   0.446   4.036 -0.2048  0.9143 -0.0016
 1764SOL     OW16924   0.648   3.348   0.997  0.2306 -0.0345  0.5893
 1764SOL    HW116925   0.599   3.386   0.924  1.5084 -1.4035 -0.9853
 1764SOL    HW216926   0.579   3.343   1.063 -0.6400  0.1753 -0.3047
 1765SOL     OW16927   0.011   0.609   1.784 -0.1263  0.1379  0.3977
 1765SOL    HW116928   0.049   0.535   1.736 -2.1023  1.1144 -2.6759
 1765SOL    HW216929   4.669   0.626   1.731  0.2907 -0.2344 -0.3389
 1766SOL     OW16930   1.931   3.025   8.626 -0.7022  0.0276  0.4579
 1766SOL    HW116931   1.909   3.085   8.555 -0.0373  0.9236  1.0078
 1766SOL    HW216932   1.868   2.953   8.623  1.4116 -1.7646 -1.1936
 1767SOL     OW16933   4.000   0.408   5.219 -0.0751 -0.2123 -0.0120
 1767SOL    HW116934   3.915   0.376   5.190  0.9551 -3.3588  0.4163
 1767SOL    HW216935   3.991   0.502   5.203 -0.8093 -0.2016  0.4794
 1768SOL     OW16936   1.133   2.366   4.054 -0.2265  0.0406  0.3087
 1768SOL    HW116937   1.141   2.462   4.052 -0.7372  0.0712 -0.3072
 1768SOL    HW216938   1.042   2.347   4.079 -0.8018  1.2475 -0.8445
 1769SOL     OW16939   1.687   0.228   5.667 -0.5131  0.3655  0.6811
 1769SOL    HW116940   1.720   0.210   5.579  0.3364  2.1756  0.6221
 1769SOL    HW216941   1.595   0.201   5.669 -0.7436  0.7158 -3.8875
 1770SOL     OW16942   2.045   4.035   3.819 -0.2651  0.0703  0.6196
 1770SOL    HW116943   2.014   3.953   3.857 -0.7658 -0.9387 -1.9669
 1770SOL    HW216944   2.124   3.991   3.787 -0.4115 -0.7955  1.4561
 1771SOL     OW16945   3.070   0.206  14.579  0.0058 -0.9745 -0.2182
 1771SOL    HW116946   3.163   0.214  14.600 -0.2477  0.5766  0.2591
 1771SOL    HW216947   3.054   0.121  14.620 -1.5289 -1.1455 -1.1644
 1772SOL     OW16948   3.631   4.127   8.981  0.1089 -0.1517 -0.0631
 1772SOL    HW116949   3.599   4.157   9.067  0.4364 -0.9170  0.3289
 1772SOL    HW216950   3.570   4.054   8.992 -0.1530 -0.0408 -0.7860
 1773SOL     OW16951   2.760   3.805   2.626  0.2703  0.3487 -0.4013
 1773SOL    HW116952   2.798   3.886   2.660  0.6721 -0.5559  1.2968
 1773SOL    HW216953   2.693   3.840   2.568 -0.2487 -1.0155 -0.6227
 1774SOL     OW16954   2.949   3.163  14.331  0.1170  0.7026 -0.1151
 1774SOL    HW116955   2.927   3.227  14.397  1.1874 -0.5121  1.4236
 1774SOL    HW216956   2.940   3.224  14.258  1.9148  1.6603  0.4692
 1775SOL     OW16957   1.806   2.865  13.694 -0.1073  0.2382  0.2332
 1775SOL    HW116958   1.875   2.811  13.732 -0.1486  0.5790  0.8120
 1775SOL    HW216959   1.742   2.795  13.683 -0.4752  0.3447  1.6646
 1776SOL     OW16960   2.953   4.345   6.012 -0.0300 -0.5226 -0.1540
 1776SOL    HW116961   2.887   4.413   6.004  1.2963  0.7720 -0.1010
 1776SOL    HW216962   2.995   4.359   6.097 -1.4032  2.8161 -0.0281
 1777SOL     OW16963   2.026   3.117   3.380 -0.5018 -0.3474 -0.7224
 1777SOL    HW116964   2.024   3.041   3.322  1.4488 -0.6226 -0.4286
 1777SOL    HW216965   2.093   3.093   3.445 -0.7389 -4.9981 -2.2382
 1778SOL     OW16966   3.418   3.220  16.352  0.1280 -0.0232  0.7383
 1778SOL    HW116967   3.496   3.250  16.400  0.8451  0.9776 -1.0570
 1778SOL    HW216968   3.462   3.155  16.296 -0.7141  0.0660 -0.0281
 1779SOL     OW16969   2.877   1.925  15.590  0.4316 -0.3066 -0.3260
 1779SOL    HW116970   2.896   1.860  15.522 -0.1404 -3.0716  2.1727
 1779SOL    HW216971   2.796   1.964  15.558  1.0293  0.0019 -1.4748
 1780SOL     OW16972   0.676   2.822   8.473 -0.4864  0.7410 -0.0254
 1780SOL    HW116973   0.700   2.806   8.564  1.2040 -0.9922 -0.7563
 1780SOL    HW216974   0.585   2.832   8.499 -0.3529 -1.1400  1.1720
 1781SOL     OW16975   1.549   1.241   8.608 -0.1889 -0.0824 -0.1841
 1781SOL    HW116976   1.644   1.241   8.618 -0.2658  0.7916  0.5414
 1781SOL    HW216977   1.536   1.168   8.548  2.1073 -1.2175  0.6877
 1782SOL     OW16978   2.238   0.908  14.241  0.3072 -0.2109  0.4459
 1782SOL    HW116979   2.222   0.988  14.291 -0.8486  0.0531 -0.3435
 1782SOL    HW216980   2.327   0.919  14.207 -0.8553  0.4823 -2.3980
 1783SOL     OW16981   2.706   2.247   4.332  0.6216  0.0235 -0.4642
 1783SOL    HW116982   2.655   2.222   4.409 -0.0944  2.3462 -0.1896
 1783SOL    HW216983   2.671   2.334   4.312 -1.3023 -0.6495 -0.0381
 1784SOL     OW16984   0.730   4.404   8.279 -0.3597  0.6370 -0.7364
 1784SOL    HW116985   0.726   4.497   8.303 -2.1306  0.3098  0.2862
 1784SOL    HW216986   0.702   4.413   8.188  0.2837 -0.1984 -1.0092
 1785SOL     OW16987   2.447   3.957   5.014 -0.6585 -0.1059  0.6431
 1785SOL    HW116988   2.459   3.938   4.921  0.5317 -0.7166  0.9146
 1785SOL    HW216989   2.527   3.929   5.059 -0.6939 -1.9526 -0.4516
 1786SOL     OW16990   2.488   4.176   4.425  0.0484 -0.3078  0.1096
 1786SOL    HW116991   2.497   4.117   4.351 -2.0392  1.7709 -1.8031
 1786SOL    HW216992   2.396   4.200   4.422 -0.4351 -1.8092  3.0052
 1787SOL     OW16993   1.722   2.911   4.746 -0.2154  0.8091  0.3369
 1787SOL    HW116994   1.739   2.959   4.665 -0.9409 -0.8516 -0.8160
 1787SOL    HW216995   1.805   2.867   4.764 -0.0082 -0.3593 -3.5188
 1788SOL     OW16996   4.005   0.317  10.841  0.0487  0.4659 -0.7228
 1788SOL    HW116997   3.988   0.263  10.918  0.7185  1.9985  0.4926
 1788SOL    HW216998   3.921   0.333  10.797  1.4155 -0.3748 -3.5903
 1789SOL     OW16999   2.129   0.223   5.369  0.1340  0.6019  0.0703
 1789SOL    HW117000   2.046   0.262   5.340 -0.0647 -0.6286 -1.0584
 1789SOL    HW217001   2.131   0.277   5.448  0.1588  2.8587 -1.4698
 1790SOL     OW17002   0.777   2.625   3.530 -0.1187 -0.6260 -0.1711
 1790SOL    HW117003   0.847   2.620   3.465 -0.7281 -0.1955 -0.8577
 1790SOL    HW217004   0.806   2.703   3.577  2.4726 -2.1882  0.8171
 1791SOL     OW17005   4.445   0.673   2.287 -0.1833 -0.4957 -0.4491
 1791SOL    HW117006   4.458   0.606   2.221 -1.0084 -1.8313  0.7347
 1791SOL    HW217007   4.505   0.738   2.251  0.0276 -0.6624 -0.3990
 1792SOL     OW17008   1.855   2.885   7.433  0.0646  0.0804 -0.3466
 1792SOL    HW117009   1.934   2.917   7.475  1.0988 -1.3534 -1.1838
 1792SOL    HW217010   1.795   2.959   7.426 -0.4309 -0.0782  2.2913
 1793SOL     OW17011   2.074   3.290   5.185  0.1843  0.7423 -0.0540
 1793SOL    HW117012   2.168   3.280   5.197 -0.1313  0.3628  2.1055
 1793SOL    HW217013   2.047   3.305   5.275  2.2284  2.5337  0.2496
 1794SOL     OW17014   4.465   0.046  12.232 -0.4543 -0.9140 -0.0928
 1794SOL    HW117015   4.444   0.130  12.273  1.6271 -0.7084  0.5756
 1794SOL    HW217016   4.554   0.037  12.265  0.0925  2.7188 -0.4977
 1795SOL     OW17017   4.733   1.294   8.683 -0.1342 -0.0189 -0.4276
 1795SOL    HW117018   4.729   1.215   8.736 -0.6209  0.4766  0.2743
 1795SOL    HW217019   0.089   1.319   8.679 -0.6378  1.6174 -1.9232
 1796SOL     OW17020   1.845   2.168   4.229 -0.1549 -0.5993 -0.0819
 1796SOL    HW117021   1.805   2.082   4.246 -1.5919  0.0254 -0.2602
 1796SOL    HW217022   1.798   2.231   4.284 -0.5919 -0.5780 -0.4813
 1797SOL     OW17023   0.887   1.208   6.532  0.2726  0.0836 -0.3477
 1797SOL    HW117024   0.921   1.145   6.468  1.4164  1.4622 -1.0960
 1797SOL    HW217025   0.969   1.224   6.578  1.4127 -1.2282 -1.9213
 1798SOL     OW17026   3.557   0.434   3.762  0.3646  0.0953  0.3883
 1798SOL    HW117027   3.629   0.496   3.777 -0.5878  1.6570 -1.5011
 1798SOL    HW217028   3.593   0.357   3.719 -1.9640  0.2976 -1.9241
 1799SOL     OW17029   3.610   2.538   4.702  0.3551  0.5107  0.0459
 1799SOL    HW117030   3.580   2.618   4.658  2.2104  1.2013  0.0197
 1799SOL    HW217031   3.701   2.569   4.692  0.6566 -0.6319 -0.7915
 1800SOL     OW17032   1.851   1.695  16.366 -0.6169  0.1867 -0.4801
 1800SOL    HW117033   1.902   1.637  16.309  0.1664 -0.9176  1.3293
 1800SOL    HW217034   1.913   1.713  16.437 -0.7075 -0.4607 -0.2355
 1801SOL     OW17035   3.394   3.578  13.357  0.0171  0.0238 -0.3212
 1801SOL    HW117036   3.482   3.543  13.349 -0.2568 -0.5410 -0.8767
 1801SOL    HW217037   3.396   3.618  13.444  1.5936 -0.9587  0.0767
 1802SOL     OW17038   1.656   3.471   4.867  0.3940  0.3525  0.3394
 1802SOL    HW117039   1.715   3.471   4.942  0.8074  0.1711  0.0108
 1802SOL    HW217040   1.630   3.378   4.863 -0.1019  0.6380 -2.7367
 1803SOL     OW17041   0.771   4.640   8.073  0.4256  0.2169 -0.4309
 1803SOL    HW117042   0.722   4.570   8.031 -3.3305  1.8706  1.1892
 1803SOL    HW217043   0.773   4.709   8.006  0.2849  0.0264 -0.6325
 1804SOL     OW17044   3.674   4.650  11.625  0.1997 -0.8177  0.4416
 1804SOL    HW117045   3.656   4.563  11.591 -3.8714 -0.7238  2.2807
 1804SOL    HW217046   3.758   4.635  11.669  0.3714 -0.1349  0.3522
 1805SOL     OW17047   3.146   3.111  12.170  0.4459 -0.0762 -0.1797
 1805SOL    HW117048   3.193   3.061  12.103  0.9271 -0.9070  0.7729
 1805SOL    HW217049   3.094   3.165  12.111 -0.7532 -0.8383  0.1735
 1806SOL     OW17050   0.872   3.746   9.323  0.2017  0.6627  0.3985
 1806SOL    HW117051   0.956   3.777   9.359  0.5147 -0.1115  0.3395
 1806SOL    HW217052   0.848   3.678   9.386  0.9221 -0.8030 -0.9281
 1807SOL     OW17053   0.020   3.270  16.343 -0.3815 -0.0969  0.2178
 1807SOL    HW117054   4.710   3.238  16.265  0.5279 -1.3574  0.2019
 1807SOL    HW217055   0.008   3.195  16.402 -1.9135  0.2816  0.3907
 1808SOL     OW17056   0.511   4.367   9.824  0.4018  0.7109  0.3278
 1808SOL    HW117057   0.563   4.296   9.863  1.4318 -0.0950 -2.5062
 1808SOL    HW217058   0.437   4.374   9.884  0.6397 -0.2143  0.7412
 1809SOL     OW17059   2.708   0.946   2.010 -0.2193 -0.3492  0.1152
 1809SOL    HW117060   2.681   0.870   1.958 -0.5199 -1.9557  2.5934
 1809SOL    HW217061   2.749   1.003   1.945 -0.1903 -2.9653 -2.1879
 1810SOL     OW17062   0.646   3.176   3.312 -0.0297 -0.3045  0.0106
 1810SOL    HW117063   0.624   3.090   3.276  0.6810 -0.1132 -0.8575
 1810SOL    HW217064   0.693   3.204   3.234 -1.4980  1.3322 -0.2847
 1811SOL     OW17065   1.500   3.443   2.781 -0.9655 -0.0686 -0.1724
 1811SOL    HW117066   1.479   3.419   2.871  2.2322  1.1124  0.9213
 1811SOL    HW217067   1.430   3.404   2.730 -0.7832  1.0557 -1.2944
 1812SOL     OW17068   4.480   0.108   2.707  0.0767 -0.5152  0.0170
 1812SOL    HW117069   4.545   0.044   2.737 -2.0812 -1.0059  3.6424
 1812SOL    HW217070   4.450   0.145   2.790 -0.5853 -0.6590 -0.1590
 1813SOL     OW17071   3.211   1.623   8.928 -0.5982  0.2188 -0.3910
 1813SOL    HW117072   3.244   1.557   8.867 -0.0720 -0.2001  0.3527
 1813SOL    HW217073   3.293   1.664   8.956 -1.1764  0.7901  0.4636
 1814SOL     OW17074   1.313   4.269   1.132  0.6197  0.0459 -0.3127
 1814SOL    HW117075   1.351   4.329   1.068  1.1027  1.0422  0.9034
 1814SOL    HW217076   1.303   4.329   1.206  2.2909 -1.6388  1.2820
 1815SOL     OW17077   2.154   2.474   7.477 -0.0972 -0.0539 -0.0925
 1815SOL    HW117078   2.061   2.484   7.458 -0.3883  0.4946  1.5984
 1815SOL    HW217079   2.155   2.408   7.547 -0.3509 -1.4268 -1.3893
 1816SOL     OW17080   3.346   1.604   7.558  0.3367  0.1461 -0.5456
 1816SOL    HW117081   3.394   1.548   7.619 -1.6763 -0.6399  0.3297
 1816SOL    HW217082   3.409   1.620   7.488  0.3572  0.2464 -0.5049
 1817SOL     OW17083   3.581   2.788   2.589  0.1763 -0.5545 -0.0783
 1817SOL    HW117084   3.589   2.730   2.514 -0.8045  0.7145 -1.1430
 1817SOL    HW217085   3.558   2.727   2.660  2.6180 -1.2192  0.1537
 1818SOL     OW17086   3.142   3.005   7.794 -0.4531  0.3357  0.0956
 1818SOL    HW117087   3.193   3.084   7.779  1.4754 -0.4047  2.7699
 1818SOL    HW217088   3.199   2.954   7.853  1.0500  0.7327 -1.0112
 1819SOL     OW17089   0.712   0.843  16.485 -0.0953 -0.5510 -0.0854
 1819SOL    HW117090   0.684   0.838  16.576 -2.2141  0.1902 -0.6938
 1819SOL    HW217091   0.638   0.889  16.446  1.1671 -1.8491 -4.0071
 1820SOL     OW17092   3.483   4.361   6.717  0.0119 -0.4260  0.7728
 1820SOL    HW117093   3.421   4.377   6.646 -0.5726 -1.7428  0.9766
 1820SOL    HW217094   3.515   4.279   6.679  1.3544  0.7498 -0.5881
 1821SOL     OW17095   2.057   2.871   3.830  0.0402 -0.5076 -0.2036
 1821SOL    HW117096   1.978   2.926   3.825 -1.0478 -2.1939 -1.4507
 1821SOL    HW217097   2.008   2.797   3.795 -0.7906 -0.5134  0.9496
 1822SOL     OW17098   3.725   1.723  13.557 -1.2465 -0.4359 -0.2975
 1822SOL    HW117099   3.719   1.631  13.528 -0.1032 -0.5469 -0.1575
 1822SOL    HW217100   3.705   1.771  13.477 -0.2635  0.8402  0.2383
 1823SOL     OW17101   2.158   1.116   6.693  0.5115  0.3440 -0.1900
 1823SOL    HW117102   2.140   1.207   6.717  0.6206  0.4909 -0.6668
 1823SOL    HW217103   2.072   1.075   6.695  0.3978  0.6683  1.3899
 1824SOL     OW17104   3.000   3.042   4.969  0.1274 -0.5572 -0.0089
 1824SOL    HW117105   2.929   2.981   4.987  0.0364 -0.6541 -0.6749
 1824SOL    HW217106   3.001   3.033   4.874  0.0831  1.1289 -0.1720
 1825SOL     OW17107   0.919   0.818   6.289 -0.1002  0.2829  0.9543
 1825SOL    HW117108   1.009   0.809   6.257 -0.6783 -1.0956 -0.2818
 1825SOL    HW217109   0.916   0.908   6.323  0.3032  0.1775  1.2742
 1826SOL     OW17110   2.799   2.713  14.405 -0.0694  0.3397 -0.3362
 1826SOL    HW117111   2.713   2.673  14.394 -0.3315  1.0097 -0.7140
 1826SOL    HW217112   2.788   2.786  14.344  0.7160  0.8773  0.1733
 1827SOL     OW17113   2.995   4.452   4.607  0.0834  0.1197 -0.3948
 1827SOL    HW117114   3.064   4.436   4.543 -0.8769  0.6013 -1.5559
 1827SOL    HW217115   2.922   4.405   4.567 -0.1320  0.3370 -0.2584
 1828SOL     OW17116   1.386   4.688   4.038  0.3542 -0.3761  0.0761
 1828SOL    HW117117   1.304   4.673   3.993 -0.0315  1.3511  0.1896
 1828SOL    HW217118   1.379   0.047   4.047  1.1129 -0.2046 -1.0823
 1829SOL     OW17119   1.779   3.894   4.871 -0.3673  0.0714 -0.0137
 1829SOL    HW117120   1.777   3.970   4.813  0.4270 -0.0504 -0.1951
 1829SOL    HW217121   1.697   3.845   4.863 -0.0406 -0.7323  1.4889
 1830SOL     OW17122   0.859   1.315  14.876  0.6543 -0.7596  0.1874
 1830SOL    HW117123   0.877   1.349  14.788  2.5627  0.5842  1.0984
 1830SOL    HW217124   0.764   1.310  14.872  0.5276  0.9380  1.3502
 1831SOL     OW17125   2.644   0.059  13.465 -1.0774  0.0895 -0.5514
 1831SOL    HW117126   2.592   0.035  13.542  1.6297 -0.1825  1.1769
 1831SOL    HW217127   2.593   0.134  13.434 -0.3786  1.6780  2.1874
 1832SOL     OW17128   2.055   0.804   7.529  0.2336  0.1518  0.3584
 1832SOL    HW117129   2.062   0.830   7.437 -0.7925  2.5765  0.9757
 1832SOL    HW217130   2.049   0.882   7.584 -0.2555 -1.7138  2.9418
 1833SOL     OW17131   1.749   4.165  13.866  0.5112  0.1322 -0.5905
 1833SOL    HW117132   1.748   4.260  13.858 -0.9470  0.2123  0.3658
 1833SOL    HW217133   1.832   4.146  13.823 -0.1967  2.0026 -2.7686
 1834SOL     OW17134   0.762   2.977   7.608 -0.1531  0.3358 -1.5289
 1834SOL    HW117135   0.770   2.888   7.643 -1.3037  0.3029 -1.3546
 1834SOL    HW217136   0.801   3.023   7.682  1.2511  0.8165 -2.5718
 1835SOL     OW17137   2.712   0.187   2.839  0.2821 -0.2022 -0.4590
 1835SOL    HW117138   2.721   0.235   2.756 -0.8099 -0.1899 -0.5722
 1835SOL    HW217139   2.647   0.248   2.875  0.3258 -2.6072  3.5861
 1836SOL     OW17140   0.754   3.680  11.293 -0.3021  0.1384  0.7142
 1836SOL    HW117141   0.739   3.631  11.212  2.9844  3.2950 -1.8470
 1836SOL    HW217142   0.667   3.664  11.329  0.2001 -2.3096  0.7829
 1837SOL     OW17143   2.366   1.606   4.500 -0.1749 -0.3882  0.0522
 1837SOL    HW117144   2.345   1.585   4.409 -0.1664 -2.7627  0.6021
 1837SOL    HW217145   2.275   1.617   4.530  0.2618  2.8775  0.2194
 1838SOL     OW17146   3.932   1.878   7.981  0.3550  0.6921 -0.0693
 1838SOL    HW117147   4.021   1.849   8.002 -0.6188 -1.0130  1.6432
 1838SOL    HW217148   3.909   1.905   8.069  2.7522  0.8672  0.5087
 1839SOL     OW17149   1.080   2.747  13.572  0.4279 -0.0956 -1.0456
 1839SOL    HW117150   1.055   2.839  13.571 -0.7603 -0.3882  2.5193
 1839SOL    HW217151   0.992   2.713  13.560 -0.1745  1.9399 -2.3430
 1840SOL     OW17152   0.386   2.957   6.558  0.0406  0.0158  0.2190
 1840SOL    HW117153   0.414   2.939   6.468 -1.3636  1.0604 -0.4261
 1840SOL    HW217154   0.368   2.865   6.573 -2.1093  0.4555  0.2724
 1841SOL     OW17155   1.164   3.194  11.654 -0.1197  0.2137 -0.4585
 1841SOL    HW117156   1.216   3.119  11.683  0.5678  0.4386 -1.0993
 1841SOL    HW217157   1.115   3.215  11.733  0.3341 -1.3960  0.2420
 1842SOL     OW17158   0.011   4.451   7.379 -0.3336 -0.3849  0.3749
 1842SOL    HW117159   0.068   4.388   7.336  1.6396  0.1099  2.2556
 1842SOL    HW217160   0.012   4.519   7.312  1.0628  0.1074  0.8789
 1843SOL     OW17161   0.563   2.982   6.140 -0.1429 -0.6642 -0.4639
 1843SOL    HW117162   0.607   2.937   6.068  0.3920 -1.1868  0.1954
 1843SOL    HW217163   0.615   3.061   6.131  0.7056 -1.1646  0.1107
 1844SOL     OW17164   0.243   0.870   6.834  0.3099 -0.1313 -0.2767
 1844SOL    HW117165   0.287   0.828   6.908  0.1357  0.9968  0.4775
 1844SOL    HW217166   0.150   0.860   6.853  0.5072 -0.8048  0.3124
 1845SOL     OW17167   3.406   1.356  13.673  0.0430 -0.1103  0.2248
 1845SOL    HW117168   3.474   1.368  13.607  2.3481 -1.2627  2.3746
 1845SOL    HW217169   3.443   1.381  13.758  0.7758 -1.7545  0.3954
 1846SOL     OW17170   3.906   1.853   4.178  0.1219 -0.4607  0.1413
 1846SOL    HW117171   3.959   1.782   4.214 -0.7045 -0.5680  1.1451
 1846SOL    HW217172   3.821   1.836   4.219 -0.0129  2.0695  0.9085
 1847SOL     OW17173   2.768   2.243   7.245 -0.6807 -0.2791 -0.1294
 1847SOL    HW117174   2.861   2.246   7.267 -0.9675  1.4923  0.7929
 1847SOL    HW217175   2.765   2.156   7.204  0.8823  0.5110 -1.9206
 1848SOL     OW17176   2.355   0.958   6.789 -0.5947 -0.5100  0.1411
 1848SOL    HW117177   2.319   1.027   6.734 -2.1788 -2.8243 -1.7418
 1848SOL    HW217178   2.330   0.887   6.730 -1.2667  1.3874 -1.8664
 1849SOL     OW17179   2.526   3.040   5.342 -0.1852  0.3934  0.4667
 1849SOL    HW117180   2.512   3.087   5.424 -0.8474 -0.4476  0.8356
 1849SOL    HW217181   2.590   2.982   5.384 -1.3376 -1.9305 -0.9238
 1850SOL     OW17182   4.192   1.152   2.018  0.4136 -0.1358  0.2352
 1850SOL    HW117183   4.247   1.145   1.940 -0.6114  1.6973 -0.6497
 1850SOL    HW217184   4.230   1.090   2.080 -1.6081 -2.0041 -0.4331
 1851SOL     OW17185   1.120   0.796   6.095 -0.1832  0.1700  0.2833
 1851SOL    HW117186   1.187   0.814   6.030 -0.8183 -0.4407 -0.5382
 1851SOL    HW217187   1.159   0.716   6.131 -0.4261  0.0723  0.3331
 1852SOL     OW17188   1.394   4.110   7.808 -0.4270 -0.3839  0.1238
 1852SOL    HW117189   1.407   4.032   7.862  3.7172  0.5543  0.4905
 1852SOL    HW217190   1.372   4.181   7.868  0.3235 -1.5301  1.7382
 1853SOL     OW17191   2.360   4.271   3.366  0.5892  0.4965  0.2102
 1853SOL    HW117192   2.454   4.284   3.348 -0.1590  2.7795 -2.1649
 1853SOL    HW217193   2.363   4.183   3.403  1.1105  0.3246 -0.2232
 1854SOL     OW17194   1.897   0.783   2.231 -0.0551  0.4977  0.6594
 1854SOL    HW117195   1.909   0.730   2.310  0.9397 -0.0107  0.1591
 1854SOL    HW217196   1.802   0.791   2.218  0.1191  0.1803 -0.7324
 1855SOL     OW17197   1.143   4.498   5.136 -0.1986 -0.5465 -0.4742
 1855SOL    HW117198   1.089   4.564   5.179 -1.0966 -1.4290 -0.2517
 1855SOL    HW217199   1.145   4.421   5.193  2.0680  0.1170  0.3613
 1856SOL     OW17200   2.865   1.443   4.338  0.3993  0.2549  0.0662
 1856SOL    HW117201   2.867   1.434   4.434  1.6623  2.0613  0.2178
 1856SOL    HW217202   2.933   1.510   4.334  1.3034 -0.7385 -0.9427
 1857SOL     OW17203   3.148   2.099   9.221  0.1946 -0.2503  0.2863
 1857SOL    HW117204   3.190   2.184   9.234  0.7246 -0.7280  1.7419
 1857SOL    HW217205   3.086   2.091   9.293 -0.5402 -3.1698 -0.6709
 1858SOL     OW17206   1.778   0.123  13.111  0.4847  0.3522 -0.8406
 1858SOL    HW117207   1.721   0.134  13.035 -0.2253  1.3142 -0.1565
 1858SOL    HW217208   1.864   0.122  13.067  0.6591  1.5208 -0.5247
 1859SOL     OW17209   2.720   3.689   2.011 -0.2183 -0.3999  0.3407
 1859SOL    HW117210   2.786   3.622   2.025 -0.4445 -0.8260 -0.7201
 1859SOL    HW217211   2.639   3.643   1.989 -0.9853  2.1486 -2.1118
 1860SOL     OW17212   2.062   1.549   2.822 -0.0067  0.4619  0.2598
 1860SOL    HW117213   2.139   1.516   2.868  1.3601  1.3472 -1.3854
 1860SOL    HW217214   2.102   1.594   2.748  0.2299  1.5828  1.0661
 1861SOL     OW17215   1.347   1.667   8.541  0.1169  0.4695  0.0876
 1861SOL    HW117216   1.355   1.649   8.448 -1.1241 -2.1160  0.4537
 1861SOL    HW217217   1.392   1.751   8.545  0.6352  0.1661  0.7129
 1862SOL     OW17218   1.320   4.420   4.895  0.0484  0.0695 -0.2822
 1862SOL    HW117219   1.267   4.457   4.966  0.8089 -1.6374  1.1758
 1862SOL    HW217220   1.290   4.463   4.815  1.4880  2.2134  0.3208
 1863SOL     OW17221   1.669   3.972   3.073  0.2353 -0.1867 -0.3538
 1863SOL    HW117222   1.593   3.967   3.015 -1.2396 -1.7618  1.7472
 1863SOL    HW217223   1.736   3.946   3.009  1.4293 -0.3468  0.9416
 1864SOL     OW17224   0.866   0.131  12.195 -0.3969 -0.7054 -0.3557
 1864SOL    HW117225   0.916   0.111  12.274 -0.5804  0.4895  0.0667
 1864SOL    HW217226   0.864   0.043  12.158 -0.6190  0.1534 -2.4136
 1865SOL     OW17227   1.171   0.982   4.513 -1.3052 -0.3064  0.2320
 1865SOL    HW117228   1.176   1.000   4.419  0.0701 -1.2088  0.1341
 1865SOL    HW217229   1.230   1.048   4.550  0.8373 -0.7936 -2.3268
 1866SOL     OW17230   1.295   1.261   3.379  0.3561 -0.0718  0.4823
 1866SOL    HW117231   1.264   1.341   3.336 -0.5150 -0.2422  0.7972
 1866SOL    HW217232   1.373   1.290   3.427 -0.1871  0.4113  1.0792
 1867SOL     OW17233   1.109   1.555   4.588  0.1805 -0.4340  0.3553
 1867SOL    HW117234   1.046   1.597   4.529 -0.1911 -1.0287  0.3282
 1867SOL    HW217235   1.162   1.633   4.600 -0.5861  0.1136  0.1958
 1868SOL     OW17236   0.672   0.010  15.102 -0.5661  0.1726 -0.1308
 1868SOL    HW117237   0.591   0.054  15.126 -2.2497 -1.2330 -3.2808
 1868SOL    HW217238   0.645   4.661  15.134 -0.1129  0.4525  1.0079
 1869SOL     OW17239   4.331   3.132   5.655  0.4583  0.8250  0.1811
 1869SOL    HW117240   4.257   3.153   5.598  0.0196  1.0289  0.8366
 1869SOL    HW217241   4.314   3.182   5.734 -2.1520  0.9091 -0.4402
 1870SOL     OW17242   3.101   3.924   2.355  0.4255  0.0722  0.1472
 1870SOL    HW117243   3.110   4.018   2.338  2.6056 -0.0246  0.8589
 1870SOL    HW217244   3.077   3.896   2.267 -1.6861  1.5118  0.2564
 1871SOL     OW17245   4.425   1.940   4.201  0.7645  0.4268 -0.0726
 1871SOL    HW117246   4.459   1.850   4.210 -0.8791 -0.2749 -0.8531
 1871SOL    HW217247   4.487   1.967   4.134  1.7380  0.0432  0.6857
 1872SOL     OW17248   1.460   0.574   3.276  0.2528 -0.5413  0.0425
 1872SOL    HW117249   1.528   0.572   3.208 -0.0636  1.9650 -0.3574
 1872SOL    HW217250   1.517   0.563   3.352 -2.0571  2.5418  2.2216
 1873SOL     OW17251   3.556   4.174  12.899  0.6004  0.1517  0.2603
 1873SOL    HW117252   3.472   4.165  12.855  0.5908  2.5418 -0.2113
 1873SOL    HW217253   3.528   4.216  12.981 -0.2267 -2.6338  1.4075
 1874SOL     OW17254   2.904   4.500   7.465  0.1170  0.0160  0.4449
 1874SOL    HW117255   2.935   4.553   7.391 -3.1828 -0.1985 -1.0949
 1874SOL    HW217256   2.884   4.565   7.533  1.7929  1.8224 -0.7995
 1875SOL     OW17257   0.360   3.910   0.200  0.5164 -0.5517 -0.3764
 1875SOL    HW117258   0.445   3.924   0.241  0.1775 -1.8575  0.7822
 1875SOL    HW217259   0.358   3.815   0.212  0.4139 -0.4597  0.3739
 1876SOL     OW17260   3.363   0.727   8.977 -0.0676 -0.3160  0.0371
 1876SOL    HW117261   3.271   0.698   8.978 -0.7619  1.8181 -1.6385
 1876SOL    HW217262   3.363   0.786   8.901 -0.1688  0.3856  0.5908
 1877SOL     OW17263   2.028   2.002   5.167  0.0810  0.2690 -0.1872
 1877SOL    HW117264   2.055   2.093   5.161  1.2567 -0.0868 -0.1352
 1877SOL    HW217265   1.963   2.016   5.098 -0.4767  1.7258  0.6341
 1878SOL     OW17266   2.290   4.095   9.477 -0.6827 -0.2054  0.3915
 1878SOL    HW117267   2.297   4.155   9.551  0.3489 -1.6418  1.4698
 1878SOL    HW217268   2.291   4.157   9.405  0.1641 -1.7007 -0.8912
 1879SOL     OW17269   0.577   3.643   1.419 -0.2588 -0.7251 -0.6296
 1879SOL    HW117270   0.621   3.725   1.440  0.3431 -1.3275  0.4277
 1879SOL    HW217271   0.489   3.676   1.398  0.0846 -0.1779 -1.2242
 1880SOL     OW17272   3.139   1.118   3.676  0.2435  0.0927  0.7848
 1880SOL    HW117273   3.158   1.100   3.768 -1.4420  1.4407  1.3904
 1880SOL    HW217274   3.121   1.026   3.655 -0.3745  0.5722 -0.8047
 1881SOL     OW17275   2.482   0.092   2.644 -0.3327  0.2060 -0.4037
 1881SOL    HW117276   2.399   0.044   2.655  0.5903 -0.9691  1.5065
 1881SOL    HW217277   2.486   0.139   2.727  2.0987 -0.1249 -0.3527
 1882SOL     OW17278   0.395   3.609  14.382 -0.3815 -0.2004  0.1181
 1882SOL    HW117279   0.448   3.689  14.372 -0.3862 -0.2928 -0.6651
 1882SOL    HW217280   0.312   3.657  14.382  1.2068  2.5243  0.4974
 1883SOL     OW17281   0.598   1.911  17.641  0.4271 -0.4673 -0.0822
 1883SOL    HW117282   0.516   1.931  17.597 -0.4091  1.2439  2.2426
 1883SOL    HW217283   0.590   1.817  17.660  0.5370 -0.5743 -0.5759
 1884SOL     OW17284   3.103   3.343   3.313  0.3889  0.5949 -0.1981
 1884SOL    HW117285   3.163   3.367   3.242 -1.3911 -0.6577 -2.1500
 1884SOL    HW217286   3.139   3.387   3.390  0.9566 -1.0195  0.4706
 1885SOL     OW17287   1.613   2.476   3.693  0.2794  0.0553 -0.2301
 1885SOL    HW117288   1.539   2.437   3.646  0.3504 -1.0582  0.5722
 1885SOL    HW217289   1.645   2.397   3.738  0.7693  0.5556  0.2946
 1886SOL     OW17290   3.691   1.947   0.238  0.0161  0.6276  0.2071
 1886SOL    HW117291   3.625   1.959   0.171  2.2654  0.7078 -1.9984
 1886SOL    HW217292   3.710   2.038   0.262  1.1879  0.0120  1.6036
 1887SOL     OW17293   2.813   2.667   9.791  0.2491 -0.2262  0.3727
 1887SOL    HW117294   2.726   2.700   9.812  0.9187  1.7397  0.1353
 1887SOL    HW217295   2.865   2.730   9.841 -0.8796  1.5876 -0.7359
 1888SOL     OW17296   1.926   0.390   8.449 -0.0873  0.6738  0.9299
 1888SOL    HW117297   1.861   0.335   8.492 -0.3173 -0.1853 -0.5531
 1888SOL    HW217298   1.869   0.456   8.410  1.8744  1.2432 -0.9672
 1889SOL     OW17299   1.923   1.269   4.569 -0.3748  0.6289  0.0277
 1889SOL    HW117300   1.910   1.356   4.533 -3.3984  0.3872  0.5728
 1889SOL    HW217301   1.894   1.285   4.659 -0.0501  3.5643 -0.3964
 1890SOL     OW17302   4.368   2.859  16.100 -0.2066  0.2655  0.0070
 1890SOL    HW117303   4.346   2.809  16.022  1.4172 -1.9090  0.9425
 1890SOL    HW217304   4.362   2.783  16.158 -2.0039 -0.5234 -1.2081
 1891SOL     OW17305   1.263   2.610  10.697 -0.2532  0.8864  0.0157
 1891SOL    HW117306   1.240   2.521  10.674 -0.9753  0.9814  0.3683
 1891SOL    HW217307   1.240   2.604  10.790  0.6627  0.5930  0.2224
 1892SOL     OW17308   3.636   0.733   9.820 -0.3819 -0.7189  0.0096
 1892SOL    HW117309   3.616   0.823   9.847  1.1034 -0.8185  1.4647
 1892SOL    HW217310   3.558   0.701   9.775 -0.4455  1.4878 -1.4218
 1893SOL     OW17311   3.606   3.361  16.520 -0.3774  0.0782  0.1952
 1893SOL    HW117312   3.676   3.328  16.577 -0.4065 -1.1294 -0.4720
 1893SOL    HW217313   3.608   3.453  16.546  1.5970 -0.6737  2.6514
 1894SOL     OW17314   4.481   4.420   0.446 -0.5238 -0.2483  0.0003
 1894SOL    HW117315   4.510   4.398   0.357 -0.2579 -2.3767  0.6131
 1894SOL    HW217316   4.567   4.428   0.488  1.3691 -0.4161 -3.7517
 1895SOL     OW17317   0.441   0.150  16.282  0.0856  0.2024  0.0094
 1895SOL    HW117318   0.475   0.218  16.340  0.0679  0.1227  0.1146
 1895SOL    HW217319   0.449   0.187  16.194 -1.2164 -0.5794 -0.4458
 1896SOL     OW17320   3.609   0.384  14.093 -0.4455 -0.3908  0.5602
 1896SOL    HW117321   3.678   0.352  14.035  0.4227  1.6340  0.4788
 1896SOL    HW217322   3.569   0.301  14.115  3.6031 -2.4832  0.0217
 1897SOL     OW17323   1.545   1.899   4.659 -0.4193 -0.1479 -0.1814
 1897SOL    HW117324   1.599   1.837   4.707  0.4048  0.8419  0.1568
 1897SOL    HW217325   1.568   1.982   4.700 -1.3696  0.1739 -0.2917
 1898SOL     OW17326   0.251   1.046   9.777  0.0743 -0.5499  0.3744
 1898SOL    HW117327   0.259   1.141   9.769 -2.3001 -0.3973 -0.3133
 1898SOL    HW217328   0.288   1.016   9.694  2.7092 -0.8930  1.6812
 1899SOL     OW17329   1.470   3.751   6.224  0.2623  0.3275 -0.4341
 1899SOL    HW117330   1.551   3.787   6.189 -0.2173  1.8795  0.0241
 1899SOL    HW217331   1.505   3.702   6.298  0.6671 -1.0526 -1.5466
 1900SOL     OW17332   1.700   3.845  11.976  0.0696  0.0803 -0.7092
 1900SOL    HW117333   1.637   3.880  12.039 -0.8623  0.6169 -1.9149
 1900SOL    HW217334   1.684   3.752  11.992 -1.3152  0.6007  0.9714
 1901SOL     OW17335   0.501   2.217  10.716 -0.6705  1.0375 -0.3207
 1901SOL    HW117336   0.486   2.154  10.646 -1.9663  0.6405  0.3237
 1901SOL    HW217337   0.425   2.220  10.774  0.1492  1.4794  0.7457
 1902SOL     OW17338   3.968   1.400  14.213  0.6275  0.2845  0.3772
 1902SOL    HW117339   3.947   1.433  14.300 -0.7877  1.3469 -0.3667
 1902SOL    HW217340   3.922   1.317  14.204  1.6468 -0.0685 -1.7936
 1903SOL     OW17341   1.967   0.541   5.186 -0.2447 -0.0058  0.1409
 1903SOL    HW117342   1.984   0.583   5.101 -2.9047 -0.2450 -0.5055
 1903SOL    HW217343   1.883   0.502   5.162  0.8537 -2.3331  0.0903
 1904SOL     OW17344   0.110   3.711   1.902  0.4565 -0.2041 -0.2990
 1904SOL    HW117345   0.104   3.802   1.932  3.4306 -0.0446 -0.1724
 1904SOL    HW217346   0.022   3.683   1.924  0.0936  0.4464 -0.9122
 1905SOL     OW17347   2.787   2.673   3.116 -0.1502  0.0197 -0.3362
 1905SOL    HW117348   2.834   2.700   3.037  1.8269  0.4518  1.0078
 1905SOL    HW217349   2.854   2.674   3.184 -1.3585  2.3672  0.7973
 1906SOL     OW17350   0.300   0.167   1.985  0.7245 -0.2648  0.2734
 1906SOL    HW117351   0.328   0.097   2.044 -2.3930 -0.5984  1.3327
 1906SOL    HW217352   0.276   0.229   2.054 -2.4614 -1.1153 -0.0652
 1907SOL     OW17353   2.585   2.355  10.653  0.5738  0.0699 -0.0355
 1907SOL    HW117354   2.522   2.283  10.659 -0.6100  0.9358 -2.0469
 1907SOL    HW217355   2.537   2.415  10.596  0.7053  2.1926  2.0988
 1908SOL     OW17356   3.404   1.129   0.220  0.2195  0.8268 -0.2238
 1908SOL    HW117357   3.446   1.122   0.134 -0.2871  1.2842 -0.5036
 1908SOL    HW217358   3.312   1.120   0.196  0.1349  0.1301  0.3532
 1909SOL     OW17359   1.385   1.055   5.879  0.0435 -0.6755  0.6918
 1909SOL    HW117360   1.316   1.111   5.915 -0.6972 -1.7787  1.0228
 1909SOL    HW217361   1.412   1.096   5.797 -1.3503 -0.0377  0.5590
 1910SOL     OW17362   0.554   2.288  17.011  0.3215  0.6242 -0.1858
 1910SOL    HW117363   0.509   2.216  16.967  0.7526  0.5160 -0.4526
 1910SOL    HW217364   0.608   2.243  17.076  0.1867 -1.8215 -1.7235
 1911SOL     OW17365   4.572   3.991   5.291 -0.2503  0.6288 -0.1636
 1911SOL    HW117366   4.653   3.940   5.284 -1.3028 -0.7863 -1.8642
 1911SOL    HW217367   4.611   4.078   5.300  1.3729 -0.1284  0.2935
 1912SOL     OW17368   3.424   3.897   7.282 -0.2991  0.1236 -0.0706
 1912SOL    HW117369   3.370   3.844   7.223 -0.9823 -0.5423  1.1667
 1912SOL    HW217370   3.406   3.855   7.366  1.3693  1.4852  0.9678
 1913SOL     OW17371   2.388   1.842   1.675  0.5496  0.3384  0.1954
 1913SOL    HW117372   2.455   1.809   1.616  0.3864  0.7220 -0.2038
 1913SOL    HW217373   2.328   1.767   1.676 -0.5482  1.2193 -0.4194
 1914SOL     OW17374   1.047   3.183   5.676 -0.3431  0.3609  0.1385
 1914SOL    HW117375   1.000   3.141   5.605 -0.2498  0.5570 -0.0398
 1914SOL    HW217376   1.131   3.209   5.638 -0.8780 -0.0581 -1.3123
 1915SOL     OW17377   4.131   0.036   0.040  0.3649 -0.0132 -0.2849
 1915SOL    HW117378   4.200   0.085  17.740  0.6238 -2.4149 -2.5090
 1915SOL    HW217379   4.099   0.112   0.089  0.2116 -1.2027  1.4762
 1916SOL     OW17380   3.362   0.532   2.367 -0.4848  0.0654  0.1609
 1916SOL    HW117381   3.284   0.519   2.421 -0.9343  3.3837  0.3343
 1916SOL    HW217382   3.318   0.595   2.310  0.3850  0.3946 -0.1382
 1917SOL     OW17383   2.599   2.042  12.121 -0.0795  0.3496  0.0490
 1917SOL    HW117384   2.685   2.001  12.115 -0.0104  0.5047 -0.0255
 1917SOL    HW217385   2.615   2.125  12.166 -0.5896  0.2070  0.5009
 1918SOL     OW17386   0.336   3.460   6.736  0.5283  0.8511 -0.1716
 1918SOL    HW117387   0.302   3.376   6.765  0.7837  0.4515 -1.0246
 1918SOL    HW217388   0.258   3.495   6.691  0.9828  2.0077 -0.0671
 1919SOL     OW17389   1.540   4.713   1.692 -0.0595  0.2642 -0.3472
 1919SOL    HW117390   1.464   0.014   1.736 -0.5836 -0.9954 -0.1755
 1919SOL    HW217391   1.590   0.058   1.687  0.6207 -0.1713 -0.6879
 1920SOL     OW17392   3.181   0.786   7.252 -0.4703  0.6365 -0.1422
 1920SOL    HW117393   3.137   0.871   7.247 -0.7118  0.5385  0.2907
 1920SOL    HW217394   3.270   0.809   7.224 -0.7316  2.0862  0.2319
 1921SOL     OW17395   1.023   4.348   2.388  0.9092 -0.1293 -0.0979
 1921SOL    HW117396   0.966   4.413   2.346 -0.1884 -0.8744  0.2431
 1921SOL    HW217397   1.098   4.354   2.329  1.0026 -3.7287 -0.3749
 1922SOL     OW17398   3.963   0.950  14.333  0.2839 -0.4852  0.6065
 1922SOL    HW117399   3.971   0.959  14.239  2.4240  1.8916  1.0137
 1922SOL    HW217400   4.041   0.897  14.350  0.3424  0.8892  4.8364
 1923SOL     OW17401   2.928   1.243  16.658 -0.7834 -0.0289 -0.8801
 1923SOL    HW117402   2.921   1.320  16.602 -0.3780  0.4366 -0.2812
 1923SOL    HW217403   2.871   1.179  16.615  0.9646 -0.5572 -2.3828
 1924SOL     OW17404   3.403   4.407   2.215 -0.8920 -0.3076 -0.3010
 1924SOL    HW117405   3.320   4.436   2.251 -0.5028 -1.1112  1.2183
 1924SOL    HW217406   3.364   4.393   2.128 -1.7157 -1.1537  0.2009
 1925SOL     OW17407   1.935   4.582   3.023  0.3970  0.1564 -0.2812
 1925SOL    HW117408   1.920   4.672   3.051 -0.3344  0.7667 -2.6389
 1925SOL    HW217409   1.857   4.534   3.050 -0.0598  1.2912  0.4080
 1926SOL     OW17410   3.210   3.919  10.445  0.5973 -0.3966  0.2384
 1926SOL    HW117411   3.161   4.000  10.457 -0.6259 -1.7296  4.1660
 1926SOL    HW217412   3.291   3.956  10.411  0.1368  1.6919  1.4184
 1927SOL     OW17413   2.693   0.703   7.508  0.8298  0.1841  0.1065
 1927SOL    HW117414   2.748   0.630   7.479  1.7329  1.1046 -0.5367
 1927SOL    HW217415   2.608   0.674   7.475  0.2206  0.0572  1.8266
 1928SOL     OW17416   0.631   2.596   8.896 -0.0872  0.5406 -0.2051
 1928SOL    HW117417   0.581   2.514   8.897  0.2722  0.3307  0.8855
 1928SOL    HW217418   0.711   2.561   8.935 -0.6260  0.5492  0.9246
 1929SOL     OW17419   4.416   2.681   2.634  0.2226 -0.5714  0.6543
 1929SOL    HW117420   4.332   2.724   2.651 -0.0459 -0.7342 -0.3023
 1929SOL    HW217421   4.409   2.592   2.670 -0.0820 -0.4048  1.0059
 1930SOL     OW17422   1.409   4.406   4.571  0.1680  0.4992  0.1883
 1930SOL    HW117423   1.393   4.328   4.518 -0.1504 -1.9695  3.8900
 1930SOL    HW217424   1.468   4.371   4.637  1.5414 -0.1261 -1.3599
 1931SOL     OW17425   3.753   3.532   5.006  0.2436  0.3296  0.4729
 1931SOL    HW117426   3.819   3.508   5.072  0.9168  0.4650 -0.1513
 1931SOL    HW217427   3.675   3.570   5.046 -0.9449 -1.3214 -0.2811
 1932SOL     OW17428   4.321   2.639  16.808  0.1583 -0.0121  0.2656
 1932SOL    HW117429   4.236   2.654  16.849  0.3350 -0.4593  0.8085
 1932SOL    HW217430   4.331   2.544  16.797  0.7222  0.1847 -0.9203
 1933SOL     OW17431   1.032   0.398   1.283  0.0826 -0.4652 -0.4172
 1933SOL    HW117432   0.973   0.347   1.338 -0.3121  0.2783 -0.1604
 1933SOL    HW217433   0.975   0.425   1.211 -0.8697 -1.1779  0.0771
 1934SOL     OW17434   4.259   0.271   5.679  0.1777 -0.0572 -0.1830
 1934SOL    HW117435   4.252   0.310   5.766  1.4196 -2.1796  0.8925
 1934SOL    HW217436   4.209   0.331   5.624  3.1793  0.6861 -2.1103
 1935SOL     OW17437   4.634   2.744  12.223 -0.2312 -0.1405 -0.2287
 1935SOL    HW117438   4.628   2.839  12.237 -1.6088  0.1648 -2.8009
 1935SOL    HW217439   4.705   2.718  12.282 -0.5972 -0.2864  0.1474
 1936SOL     OW17440   4.666   1.024   7.220 -0.1237 -0.6598 -0.6688
 1936SOL    HW117441   4.704   1.029   7.132  1.6266 -3.6757 -0.0954
 1936SOL    HW217442   4.617   0.943   7.231 -1.0334  0.0842  0.6788
 1937SOL     OW17443   2.056   1.284   0.255  0.2587 -0.0520 -0.4084
 1937SOL    HW117444   1.975   1.246   0.288  0.1452  0.2966 -0.2849
 1937SOL    HW217445   2.099   1.208   0.215  0.0672 -1.1372  1.4750
 1938SOL     OW17446   2.052   2.040   7.669  0.2892  0.2590  0.8377
 1938SOL    HW117447   2.076   1.973   7.734 -1.4848 -1.8928 -0.7386
 1938SOL    HW217448   2.062   1.988   7.590  1.9918 -1.4033  2.1505
 1939SOL     OW17449   1.191   2.732   0.502  0.2988 -0.6342  0.0312
 1939SOL    HW117450   1.250   2.719   0.576  1.8182  0.3467 -1.0132
 1939SOL    HW217451   1.210   2.818   0.462  3.0541 -0.5719  1.4733
 1940SOL     OW17452   4.143   2.593  11.584  0.3005 -0.3698  0.6905
 1940SOL    HW117453   4.095   2.516  11.615 -0.5114  0.7296  2.1578
 1940SOL    HW217454   4.074   2.658  11.576  2.6574  1.8715 -1.0901
 1941SOL     OW17455   3.597   4.708  15.406  0.6330 -0.2712 -0.2562
 1941SOL    HW117456   3.557   4.723  15.320 -0.2843  1.7371  0.5291
 1941SOL    HW217457   3.529   4.653  15.445  0.3129  0.6052  0.4258
 1942SOL     OW17458   4.067   3.647  12.068  0.3985  0.0256 -0.1843
 1942SOL    HW117459   4.041   3.736  12.045 -0.4087  0.0831  0.9514
 1942SOL    HW217460   3.993   3.623  12.124  1.4114 -0.8064  0.7783
 1943SOL     OW17461   2.759   0.393   1.796  0.4654 -0.5890 -0.1124
 1943SOL    HW117462   2.847   0.354   1.803  0.9890  0.9430  1.7672
 1943SOL    HW217463   2.786   0.484   1.804  2.0661 -1.0533 -0.1768
 1944SOL     OW17464   1.032   4.251   3.590  0.1125 -0.7393 -0.3485
 1944SOL    HW117465   1.046   4.165   3.629 -0.2449 -1.2228 -1.2844
 1944SOL    HW217466   0.984   4.228   3.511 -1.7665 -0.1880  0.6320
 1945SOL     OW17467   2.986   3.154   8.244  0.1226  0.4306  0.2605
 1945SOL    HW117468   2.921   3.084   8.230  1.3222 -0.9245  1.4575
 1945SOL    HW217469   3.011   3.136   8.334 -1.7593  1.8256  1.0781
 1946SOL     OW17470   3.767   4.187   6.278 -0.3856  0.5387 -0.0902
 1946SOL    HW117471   3.675   4.211   6.292 -0.4644  0.0519  0.2013
 1946SOL    HW217472   3.755   4.172   6.184 -2.7310  0.9498  0.1379
 1947SOL     OW17473   0.696   1.825   4.392  0.2978  0.0574 -0.5240
 1947SOL    HW117474   0.655   1.878   4.460  0.9867  1.0255 -0.8571
 1947SOL    HW217475   0.659   1.739   4.412 -1.9251  0.8550 -1.2004
 1948SOL     OW17476   3.937   3.051   1.915 -0.3615 -0.1093  0.0776
 1948SOL    HW117477   3.870   2.982   1.917 -0.6249  0.1517  0.2896
 1948SOL    HW217478   3.951   3.063   1.822  0.5955 -1.9043 -0.0060
 1949SOL     OW17479   3.844   4.380   7.343  0.2487  0.6217  0.2049
 1949SOL    HW117480   3.835   4.394   7.437 -0.0875  0.2395  0.2323
 1949SOL    HW217481   3.932   4.342   7.350 -0.8118 -1.8921 -0.1537
 1950SOL     OW17482   0.230   2.565   8.647  0.4207  0.3273  0.2466
 1950SOL    HW117483   0.224   2.523   8.733  0.5505 -2.4838 -1.1096
 1950SOL    HW217484   0.175   2.643   8.655 -1.7755 -1.2960  1.1557
 1951SOL     OW17485   1.310   1.041  11.536 -0.1375 -0.3046  0.5132
 1951SOL    HW117486   1.222   1.064  11.505  0.3991  1.8271  0.5659
 1951SOL    HW217487   1.292   1.002  11.622  3.4697 -2.2005  0.4003
 1952SOL     OW17488   2.601   1.724   9.738  0.2112  0.0651  0.3373
 1952SOL    HW117489   2.547   1.652   9.705  0.6997  0.1467 -0.6125
 1952SOL    HW217490   2.545   1.753   9.810 -0.7816 -1.8833  0.3535
 1953SOL     OW17491   0.748   2.001  16.764  0.0011  0.2367  0.1124
 1953SOL    HW117492   0.785   2.002  16.853  0.8573  0.5624 -0.2440
 1953SOL    HW217493   0.826   2.017  16.711 -1.6072 -0.4871 -2.4351
 1954SOL     OW17494   0.410   0.739   5.963 -0.4186  0.3584  0.1206
 1954SOL    HW117495   0.404   0.834   5.961  2.6043  0.5389 -0.6522
 1954SOL    HW217496   0.376   0.723   6.050 -0.8211 -2.1630 -0.5032
 1955SOL     OW17497   1.443   0.903   6.740  0.5605 -0.4586 -0.0412
 1955SOL    HW117498   1.520   0.877   6.690  1.3804  1.3351  0.2974
 1955SOL    HW217499   1.387   0.827   6.721  1.5788 -1.4072  0.7452
 1956SOL     OW17500   0.777   0.144   3.711 -0.2116  0.4043 -0.4910
 1956SOL    HW117501   0.852   0.183   3.665 -1.2992  1.3223 -1.4809
 1956SOL    HW217502   0.792   0.050   3.700 -2.6390 -0.0512  0.1808
 1957SOL     OW17503   4.486   4.612   1.185 -0.1376  0.0946 -0.1545
 1957SOL    HW117504   4.473   4.551   1.112 -0.1065  0.9706 -0.9011
 1957SOL    HW217505   4.573   4.648   1.167  1.0597 -2.9103 -0.3576
 1958SOL     OW17506   3.775   4.057   0.651  0.4738  0.0604 -0.2053
 1958SOL    HW117507   3.687   4.036   0.621  0.7190  0.6571 -1.3291
 1958SOL    HW217508   3.800   3.976   0.695  0.5500  0.2104  0.0301
 1959SOL     OW17509   2.553   3.697   6.302  0.1913 -0.0766 -0.2945
 1959SOL    HW117510   2.609   3.728   6.373  0.2240  0.1515 -0.4200
 1959SOL    HW217511   2.490   3.769   6.296 -1.8471 -1.9538 -1.3451
 1960SOL     OW17512   3.931   3.655   3.783 -0.2946 -0.7362 -0.0311
 1960SOL    HW117513   3.990   3.723   3.815  1.7179 -1.6372 -1.7939
 1960SOL    HW217514   3.879   3.713   3.728  0.9332  1.0952  0.7729
 1961SOL     OW17515   1.306   0.413   2.174 -0.4775  0.1438 -0.1439
 1961SOL    HW117516   1.344   0.418   2.262  0.7859 -0.9619 -0.6339
 1961SOL    HW217517   1.373   0.457   2.123 -1.5466 -0.2425 -1.8866
 1962SOL     OW17518   2.166   3.157   2.800  0.2043 -0.5451 -0.5995
 1962SOL    HW117519   2.233   3.124   2.860  0.6226 -1.2820 -1.4601
 1962SOL    HW217520   2.224   3.156   2.723 -0.2861  0.5947 -0.9869
 1963SOL     OW17521   2.847   3.938   6.385 -0.1277 -0.3255  0.3304
 1963SOL    HW117522   2.794   3.988   6.322  0.6340 -0.4141 -0.3870
 1963SOL    HW217523   2.779   3.883   6.423  0.0015 -1.0386 -0.4687
 1964SOL     OW17524   2.036   1.529   4.133  0.0084  0.1094  0.6871
 1964SOL    HW117525   2.002   1.446   4.166  1.2143  0.1077  1.9243
 1964SOL    HW217526   2.125   1.524   4.168  0.2168 -0.4181  0.0759
 1965SOL     OW17527   0.147   2.447  13.888  0.2123 -0.0671  0.0319
 1965SOL    HW117528   0.079   2.456  13.821 -1.6483  0.0569  1.9183
 1965SOL    HW217529   0.148   2.538  13.919  0.4417  0.3383 -1.1415
 1966SOL     OW17530   3.736   3.766  10.995  0.1372  1.3096 -0.3612
 1966SOL    HW117531   3.827   3.749  10.970 -0.6777 -2.6382 -0.6219
 1966SOL    HW217532   3.760   3.779  11.087  0.7260 -0.9834 -0.1931
 1967SOL     OW17533   4.206   0.298  13.643  0.2112 -0.0840  0.3763
 1967SOL    HW117534   4.156   0.368  13.602  0.9338 -0.3917 -1.0631
 1967SOL    HW217535   4.286   0.297  13.589 -1.2235  1.0210 -1.7933
 1968SOL     OW17536   1.968   4.339  11.321  0.0107 -0.2946  0.6256
 1968SOL    HW117537   1.921   4.311  11.242 -0.0536 -0.4885  0.7347
 1968SOL    HW217538   1.892   4.339  11.378 -0.3439 -0.4335  0.1563
 1969SOL     OW17539   3.923   2.573   6.402  0.3932 -0.7069 -0.1748
 1969SOL    HW117540   3.920   2.554   6.495  0.0762  1.5054  0.2725
 1969SOL    HW217541   3.865   2.649   6.395  0.7431 -0.4989 -0.8777
 1970SOL     OW17542   1.980   3.385   6.873  0.4170 -0.6128 -0.4932
 1970SOL    HW117543   1.905   3.362   6.927  0.9474 -0.6153  0.2424
 1970SOL    HW217544   2.003   3.475   6.894 -3.2996  0.2538 -0.1689
 1971SOL     OW17545   1.543   2.326   5.437 -0.6204  0.1612 -0.2440
 1971SOL    HW117546   1.623   2.364   5.472 -1.9364  2.2082  0.5690
 1971SOL    HW217547   1.545   2.357   5.346  2.3905 -1.4463 -0.6997
 1972SOL     OW17548   2.770   2.587   4.839  0.2772  0.2542 -0.2573
 1972SOL    HW117549   2.675   2.572   4.837  0.1071  1.6846 -2.6263
 1972SOL    HW217550   2.803   2.521   4.900 -2.0636 -2.2437 -1.6957
 1973SOL     OW17551   1.242   0.145  11.489 -0.2229 -0.2479 -0.3259
 1973SOL    HW117552   1.228   0.072  11.549 -0.6023  0.2561  0.2035
 1973SOL    HW217553   1.266   0.216  11.548 -0.2320 -1.3769  1.0347
 1974SOL     OW17554   3.604   0.740   8.619  0.2905 -0.6311  0.1562
 1974SOL    HW117555   3.649   0.656   8.612 -0.8061 -1.2261  0.4323
 1974SOL    HW217556   3.639   0.773   8.701 -1.2166  0.9435  0.1605
 1975SOL     OW17557   1.095   2.276   3.048 -0.0461 -0.3728  0.2325
 1975SOL    HW117558   1.185   2.260   3.078 -0.0490  0.1185  0.5199
 1975SOL    HW217559   1.087   2.372   3.048  1.8310 -0.2136  0.7957
 1976SOL     OW17560   1.799   2.174   3.674 -0.3408  0.2190 -0.1531
 1976SOL    HW117561   1.730   2.188   3.738 -0.7700  1.9468 -1.0050
 1976SOL    HW217562   1.813   2.080   3.686  0.1584  0.4870  1.3445
 1977SOL     OW17563   0.104   3.532   2.271 -0.4847 -0.5674 -0.1291
 1977SOL    HW117564   0.045   3.529   2.346  1.5648 -0.8881  1.4576
 1977SOL    HW217565   0.133   3.624   2.267 -0.0443 -0.6283  1.6574
 1978SOL     OW17566   3.396   0.972   2.780 -0.3139 -0.2902 -0.1160
 1978SOL    HW117567   3.395   1.053   2.728  2.6079 -0.2339 -0.0597
 1978SOL    HW217568   3.303   0.947   2.777 -0.3958  0.0109 -0.1383
 1979SOL     OW17569   1.359   3.145   4.580  0.4421 -0.4029 -0.1636
 1979SOL    HW117570   1.416   3.068   4.583  1.3808  0.2609 -1.1636
 1979SOL    HW217571   1.300   3.122   4.508  0.5711  1.6728 -0.9169
 1980SOL     OW17572   1.069   2.854   3.995  1.0333 -0.0895  0.3163
 1980SOL    HW117573   0.982   2.893   4.000  1.1313  0.1553  0.0847
 1980SOL    HW217574   1.050   2.788   3.929 -0.5976 -1.2303  1.9211
 1981SOL     OW17575   3.497   3.043   9.489 -0.0298  0.1248  0.3456
 1981SOL    HW117576   3.511   3.029   9.395 -2.2020 -0.2291  0.0777
 1981SOL    HW217577   3.436   3.116   9.502  0.0323  0.2626 -0.1569
 1982SOL     OW17578   3.542   0.658   4.174 -0.1614  0.4424  0.4496
 1982SOL    HW117579   3.605   0.588   4.162  0.9174  1.8666 -2.2258
 1982SOL    HW217580   3.474   0.614   4.123  1.2298  1.2187 -2.0964
 1983SOL     OW17581   3.924   2.914   9.385  0.8171  0.5951 -0.7985
 1983SOL    HW117582   4.002   2.925   9.331  0.9529  0.1304 -0.6975
 1983SOL    HW217583   3.952   2.913   9.477  0.5626 -1.3556 -0.7422
 1984SOL     OW17584   3.192   3.014   4.169 -0.1812 -0.4808 -0.6295
 1984SOL    HW117585   3.272   2.982   4.212 -1.0363  0.7055  1.8287
 1984SOL    HW217586   3.227   3.033   4.082  0.0409  1.3312 -0.1404
 1985SOL     OW17587   0.828   4.518   1.054  0.1832  0.2248 -0.6394
 1985SOL    HW117588   0.910   4.568   1.054  0.0097  0.4744  3.3276
 1985SOL    HW217589   0.791   4.533   1.141  0.4223  1.1112 -0.6879
 1986SOL     OW17590   3.469   1.576   3.678 -0.6501  0.2461  0.1357
 1986SOL    HW117591   3.426   1.656   3.649 -2.0229 -0.2886  0.7164
 1986SOL    HW217592   3.452   1.514   3.606  3.0640 -1.4612  0.7267
 1987SOL     OW17593   4.372   4.603   4.931 -0.0085 -0.1527  0.1267
 1987SOL    HW117594   4.310   4.626   5.001  0.1629  0.2803  0.1378
 1987SOL    HW217595   4.390   4.685   4.885 -0.2305 -0.8664 -1.2460
 1988SOL     OW17596   2.855   0.557   8.306 -0.6052 -0.6533  0.2268
 1988SOL    HW117597   2.807   0.554   8.224 -2.7846 -2.4483  1.5790
 1988SOL    HW217598   2.800   0.508   8.367 -1.8442  0.1706 -0.2182
 1989SOL     OW17599   3.447   0.177   3.358  0.5750 -0.0897  0.3046
 1989SOL    HW117600   3.453   0.269   3.387  0.6295  0.1213 -0.3819
 1989SOL    HW217601   3.452   0.133   3.443 -1.0625 -2.2865 -0.7637
 1990SOL     OW17602   4.485   4.068  11.334 -0.1641  0.7585 -0.1091
 1990SOL    HW117603   4.551   4.083  11.267  1.5608  2.1373  1.8699
 1990SOL    HW217604   4.414   4.108  11.284 -0.0713  0.9278 -0.1024
 1991SOL     OW17605   3.559   0.570   2.549  0.3109  0.4320 -0.5081
 1991SOL    HW117606   3.524   0.623   2.621 -0.1492 -2.8504  1.6935
 1991SOL    HW217607   3.487   0.550   2.490 -0.2424 -1.6927  0.8919
 1992SOL     OW17608   0.419   4.324  14.617  0.2668  0.3888  0.1586
 1992SOL    HW117609   0.513   4.338  14.608  0.1642  0.7150 -0.4429
 1992SOL    HW217610   0.416   4.258  14.686  1.2852 -0.5825 -0.7443
 1993SOL     OW17611   2.844   4.457   1.930  0.3574 -0.2186 -0.3085
 1993SOL    HW117612   2.889   4.421   2.006 -0.4556  1.0478  0.7696
 1993SOL    HW217613   2.756   4.422   1.930  0.8432 -1.4377 -1.9046
 1994SOL     OW17614   3.953   1.341  13.696 -0.6980  0.2502 -0.1554
 1994SOL    HW117615   3.981   1.422  13.654 -0.2932  0.6509  0.8854
 1994SOL    HW217616   3.993   1.291  13.625  0.7396  0.3124  0.6212
 1995SOL     OW17617   0.426   4.537   6.402  0.6067 -0.3395 -0.3686
 1995SOL    HW117618   0.420   4.447   6.370  0.4702 -1.0928  1.8110
 1995SOL    HW217619   0.442   4.586   6.321 -0.7043 -0.0857 -0.4762
 1996SOL     OW17620   3.998   0.780   8.740  0.6307  0.8413  0.3274
 1996SOL    HW117621   4.053   0.737   8.675 -1.8700 -1.3036 -0.3582
 1996SOL    HW217622   4.045   0.862   8.756  0.0541  0.8804  1.8677
 1997SOL     OW17623   3.547   2.488  16.606 -0.1033  0.2059  0.3050
 1997SOL    HW117624   3.630   2.533  16.593 -0.5623  1.8285  2.8535
 1997SOL    HW217625   3.531   2.507  16.699 -0.0164 -0.3399  0.4288
 1998SOL     OW17626   1.740   0.841  15.485  0.3157  0.8696 -0.3422
 1998SOL    HW117627   1.776   0.879  15.405  1.9802  3.0013  1.4327
 1998SOL    HW217628   1.788   0.758  15.487 -1.5498 -0.2300 -1.0084
 1999SOL     OW17629   4.377   1.889   2.971 -0.3968 -0.3413  0.2767
 1999SOL    HW117630   4.441   1.819   2.956  1.0389  0.8301  0.9457
 1999SOL    HW217631   4.422   1.933   3.042 -0.8417 -1.9937  1.5974
 2000SOL     OW17632   3.810   4.662  13.942  0.0431 -0.2714 -0.3192
 2000SOL    HW117633   3.799   4.567  13.940 -1.2346 -0.1327  0.7656
 2000SOL    HW217634   3.719   4.673  13.968  0.4271  1.5071  0.2039
 2001SOL     OW17635   2.697   3.109   2.666 -0.2916  0.1635  0.2452
 2001SOL    HW117636   2.735   3.171   2.604 -0.6155 -0.8522 -0.9836
 2001SOL    HW217637   2.740   3.121   2.750  0.0957 -0.2983  0.1159
 2002SOL     OW17638   1.142   0.593   3.644 -0.2928  0.1192  0.7016
 2002SOL    HW117639   1.199   0.621   3.716 -0.4871  0.0443  0.8853
 2002SOL    HW217640   1.063   0.645   3.663  0.4740  1.3966  0.3950
 2003SOL     OW17641   4.514   0.231   5.305  0.1258 -0.0855  0.2001
 2003SOL    HW117642   4.608   0.225   5.322  0.7232  1.6835 -2.6136
 2003SOL    HW217643   4.508   0.223   5.210  1.3541  1.3189  0.0055
 2004SOL     OW17644   4.506   2.629   1.806 -0.4520  0.1831 -0.1598
 2004SOL    HW117645   4.542   2.700   1.859  3.0138  0.1479 -2.4560
 2004SOL    HW217646   4.437   2.676   1.760 -0.9493 -0.7643 -0.3737
 2005SOL     OW17647   2.740   4.356   8.156 -0.0366  0.4013  0.3224
 2005SOL    HW117648   2.834   4.363   8.142 -0.1719 -1.6756 -1.6588
 2005SOL    HW217649   2.710   4.427   8.099 -2.2094  0.0481  1.0047
 2006SOL     OW17650   2.070   0.988   3.550  1.7634 -0.4409 -0.4618
 2006SOL    HW117651   2.003   1.047   3.514  0.8695 -0.8351  0.5514
 2006SOL    HW217652   2.014   0.911   3.555 -0.4155  1.1068 -0.8046
 2007SOL     OW17653   3.175   0.760   6.968  0.0252  0.5237  0.3194
 2007SOL    HW117654   3.131   0.843   6.950  0.0185  0.2096 -1.1276
 2007SOL    HW217655   3.243   0.787   7.030 -0.3460  0.9743  0.5275
 2008SOL     OW17656   4.530   3.108  14.457 -0.6136 -0.2052 -0.4615
 2008SOL    HW117657   4.516   3.191  14.502  1.3596 -0.4800  0.6442
 2008SOL    HW217658   4.558   3.141  14.371  1.7944  2.4625  1.3181
 2009SOL     OW17659   1.481   2.085   7.677 -0.4983  0.3820 -0.4320
 2009SOL    HW117660   1.554   2.056   7.732 -0.2388  0.9838 -0.4485
 2009SOL    HW217661   1.535   2.104   7.600  0.9448 -0.1463  0.4373
 2010SOL     OW17662   0.395   4.682   6.995  0.0282 -0.0860  0.1797
 2010SOL    HW117663   0.476   4.634   7.013  1.0281  1.5638  0.1327
 2010SOL    HW217664   0.428   0.004   6.927  1.3581  0.3892  1.2122
 2011SOL     OW17665   4.455   2.563  10.023 -0.4567 -0.0686 -0.4588
 2011SOL    HW117666   4.394   2.623  10.065 -0.6618  0.7717 -1.9358
 2011SOL    HW217667   4.516   2.628   9.988 -0.6927 -0.4275 -1.5512
 2012SOL     OW17668   2.199   3.157   1.213  0.1454  0.1311  0.1075
 2012SOL    HW117669   2.170   3.070   1.186 -0.9985  0.9330 -1.3061
 2012SOL    HW217670   2.175   3.161   1.305 -1.8670  0.7470 -0.4355
 2013SOL     OW17671   1.086   1.746   2.701  0.1130 -0.1035 -0.0793
 2013SOL    HW117672   0.998   1.714   2.680  0.5602 -1.6079  0.3962
 2013SOL    HW217673   1.102   1.699   2.783 -0.3760 -0.2465 -0.0653
 2014SOL     OW17674   2.365   0.699   2.085  0.8904 -0.3263 -0.0586
 2014SOL    HW117675   2.322   0.662   2.007  0.5676  0.4690 -0.2639
 2014SOL    HW217676   2.414   0.620   2.107  1.9658 -0.0153 -1.3395
 2015SOL     OW17677   3.462   4.595  16.195  0.5119  0.0981  0.3449
 2015SOL    HW117678   3.422   4.654  16.259  1.7304 -0.1979  1.3722
 2015SOL    HW217679   3.554   4.601  16.221  0.5962  2.6893 -0.5721
 2016SOL     OW17680   2.119   2.687   8.887 -0.7617 -0.2033 -0.6362
 2016SOL    HW117681   2.164   2.754   8.938 -0.8267 -0.1881 -0.5996
 2016SOL    HW217682   2.191   2.631   8.856  0.2305 -0.6278  2.4751
 2017SOL     OW17683   4.477   3.365  14.580  0.1575  0.3297  0.0348
 2017SOL    HW117684   4.531   3.383  14.656  0.3650  0.9409 -0.2611
 2017SOL    HW217685   4.385   3.359  14.606 -0.2203 -0.9947 -1.5289
 2018SOL     OW17686   3.376   3.759   4.841  0.5874  0.5340  0.3251
 2018SOL    HW117687   3.329   3.843   4.841  1.6531  1.1410 -4.5609
 2018SOL    HW217688   3.435   3.778   4.768 -1.2418  0.6152 -1.1513
 2019SOL     OW17689   3.443   2.887   7.122 -0.2027  0.4095  0.5932
 2019SOL    HW117690   3.353   2.915   7.109 -1.2819 -3.5671 -0.4857
 2019SOL    HW217691   3.486   2.950   7.064  2.3541 -2.0343 -0.1499
 2020SOL     OW17692   2.582   2.466   4.230  0.0725  0.6077 -0.1430
 2020SOL    HW117693   2.496   2.504   4.249  0.7442  1.2900  1.5619
 2020SOL    HW217694   2.578   2.444   4.137  0.9349  0.2062 -0.0832
 2021SOL     OW17695   2.664   3.613   1.725  0.5692 -0.5091  0.4551
 2021SOL    HW117696   2.715   3.665   1.787  1.1260 -0.8473  0.2757
 2021SOL    HW217697   2.685   3.671   1.652 -0.2769 -3.6439 -2.2717
 2022SOL     OW17698   2.293   1.876   9.209 -0.3028  0.0712 -0.1773
 2022SOL    HW117699   2.279   1.810   9.277  0.7636  0.0730  0.0431
 2022SOL    HW217700   2.206   1.886   9.171  0.1685 -0.0983 -1.2989
 2023SOL     OW17701   3.591   2.607  11.289  0.0054 -0.9463  0.6981
 2023SOL    HW117702   3.503   2.573  11.305  0.1699 -1.5073  0.4464
 2023SOL    HW217703   3.565   2.691  11.252 -1.5044 -1.2404  1.1135
 2024SOL     OW17704   3.253   2.650  10.586 -0.6061 -0.7785  0.2502
 2024SOL    HW117705   3.307   2.607  10.521  1.8851  1.5056  0.8027
 2024SOL    HW217706   3.170   2.611  10.560  0.4221 -2.3558 -0.6232
 2025SOL     OW17707   3.275   3.311  15.488  0.3407 -0.3892 -0.2079
 2025SOL    HW117708   3.249   3.310  15.580 -0.0274 -0.0618 -0.3057
 2025SOL    HW217709   3.341   3.243  15.479  0.8251  0.1668 -0.8044
 2026SOL     OW17710   3.987   2.082  14.019  0.0250  0.1364 -0.3775
 2026SOL    HW117711   3.901   2.103  14.055  1.2464 -1.1452  3.3004
 2026SOL    HW217712   3.965   1.996  13.983  1.5368 -0.2872 -0.3086
 2027SOL     OW17713   0.538   4.256  16.173 -0.0489  0.1632 -0.3453
 2027SOL    HW117714   0.467   4.191  16.175  0.3240 -0.2399 -0.2999
 2027SOL    HW217715   0.490   4.337  16.151  1.0178  1.4481  2.0603
 2028SOL     OW17716   1.574   0.046  13.581  0.1969  0.1369 -0.1038
 2028SOL    HW117717   1.581   0.131  13.625  1.2596 -0.6905  1.3379
 2028SOL    HW217718   1.572   0.072  13.489  1.5247 -2.6016 -0.9082
 2029SOL     OW17719   0.399   0.486  17.603 -0.0750  0.6086 -0.0456
 2029SOL    HW117720   0.413   0.502  17.509  0.4792  0.7394  0.0619
 2029SOL    HW217721   0.479   0.441  17.627  1.1618  1.6663 -2.1533
 2030SOL     OW17722   3.958   1.533  14.945  0.3037 -0.0933  0.0214
 2030SOL    HW117723   3.957   1.452  14.895 -1.3846  0.1955 -0.4177
 2030SOL    HW217724   4.048   1.527  14.976  0.9764 -0.4126 -2.0194
 2031SOL     OW17725   2.636   2.682   5.161  0.0967 -0.2671  0.4590
 2031SOL    HW117726   2.552   2.722   5.136  0.5582  0.3682 -0.0584
 2031SOL    HW217727   2.613   2.589   5.158 -0.0956 -0.2086 -0.0140
 2032SOL     OW17728   2.543   1.785  11.681 -0.5502 -0.0931  0.3324
 2032SOL    HW117729   2.454   1.789  11.646 -0.8569 -0.8225  1.0366
 2032SOL    HW217730   2.546   1.864  11.734  2.5810  1.7830 -2.6142
 2033SOL     OW17731   0.143   2.637   3.509  0.5724 -0.4698 -0.0152
 2033SOL    HW117732   0.177   2.703   3.570  2.3572 -1.7482  0.3909
 2033SOL    HW217733   0.068   2.686   3.476 -1.4219 -2.3500  1.7191
 2034SOL     OW17734   3.162   4.172   2.236  0.5260  0.3222 -0.5849
 2034SOL    HW117735   3.082   4.136   2.196  1.2916 -1.5766 -0.4465
 2034SOL    HW217736   3.182   4.237   2.168  1.0231  0.1723 -0.5831
 2035SOL     OW17737   2.910   1.361  16.891 -0.6065  0.0601  0.0699
 2035SOL    HW117738   2.890   1.299  16.820 -1.1896  0.5431 -0.1908
 2035SOL    HW217739   2.917   1.289  16.954 -0.6943 -0.3584 -0.3942
 2036SOL     OW17740   1.564   3.812  17.684  0.3543 -0.3928 -0.0212
 2036SOL    HW117741   1.553   3.740  17.621 -2.2151  0.2087 -0.2451
 2036SOL    HW217742   1.648   3.838  17.646  1.0132 -1.1760  0.9006
 2037SOL     OW17743   2.195   2.428   3.847  0.1834 -0.0725 -0.5738
 2037SOL    HW117744   2.136   2.397   3.916  0.4689 -0.0762 -0.3305
 2037SOL    HW217745   2.223   2.512   3.881  0.3874 -0.1267 -0.6052
 2038SOL     OW17746   0.086   4.693   4.543 -0.9142  0.1205 -0.0914
 2038SOL    HW117747   0.005   4.648   4.569 -0.1103 -0.9740  0.5150
 2038SOL    HW217748   0.137   4.631   4.490 -2.4540 -0.7683 -0.5273
 2039SOL     OW17749   3.911   0.183   2.013  0.2375 -0.5323  0.4993
 2039SOL    HW117750   3.893   0.142   1.928  1.4030  0.1478 -0.0715
 2039SOL    HW217751   3.952   0.268   1.995 -0.2263 -0.4600 -0.2626
 2040SOL     OW17752   2.065   3.278   2.520 -0.5324 -0.0224  0.5240
 2040SOL    HW117753   2.152   3.261   2.484 -0.9745 -0.8608 -0.1520
 2040SOL    HW217754   2.091   3.319   2.602 -1.3243  1.3944  0.0824
 2041SOL     OW17755   2.004   1.874   9.128 -0.1568 -0.0940  0.4737
 2041SOL    HW117756   2.021   1.807   9.062 -2.7542 -0.8823  0.6201
 2041SOL    HW217757   1.917   1.892   9.093 -0.1108  2.1102  1.4560
 2042SOL     OW17758   4.125   4.106   7.120 -0.4568  0.4488 -0.4434
 2042SOL    HW117759   4.161   4.135   7.204 -0.3664  0.4334 -0.4762
 2042SOL    HW217760   4.052   4.051   7.149 -0.3963  0.3922 -0.3954
 2043SOL     OW17761   2.788   3.478   4.097  0.1335 -0.2227  0.2697
 2043SOL    HW117762   2.839   3.407   4.059  0.2804  0.0785 -0.1048
 2043SOL    HW217763   2.770   3.532   4.020  2.9206  2.5176  1.5190
 2044SOL     OW17764   0.927   0.460   6.810  0.3460  0.2478  0.3823
 2044SOL    HW117765   0.841   0.436   6.845 -0.2278  0.3106 -0.9696
 2044SOL    HW217766   0.980   0.461   6.889 -0.2194  0.5702  0.7661
 2045SOL     OW17767   2.075   2.100  17.332  0.2898  0.2420 -0.4575
 2045SOL    HW117768   2.167   2.112  17.355  1.0958 -1.7034 -2.6635
 2045SOL    HW217769   2.064   2.164  17.261  1.4909  1.9163  0.8560
 2046SOL     OW17770   0.967   1.049  13.096 -0.0001 -0.4780  0.1482
 2046SOL    HW117771   0.966   1.143  13.118  0.0296  0.6708 -4.7565
 2046SOL    HW217772   0.907   1.012  13.160 -1.5278  1.3827 -0.2095
 2047SOL     OW17773   4.694   4.378  16.499  0.0513  0.4117  0.1580
 2047SOL    HW117774   4.620   4.431  16.531 -0.7654 -0.0046 -1.0480
 2047SOL    HW217775   0.008   4.459  16.496  0.0703  0.3736 -0.4155
 2048SOL     OW17776   0.561   0.603   3.916  0.2014 -0.0192 -0.5378
 2048SOL    HW117777   0.626   0.666   3.947 -0.3644  0.7182 -0.8667
 2048SOL    HW217778   0.619   0.528   3.933  2.0062  1.2648 -1.0977
 2049SOL     OW17779   3.609   2.782  14.311  0.0304  0.0392 -0.0174
 2049SOL    HW117780   3.653   2.798  14.395  0.4796 -1.2808 -0.0020
 2049SOL    HW217781   3.669   2.845  14.270 -1.7247  1.4731 -0.3759
 2050SOL     OW17782   2.337   0.990   8.178 -0.5139 -0.2692 -0.1976
 2050SOL    HW117783   2.351   0.926   8.248  1.9117  0.0106 -0.4395
 2050SOL    HW217784   2.290   1.060   8.224  2.2609  2.2512 -1.1788
 2051SOL     OW17785   1.229   2.148   1.513  0.1255  0.2484  0.0348
 2051SOL    HW117786   1.287   2.075   1.532 -0.2090  0.2123  0.9289
 2051SOL    HW217787   1.152   2.100   1.482  2.0528 -0.5831 -3.4401
 2052SOL     OW17788   2.117   1.005   6.988 -0.1430  0.1070  0.0438
 2052SOL    HW117789   2.191   1.050   6.946  0.4956 -1.4640 -0.4996
 2052SOL    HW217790   2.045   1.018   6.926  0.8778 -3.5572 -1.9430
 2053SOL     OW17791   4.075   4.510  14.194 -0.2691 -0.2832 -0.4631
 2053SOL    HW117792   4.133   4.586  14.184 -2.6471  1.7221  1.2704
 2053SOL    HW217793   4.127   4.441  14.152 -2.2170 -0.1317 -3.1052
 2054SOL     OW17794   1.949   4.279   3.167 -0.1891 -0.2836 -0.3239
 2054SOL    HW117795   1.881   4.344   3.183  0.0867 -0.0042 -0.2697
 2054SOL    HW217796   1.938   4.209   3.232  1.1879 -0.8394 -0.6869
 2055SOL     OW17797   0.629   3.160  10.108 -0.1870  0.3630 -0.4575
 2055SOL    HW117798   0.649   3.250  10.133 -0.8178 -0.1133  1.7706
 2055SOL    HW217799   0.661   3.151  10.018  1.6980 -0.2299  0.2961
 2056SOL     OW17800   2.340   2.476   3.321  0.3467  0.1485 -0.2625
 2056SOL    HW117801   2.426   2.444   3.293 -0.8607 -2.1577 -1.2767
 2056SOL    HW217802   2.339   2.468   3.416 -0.1432  1.6944 -0.1299
 2057SOL     OW17803   0.078   0.174   7.232 -0.6861  0.3289 -0.4463
 2057SOL    HW117804   0.129   0.214   7.162  0.1430  0.0653  0.0012
 2057SOL    HW217805   0.070   0.084   7.200  3.7313 -0.4713  0.7027
 2058SOL     OW17806   0.067   4.534  13.724 -0.2263 -0.4087  0.1762
 2058SOL    HW117807   0.053   4.586  13.645  1.4338  0.1205  0.2383
 2058SOL    HW217808   4.712   4.540  13.753 -0.5289 -2.4572 -0.3350
 2059SOL     OW17809   2.010   3.329  10.927 -0.3906 -0.1517 -0.3617
 2059SOL    HW117810   1.941   3.387  10.959 -1.5539 -2.7769  1.9791
 2059SOL    HW217811   1.962   3.252  10.896  0.9765  0.1797 -3.2652
 2060SOL     OW17812   4.432   0.888  12.876  0.0858 -0.6420 -0.1654
 2060SOL    HW117813   4.453   0.926  12.791  3.3254 -0.0106  0.9426
 2060SOL    HW217814   4.428   0.958  12.940 -1.0194 -1.0376  0.2111
 2061SOL     OW17815   1.508   0.346   2.927 -0.3675 -0.2945 -1.0107
 2061SOL    HW117816   1.565   0.421   2.912  1.7013 -2.0830 -2.0866
 2061SOL    HW217817   1.547   0.315   3.009 -1.3354 -0.0473 -0.4462
 2062SOL     OW17818   2.654   0.385   8.378  0.1562  0.1904  0.4944
 2062SOL    HW117819   2.562   0.393   8.351  0.1681  1.6581  0.8689
 2062SOL    HW217820   2.642   0.320   8.447 -0.0318 -1.9430 -1.5276
 2063SOL     OW17821   1.803   4.231   5.118  0.4398 -0.0431  0.0260
 2063SOL    HW117822   1.895   4.223   5.094  1.0467  0.7901  2.0666
 2063SOL    HW217823   1.771   4.291   5.050  1.9817  1.1799  0.3881
 2064SOL     OW17824   1.741   1.950   9.064  0.3021  0.0248 -0.1637
 2064SOL    HW117825   1.723   2.018   9.129  0.9284  0.7061 -0.6931
 2064SOL    HW217826   1.690   1.873   9.086  1.2892 -0.4226  0.5982
 2065SOL     OW17827   1.891   4.508   7.922 -0.4091 -0.1371  0.2227
 2065SOL    HW117828   1.829   4.473   7.858 -1.6975  2.1449  0.2375
 2065SOL    HW217829   1.851   4.591   7.945  1.6885  0.6828  0.9216
 2066SOL     OW17830   2.251   0.161   9.503 -0.2270 -0.1264  0.3532
 2066SOL    HW117831   2.313   0.232   9.520 -0.4846  0.0910  0.3746
 2066SOL    HW217832   2.219   0.146   9.591 -1.4860  0.1169 -0.0645
 2067SOL     OW17833   1.818   0.140   6.419  0.2991  0.1421  0.4599
 2067SOL    HW117834   1.839   0.233   6.421 -0.1238  0.2508 -0.0225
 2067SOL    HW217835   1.764   0.132   6.340  1.1216 -0.4160 -0.0465
 2068SOL     OW17836   1.140   3.486   6.912  0.0293 -0.3380  0.2483
 2068SOL    HW117837   1.159   3.412   6.854 -0.2003  1.1320 -1.6622
 2068SOL    HW217838   1.160   3.446   6.997  1.8968  0.5139  0.2136
 2069SOL     OW17839   1.986   2.391   3.646 -0.1901 -0.4936  0.1394
 2069SOL    HW117840   2.033   2.388   3.729 -0.9135  1.3536  0.6209
 2069SOL    HW217841   1.935   2.311   3.649  0.4377 -0.9091 -0.3779
 2070SOL     OW17842   4.267   0.277  11.114  0.3703  0.3856 -0.0237
 2070SOL    HW117843   4.312   0.319  11.188  1.9018 -0.5825 -0.3944
 2070SOL    HW217844   4.182   0.255  11.152  0.6821 -3.5041 -1.5856
 2071SOL     OW17845   3.718   1.161   4.452  0.1065  0.4884  0.0303
 2071SOL    HW117846   3.789   1.113   4.496 -0.5494  0.3168  0.8972
 2071SOL    HW217847   3.728   1.246   4.495 -2.3691  1.6302 -1.6736
 2072SOL     OW17848   2.040   3.664   6.204  0.2832 -0.4808  0.1051
 2072SOL    HW117849   2.067   3.729   6.268  0.6529  0.1099 -0.6497
 2072SOL    HW217850   2.072   3.695   6.119  2.0670  0.4490  1.1179
 2073SOL     OW17851   3.617   3.587   7.877  0.1230  0.3691 -0.1219
 2073SOL    HW117852   3.695   3.642   7.882  1.9885 -2.2272 -0.7210
 2073SOL    HW217853   3.645   3.526   7.809 -1.4139 -0.1283 -0.3271
 2074SOL     OW17854   0.087   4.384  16.967  0.1808 -0.8299  0.4364
 2074SOL    HW117855   4.733   4.353  16.973  0.0287 -0.2746  1.0416
 2074SOL    HW217856   0.068   4.478  16.964 -3.7216 -1.6494  0.2218
 2075SOL     OW17857   1.825   3.459   1.966 -0.0912 -0.3909  0.5763
 2075SOL    HW117858   1.835   3.554   1.966  0.0338 -0.4020 -1.7295
 2075SOL    HW217859   1.909   3.443   1.924 -0.6794  0.2953 -0.8401
 2076SOL     OW17860   3.768   0.208   2.298 -0.4831 -0.2072 -0.5219
 2076SOL    HW117861   3.698   0.270   2.277  0.4160  0.7298 -0.7511
 2076SOL    HW217862   3.852   0.246   2.274 -0.4551  0.0830  0.0342
 2077SOL     OW17863   1.214   2.033  14.387  0.2559  0.0018 -0.0490
 2077SOL    HW117864   1.307   2.018  14.400  0.5490  1.3890 -0.4448
 2077SOL    HW217865   1.211   2.084  14.306 -2.3681  0.7716  0.5062
 2078SOL     OW17866   1.729   4.092   4.676  0.2158 -0.4442  0.4196
 2078SOL    HW117867   1.677   4.161   4.718  0.8977  0.1249  0.3386
 2078SOL    HW217868   1.753   4.121   4.588 -1.0959 -0.6986 -0.0166
 2079SOL     OW17869   0.686   4.322   1.442  0.2794  0.4821  0.0597
 2079SOL    HW117870   0.738   4.399   1.464  1.9908 -0.6114 -0.1045
 2079SOL    HW217871   0.636   4.303   1.522  2.2436 -0.0126  1.1870
 2080SOL     OW17872   1.262   2.455   7.193 -0.2102 -0.1331 -0.7154
 2080SOL    HW117873   1.331   2.466   7.259 -0.8704  0.1390 -0.0724
 2080SOL    HW217874   1.300   2.497   7.116  2.2948 -0.9280  0.0824
 2081SOL     OW17875   3.933   3.579   5.810  0.6818  0.4320 -0.1792
 2081SOL    HW117876   3.892   3.506   5.764  3.0282 -0.7429 -0.4220
 2081SOL    HW217877   4.024   3.579   5.778  0.6415  0.9509 -0.2973
 2082SOL     OW17878   0.500   2.157   2.724 -0.1961  0.0256  0.3747
 2082SOL    HW117879   0.567   2.206   2.772  2.2735 -2.5190 -0.4274
 2082SOL    HW217880   0.534   2.070   2.748  1.3035  1.0955  2.1442
 2083SOL     OW17881   2.520   3.267   6.879  0.3064 -0.0137  0.7677
 2083SOL    HW117882   2.609   3.302   6.889  1.3616 -2.3582 -0.3031
 2083SOL    HW217883   2.549   3.213   6.805 -2.1795 -0.5636  0.2198
 2084SOL     OW17884   0.890   3.711   9.047 -0.4011 -0.1231 -0.2031
 2084SOL    HW117885   0.858   3.733   9.134 -0.4336  0.4863 -0.3664
 2084SOL    HW217886   0.983   3.688   9.057 -0.1442  0.4363 -1.3224
 2085SOL     OW17887   2.888   2.396   9.173  0.3142  0.0409 -0.4519
 2085SOL    HW117888   2.811   2.341   9.182 -0.2987  0.9090 -0.3433
 2085SOL    HW217889   2.889   2.449   9.253 -1.8968 -0.3474 -0.1594
 2086SOL     OW17890   3.274   4.661   0.118  0.3519  0.0556  0.3959
 2086SOL    HW117891   3.191   4.677   0.073  1.0915 -0.3457 -1.1176
 2086SOL    HW217892   3.270   0.001   0.176 -2.2701  0.3767 -0.2226
 2087SOL     OW17893   4.647   4.409   6.767 -0.2608  0.0335 -0.0601
 2087SOL    HW117894   4.724   4.463   6.750  0.4799 -0.8351  0.5319
 2087SOL    HW217895   4.576   4.439   6.710 -0.7351 -0.3316  0.3354
 2088SOL     OW17896   4.136   4.580   7.999  0.0460 -0.2010 -0.0323
 2088SOL    HW117897   4.143   4.653   8.061 -0.6931  0.0691 -0.2676
 2088SOL    HW217898   4.044   4.559   7.985 -0.6089  1.9885  1.0024
 2089SOL     OW17899   4.390   1.284  10.194 -0.3076  0.3080 -0.6974
 2089SOL    HW117900   4.380   1.303  10.288  3.4014  0.8192 -0.4128
 2089SOL    HW217901   4.485   1.281  10.192 -0.4013 -0.6319 -2.9928
 2090SOL     OW17902   1.664   1.575  16.075 -0.1035  0.3698 -0.1243
 2090SOL    HW117903   1.708   1.638  16.131  1.2835 -1.8045  1.2430
 2090SOL    HW217904   1.660   1.625  15.994  0.1049  2.2424  1.0269
 2091SOL     OW17905   3.362   0.550   3.923  0.1490  0.6409  0.1288
 2091SOL    HW117906   3.330   0.639   3.906 -1.7479  0.2046  1.3593
 2091SOL    HW217907   3.407   0.523   3.843 -0.9117 -0.0494 -0.2413
 2092SOL     OW17908   2.726   4.104   5.225  0.3228 -0.0315 -0.2672
 2092SOL    HW117909   2.817   4.132   5.213 -0.4077  1.6081 -1.8853
 2092SOL    HW217910   2.722   4.027   5.168  2.6624 -0.2869 -0.1084
 2093SOL     OW17911   0.596   2.651   2.086  0.4423 -0.4626  0.2752
 2093SOL    HW117912   0.575   2.723   2.145 -0.7588 -1.5271  1.1574
 2093SOL    HW217913   0.621   2.690   2.003 -2.4055  1.5063  0.3516
 2094SOL     OW17914   0.972   3.439   4.486 -0.3023  0.0311 -0.4858
 2094SOL    HW117915   0.934   3.351   4.477 -2.6397  0.8176  1.8323
 2094SOL    HW217916   0.928   3.481   4.559 -1.7815 -2.0111 -0.1815
 2095SOL     OW17917   2.325   4.144   5.679 -0.1569 -0.1125  0.3390
 2095SOL    HW117918   2.264   4.176   5.613  1.4988  0.9011 -0.6949
 2095SOL    HW217919   2.319   4.049   5.666 -1.0560  0.2715 -2.0045
 2096SOL     OW17920   3.085   1.486  15.240 -0.0099  0.1774  0.3775
 2096SOL    HW117921   3.167   1.488  15.289 -0.6202  0.5648  1.3705
 2096SOL    HW217922   3.106   1.455  15.152  1.8213 -0.6564  1.1203
 2097SOL     OW17923   1.965   0.913   5.286 -0.4661 -0.2278 -0.2167
 2097SOL    HW117924   1.975   0.818   5.273 -1.0307 -0.4685  1.1621
 2097SOL    HW217925   1.931   0.941   5.201 -1.7472  1.3651  0.8384
 2098SOL     OW17926   3.114   0.509   8.581 -0.1167  0.1238  0.5723
 2098SOL    HW117927   3.023   0.529   8.559  0.7087  1.5821 -1.5290
 2098SOL    HW217928   3.148   0.474   8.499  0.8717  2.5765 -0.0759
 2099SOL     OW17929   3.441   2.936   7.422  0.0126 -0.2848  0.6380
 2099SOL    HW117930   3.456   2.875   7.349  0.8372 -0.3026  0.8227
 2099SOL    HW217931   3.520   2.990   7.422 -0.0224 -0.2357  0.9720
 2100SOL     OW17932   0.637   3.483   8.660 -0.0874  0.4564  0.2789
 2100SOL    HW117933   0.722   3.468   8.618 -0.8167 -0.4930 -0.8585
 2100SOL    HW217934   0.588   3.531   8.593  2.1307  1.2091 -0.8135
 2101SOL     OW17935   3.345   1.942   5.791  0.3729 -0.0050  0.1482
 2101SOL    HW117936   3.296   1.909   5.716 -0.3225 -1.7155  1.3402
 2101SOL    HW217937   3.358   2.035   5.770 -0.8335 -0.2815 -1.7923
 2102SOL     OW17938   4.441   1.302   9.735 -0.2900  0.3885 -0.3791
 2102SOL    HW117939   4.528   1.334   9.713  0.0738  0.2413  0.8257
 2102SOL    HW217940   4.476   1.243   9.802 -0.7415  0.2292 -0.2788
 2103SOL     OW17941   0.972   0.258   2.256  0.3987  0.3801 -0.4815
 2103SOL    HW117942   0.918   0.253   2.177 -1.7127  2.0347  0.8699
 2103SOL    HW217943   0.909   0.260   2.328  0.8962 -1.0914 -0.0125
 2104SOL     OW17944   3.694   1.859  11.328 -0.1562 -0.4573 -0.2404
 2104SOL    HW117945   3.766   1.796  11.336 -0.0153 -0.6032 -2.7961
 2104SOL    HW217946   3.733   1.939  11.292  1.2654 -1.6024 -1.2655
 2105SOL     OW17947   0.405   2.797   8.528  0.4529  0.1756  0.1078
 2105SOL    HW117948   0.405   2.701   8.527  0.4138  0.2131 -1.8091
 2105SOL    HW217949   0.315   2.809   8.559  0.2233  0.8897 -0.8363
 2106SOL     OW17950   3.902   2.936  13.226  0.2956  0.0702  0.7982
 2106SOL    HW117951   3.970   2.929  13.293 -1.8549 -2.2760  2.7129
 2106SOL    HW217952   3.904   2.849  13.187  0.2926  1.1842 -1.6865
 2107SOL     OW17953   0.873   2.506   9.024 -0.0357 -0.2154 -0.2447
 2107SOL    HW117954   0.967   2.488   9.018 -0.3141 -1.2552 -1.6506
 2107SOL    HW217955   0.865   2.582   9.081  2.9639 -0.5660  0.6098
 2108SOL     OW17956   1.042   2.801  10.336 -0.3110  0.1126  0.5237
 2108SOL    HW117957   1.045   2.714  10.298  0.3613 -0.2302  1.3472
 2108SOL    HW217958   1.037   2.858  10.260  1.6102 -0.3893  0.0484
 2109SOL     OW17959   4.210   0.604  11.514 -0.4618  0.4618  0.6998
 2109SOL    HW117960   4.139   0.615  11.577 -0.1217  0.6362  1.0545
 2109SOL    HW217961   4.277   0.559  11.566 -2.6660  0.5961  3.6902
 2110SOL     OW17962   0.594   1.269   7.549  0.3763  0.2586  0.3837
 2110SOL    HW117963   0.556   1.336   7.493 -1.7490 -0.1871  1.3080
 2110SOL    HW217964   0.683   1.254   7.517  0.6593 -0.4583  1.5213
 2111SOL     OW17965   0.623   3.685   0.131  0.4028 -0.0394 -0.8082
 2111SOL    HW117966   0.560   3.614   0.115  0.6813 -0.2862 -0.7996
 2111SOL    HW217967   0.709   3.651   0.107  1.8002  2.7338  0.2592
 2112SOL     OW17968   0.097   3.417   9.348  0.3825  0.2558  0.2459
 2112SOL    HW117969   0.107   3.433   9.442  1.7877 -2.7172  0.6113
 2112SOL    HW217970   0.157   3.346   9.327 -0.2942  0.0670 -1.0690
 2113SOL     OW17971   4.142   0.818   6.734  0.3951 -0.3632 -0.0368
 2113SOL    HW117972   4.108   0.890   6.682  0.0271 -1.9905 -2.0679
 2113SOL    HW217973   4.058   0.774   6.749 -0.5902  1.2938 -0.7135
 2114SOL     OW17974   0.435   3.235   8.986 -0.1929 -0.3436  0.5537
 2114SOL    HW117975   0.411   3.312   8.934  1.4210 -0.3181 -0.1558
 2114SOL    HW217976   0.476   3.183   8.917  0.2538  0.6278  0.0953
 2115SOL     OW17977   2.304   1.942   7.979 -0.0398  0.2185  0.5578
 2115SOL    HW117978   2.376   1.996   7.947 -0.5695  2.2849  2.8121
 2115SOL    HW217979   2.328   1.917   8.068 -4.3462  1.3974  2.0778
 2116SOL     OW17980   1.310   0.687   2.055 -0.0741 -0.1650 -0.0323
 2116SOL    HW117981   1.283   0.756   2.115  0.0647  0.3087 -0.5216
 2116SOL    HW217982   1.239   0.697   1.991  0.3948  0.9977 -0.3675
 2117SOL     OW17983   2.934   1.759  12.381  0.3900  0.4485 -0.8130
 2117SOL    HW117984   2.971   1.683  12.425  0.8970 -0.1777 -2.3207
 2117SOL    HW217985   2.921   1.820  12.454 -1.0653 -0.0015 -0.6915
 2118SOL     OW17986   3.532   3.797  15.638 -0.1806  0.1717 -0.0625
 2118SOL    HW117987   3.480   3.878  15.639 -1.7741 -0.8375 -1.3276
 2118SOL    HW217988   3.471   3.725  15.623 -1.2467  0.9068  0.7550
 2119SOL     OW17989   3.324   1.883   7.467 -1.1223  0.2905  0.2703
 2119SOL    HW117990   3.253   1.941   7.440 -0.3914  0.1415 -1.9468
 2119SOL    HW217991   3.276   1.812   7.511  0.0730 -0.3808  0.5015
 2120SOL     OW17992   3.230   4.311   5.371  0.3970 -0.7024 -0.1355
 2120SOL    HW117993   3.217   4.399   5.405  0.9015 -0.9562  0.7187
 2120SOL    HW217994   3.255   4.327   5.280 -1.7578 -0.8380 -0.7624
 2121SOL     OW17995   1.911   0.500  15.699  0.1223  0.1136  0.5300
 2121SOL    HW117996   1.978   0.438  15.669  0.8428  0.0104  2.2903
 2121SOL    HW217997   1.933   0.534  15.786 -3.9857  0.1098  1.5705
 2122SOL     OW17998   0.598   0.662   3.056  0.0008  0.2037  0.2878
 2122SOL    HW117999   0.598   0.581   3.006 -0.2483  0.6806 -0.4875
 2122SOL    HW218000   0.608   0.634   3.147  0.1990 -1.4819 -0.2600
 2123SOL     OW18001   4.315   0.610   6.682 -0.3050 -0.0270 -0.1832
 2123SOL    HW118002   4.295   0.572   6.767  0.0154  2.4008  1.0017
 2123SOL    HW218003   4.241   0.668   6.663  1.1362  1.2261 -1.9804
 2124SOL     OW18004   1.044   0.664   0.246  0.5172  0.1204 -0.1756
 2124SOL    HW118005   1.064   0.653   0.153  1.7080  0.6197  0.0285
 2124SOL    HW218006   1.104   0.609   0.295 -0.1551  0.8718  1.5201
 2125SOL     OW18007   4.134   4.628   3.345 -0.4766 -0.1102  0.8100
 2125SOL    HW118008   4.158   4.582   3.425  1.3491 -0.5813 -0.0190
 2125SOL    HW218009   4.097   4.563   3.285 -0.8692 -0.9267  1.9324
 2126SOL     OW18010   0.858   3.667  13.853  0.5085 -0.0249  0.4202
 2126SOL    HW118011   0.800   3.597  13.883  0.1413  0.7154  1.4791
 2126SOL    HW218012   0.943   3.624  13.856  0.6425  0.3411  1.8588
 2127SOL     OW18013   3.728   4.273   5.807 -0.0682 -0.0305 -0.2261
 2127SOL    HW118014   3.777   4.209   5.755  1.0447  0.9044 -0.3369
 2127SOL    HW218015   3.746   4.349   5.752 -1.7607 -0.7286 -1.7141
 2128SOL     OW18016   1.284   4.559  16.773  0.3130 -0.0300 -0.3043
 2128SOL    HW118017   1.257   4.500  16.702 -1.7062  0.5628 -0.0454
 2128SOL    HW218018   1.223   4.535  16.843 -1.9896  1.4218 -1.8191
 2129SOL     OW18019   0.865   2.362   2.741  0.4883 -0.3899  0.4197
 2129SOL    HW118020   0.866   2.451   2.776  2.8664 -0.8653  1.5079
 2129SOL    HW218021   0.792   2.321   2.786  0.9343 -0.0917  1.4030
 2130SOL     OW18022   4.439   0.424   5.510 -0.1063  0.1115 -0.2786
 2130SOL    HW118023   4.454   0.356   5.444  3.4613 -1.1048  1.7452
 2130SOL    HW218024   4.447   0.372   5.590 -1.0809  0.7551  0.2308
 2131SOL     OW18025   2.065   0.233   3.503 -0.1660 -0.5641  0.3942
 2131SOL    HW118026   2.141   0.189   3.541  0.8221  1.8053  1.1434
 2131SOL    HW218027   1.998   0.205   3.566 -0.7458 -0.0122  0.0213
 2132SOL     OW18028   1.875   3.856   2.841 -0.2182 -0.1101  0.4323
 2132SOL    HW118029   1.961   3.837   2.879 -0.3496  3.1225  2.4019
 2132SOL    HW218030   1.883   3.812   2.757 -1.6069 -0.6006  0.5686
 2133SOL     OW18031   2.944   2.275   5.351 -0.3094 -0.2410 -0.1431
 2133SOL    HW118032   2.937   2.180   5.361  0.0978  0.0668  3.0832
 2133SOL    HW218033   2.997   2.295   5.428  1.2557  0.9481 -1.5392
 2134SOL     OW18034   2.981   3.275   9.387 -0.7891  0.3476 -0.3830
 2134SOL    HW118035   2.982   3.278   9.482  0.5691  0.4969 -0.4094
 2134SOL    HW218036   2.915   3.207   9.371  0.5382 -1.1033  0.2907
 2135SOL     OW18037   4.604   2.646   2.855 -0.4719  0.9310  0.1471
 2135SOL    HW118038   4.554   2.706   2.800 -2.6749  0.7218  1.8903
 2135SOL    HW218039   4.657   2.594   2.795 -1.0913 -0.8261  1.1201
 2136SOL     OW18040   2.434   2.890  15.725 -0.6450  0.0768 -0.4716
 2136SOL    HW118041   2.378   2.954  15.769 -1.5830 -0.6116 -0.6738
 2136SOL    HW218042   2.515   2.941  15.738 -0.5791 -0.4728  1.3679
 2137SOL     OW18043   4.273   3.244   3.277  0.4412  0.2904 -0.7582
 2137SOL    HW118044   4.288   3.330   3.315  0.5822  0.2077 -0.6287
 2137SOL    HW218045   4.298   3.186   3.349 -0.9700 -0.5160 -0.9223
 2138SOL     OW18046   0.025   1.587   5.640 -0.0202 -0.1568  0.3327
 2138SOL    HW118047   0.106   1.537   5.634  1.6097  2.2362  2.2367
 2138SOL    HW218048   0.075   1.668   5.645 -2.6801  1.4666  0.4898
 2139SOL     OW18049   1.158   2.263   1.874 -0.0653  0.1423  0.3413
 2139SOL    HW118050   1.118   2.310   1.947  0.5447 -0.0140  0.7767
 2139SOL    HW218051   1.183   2.178   1.911  0.1221 -0.1957 -0.5724
 2140SOL     OW18052   0.410   2.908   7.859 -0.0628  0.0678 -0.8822
 2140SOL    HW118053   0.493   2.862   7.872  0.0949  1.1407  1.9534
 2140SOL    HW218054   0.342   2.844   7.878  0.5095 -0.2148  0.2057
 2141SOL     OW18055   3.630   1.537  14.810 -0.0404 -0.1221 -0.6130
 2141SOL    HW118056   3.664   1.627  14.805  1.0402 -0.6434 -2.3957
 2141SOL    HW218057   3.711   1.487  14.816  0.5268  0.6660 -1.7377
 2142SOL     OW18058   0.709   0.985   2.915  0.4569 -0.3103  0.3252
 2142SOL    HW118059   0.666   1.005   2.998  1.5986 -0.7005  1.0143
 2142SOL    HW218060   0.636   0.936   2.878  1.1043  0.7893 -2.3847
 2143SOL     OW18061   4.151   0.694   8.511  0.0256 -0.5375  0.8554
 2143SOL    HW118062   4.242   0.717   8.527 -0.6264  0.9890  2.2838
 2143SOL    HW218063   4.134   0.761   8.445  1.4109 -1.4004 -0.3740
 2144SOL     OW18064   3.765   4.155   2.925  0.7692  0.1654  0.2316
 2144SOL    HW118065   3.720   4.197   2.852  2.7138  0.9410 -0.5274
 2144SOL    HW218066   3.797   4.077   2.879 -1.4709 -0.9707  0.5756
 2145SOL     OW18067   2.665   4.706   2.988  0.4496 -0.5404 -0.0232
 2145SOL    HW118068   2.640   4.643   2.920 -2.2920  1.2695 -0.7054
 2145SOL    HW218069   2.694   0.041   2.932  0.0513 -1.2225 -1.0916
 2146SOL     OW18070   2.911   4.300   5.544 -0.3724  0.0989 -0.2891
 2146SOL    HW118071   2.966   4.278   5.619 -0.2522 -0.2823 -0.4870
 2146SOL    HW218072   2.881   4.211   5.525 -1.7771  0.1205  1.7994
 2147SOL     OW18073   3.598   2.381   7.893 -0.4347 -0.2436 -1.0041
 2147SOL    HW118074   3.530   2.437   7.930  1.0543  0.1958  1.0441
 2147SOL    HW218075   3.632   2.448   7.834  1.2700 -0.4798 -0.2866
 2148SOL     OW18076   0.497   0.514  10.389 -0.6027 -0.3724 -0.5845
 2148SOL    HW118077   0.572   0.513  10.330 -0.6259  0.7229 -0.6381
 2148SOL    HW218078   0.497   0.600  10.432 -1.0266 -0.3505 -0.6258
 2149SOL     OW18079   0.523   0.886  12.301  0.7257 -0.0474  0.0720
 2149SOL    HW118080   0.507   0.894  12.396 -2.6243  1.8088 -0.6392
 2149SOL    HW218081   0.617   0.902  12.305  0.6324  0.9895 -1.7992
 2150SOL     OW18082   3.409   2.432   5.420 -0.1528 -0.0995 -0.2399
 2150SOL    HW118083   3.502   2.452   5.412  0.2167 -1.7816 -0.0435
 2150SOL    HW218084   3.380   2.457   5.332 -0.2229 -0.5777 -0.3510
 2151SOL     OW18085   2.650   0.583   2.105 -0.2754  0.1831  0.2428
 2151SOL    HW118086   2.738   0.574   2.143 -0.4350 -1.5790  0.2111
 2151SOL    HW218087   2.670   0.587   2.012  0.9850  1.2180  0.5544
 2152SOL     OW18088   1.922   2.392   6.657  0.2028  0.2237  0.2406
 2152SOL    HW118089   1.926   2.472   6.709 -0.3502  1.1966 -1.2033
 2152SOL    HW218090   1.869   2.425   6.584  0.2119 -0.0870  0.0933
 2153SOL     OW18091   4.450   1.092  17.505  0.0009 -0.5448  0.4967
 2153SOL    HW118092   4.367   1.137  17.489 -0.0948 -0.2608  1.7756
 2153SOL    HW218093   4.491   1.146  17.572  0.0497  0.8318 -0.6581
 2154SOL     OW18094   3.216   4.196  13.159  0.0499  0.2437  0.4186
 2154SOL    HW118095   3.287   4.259  13.162 -0.2103  0.6093 -0.9684
 2154SOL    HW218096   3.196   4.189  13.065  0.5258 -1.6378  0.4508
 2155SOL     OW18097   2.374   4.477   8.325 -0.1066 -0.0946 -0.2634
 2155SOL    HW118098   2.382   4.514   8.237  1.4649 -2.1755 -1.0196
 2155SOL    HW218099   2.286   4.506   8.349  0.2199  0.2490  0.5195
 2156SOL     OW18100   2.390   4.466   5.826 -0.3642 -0.1673 -0.5398
 2156SOL    HW118101   2.300   4.463   5.858  0.2566 -0.2432  1.2106
 2156SOL    HW218102   2.409   4.558   5.809 -0.7461  0.0416  0.1633
 2157SOL     OW18103   2.577   2.731   9.908  0.2948 -0.0246 -0.1188
 2157SOL    HW118104   2.529   2.675   9.968 -1.3919  1.6134  0.0592
 2157SOL    HW218105   2.578   2.816   9.950  0.0665  0.1682 -0.4976
 2158SOL     OW18106   2.027   2.382  16.866 -0.0227 -0.2803  0.1506
 2158SOL    HW118107   1.965   2.455  16.872  1.7517  1.1626  0.8538
 2158SOL    HW218108   2.036   2.390  16.771  1.4711  1.0321  0.4091
 2159SOL     OW18109   4.604   2.633   5.610 -0.3022  0.4116 -0.6308
 2159SOL    HW118110   4.603   2.698   5.681  1.1266  0.8057 -0.9759
 2159SOL    HW218111   4.511   2.644   5.591 -0.6789 -1.0052  0.3713
 2160SOL     OW18112   1.061   1.048   5.720 -0.1721 -0.1707  0.3044
 2160SOL    HW118113   1.137   1.100   5.747 -0.9967  1.3621 -0.3813
 2160SOL    HW218114   0.994   1.069   5.785  0.7736 -0.4144  1.3711
 2161SOL     OW18115   3.766   4.684   9.122 -0.8947  0.1724 -0.0382
 2161SOL    HW118116   3.770   4.657   9.030 -1.4227  3.6584 -1.0788
 2161SOL    HW218117   3.776   4.596   9.157  0.0957  1.1371  2.0785
 2162SOL     OW18118   2.968   4.031  12.399 -0.3222 -0.2050  0.0652
 2162SOL    HW118119   2.955   3.948  12.354  3.7717 -1.6616  1.6283
 2162SOL    HW218120   2.996   3.992  12.482 -0.1779 -0.7986 -0.2624
 2163SOL     OW18121   1.369   4.716   2.635  0.1113  0.2798  0.3624
 2163SOL    HW118122   1.452   4.670   2.626  0.4441  1.3732 -2.0155
 2163SOL    HW218123   1.324   4.680   2.559  0.3246 -0.0129  0.3764
 2164SOL     OW18124   4.579   2.411   9.302  0.3358  0.2264 -0.2239
 2164SOL    HW118125   4.483   2.414   9.302  0.2757 -1.6661 -0.5392
 2164SOL    HW218126   4.596   2.381   9.391  1.8930 -1.3523 -1.0586
 2165SOL     OW18127   1.747   3.671   7.006 -0.1400  0.1653  0.1708
 2165SOL    HW118128   1.842   3.660   6.997 -0.0579  1.0946 -0.1370
 2165SOL    HW218129   1.734   3.718   7.089 -0.3893 -1.8302  1.2459
 2166SOL     OW18130   0.901   1.644  17.629  0.2237  0.2764 -0.0181
 2166SOL    HW118131   0.874   1.686  17.710  1.4179  1.2297 -0.1200
 2166SOL    HW218132   0.929   1.560  17.664  0.7982 -0.5656 -2.4493
 2167SOL     OW18133   3.737   4.660   3.131 -0.2046 -0.3986 -0.1378
 2167SOL    HW118134   3.645   4.662   3.158  0.4685 -0.7809  2.2359
 2167SOL    HW218135   3.775   4.698   3.210 -2.1141  2.0483 -0.3927
 2168SOL     OW18136   0.598   1.389   2.681 -0.5700  0.5539  0.1770
 2168SOL    HW118137   0.520   1.380   2.736 -0.9674 -0.2558 -0.5160
 2168SOL    HW218138   0.569   1.460   2.623 -0.1794 -0.6148 -1.4525
 2169SOL     OW18139   3.185   0.325   4.994 -0.2248  0.1376  1.0019
 2169SOL    HW118140   3.113   0.331   5.057 -0.4900 -2.7705  0.9778
 2169SOL    HW218141   3.229   0.242   5.012 -0.4226 -0.0854  0.4458
 2170SOL     OW18142   0.893   4.067   1.902  0.2052 -0.4154 -0.2239
 2170SOL    HW118143   0.985   4.049   1.880  0.1317 -0.6997 -0.3014
 2170SOL    HW218144   0.882   4.125   1.827  1.2091  1.1224  0.8354
 2171SOL     OW18145   3.633   4.372   4.617  0.0940  0.0261  0.1197
 2171SOL    HW118146   3.646   4.291   4.567 -3.8547  0.8328 -2.2356
 2171SOL    HW218147   3.630   4.345   4.709  2.6952  0.6432  0.3766
 2172SOL     OW18148   4.720   2.879   8.041  0.2771 -0.0371  0.1978
 2172SOL    HW118149   4.696   2.934   7.967 -0.5841 -1.4204 -0.5593
 2172SOL    HW218150   0.056   2.929   8.080 -0.6003  0.8471  0.6860
 2173SOL     OW18151   2.587   0.842   2.844 -0.9135 -0.1794 -0.0607
 2173SOL    HW118152   2.619   0.838   2.754 -0.3743  0.4593  0.1027
 2173SOL    HW218153   2.671   0.868   2.882 -0.6152 -0.9035 -0.2254
 2174SOL     OW18154   3.285   1.497  15.417 -0.1786  0.5044 -0.0799
 2174SOL    HW118155   3.267   1.527  15.506  0.8480  1.9019 -0.3552
 2174SOL    HW218156   3.364   1.546  15.398  0.4056  0.0629  1.1868
 2175SOL     OW18157   0.024   2.491   6.784  0.1150  0.4288 -0.7061
 2175SOL    HW118158   0.100   2.441   6.814 -0.9722 -1.0825 -0.4594
 2175SOL    HW218159   0.073   2.573   6.785  0.3083  0.3064  0.1374
 2176SOL     OW18160   0.420   2.823   6.319 -0.2916  0.2291 -0.1830
 2176SOL    HW118161   0.467   2.854   6.242  1.0897 -4.1477 -1.0901
 2176SOL    HW218162   0.379   2.752   6.270  0.0078  1.4816 -2.2196
 2177SOL     OW18163   0.397   0.041   7.270 -0.2321  0.1282 -0.0382
 2177SOL    HW118164   0.390   0.007   7.181 -2.0653  1.2921 -0.3307
 2177SOL    HW218165   0.361   0.130   7.264 -0.2698  0.0203 -1.6022
 2178SOL     OW18166   2.448   2.181   6.425 -0.0926 -0.2425  0.6591
 2178SOL    HW118167   2.416   2.152   6.510  1.0118 -0.2032  1.0916
 2178SOL    HW218168   2.479   2.266   6.454  0.5883 -0.2865  0.0888
 2179SOL     OW18169   1.087   0.067  15.510  0.0568  0.4429  0.3287
 2179SOL    HW118170   1.067   0.109  15.594 -1.0758 -0.9887  0.7709
 2179SOL    HW218171   0.997   0.076  15.478 -1.0569 -0.5144  3.1833
 2180SOL     OW18172   1.921   3.448  15.730 -0.1631 -0.8822 -0.0207
 2180SOL    HW118173   1.978   3.373  15.715  0.9551 -0.3669  1.6567
 2180SOL    HW218174   1.924   3.493  15.646 -1.1252 -2.9918 -1.1748
 2181SOL     OW18175   2.021   1.159  14.894 -0.1453  0.1318  0.1437
 2181SOL    HW118176   2.013   1.206  14.811  1.0764  1.6184  0.8701
 2181SOL    HW218177   2.088   1.094  14.876  1.1710  2.2589 -2.7077
 2182SOL     OW18178   0.007   0.577   7.871  0.4010 -0.6082  0.1696
 2182SOL    HW118179   0.073   0.596   7.804 -1.7948 -0.7187 -2.0051
 2182SOL    HW218180   4.682   0.528   7.817  0.3885  1.5185 -1.7251
 2183SOL     OW18181   4.658   0.126   6.940 -0.2878 -0.0210 -0.1068
 2183SOL    HW118182   4.686   0.071   7.013 -0.4614 -0.4814 -0.3853
 2183SOL    HW218183   4.568   0.095   6.937 -0.1910 -0.4134  1.3820
 2184SOL     OW18184   0.238   2.126   5.832 -0.1896  0.0499  0.4830
 2184SOL    HW118185   0.215   2.201   5.887 -1.8230  0.4494 -0.7307
 2184SOL    HW218186   0.234   2.175   5.750 -0.1199  1.5280  1.3562
 2185SOL     OW18187   0.351   4.528   5.978 -0.8087  0.5126 -0.3542
 2185SOL    HW118188   0.282   4.465   5.961 -0.3881 -0.6373  2.3036
 2185SOL    HW218189   0.426   4.468   5.978 -0.7357  0.5996 -1.6593
 2186SOL     OW18190   0.870   1.756   1.508  0.2586  0.3799  0.5332
 2186SOL    HW118191   0.832   1.767   1.596 -0.2328  0.6406  0.2901
 2186SOL    HW218192   0.889   1.662   1.506  0.3156  0.4251 -1.4180
 2187SOL     OW18193   0.263   2.452   8.927 -0.1363  0.3990 -0.0753
 2187SOL    HW118194   0.194   2.498   8.974  0.0255  0.2979  0.2575
 2187SOL    HW218195   0.330   2.417   8.986 -1.2170  2.8197  2.5606
 2188SOL     OW18196   2.750   4.177   9.431 -0.5481 -0.5565 -0.4388
 2188SOL    HW118197   2.830   4.211   9.390  0.3636 -1.3360  0.6605
 2188SOL    HW218198   2.719   4.109   9.372  2.0059 -0.1962 -2.2010
 2189SOL     OW18199   2.246   2.022   1.328  0.0594 -0.2174 -0.3934
 2189SOL    HW118200   2.301   2.038   1.251 -0.7031  1.5355 -0.5646
 2189SOL    HW218201   2.250   2.113   1.357 -0.9444 -0.4871  0.5830
 2190SOL     OW18202   2.097   2.674   5.180  0.3176 -0.6730  0.0026
 2190SOL    HW118203   2.177   2.644   5.137  1.8330  0.9753  1.6963
 2190SOL    HW218204   2.065   2.756   5.144 -0.6287 -1.6681 -1.4537
 2191SOL     OW18205   2.352   3.092   5.761  0.2020 -0.2765 -0.1797
 2191SOL    HW118206   2.426   3.131   5.714  0.1762  2.3341  1.9619
 2191SOL    HW218207   2.395   3.086   5.847 -0.7648  1.1804  0.4103
 2192SOL     OW18208   1.048   3.818   4.228 -0.4382  0.1867 -0.1937
 2192SOL    HW118209   1.009   3.731   4.241 -0.1461 -0.1016 -1.2736
 2192SOL    HW218210   1.120   3.797   4.168  0.4646 -0.5668  1.1501
 2193SOL     OW18211   0.908   2.995   4.726  0.2897  0.4141 -0.3100
 2193SOL    HW118212   0.934   3.044   4.648  0.0582  0.6224 -0.2543
 2193SOL    HW218213   0.915   3.054   4.800  0.9255 -0.3402  0.2324
 2194SOL     OW18214   3.942   4.555   2.045 -0.3665  0.4770 -0.1465
 2194SOL    HW118215   3.870   4.519   1.994 -0.6408  0.6682  0.1054
 2194SOL    HW218216   3.997   4.478   2.055  2.2692  2.3108 -0.4077
 2195SOL     OW18217   3.231   1.833  15.787  0.4044  0.1372 -0.1468
 2195SOL    HW118218   3.185   1.916  15.772 -3.6113 -2.5795 -3.0702
 2195SOL    HW218219   3.206   1.818  15.878  2.3355  0.7562  0.4643
 2196SOL     OW18220   4.274   2.983   3.773 -0.3989 -0.7809 -0.4197
 2196SOL    HW118221   4.218   3.060   3.781  0.1169 -0.4278 -0.1894
 2196SOL    HW218222   4.365   3.011   3.764 -0.1110 -1.3565  0.7477
 2197SOL     OW18223   2.011   1.487   1.634  0.3015 -0.1356 -0.0758
 2197SOL    HW118224   1.960   1.410   1.657 -1.8864  1.0274 -1.1201
 2197SOL    HW218225   1.943   1.538   1.591  0.6849  1.1090  0.8144
 2198SOL     OW18226   1.802   4.575   2.262  0.7979 -0.5478 -0.3263
 2198SOL    HW118227   1.731   4.510   2.262  1.0500 -0.8201  1.1760
 2198SOL    HW218228   1.761   4.661   2.258  1.3514 -0.3201 -1.1443
 2199SOL     OW18229   4.333   0.429   4.085  0.2767 -0.6757 -0.0128
 2199SOL    HW118230   4.307   0.497   4.148  2.9901 -0.3851  0.7998
 2199SOL    HW218231   4.335   0.490   4.012 -3.4374  1.4259  1.6588
 2200SOL     OW18232   0.643   1.456  14.472 -0.0485  0.0185  0.2713
 2200SOL    HW118233   0.631   1.547  14.444  0.2960  0.2105  0.7548
 2200SOL    HW218234   0.555   1.447  14.508 -0.3231 -2.5820 -0.9965
 2201SOL     OW18235   0.746   3.578  14.319  0.2245 -0.8311 -0.9572
 2201SOL    HW118236   0.824   3.539  14.279  0.5357  0.1886 -1.3505
 2201SOL    HW218237   0.729   3.642  14.250 -0.6232 -1.7106 -1.5590
 2202SOL     OW18238   3.317   4.239   6.127 -0.2214 -0.6860  0.0662
 2202SOL    HW118239   3.298   4.331   6.110 -0.5089 -0.2054  2.9166
 2202SOL    HW218240   3.409   4.238   6.099 -0.0164  0.2888  0.7290
 2203SOL     OW18241   1.288   3.415   4.529  0.8784  0.6753 -0.1850
 2203SOL    HW118242   1.291   3.319   4.530 -0.1937  0.6301 -1.1871
 2203SOL    HW218243   1.195   3.437   4.518  0.9415 -0.1349 -2.2738
 2204SOL     OW18244   4.223   0.536   9.103  0.0137  0.0847  0.2975
 2204SOL    HW118245   4.208   0.630   9.089  2.6717  0.8783  2.6245
 2204SOL    HW218246   4.146   0.520   9.157  1.0507  0.3941  1.8645
 2205SOL     OW18247   2.749   2.460   5.411  0.0220  0.2790 -0.5109
 2205SOL    HW118248   2.718   2.397   5.476 -1.1476  0.7615 -0.6086
 2205SOL    HW218249   2.812   2.402   5.367  0.7762  0.0183  0.9088
 2206SOL     OW18250   1.522   2.136   8.434 -0.4635 -0.0286  0.2848
 2206SOL    HW118251   1.469   2.128   8.355 -0.0234  3.4835 -0.3633
 2206SOL    HW218252   1.466   2.185   8.495  0.1532 -1.4330  1.9926
 2207SOL     OW18253   3.121   1.363   3.559  0.2393 -0.2489  0.2491
 2207SOL    HW118254   3.086   1.422   3.627  2.4891  1.7328 -0.3125
 2207SOL    HW218255   3.105   1.280   3.604  2.7126 -1.5317 -1.2796
 2208SOL     OW18256   1.079   3.272   6.474  0.4396 -0.0431 -0.0118
 2208SOL    HW118257   0.989   3.260   6.506  0.3245  3.4375  1.0624
 2208SOL    HW218258   1.129   3.205   6.519  0.8331  0.1628 -0.1398
 2209SOL     OW18259   3.940   2.628   5.046  0.1573 -0.0513  0.2122
 2209SOL    HW118260   3.963   2.569   4.973 -1.9523 -0.1597 -0.3512
 2209SOL    HW218261   4.021   2.606   5.093  0.1118  2.5955  1.5387
 2210SOL     OW18262   1.804   1.213   4.830  0.2266 -0.1646 -0.7199
 2210SOL    HW118263   1.883   1.166   4.857  0.0726 -1.6385 -2.8085
 2210SOL    HW218264   1.749   1.207   4.908  2.2220  1.1402  0.7506
 2211SOL     OW18265   1.610   0.226   3.202 -0.2599 -0.2171  0.0703
 2211SOL    HW118266   1.580   0.315   3.218  0.9524  0.7617 -3.0425
 2211SOL    HW218267   1.666   0.213   3.279 -1.4763 -1.0062  0.8065
 2212SOL     OW18268   4.308   1.793   0.247  0.3876  0.2011  0.0259
 2212SOL    HW118269   4.392   1.821   0.209  1.3734  0.1646  2.1824
 2212SOL    HW218270   4.328   1.818   0.337  0.2609  0.7448 -0.0995
 2213SOL     OW18271   2.975   1.614  17.707  0.0074  0.0022 -0.1068
 2213SOL    HW118272   3.040   1.546  17.723 -2.3168 -2.5533 -1.5803
 2213SOL    HW218273   2.931   1.590  17.625 -0.2325 -0.5941  0.1918
 2214SOL     OW18274   3.976   4.153   5.676  0.9298 -0.0983  0.1019
 2214SOL    HW118275   4.034   4.092   5.630  0.8144 -1.5630  1.9049
 2214SOL    HW218276   4.032   4.167   5.753  0.2544  1.5742  0.2776
 2215SOL     OW18277   1.693   2.354  15.515  0.5214 -0.3841 -0.3697
 2215SOL    HW118278   1.629   2.341  15.585  1.2547  0.7254  0.5049
 2215SOL    HW218279   1.774   2.377  15.560  0.5019  0.5509 -0.8066
 2216SOL     OW18280   3.450   0.593   0.417  0.2238  0.2092 -0.7314
 2216SOL    HW118281   3.462   0.688   0.414  2.2889 -0.1042 -3.2007
 2216SOL    HW218282   3.388   0.575   0.488 -0.3865 -1.7617 -1.7884
 2217SOL     OW18283   4.278   2.364   3.559  0.3230 -0.8462  0.1966
 2217SOL    HW118284   4.364   2.384   3.596  1.0719 -2.8049 -0.4490
 2217SOL    HW218285   4.222   2.414   3.618  1.7783 -1.2872  1.9526
 2218SOL     OW18286   0.167   3.686   3.898  0.0937  0.0364 -0.1685
 2218SOL    HW118287   0.115   3.688   3.817  3.0229 -0.0562 -2.0480
 2218SOL    HW218288   0.186   3.592   3.905  0.5956  0.0488 -1.3483
 2219SOL     OW18289   3.258   3.234  13.578 -0.1041 -0.1136 -0.3941
 2219SOL    HW118290   3.189   3.285  13.620 -1.5410 -1.7399 -0.7933
 2219SOL    HW218291   3.261   3.275  13.492  0.5885  0.1339 -0.2530
 2220SOL     OW18292   1.109   0.209   1.572 -0.9042  0.1431  0.0960
 2220SOL    HW118293   1.021   0.196   1.536 -1.2311 -1.1064  1.3364
 2220SOL    HW218294   1.165   0.202   1.495  0.4439 -0.1367  1.0927
 2221SOL     OW18295   4.355   2.417   6.847  0.0218  0.1893  0.4163
 2221SOL    HW118296   4.364   2.379   6.760 -0.1790  0.2745  0.3587
 2221SOL    HW218297   4.377   2.506   6.819  0.8303  0.6114  2.3254
 2222SOL     OW18298   4.096   3.361   8.299  0.6456 -0.0766 -0.1930
 2222SOL    HW118299   4.055   3.360   8.213 -0.0083 -0.8417  0.1309
 2222SOL    HW218300   4.191   3.371   8.286  0.7623  1.3231  1.6892
 2223SOL     OW18301   2.213   0.645  15.596  0.2021  0.0484 -0.7364
 2223SOL    HW118302   2.163   0.688  15.665 -1.8858 -2.0240 -0.9584
 2223SOL    HW218303   2.254   0.720  15.553  0.4543  0.0722 -0.4559
 2224SOL     OW18304   3.672   2.651   6.844 -0.5523 -0.2746  0.0014
 2224SOL    HW118305   3.697   2.706   6.918  0.4197  0.2408 -0.7017
 2224SOL    HW218306   3.718   2.570   6.866 -0.8177 -0.4024  0.0792
 2225SOL     OW18307   4.694   0.236   1.572 -0.8898  0.1033  0.3150
 2225SOL    HW118308   0.006   0.319   1.575  0.5137 -0.6798 -0.7116
 2225SOL    HW218309   4.672   0.231   1.478 -1.4600  2.0407  0.3420
 2226SOL     OW18310   2.323   4.151  16.713  0.5868 -0.2348 -0.0653
 2226SOL    HW118311   2.360   4.217  16.654 -0.0579  0.8923  0.8118
 2226SOL    HW218312   2.281   4.083  16.660  0.3378  0.6352 -0.9779
 2227SOL     OW18313   1.141   3.698   3.870  0.6069 -0.1349 -0.3810
 2227SOL    HW118314   1.209   3.678   3.934  1.3142 -3.5889 -2.2340
 2227SOL    HW218315   1.197   3.744   3.807  0.0663 -0.3870 -1.0483
 2228SOL     OW18316   2.358   3.388  14.750 -0.4323  0.4609 -0.0999
 2228SOL    HW118317   2.343   3.439  14.830 -0.0846  1.4280 -0.6465
 2228SOL    HW218318   2.280   3.404  14.698 -0.0394  0.1939 -0.7688
 2229SOL     OW18319   0.946   4.308  13.783 -0.5579  0.9303  0.2606
 2229SOL    HW118320   1.022   4.363  13.760  0.0815 -0.5262 -1.0459
 2229SOL    HW218321   0.933   4.342  13.872 -2.7831 -0.0245  0.2940
 2230SOL     OW18322   1.496   1.051  17.682 -0.0337  0.0666 -0.0716
 2230SOL    HW118323   1.503   0.958  17.661  0.8007 -0.2055  1.4400
 2230SOL    HW218324   1.586   1.082  17.672 -0.6206  1.8990  0.5073
 2231SOL     OW18325   0.377   0.396   3.415 -0.3465  0.1322  0.0372
 2231SOL    HW118326   0.410   0.380   3.327 -1.2713 -0.5637 -0.1785
 2231SOL    HW218327   0.281   0.402   3.413 -0.3793  0.2072  1.7209
 2232SOL     OW18328   1.937   3.111   4.885 -0.7227  0.0919  0.1360
 2232SOL    HW118329   1.913   3.150   4.969  0.4993 -1.1175  1.0355
 2232SOL    HW218330   1.868   3.142   4.826 -0.8106  0.1314  0.2590
 2233SOL     OW18331   3.036   2.596  11.073  0.1145 -0.1330 -0.0604
 2233SOL    HW118332   2.982   2.597  10.994 -0.0811  0.7767  0.0888
 2233SOL    HW218333   2.975   2.550  11.132 -0.0995 -1.4857 -1.3164
 2234SOL     OW18334   4.206   4.007   6.857 -0.8907  0.2652  0.4979
 2234SOL    HW118335   4.259   4.078   6.821 -2.0412  1.6023  1.4690
 2234SOL    HW218336   4.211   4.026   6.951  1.0418  2.6392 -0.0826
 2235SOL     OW18337   2.539   1.577   5.119 -0.5582  0.0327 -0.1689
 2235SOL    HW118338   2.485   1.650   5.089 -1.2725 -0.3739  0.1231
 2235SOL    HW218339   2.626   1.602   5.088  0.0647 -0.1233  1.4537
 2236SOL     OW18340   2.239   3.017  12.327  0.3794 -0.3784  0.0232
 2236SOL    HW118341   2.247   2.954  12.398 -0.8739  1.0485  1.4172
 2236SOL    HW218342   2.307   3.083  12.344  0.1725 -0.6315  1.7539
 2237SOL     OW18343   1.980   0.342   4.563 -0.2292 -0.3735 -0.4712
 2237SOL    HW118344   2.022   0.270   4.516 -1.8429 -1.9200  0.4582
 2237SOL    HW218345   1.928   0.375   4.489  0.2618  2.4293  0.4562
 2238SOL     OW18346   0.850   3.073   7.381 -0.5928  0.1467 -0.3539
 2238SOL    HW118347   0.810   3.036   7.459  0.7759 -0.6857 -0.0333
 2238SOL    HW218348   0.943   3.070   7.404 -0.7119 -0.0762  0.0999
 2239SOL     OW18349   0.956   0.039  14.643  0.0300 -0.5336  0.9803
 2239SOL    HW118350   1.046   0.040  14.678  2.3980  1.3442 -5.1655
 2239SOL    HW218351   0.906   0.066  14.720 -0.6816 -2.2214  1.1171
 2240SOL     OW18352   0.788   1.955  15.674 -0.0126 -0.1670 -0.9328
 2240SOL    HW118353   0.859   1.970  15.736 -1.1364  1.3633 -0.0291
 2240SOL    HW218354   0.741   1.888  15.723  1.6999  0.3837  1.4031
 2241SOL     OW18355   1.145   3.611   9.875 -0.3455  0.6099  0.2075
 2241SOL    HW118356   1.175   3.524   9.903  0.1926  0.4574 -0.8543
 2241SOL    HW218357   1.181   3.671   9.940 -0.8252  1.9284 -0.7266
 2242SOL     OW18358   0.027   1.012  15.006  0.0407 -0.8098  0.4037
 2242SOL    HW118359   4.672   0.999  14.981  0.2630  0.4368 -1.0407
 2242SOL    HW218360   0.070   0.963  14.937  1.6830 -1.1629  1.6806
 2243SOL     OW18361   0.717   4.703   4.355  0.0382  0.2301  0.5409
 2243SOL    HW118362   0.703   4.674   4.265 -2.3593 -1.5741  1.5114
 2243SOL    HW218363   0.754   4.616   4.368  2.0169  1.2250  1.5146
 2244SOL     OW18364   3.020   3.333   4.136  0.0716  0.0787  0.2629
 2244SOL    HW118365   3.030   3.306   4.227 -2.2787  1.6242  0.9716
 2244SOL    HW218366   3.069   3.264   4.090 -0.7067 -0.9241  0.9429
 2245SOL     OW18367   1.574   1.256   2.098 -0.2635 -0.7713  0.6060
 2245SOL    HW118368   1.555   1.313   2.024 -2.4352 -2.2699  0.0162
 2245SOL    HW218369   1.664   1.275   2.125 -0.4802  0.3154  0.5511
 2246SOL     OW18370   3.349   1.043   6.199 -0.1402  0.7781 -0.3591
 2246SOL    HW118371   3.268   1.086   6.227 -0.1583  0.1081  0.6352
 2246SOL    HW218372   3.381   1.014   6.285 -0.0534  0.0908 -0.6203
 2247SOL     OW18373   1.970   3.738   5.134  0.2513 -0.3972  0.0407
 2247SOL    HW118374   2.020   3.755   5.055  1.1294  0.6621  0.8239
 2247SOL    HW218375   1.903   3.806   5.147  0.5249 -0.5513  2.2417
 2248SOL     OW18376   1.006   4.437   3.833  0.2104  0.5082  0.5109
 2248SOL    HW118377   1.024   4.421   3.740 -3.5240 -1.9990  0.2373
 2248SOL    HW218378   0.960   4.358   3.859  0.9473 -0.2504 -0.4742
 2249SOL     OW18379   3.188   0.426   4.101  0.6836  0.0614 -0.1682
 2249SOL    HW118380   3.200   0.339   4.063 -1.4133 -0.2060 -0.2149
 2249SOL    HW218381   3.247   0.487   4.056  0.8774 -0.1585 -0.2087
 2250SOL     OW18382   4.044   2.298   4.018 -0.4094 -0.0091  0.1139
 2250SOL    HW118383   4.087   2.243   4.084  1.0209  2.3422  1.1176
 2250SOL    HW218384   4.031   2.239   3.943  0.6982 -0.4141  0.2508
 2251SOL     OW18385   0.629   1.881   8.088 -0.4726 -0.1550  0.1029
 2251SOL    HW118386   0.713   1.922   8.066  0.0045 -1.2540 -0.1531
 2251SOL    HW218387   0.663   1.837   8.167  1.0031  1.5918  0.4282
 2252SOL     OW18388   1.496   2.246  13.339 -0.1015  0.0654 -0.0753
 2252SOL    HW118389   1.481   2.212  13.427 -2.4165  0.8455 -0.1695
 2252SOL    HW218390   1.430   2.200  13.287 -2.0645  1.6244  1.0157
 2253SOL     OW18391   3.008   1.316   6.538  0.1183 -0.2156  0.4529
 2253SOL    HW118392   3.011   1.411   6.525  0.9548 -0.4480 -1.0375
 2253SOL    HW218393   2.970   1.288   6.454 -1.6278 -1.9127  1.8118
 2254SOL     OW18394   3.378   4.178   4.427  0.1260  0.1832 -0.5705
 2254SOL    HW118395   3.379   4.274   4.436  1.6158  0.0458  0.7201
 2254SOL    HW218396   3.472   4.164   4.437  0.5522  2.5214 -1.1350
 2255SOL     OW18397   0.616   2.571   7.963 -0.1914 -0.1080 -0.0964
 2255SOL    HW118398   0.551   2.521   7.914 -1.2256  0.2974  0.8433
 2255SOL    HW218399   0.683   2.508   7.990 -0.2948  0.2694  1.0710
 2256SOL     OW18400   2.935   1.296  11.137  0.1950  0.2763  0.4326
 2256SOL    HW118401   3.020   1.299  11.180 -0.5555  2.3543  1.7772
 2256SOL    HW218402   2.970   1.259  11.056  0.3638 -0.8781  1.0442
 2257SOL     OW18403   2.145   2.789   9.561 -0.8887 -0.5890 -0.1886
 2257SOL    HW118404   2.050   2.781   9.555 -1.0251 -0.8216  2.4567
 2257SOL    HW218405   2.164   2.740   9.640 -0.5854 -0.9159 -0.4607
 2258SOL     OW18406   0.243   1.210   9.304 -0.3134 -0.0533  0.1640
 2258SOL    HW118407   0.152   1.182   9.295 -0.4396  0.7940 -1.0839
 2258SOL    HW218408   0.257   1.226   9.211 -0.1055 -3.2515 -0.3671
 2259SOL     OW18409   3.654   0.568  17.350  0.2692 -0.6192  0.0087
 2259SOL    HW118410   3.635   0.503  17.418  3.1893 -0.5454  0.9426
 2259SOL    HW218411   3.730   0.541  17.298 -0.5899 -1.4041 -0.8125
 2260SOL     OW18412   2.661   4.242  11.484  0.9025 -0.1848 -0.3633
 2260SOL    HW118413   2.576   4.285  11.489  0.9578 -0.2493  1.2612
 2260SOL    HW218414   2.709   4.272  11.562  0.9468  0.9836 -0.8444
 2261SOL     OW18415   1.475   3.544   1.722 -0.1871 -0.4216  0.2976
 2261SOL    HW118416   1.461   3.554   1.628 -0.5657  1.7409  0.5873
 2261SOL    HW218417   1.440   3.628   1.753 -1.4127 -0.9262  0.2517
 2262SOL     OW18418   4.165   0.479   3.415 -0.1266 -0.5438  0.0670
 2262SOL    HW118419   4.205   0.485   3.501  0.5143  1.3609 -0.3726
 2262SOL    HW218420   4.167   0.383   3.415  2.2649 -0.4737  0.1908
 2263SOL     OW18421   1.060   2.973   7.819 -0.4347 -0.0163 -0.2828
 2263SOL    HW118422   0.994   3.041   7.835  0.1296  0.6746 -0.8918
 2263SOL    HW218423   1.088   2.955   7.909 -1.7141  1.4708  0.4068
 2264SOL     OW18424   3.232   1.401   2.521  0.0420 -0.2916  0.3849
 2264SOL    HW118425   3.171   1.350   2.467 -0.3261 -0.0259  0.5421
 2264SOL    HW218426   3.277   1.455   2.456  0.5973 -0.7949  0.3532
 2265SOL     OW18427   3.935   3.377   3.020 -0.1605  0.4931 -0.2489
 2265SOL    HW118428   3.938   3.304   3.081  0.0184 -0.9693 -2.0176
 2265SOL    HW218429   3.954   3.328   2.940 -0.5307  1.6156 -1.0408
 2266SOL     OW18430   1.697   4.644   5.525  0.1450 -0.2516  0.0885
 2266SOL    HW118431   1.648   4.609   5.451  2.5134 -2.6125 -0.3458
 2266SOL    HW218432   1.633   4.698   5.572 -0.6736 -0.0189 -1.2858
 2267SOL     OW18433   1.426   1.862  17.272  0.1040 -0.2818  0.2822
 2267SOL    HW118434   1.432   1.830  17.182  2.4043 -4.5005  1.9497
 2267SOL    HW218435   1.345   1.909  17.251  0.8474  1.6402  1.7844
 2268SOL     OW18436   2.331   2.119  13.293 -0.2014  0.7025 -0.7471
 2268SOL    HW118437   2.332   2.214  13.299  0.3710  0.6396  0.0665
 2268SOL    HW218438   2.263   2.114  13.225  2.0407  0.0566 -2.9682
 2269SOL     OW18439   0.642   4.570   6.860 -0.2012  0.4918  0.2481
 2269SOL    HW118440   0.635   4.600   6.770 -2.5852 -0.4737  0.1271
 2269SOL    HW218441   0.722   4.519   6.851 -0.2928  0.3851  0.0635
 2270SOL     OW18442   0.047   3.307  10.675 -0.2046  0.5098 -0.1223
 2270SOL    HW118443   0.078   3.306  10.766  0.4010 -2.0610 -0.3409
 2270SOL    HW218444   0.008   3.393  10.668  1.4995  1.2334 -0.7082
 2271SOL     OW18445   0.334   3.068   2.046 -0.0769  0.8129 -0.4036
 2271SOL    HW118446   0.423   3.103   2.041  0.6271 -0.6644  1.5236
 2271SOL    HW218447   0.279   3.146   2.045 -0.2084  0.6826 -2.5073
 2272SOL     OW18448   0.580   3.664   8.444  0.4716  0.4629  0.1694
 2272SOL    HW118449   0.530   3.738   8.479  0.9318  0.8158  0.0790
 2272SOL    HW218450   0.645   3.703   8.386  3.7627 -3.8553  0.9415
 2273SOL     OW18451   0.754   2.762   6.553  0.1694 -0.5470 -0.0687
 2273SOL    HW118452   0.753   2.782   6.459 -0.1447  1.6906  0.4037
 2273SOL    HW218453   0.810   2.831   6.587 -0.5386  0.4264 -0.8810
 2274SOL     OW18454   0.825   1.734  15.333 -0.8285  0.3211  0.2030
 2274SOL    HW118455   0.776   1.814  15.352 -1.0722  1.1182 -3.8091
 2274SOL    HW218456   0.862   1.773  15.254 -1.5955 -0.7373 -0.6734
 2275SOL     OW18457   4.235   0.630   0.947  0.6091  0.0601  0.3006
 2275SOL    HW118458   4.157   0.606   0.995 -2.0388  2.6970 -2.6566
 2275SOL    HW218459   4.216   0.724   0.942  0.5146  0.0091 -0.3146
 2276SOL     OW18460   1.925   3.747   0.025  0.1024  0.4871  0.1346
 2276SOL    HW118461   2.008   3.724  17.726 -0.0263  0.1255  0.0808
 2276SOL    HW218462   1.871   3.779  17.697 -1.2863 -2.7420 -0.2831
 2277SOL     OW18463   1.852   4.716   3.956  0.0469  0.0486 -0.3956
 2277SOL    HW118464   1.904   0.043   4.005 -0.2731 -0.6582  0.8614
 2277SOL    HW218465   1.916   4.703   3.887  1.0308 -2.0427  0.8999
 2278SOL     OW18466   3.950   1.543   4.744  0.4653  0.1906  0.1166
 2278SOL    HW118467   4.023   1.491   4.709 -0.5496 -1.3145  0.2227
 2278SOL    HW218468   3.997   1.611   4.791 -0.7254  0.9130  0.2572
 2279SOL     OW18469   3.918   2.908   4.792  0.5045 -0.3427  0.3195
 2279SOL    HW118470   3.951   2.892   4.880 -0.5761  0.9767  0.9708
 2279SOL    HW218471   3.991   2.940   4.739  1.1649  0.2621  1.5972
 2280SOL     OW18472   2.183   0.158  10.651 -0.1614  0.3309 -0.4064
 2280SOL    HW118473   2.209   0.114  10.732  1.7419  2.0727 -0.0522
 2280SOL    HW218474   2.106   0.209  10.676 -0.4289 -0.6271  0.6854
 2281SOL     OW18475   0.482   1.205   8.590  0.3448  0.1031 -0.2468
 2281SOL    HW118476   0.569   1.177   8.617  1.2090  3.2032  0.1444
 2281SOL    HW218477   0.427   1.136   8.628 -0.9753 -1.6674 -5.4299
 2282SOL     OW18478   0.808   1.920   8.929 -0.1160 -0.7140  0.1087
 2282SOL    HW118479   0.788   1.961   9.013 -1.5034  1.4622 -1.2520
 2282SOL    HW218480   0.754   1.959   8.860  0.1127  1.2000  1.0045
 2283SOL     OW18481   4.303   2.895   8.861 -0.5216 -0.0194 -0.5264
 2283SOL    HW118482   4.235   2.909   8.795 -0.3463 -1.3983 -0.9885
 2283SOL    HW218483   4.335   2.985   8.853  0.3279 -0.3566 -0.9572
 2284SOL     OW18484   0.654   1.693   5.359 -0.1483 -0.4571 -0.1694
 2284SOL    HW118485   0.678   1.601   5.356 -0.4106 -0.5073 -0.6173
 2284SOL    HW218486   0.701   1.720   5.280 -0.6052 -0.2867 -0.3837
 2285SOL     OW18487   1.103   3.140   8.712  0.6317 -0.3468  0.3960
 2285SOL    HW118488   1.169   3.075   8.735 -0.5677 -2.2099 -1.3687
 2285SOL    HW218489   1.157   3.179   8.643 -1.4903  1.6677 -0.1518
 2286SOL     OW18490   4.253   4.213   2.424 -0.7290  0.0318 -0.0898
 2286SOL    HW118491   4.198   4.151   2.472 -1.1403  0.3879 -0.1055
 2286SOL    HW218492   4.215   4.300   2.437  0.6723  0.4925  0.8870
 2287SOL     OW18493   1.634   0.012   1.020  0.0730 -0.3267  0.0208
 2287SOL    HW118494   1.565   0.058   0.972  0.5756  0.4688  0.0483
 2287SOL    HW218495   1.595   0.010   1.107  0.7425  0.4846  0.3429
 2288SOL     OW18496   1.256   2.111   2.286  0.1213  0.4282  1.1877
 2288SOL    HW118497   1.245   2.205   2.271  1.2719  0.8554  3.0831
 2288SOL    HW218498   1.350   2.114   2.269 -0.3141  0.7538 -1.2161
 2289SOL     OW18499   0.882   2.448   5.509  0.4401 -0.3078  0.2380
 2289SOL    HW118500   0.815   2.517   5.505  0.1479 -0.5640  0.8058
 2289SOL    HW218501   0.960   2.497   5.534  1.3961 -1.7637  0.0890
 2290SOL     OW18502   1.951   3.283   7.903 -0.0538  0.9646 -0.0014
 2290SOL    HW118503   2.018   3.214   7.904 -1.0462 -0.0183 -0.4576
 2290SOL    HW218504   1.975   3.337   7.978 -0.4918  0.9063  0.1811
 2291SOL     OW18505   0.138   2.854   8.649 -0.0948 -1.0342 -0.2103
 2291SOL    HW118506   0.146   2.948   8.665  2.5288 -0.8108 -2.9548
 2291SOL    HW218507   0.124   2.821   8.738 -0.0997 -1.3634 -0.3351
 2292SOL     OW18508   1.709   2.761   6.103 -0.7010  0.1455  0.7883
 2292SOL    HW118509   1.689   2.674   6.071 -0.8317 -0.1659  1.7134
 2292SOL    HW218510   1.701   2.821   6.029  0.7676 -2.6202 -1.6250
 2293SOL     OW18511   0.001   0.923  10.725  0.3920 -0.4407 -0.6552
 2293SOL    HW118512   4.671   0.943  10.661 -1.1060 -3.0524  0.0671
 2293SOL    HW218513   4.704   0.834  10.741  1.9310 -0.7392  1.0184
 2294SOL     OW18514   2.394   1.334  15.263 -0.1264  0.4552  0.2344
 2294SOL    HW118515   2.366   1.369  15.347 -1.0572 -2.5771  1.1953
 2294SOL    HW218516   2.342   1.397  15.213 -1.5503 -0.6321  0.3170
 2295SOL     OW18517   0.790   3.335   3.098 -0.1147 -0.5315 -0.6921
 2295SOL    HW118518   0.770   3.264   3.037  1.4311 -0.8819 -0.8004
 2295SOL    HW218519   0.884   3.338   3.081 -0.4766  0.6849 -2.4920
 2296SOL     OW18520   0.811   3.457   1.381  0.4977 -0.4546 -0.1067
 2296SOL    HW118521   0.737   3.517   1.384  0.4310 -0.6660  2.4455
 2296SOL    HW218522   0.849   3.464   1.469  3.6225 -1.1411 -1.3956
 2297SOL     OW18523   4.520   3.727   6.997 -0.6285 -0.3588 -0.4134
 2297SOL    HW118524   4.527   3.668   7.071  1.1774 -0.7444 -0.8970
 2297SOL    HW218525   4.433   3.708   6.962  0.2575 -3.8379 -0.7211
 2298SOL     OW18526   0.942   1.074   0.928 -0.4521  0.1418  0.5234
 2298SOL    HW118527   0.909   1.024   0.853  0.6343 -0.7854  0.6686
 2298SOL    HW218528   0.893   1.154   0.912  0.0556  0.0655 -1.3350
 2299SOL     OW18529   0.394   3.992   6.357 -0.2785  0.3852 -0.0715
 2299SOL    HW118530   0.331   3.958   6.421 -1.4507  3.3725  0.3559
 2299SOL    HW218531   0.443   3.914   6.332  1.2291  1.3181  0.0283
 2300SOL     OW18532   3.471   1.585  13.179 -0.1911 -0.3814  0.1014
 2300SOL    HW118533   3.523   1.566  13.100  1.7962  3.3106  0.5224
 2300SOL    HW218534   3.410   1.646  13.139 -2.5453 -3.1604 -0.5058
 2301SOL     OW18535   4.435   0.154   6.742 -0.1380 -0.4414  0.5603
 2301SOL    HW118536   4.407   0.102   6.817  1.6410 -1.7208  0.3529
 2301SOL    HW218537   4.361   0.137   6.684  1.6016 -1.6183 -1.3367
 2302SOL     OW18538   1.251   2.008   3.289  0.3976 -0.7560  0.3150
 2302SOL    HW118539   1.276   1.977   3.202 -0.2522 -0.6499  0.0889
 2302SOL    HW218540   1.162   2.041   3.277  1.0079  0.0477 -2.0269
 2303SOL     OW18541   0.402   2.544   5.523  0.0259 -0.6173 -0.2375
 2303SOL    HW118542   0.462   2.515   5.592  0.3264  2.1986  0.6492
 2303SOL    HW218543   0.332   2.585   5.573  0.4637 -0.1442 -0.0187
 2304SOL     OW18544   1.538   3.672   6.499 -0.2515 -0.4215  0.5534
 2304SOL    HW118545   1.581   3.707   6.577  0.0117 -0.1382  0.2807
 2304SOL    HW218546   1.553   3.578   6.515  0.5659 -0.0596  1.9576
 2305SOL     OW18547   1.486   0.566  15.643 -0.0914 -0.0435  0.0411
 2305SOL    HW118548   1.415   0.538  15.700  0.9203 -1.1122  0.7668
 2305SOL    HW218549   1.455   0.529  15.560  0.2927  0.5134 -0.3561
 2306SOL     OW18550   1.323   3.693   8.356  0.0795 -0.1463 -0.3856
 2306SOL    HW118551   1.316   3.780   8.318 -3.6897 -0.3555 -0.1999
 2306SOL    HW218552   1.246   3.663   8.308  1.1372 -1.8134 -1.0455
 2307SOL     OW18553   0.675   3.010  15.957  0.7196  0.5613  0.3373
 2307SOL    HW118554   0.711   2.928  15.991  0.5158  0.3613  0.0706
 2307SOL    HW218555   0.650   2.992  15.867 -1.6754 -0.7168  1.2459
 2308SOL     OW18556   3.974   0.625   7.861 -0.1567 -0.1795 -0.4177
 2308SOL    HW118557   3.966   0.576   7.943  2.3127  2.5550  1.4768
 2308SOL    HW218558   4.003   0.553   7.806 -0.1822  0.3908 -1.1737
 2309SOL     OW18559   3.013   3.638   7.789 -0.0705  0.3173  0.1478
 2309SOL    HW118560   3.049   3.577   7.725  1.6787  0.5853  0.8618
 2309SOL    HW218561   3.052   3.608   7.871  2.6379 -1.8638 -1.9442
 2310SOL     OW18562   4.337   0.548  12.512  0.0981  0.3775 -0.0353
 2310SOL    HW118563   4.333   0.559  12.607  2.8838  3.6849 -0.3109
 2310SOL    HW218564   4.264   0.596  12.472 -0.3700  0.2159  0.6265
 2311SOL     OW18565   3.805   1.200   8.486  0.1612  0.4908  0.5978
 2311SOL    HW118566   3.801   1.112   8.523 -1.8818 -0.2829 -1.4601
 2311SOL    HW218567   3.868   1.187   8.416  0.7601 -1.5036  1.5007
 2312SOL     OW18568   3.052   3.735   4.830 -0.6178  0.5590  0.2710
 2312SOL    HW118569   3.130   3.742   4.775 -1.4286 -1.2955 -1.1068
 2312SOL    HW218570   2.995   3.795   4.781  0.1146  1.7369  0.8761
 2313SOL     OW18571   4.015   0.523   3.168  0.3237 -0.6524  0.2689
 2313SOL    HW118572   4.096   0.472   3.177  0.5540  0.0207  2.0331
 2313SOL    HW218573   3.996   0.543   3.260  0.4179 -2.6163  0.7143
 2314SOL     OW18574   2.915   3.720   8.384  0.6241 -0.2763  0.0703
 2314SOL    HW118575   2.945   3.801   8.427 -0.8164  0.1270  0.3207
 2314SOL    HW218576   2.833   3.749   8.346 -0.0137  1.2436  2.5504
 2315SOL     OW18577   0.781   1.558   6.014 -0.1458  0.4143  0.3910
 2315SOL    HW118578   0.695   1.539   5.977 -0.2956 -0.3730  1.1641
 2315SOL    HW218579   0.796   1.644   5.974  0.4867  0.6464  1.1126
 2316SOL     OW18580   3.253   1.605  13.668  0.3552 -0.0945 -0.3138
 2316SOL    HW118581   3.243   1.528  13.614  1.1527 -2.4160  2.8393
 2316SOL    HW218582   3.243   1.567  13.756  1.7045 -0.0831 -0.1604
 2317SOL     OW18583   1.695   3.695   4.426 -0.6631 -0.0144 -0.2576
 2317SOL    HW118584   1.673   3.617   4.476 -0.4860 -1.0357 -1.7518
 2317SOL    HW218585   1.636   3.760   4.464  0.8596  0.9635  0.4586
 2318SOL     OW18586   1.407   4.237  14.720  0.1009  0.3503  0.0166
 2318SOL    HW118587   1.346   4.303  14.687 -2.8412 -3.1365 -1.6494
 2318SOL    HW218588   1.357   4.194  14.789  0.3584 -0.0739 -0.0605
 2319SOL     OW18589   3.867   1.986   7.746  0.5565  0.8568 -0.2745
 2319SOL    HW118590   3.953   2.027   7.737  1.1902 -0.3680  0.1840
 2319SOL    HW218591   3.888   1.942   7.828  0.0545  0.9899 -0.0734
 2320SOL     OW18592   3.890   4.024   7.234  0.1543  0.1181  0.2285
 2320SOL    HW118593   3.883   3.950   7.295  0.1409 -0.7216 -0.7959
 2320SOL    HW218594   3.826   4.091   7.259 -0.2061  0.3868 -1.4377
 2321SOL     OW18595   2.574   1.849  10.488 -0.2106  0.4602 -0.4587
 2321SOL    HW118596   2.501   1.886  10.537 -1.3253 -1.4980 -0.6279
 2321SOL    HW218597   2.561   1.895  10.405  0.4174 -1.7938 -1.8141
 2322SOL     OW18598   0.965   1.655  12.668  0.3822 -0.3245 -0.2272
 2322SOL    HW118599   0.983   1.697  12.752  1.7017  0.1579 -0.7425
 2322SOL    HW218600   1.056   1.665  12.641  0.2562  0.5910 -0.3128
 2323SOL     OW18601   0.702   0.811   6.132  0.2876 -0.1166 -0.0115
 2323SOL    HW118602   0.674   0.897   6.163  3.7303  1.1979 -0.5852
 2323SOL    HW218603   0.788   0.806   6.175  0.4692  0.4907 -0.3101
 2324SOL     OW18604   3.528   2.841   6.635 -0.2044 -0.1487  0.7889
 2324SOL    HW118605   3.569   2.846   6.721 -1.3379 -2.6898  1.4650
 2324SOL    HW218606   3.437   2.862   6.657 -0.9661 -1.8501 -0.7683
 2325SOL     OW18607   1.594   3.387   6.494 -0.1154  0.2291  0.0581
 2325SOL    HW118608   1.676   3.361   6.452 -0.1450  3.3691 -1.9455
 2325SOL    HW218609   1.539   3.342   6.429  3.5246 -0.5466 -2.5134
 2326SOL     OW18610   3.775   4.498   5.682  0.0247 -0.1383 -0.3723
 2326SOL    HW118611   3.774   4.566   5.615  1.3864 -0.0951 -0.3475
 2326SOL    HW218612   3.832   4.546   5.741 -1.5982  2.7227 -1.1713
 2327SOL     OW18613   2.386   1.885  11.987  0.0099  0.0918 -0.3404
 2327SOL    HW118614   2.450   1.915  11.923  0.7300  3.3090  1.8700
 2327SOL    HW218615   2.426   1.929  12.062  0.7697 -0.7893 -0.2326
 2328SOL     OW18616   0.237   2.442   6.249  0.0985  0.4587  0.6551
 2328SOL    HW118617   0.241   2.347   6.259  0.8799  0.3322 -1.0375
 2328SOL    HW218618   0.293   2.472   6.321  1.5315 -1.9777  0.5453
 2329SOL     OW18619   0.677   0.281  11.815 -0.1310 -0.6467  0.5252
 2329SOL    HW118620   0.628   0.355  11.779  0.9321  0.4839  1.3975
 2329SOL    HW218621   0.768   0.313  11.812 -0.2707 -0.1586  1.4383
 2330SOL     OW18622   0.232   2.700   6.926  0.4506 -0.2490  0.2925
 2330SOL    HW118623   0.234   2.648   7.006 -0.0741  1.8203  1.6670
 2330SOL    HW218624   0.250   2.792   6.949  1.7555 -1.0668  2.5707
 2331SOL     OW18625   4.486   3.571   7.740  0.0154 -0.3511  0.4370
 2331SOL    HW118626   4.498   3.514   7.816 -1.2297  1.2519  1.8396
 2331SOL    HW218627   4.463   3.499   7.681 -0.2784  1.5233 -1.7193
 2332SOL     OW18628   0.709   1.110   5.249  0.0146  0.0920 -0.4317
 2332SOL    HW118629   0.718   1.043   5.182  2.5422 -0.4086  0.4150
 2332SOL    HW218630   0.798   1.144   5.246  0.1784 -0.5672 -2.9124
 2333SOL     OW18631   4.194   2.762  14.861 -0.2041  0.8455  0.0177
 2333SOL    HW118632   4.206   2.726  14.949 -0.3445  0.5475 -0.0824
 2333SOL    HW218633   4.285   2.791  14.850 -0.2122  1.0213  0.4362
 2334SOL     OW18634   1.776   2.388   9.572 -0.8355 -0.4698  0.2099
 2334SOL    HW118635   1.699   2.417   9.621 -1.1138 -2.2375  0.8172
 2334SOL    HW218636   1.850   2.410   9.628 -0.3443  0.7722 -0.9364
 2335SOL     OW18637   2.652   1.182  11.141  0.7346 -0.2201  0.3452
 2335SOL    HW118638   2.678   1.274  11.136 -0.4496  0.1164  0.3929
 2335SOL    HW218639   2.714   1.148  11.077 -1.3043 -2.6803 -0.3529
 2336SOL     OW18640   3.914   4.523   3.924  0.5839 -0.4564 -0.1054
 2336SOL    HW118641   3.950   4.468   3.993 -1.0410  0.6685  1.6413
 2336SOL    HW218642   3.861   4.584   3.975  1.1444  0.6716 -0.8726
 2337SOL     OW18643   1.827   4.224   5.642 -0.1361 -0.2708  0.5854
 2337SOL    HW118644   1.811   4.256   5.553  3.4593 -2.0603 -0.7175
 2337SOL    HW218645   1.763   4.270   5.696  0.5001 -0.0008  1.0990
 2338SOL     OW18646   0.452   1.360   8.875 -0.1483  0.0170  0.6224
 2338SOL    HW118647   0.401   1.436   8.845 -0.6070 -2.0196 -3.7302
 2338SOL    HW218648   0.541   1.396   8.878 -0.5617  0.9442  1.5404
 2339SOL     OW18649   1.285   2.980  10.062  0.5863  0.5521  0.3705
 2339SOL    HW118650   1.272   2.963   9.969  0.0116 -0.0491  0.5640
 2339SOL    HW218651   1.203   2.957  10.105 -0.4098  0.3626 -1.6089
 2340SOL     OW18652   1.739   1.535  17.240 -0.1488  0.4063  0.2412
 2340SOL    HW118653   1.677   1.464  17.257 -0.0056 -0.2418 -1.8857
 2340SOL    HW218654   1.783   1.545  17.324  2.0256  0.5958 -0.9140
 2341SOL     OW18655   0.650   2.011   8.750  0.3299  0.2852 -0.1709
 2341SOL    HW118656   0.604   1.959   8.683 -1.5291  1.1778  0.4020
 2341SOL    HW218657   0.612   2.097   8.733 -1.0949  0.5241  4.0378
 2342SOL     OW18658   1.010   4.164  12.623  0.0974 -0.0800 -0.0136
 2342SOL    HW118659   0.949   4.234  12.649  0.8388  0.0416  1.3535
 2342SOL    HW218660   1.015   4.117  12.706 -0.5532  0.1594  0.1666
 2343SOL     OW18661   2.901   3.707   0.781 -0.4907 -0.6005 -0.1940
 2343SOL    HW118662   2.954   3.782   0.756 -0.7140 -0.3733  0.0107
 2343SOL    HW218663   2.851   3.681   0.703 -0.6089 -1.2479  0.0932
 2344SOL     OW18664   1.300   2.714  11.080 -0.0186 -0.1349 -0.1661
 2344SOL    HW118665   1.250   2.794  11.064  0.1204 -0.2338 -1.0843
 2344SOL    HW218666   1.252   2.654  11.024  0.6521 -2.1141  1.3616
 2345SOL     OW18667   0.031   1.839  12.615 -0.0543  0.2236 -0.1503
 2345SOL    HW118668   0.040   1.804  12.703  1.9534  2.2683  0.4542
 2345SOL    HW218669   0.117   1.875  12.592 -0.7798  0.5062 -2.4533
 2346SOL     OW18670   1.555   3.834  14.277  0.0707 -0.2199  0.3103
 2346SOL    HW118671   1.509   3.865  14.355 -1.0884 -1.4658  0.1195
 2346SOL    HW218672   1.485   3.786  14.231  1.5715 -1.0896 -1.0648
 2347SOL     OW18673   3.222   1.860  14.817 -0.1402 -0.4725 -0.2642
 2347SOL    HW118674   3.239   1.942  14.772 -0.1850  0.2340  0.9920
 2347SOL    HW218675   3.131   1.874  14.844 -0.3871 -2.9113  0.1916
 2348SOL     OW18676   1.772   0.224  14.417 -0.2725 -0.7042  0.7539
 2348SOL    HW118677   1.814   0.301  14.454 -0.2937 -1.0779  1.5638
 2348SOL    HW218678   1.737   0.258  14.335  1.2273  0.6745  0.6870
 2349SOL     OW18679   0.350   3.167   7.815 -0.1261  0.6802  0.4437
 2349SOL    HW118680   0.397   3.116   7.749  0.9331  1.0113  0.9359
 2349SOL    HW218681   0.335   3.091   7.872 -1.3500  1.7298  1.5183
 2350SOL     OW18682   0.632   0.138   3.244  0.2222 -0.0625  0.0507
 2350SOL    HW118683   0.638   0.051   3.205 -0.0610 -1.9061  4.0677
 2350SOL    HW218684   0.723   0.164   3.257  0.9695 -3.6875  1.9941
 2351SOL     OW18685   3.489   4.380   5.491 -0.6676 -0.0902 -0.5972
 2351SOL    HW118686   3.482   4.326   5.412  1.1335 -0.5168 -0.4534
 2351SOL    HW218687   3.439   4.460   5.472  0.8115  1.3082  1.4903
 2352SOL     OW18688   1.887   1.699   7.714  0.0175  0.2331 -0.0584
 2352SOL    HW118689   1.956   1.735   7.769 -1.5373  2.1276  0.6656
 2352SOL    HW218690   1.803   1.729   7.750 -1.0804 -2.7866 -0.0956
 2353SOL     OW18691   2.018   1.720  15.380 -0.2303  0.0462 -0.2472
 2353SOL    HW118692   1.961   1.644  15.368  1.0716 -0.8414 -0.7801
 2353SOL    HW218693   1.999   1.774  15.303  2.1907  0.2954 -0.6667
 2354SOL     OW18694   3.076   3.600   2.761 -0.2271 -0.7246 -0.3437
 2354SOL    HW118695   3.064   3.635   2.673  0.6530  1.1853  0.2876
 2354SOL    HW218696   3.076   3.676   2.820 -0.1776  0.3775 -1.7546
 2355SOL     OW18697   3.681   4.213   7.800  0.2594 -0.0778  0.0356
 2355SOL    HW118698   3.664   4.144   7.864  2.7571 -0.8087 -0.1103
 2355SOL    HW218699   3.608   4.215   7.738  0.3840  0.2583 -0.0965
 2356SOL     OW18700   0.378   3.823   4.002  0.1742  0.1750 -0.4450
 2356SOL    HW118701   0.307   3.778   3.956  1.1078 -1.5763 -0.1293
 2356SOL    HW218702   0.395   3.898   3.944 -0.9703 -1.2730 -2.6451
 2357SOL     OW18703   3.774   3.384   5.685 -0.1188  0.4498 -0.4798
 2357SOL    HW118704   3.818   3.398   5.601 -0.9281  1.0626 -0.8008
 2357SOL    HW218705   3.683   3.397   5.659 -0.1286 -2.8530 -2.1070
 2358SOL     OW18706   0.347   0.667   0.181  0.0512 -0.1833 -0.2868
 2358SOL    HW118707   0.404   0.590   0.186  2.5567  1.6563 -0.5923
 2358SOL    HW218708   0.287   0.625   0.120  0.1453  0.6579 -0.9639
 2359SOL     OW18709   4.145   0.546   1.732  0.4574  0.5317  0.0974
 2359SOL    HW118710   4.124   0.553   1.639 -3.6219 -0.5469  0.9661
 2359SOL    HW218711   4.089   0.607   1.779  1.7581  1.0506  0.9825
 2360SOL     OW18712   2.901   4.473   8.777  0.1114 -0.6467 -0.0797
 2360SOL    HW118713   2.814   4.498   8.746  0.0434 -1.3835 -0.4927
 2360SOL    HW218714   2.868   4.427   8.854 -1.3616  0.5999  0.0437
 2361SOL     OW18715   2.735   4.242   4.506 -0.1363 -0.1873 -0.3432
 2361SOL    HW118716   2.653   4.210   4.470  0.0507  0.5306 -1.4145
 2361SOL    HW218717   2.714   4.250   4.599 -0.1267 -0.1683 -0.3426
 2362SOL     OW18718   3.669   2.374   5.663  0.4900 -0.2290 -0.6197
 2362SOL    HW118719   3.665   2.467   5.642  3.6867 -0.0993 -0.6043
 2362SOL    HW218720   3.748   2.341   5.620 -0.3521 -1.6437 -1.0670
 2363SOL     OW18721   4.456   4.660   7.349  0.0231 -0.2504 -0.5924
 2363SOL    HW118722   4.431   0.012   7.323 -1.5965 -0.6650 -0.4091
 2363SOL    HW218723   4.490   4.675   7.437  1.3580  0.4267 -1.2178
 2364SOL     OW18724   1.446   0.058   5.622 -0.3079 -0.0668 -0.6633
 2364SOL    HW118725   1.443   0.069   5.717  0.7236  1.0331 -0.7558
 2364SOL    HW218726   1.358   0.021   5.611 -0.4783  0.2592 -0.3935
 2365SOL     OW18727   0.352   2.333  16.573 -0.0211 -0.2463 -0.3522
 2365SOL    HW118728   0.302   2.253  16.587  0.6517 -0.2960  1.8670
 2365SOL    HW218729   0.328   2.364  16.486  0.8817  0.1213 -0.4674
 2366SOL     OW18730   0.342   0.422   6.718  0.1487  0.2008 -0.0205
 2366SOL    HW118731   0.339   0.412   6.623  0.0397  0.6506 -0.0667
 2366SOL    HW218732   0.254   0.394   6.745  0.3460  0.6785  1.1618
 2367SOL     OW18733   0.396   4.572  14.514 -0.2570  0.1498  0.0959
 2367SOL    HW118734   0.471   4.618  14.552  0.3828  1.5680 -2.8965
 2367SOL    HW218735   0.405   4.485  14.553  0.8254  1.4940  2.8414
 2368SOL     OW18736   4.593   0.500   8.148 -0.5910  0.1292  0.0117
 2368SOL    HW118737   4.573   0.422   8.096 -1.5631  0.1601  0.3361
 2368SOL    HW218738   4.644   0.546   8.081 -1.1734  1.0770  0.2142
 2369SOL     OW18739   0.959   1.187   5.247  0.4303 -0.3081 -0.3840
 2369SOL    HW118740   1.041   1.235   5.259  0.1122 -0.1389  1.1708
 2369SOL    HW218741   0.989   1.120   5.186  1.1300 -0.9061  0.6099
 2370SOL     OW18742   4.346   0.891   3.191  0.1068 -0.5983  0.1474
 2370SOL    HW118743   4.298   0.836   3.130  1.6551 -1.3099 -0.4214
 2370SOL    HW218744   4.394   0.830   3.248  2.6356  2.7855  1.6919
 2371SOL     OW18745   3.659   3.225   8.712  0.4178  0.1373  0.1174
 2371SOL    HW118746   3.570   3.191   8.707  0.8181 -0.8423 -0.2728
 2371SOL    HW218747   3.634   3.309   8.750 -2.6921 -0.5570 -0.4160
 2372SOL     OW18748   2.524   0.217   7.026 -0.4983 -0.1263  0.0352
 2372SOL    HW118749   2.475   0.259   7.097 -1.0390  0.5793 -0.7633
 2372SOL    HW218750   2.607   0.261   7.043 -1.3242 -0.0342  3.7917
 2373SOL     OW18751   3.710   3.957  12.283  0.1063 -0.0532 -0.0532
 2373SOL    HW118752   3.636   4.013  12.262  1.0830  1.4989  0.6564
 2373SOL    HW218753   3.769   4.029  12.306  0.5074 -0.6704  0.8551
 2374SOL     OW18754   3.788   2.106   8.160 -0.0727 -0.0104 -0.5012
 2374SOL    HW118755   3.801   2.056   8.240 -0.3509  0.9803  0.1621
 2374SOL    HW218756   3.726   2.042   8.125  0.9486 -1.3907  0.2015
 2375SOL     OW18757   3.918   0.731  10.120  0.2845 -0.3467  0.2037
 2375SOL    HW118758   3.979   0.704  10.189 -1.7964  0.4120  2.3488
 2375SOL    HW218759   3.869   0.808  10.149  0.1777 -0.2159 -0.3345
 2376SOL     OW18760   1.412   2.626  12.635 -0.0382 -0.0449 -0.2124
 2376SOL    HW118761   1.495   2.674  12.628  0.7459 -1.2203  0.9702
 2376SOL    HW218762   1.368   2.664  12.560  0.5619 -1.0465 -1.0618
 2377SOL     OW18763   0.469   3.791   7.552  0.4221 -0.5592 -0.8480
 2377SOL    HW118764   0.391   3.813   7.501  0.9246 -1.1697 -1.8777
 2377SOL    HW218765   0.440   3.727   7.616 -0.8370  0.5427 -0.3189
 2378SOL     OW18766   2.375   4.214   2.741  0.4094  0.0165  0.3220
 2378SOL    HW118767   2.347   4.160   2.815 -2.3530  2.3635  1.0022
 2378SOL    HW218768   2.416   4.291   2.781  0.2068 -0.7611  2.0209
 2379SOL     OW18769   2.543   1.019   3.299  0.3523  0.2062 -0.1950
 2379SOL    HW118770   2.607   0.948   3.297 -0.2166 -0.2805 -1.4596
 2379SOL    HW218771   2.474   0.992   3.239 -0.6427 -0.0665  1.0835
 2380SOL     OW18772   3.470   2.341   1.416 -0.0837  0.5150  0.1448
 2380SOL    HW118773   3.467   2.437   1.415  1.9502  0.5981  2.2041
 2380SOL    HW218774   3.423   2.321   1.497 -2.5272 -1.1518 -1.6730
 2381SOL     OW18775   2.590   4.285   5.601  0.3902 -0.2774 -0.2021
 2381SOL    HW118776   2.598   4.204   5.550  0.8939  0.3827 -1.1696
 2381SOL    HW218777   2.515   4.261   5.655 -1.5988  2.8510 -1.5411
 2382SOL     OW18778   3.537   1.731  16.297  0.2310  0.4049  0.4453
 2382SOL    HW118779   3.538   1.827  16.305 -1.7867  0.4334  0.3487
 2382SOL    HW218780   3.567   1.723  16.206  1.3044 -0.5823  0.8975
 2383SOL     OW18781   2.018   0.613   2.047 -0.2366  0.1141 -0.2490
 2383SOL    HW118782   2.081   0.550   2.083  0.7423  0.3865 -1.4769
 2383SOL    HW218783   2.005   0.680   2.113  1.1473  0.9965 -0.8672
 2384SOL     OW18784   3.449   1.994   2.401  0.0121  0.1828  0.2709
 2384SOL    HW118785   3.380   1.934   2.430  1.6500 -1.5318  0.6136
 2384SOL    HW218786   3.467   1.955   2.315 -0.0879 -1.6257  1.0667
 2385SOL     OW18787   2.554   1.801   3.272  0.3597 -0.0980 -0.0806
 2385SOL    HW118788   2.574   1.712   3.301  2.3280  0.0286 -1.0231
 2385SOL    HW218789   2.527   1.782   3.182  2.2025 -1.8315 -0.2744
 2386SOL     OW18790   2.924   4.683   4.203  0.0524 -0.4793 -0.7059
 2386SOL    HW118791   2.909   4.598   4.244 -0.5468 -0.8654 -1.7288
 2386SOL    HW218792   2.876   0.005   4.262 -1.8202 -0.9064 -1.8093
 2387SOL     OW18793   0.070   3.293   3.587  0.2426 -0.6241  0.0313
 2387SOL    HW118794   0.134   3.314   3.655 -0.7752  1.6416  0.3039
 2387SOL    HW218795   0.100   3.211   3.548 -2.1760 -0.3176 -2.4746
 2388SOL     OW18796   0.283   1.498   4.857 -0.7075 -0.2568 -0.3664
 2388SOL    HW118797   0.365   1.448   4.850 -0.1192  0.4478  1.5307
 2388SOL    HW218798   0.275   1.513   4.951 -3.8429 -1.9144 -0.3883
 2389SOL     OW18799   0.364   2.362  11.644 -0.0186  0.3915  0.1542
 2389SOL    HW118800   0.451   2.371  11.684  0.4438 -2.8681 -0.1449
 2389SOL    HW218801   0.373   2.299  11.572 -0.9141 -0.7447  1.0361
 2390SOL     OW18802   4.395   1.567   6.662 -0.1963 -0.2945 -0.3911
 2390SOL    HW118803   4.349   1.491   6.698  2.1895 -0.7252  1.7887
 2390SOL    HW218804   4.487   1.541   6.668 -0.3311 -0.0968  2.5179
 2391SOL     OW18805   1.234   4.003  12.081 -0.3256 -0.6531  0.1647
 2391SOL    HW118806   1.242   3.960  11.996  1.6425  1.0139 -0.4852
 2391SOL    HW218807   1.323   4.018  12.111 -0.8894 -0.8529  1.9499
 2392SOL     OW18808   1.662   4.224  13.523 -0.6164 -0.4651 -1.2442
 2392SOL    HW118809   1.660   4.137  13.564  0.9149  0.2817  0.3741
 2392SOL    HW218810   1.615   4.278  13.586  0.6783  0.7056 -1.2797
 2393SOL     OW18811   4.297   2.586   2.154  0.0790  0.1308 -0.4129
 2393SOL    HW118812   4.316   2.663   2.207  0.1330 -0.1567 -0.0171
 2393SOL    HW218813   4.321   2.517   2.216  1.6045  1.9353  1.0207
 2394SOL     OW18814   4.562   1.476  12.229 -0.2892  0.5967  1.0670
 2394SOL    HW118815   4.579   1.552  12.285 -1.8160  0.7238  1.3571
 2394SOL    HW218816   4.529   1.522  12.151  1.3324 -1.3534 -0.7690
 2395SOL     OW18817   1.245   2.628   4.398 -0.3897 -0.5906  0.1637
 2395SOL    HW118818   1.170   2.657   4.450  1.4170  0.0075  2.4255
 2395SOL    HW218819   1.211   2.631   4.309  1.5913 -1.1365 -0.5950
 2396SOL     OW18820   0.080   3.086   4.789  0.3872  0.2568  0.3871
 2396SOL    HW118821   0.124   3.168   4.815 -0.3594  1.1001 -0.9947
 2396SOL    HW218822   0.098   3.081   4.695 -1.4494 -1.8824  0.1567
 2397SOL     OW18823   2.096   0.219   2.201  0.1501  0.1751 -0.2975
 2397SOL    HW118824   2.124   0.128   2.211  0.8155  0.4426  0.2975
 2397SOL    HW218825   2.014   0.209   2.153 -0.6097 -0.8257  1.1943
 2398SOL     OW18826   2.071   3.780   4.887 -0.6329 -0.1174 -0.1614
 2398SOL    HW118827   2.129   3.847   4.850 -0.7263  0.2569  0.3652
 2398SOL    HW218828   1.988   3.822   4.863 -0.5015 -0.7326 -1.6778
 2399SOL     OW18829   3.733   4.704  17.143 -0.0043 -0.0291  0.1969
 2399SOL    HW118830   3.767   0.055  17.161 -0.7356  0.0787  1.0156
 2399SOL    HW218831   3.681   4.679  17.219 -0.3878  3.8688  1.1700
 2400SOL     OW18832   3.908   0.126   3.050 -0.2431  0.4596  0.1366
 2400SOL    HW118833   3.816   0.119   3.024  0.0517  4.4953 -1.9825
 2400SOL    HW218834   3.899   0.160   3.139 -0.5198  0.9157 -0.0621
 2401SOL     OW18835   1.579   1.617  11.238 -0.1662 -0.2542 -0.2951
 2401SOL    HW118836   1.558   1.566  11.160  1.6458 -0.9207 -0.3509
 2401SOL    HW218837   1.627   1.558  11.296 -0.4833 -0.9785 -0.7576
 2402SOL     OW18838   3.484   1.238   2.012  0.1502 -0.1984  0.3952
 2402SOL    HW118839   3.566   1.228   2.059 -0.1574  0.3666  1.0648
 2402SOL    HW218840   3.507   1.317   1.964 -1.5387 -0.4660 -0.8622
 2403SOL     OW18841   2.403   2.302   7.192 -0.0820  0.5334 -0.5488
 2403SOL    HW118842   2.477   2.358   7.167  0.0202  1.8315  2.7140
 2403SOL    HW218843   2.341   2.374   7.198  0.8498  1.1959  1.1762
 2404SOL     OW18844   1.336   3.303  10.234 -0.6826 -0.2363 -0.5022
 2404SOL    HW118845   1.326   3.387  10.280  3.8500  1.0600 -1.8607
 2404SOL    HW218846   1.273   3.245  10.277 -0.7047 -0.3062 -0.6283
 2405SOL     OW18847   0.182   3.654  11.630  0.0658  0.2655 -0.4527
 2405SOL    HW118848   0.176   3.744  11.596 -3.0242 -0.5612 -2.0720
 2405SOL    HW218849   0.095   3.628  11.601 -0.0818 -0.1734  0.3917
 2406SOL     OW18850   4.142   1.413   1.164 -0.0943  0.1547 -0.3509
 2406SOL    HW118851   4.210   1.398   1.098  0.5359 -0.4963  0.4475
 2406SOL    HW218852   4.085   1.474   1.118  0.9820  1.6333  0.2625
 2407SOL     OW18853   4.005   3.268   0.588 -0.4214  0.2476  0.2728
 2407SOL    HW118854   4.056   3.323   0.529 -1.0204  0.2055 -0.2836
 2407SOL    HW218855   4.044   3.293   0.671 -1.6271 -2.9656  1.7975
 2408SOL     OW18856   2.598   2.024   9.575  0.4230 -0.4224  0.5705
 2408SOL    HW118857   2.590   1.969   9.496  2.6872  1.2931 -0.8604
 2408SOL    HW218858   2.570   1.967   9.646  0.7788 -1.0472  0.2135
 2409SOL     OW18859   2.716   0.799   3.328  0.0118 -0.3757 -0.6932
 2409SOL    HW118860   2.782   0.744   3.286 -2.4340 -3.7454 -0.1678
 2409SOL    HW218861   2.745   0.798   3.419 -0.3294 -0.1288 -0.5834
 2410SOL     OW18862   1.677   0.077  15.735 -0.3880 -0.6430 -0.6715
 2410SOL    HW118863   1.689   0.167  15.705 -4.1386 -0.2184 -0.8176
 2410SOL    HW218864   1.700   0.027  15.657  0.5669 -1.5797  0.1956
 2411SOL     OW18865   1.451   4.682   2.903 -0.1513 -0.2284  0.3774
 2411SOL    HW118866   1.397   4.683   2.825 -0.4949  0.3318  0.6194
 2411SOL    HW218867   1.538   4.711   2.874 -2.2829  4.6470 -1.1209
 2412SOL     OW18868   2.393   0.750   7.466  0.6216  0.2242 -0.1544
 2412SOL    HW118869   2.405   0.779   7.376  2.6106 -0.3885 -0.0710
 2412SOL    HW218870   2.310   0.797   7.475  0.6946  0.5621 -1.3401
 2413SOL     OW18871   1.818   3.265   6.405 -0.5813  0.3996 -0.7256
 2413SOL    HW118872   1.865   3.184   6.427 -0.4855  0.4139 -0.8730
 2413SOL    HW218873   1.888   3.329   6.388 -0.1869  0.8906  2.7550
 2414SOL     OW18874   0.985   0.240  14.449  0.0700 -0.4351 -0.1359
 2414SOL    HW118875   0.929   0.177  14.493  0.0387 -1.1212 -1.1627
 2414SOL    HW218876   0.944   0.323  14.475 -1.0339  0.3255 -4.2475
 2415SOL     OW18877   2.147   3.334  17.697  0.0198 -0.0923  0.0710
 2415SOL    HW118878   2.207   3.260  17.708 -0.7395 -0.7546 -0.2726
 2415SOL    HW218879   2.106   3.327  17.611 -2.8991  0.7639  1.3804
 2416SOL     OW18880   1.548   2.853   0.444  0.0139 -0.6462 -0.5999
 2416SOL    HW118881   1.484   2.806   0.390 -1.0080  1.0094 -0.8309
 2416SOL    HW218882   1.541   2.937   0.400  1.9625  1.2566  2.7206
 2417SOL     OW18883   1.342   4.150   1.435  0.4185  0.0573  0.1011
 2417SOL    HW118884   1.365   4.237   1.403 -2.6703  0.9133  0.1894
 2417SOL    HW218885   1.296   4.112   1.360 -0.0719  0.3594  0.2474
 2418SOL     OW18886   2.753   1.473  13.462 -0.3454  0.1204  0.2512
 2418SOL    HW118887   2.774   1.563  13.434  0.8138 -0.4206 -0.5978
 2418SOL    HW218888   2.686   1.492  13.528  1.8904  0.0866  2.5664
 2419SOL     OW18889   3.899   0.108  15.221  0.0826  0.2592  0.2303
 2419SOL    HW118890   3.811   0.083  15.193 -0.7804  3.8821 -0.2791
 2419SOL    HW218891   3.947   0.030  15.195 -0.4543 -0.8096  2.4708
 2420SOL     OW18892   3.387   3.239  12.193 -0.2463 -0.3029  0.0325
 2420SOL    HW118893   3.434   3.168  12.150  1.6012  1.1954 -0.3837
 2420SOL    HW218894   3.302   3.194  12.199 -1.0968  1.1378 -1.3166
 2421SOL     OW18895   2.487   1.838  12.599  0.1584 -0.2775  0.5435
 2421SOL    HW118896   2.571   1.884  12.600  0.6082 -1.0894  0.5281
 2421SOL    HW218897   2.510   1.763  12.543 -0.9505 -0.4876  0.3729
 2422SOL     OW18898   2.714   1.464  11.049 -0.0293 -0.0094  0.1143
 2422SOL    HW118899   2.747   1.481  11.137  2.2660 -3.1502 -0.1377
 2422SOL    HW218900   2.749   1.378  11.028  1.2568  0.9313 -1.5552
 2423SOL     OW18901   2.731   1.884   2.930  0.3149  0.1158 -0.6697
 2423SOL    HW118902   2.724   1.923   2.843  0.0097  1.5523 -0.0155
 2423SOL    HW218903   2.704   1.794   2.912 -0.3845  0.5133 -1.6085
 2424SOL     OW18904   2.795   3.899  14.877 -0.0792  0.0554 -0.5065
 2424SOL    HW118905   2.844   3.976  14.903 -0.6759 -0.2310  1.4950
 2424SOL    HW218906   2.768   3.933  14.792 -1.8479 -1.2787 -0.4812
 2425SOL     OW18907   2.787   1.904   3.898  0.5571 -0.1495 -0.0414
 2425SOL    HW118908   2.862   1.916   3.840 -0.1208 -1.8155 -1.2725
 2425SOL    HW218909   2.794   1.979   3.957  0.8497 -1.5375  1.6848
 2426SOL     OW18910   2.142   1.099  16.008  0.6607  0.0611 -0.8162
 2426SOL    HW118911   2.200   1.130  16.077  0.5308  0.2607 -0.7975
 2426SOL    HW218912   2.166   1.008  15.992 -0.6213 -0.5246  0.7079
 2427SOL     OW18913   1.062   3.011   2.982 -0.4787  0.4425 -0.1578
 2427SOL    HW118914   1.068   3.088   2.925  1.7970 -0.0941 -0.6265
 2427SOL    HW218915   1.098   3.055   3.060 -2.5616  0.3038  0.8755
 2428SOL     OW18916   4.111   1.841   9.504 -0.0161  0.4413 -0.6363
 2428SOL    HW118917   4.028   1.813   9.465  0.5786 -1.4620 -0.5322
 2428SOL    HW218918   4.174   1.772   9.481  0.3699  0.3200  0.8176
 2429SOL     OW18919   1.445   2.374   5.802 -0.0486 -0.0023 -0.1145
 2429SOL    HW118920   1.381   2.369   5.872 -0.1710 -1.3763 -0.3327
 2429SOL    HW218921   1.507   2.308   5.834 -0.1494 -0.6522 -1.2471
 2430SOL     OW18922   2.363   3.456   8.084  0.1890  0.4539 -0.8328
 2430SOL    HW118923   2.374   3.538   8.035  0.0440  0.6007 -0.6162
 2430SOL    HW218924   2.400   3.408   8.010 -0.5284 -2.4515  0.6875
 2431SOL     OW18925   4.299   2.239   5.012  0.4880 -0.1819  0.3058
 2431SOL    HW118926   4.343   2.308   4.963  0.7327 -0.3228  0.3296
 2431SOL    HW218927   4.347   2.159   4.993 -1.4643 -0.9008 -1.6325
 2432SOL     OW18928   1.025   3.334   3.488 -0.4102  0.1871  0.1391
 2432SOL    HW118929   1.094   3.269   3.500 -1.3200 -0.8283 -0.1483
 2432SOL    HW218930   1.088   3.401   3.463  0.1118  0.2090  1.5362
 2433SOL     OW18931   1.105   0.620  15.591  1.0084 -0.4113  0.0560
 2433SOL    HW118932   1.156   0.701  15.590 -0.5157  0.5499  0.2861
 2433SOL    HW218933   1.113   0.595  15.683  1.1389  0.2432  0.2256
 2434SOL     OW18934   0.682   3.349   4.403 -0.3322  0.4416  0.3811
 2434SOL    HW118935   0.659   3.442   4.413 -0.2562  0.6586 -1.4585
 2434SOL    HW218936   0.623   3.330   4.330  0.3552 -0.5671  0.0812
 2435SOL     OW18937   0.778   0.116   5.543 -0.1684 -0.4697  0.0139
 2435SOL    HW118938   0.797   0.024   5.561 -0.6899  0.0683  3.2035
 2435SOL    HW218939   0.683   0.111   5.533 -0.6791 -0.1685  4.7975
 2436SOL     OW18940   1.078   3.737   4.640  0.1590 -0.1637 -0.1394
 2436SOL    HW118941   1.034   3.821   4.653 -0.5028 -0.4383 -0.6193
 2436SOL    HW218942   1.003   3.678   4.631  0.2358 -0.4309  0.9516
 2437SOL     OW18943   2.178   3.975   1.294 -0.0942 -0.4714 -0.4068
 2437SOL    HW118944   2.116   3.904   1.309 -1.4191  0.4195 -1.6484
 2437SOL    HW218945   2.244   3.923   1.249  2.0387  0.1941  1.8943
 2438SOL     OW18946   3.561   4.182   3.250  0.0837 -0.0180 -0.7200
 2438SOL    HW118947   3.503   4.225   3.314  1.2652 -0.5287  0.6914
 2438SOL    HW218948   3.496   4.179   3.180  0.5310  0.3614 -1.1463
 2439SOL     OW18949   1.085   2.666   8.818 -0.4000  0.2160  0.2290
 2439SOL    HW118950   1.068   2.759   8.803  1.9432  0.8376  1.4944
 2439SOL    HW218951   1.022   2.652   8.889 -0.6796 -3.7091 -0.7779
 2440SOL     OW18952   0.252   4.056  13.637  0.7405  0.1250  0.0496
 2440SOL    HW118953   0.336   4.101  13.642  2.3060 -2.8109  0.3464
 2440SOL    HW218954   0.268   3.962  13.644 -0.1555  0.0952  1.8022
 2441SOL     OW18955   2.488   3.404   0.027  0.3868  0.0542  0.1395
 2441SOL    HW118956   2.447   3.318   0.023 -0.2955  0.4800 -1.9228
 2441SOL    HW218957   2.423   3.460  17.730 -2.3735 -1.4266  2.4454
 2442SOL     OW18958   3.299   3.414  13.984  0.2697  0.0080 -0.8920
 2442SOL    HW118959   3.319   3.500  13.946 -1.1429  1.0297  0.6534
 2442SOL    HW218960   3.335   3.348  13.924  0.9764  0.4246 -0.9294
 2443SOL     OW18961   2.880   0.323  15.862 -0.9229  0.3895  0.0129
 2443SOL    HW118962   2.843   0.411  15.862 -0.4929  0.5624 -1.1122
 2443SOL    HW218963   2.808   0.267  15.833  2.1299 -3.5268 -0.0129
 2444SOL     OW18964   3.936   2.133   9.983  0.2441 -0.4246  0.0808
 2444SOL    HW118965   3.863   2.073   9.967 -1.9914  1.2668  4.0013
 2444SOL    HW218966   4.010   2.071   9.986  1.4355  0.8586 -2.2948
 2445SOL     OW18967   0.792   1.804   5.865 -0.1402  0.1878 -0.4718
 2445SOL    HW118968   0.882   1.835   5.853 -0.1857  0.6990  0.5083
 2445SOL    HW218969   0.735   1.879   5.881 -1.7415 -1.3456  1.0690
 2446SOL     OW18970   0.731   4.366  15.582 -0.0749 -0.4518 -0.2630
 2446SOL    HW118971   0.731   4.293  15.644  0.7684 -0.8240 -0.6937
 2446SOL    HW218972   0.817   4.400  15.605  0.1140 -0.6100 -0.7374
 2447SOL     OW18973   2.427   3.556   4.716 -0.2335  0.1682  0.0843
 2447SOL    HW118974   2.377   3.490   4.764 -1.9712 -0.5368 -2.7288
 2447SOL    HW218975   2.371   3.564   4.640  0.0439  0.2907 -0.1081
 2448SOL     OW18976   4.337   4.098   2.183  0.0891 -0.0396  0.5255
 2448SOL    HW118977   4.275   4.114   2.254  3.1604  0.6977  3.0685
 2448SOL    HW218978   4.395   4.169   2.210  2.7427 -1.9615 -0.0538
 2449SOL     OW18979   2.206   3.441   1.082 -0.2573 -0.1458  0.2890
 2449SOL    HW118980   2.295   3.441   1.118 -0.0277  0.0292 -0.2785
 2449SOL    HW218981   2.177   3.357   1.115  0.1124 -0.9139 -1.3544
 2450SOL     OW18982   2.120   1.263  11.507 -0.0518 -0.2020 -0.2437
 2450SOL    HW118983   2.168   1.228  11.581  0.0923  1.4673  0.4596
 2450SOL    HW218984   2.110   1.353  11.539  0.9576  0.1753 -1.0019
 2451SOL     OW18985   0.638   3.106   8.062 -0.2797 -0.2382  0.7591
 2451SOL    HW118986   0.551   3.065   8.065 -1.3523  2.0429  0.6052
 2451SOL    HW218987   0.679   3.071   8.141  2.0666  0.1441 -0.2747
 2452SOL     OW18988   0.179   1.960   2.464  0.4398  0.7351  0.4102
 2452SOL    HW118989   0.127   1.899   2.412  1.6371 -0.3753  0.5264
 2452SOL    HW218990   0.122   2.035   2.481  0.8684  1.1984 -0.2067
 2453SOL     OW18991   2.895   1.193   4.911 -0.0683  0.3666  0.1145
 2453SOL    HW118992   2.818   1.249   4.902 -1.2100 -1.2870 -0.3308
 2453SOL    HW218993   2.923   1.184   4.820 -1.5649  0.2848 -0.3240
 2454SOL     OW18994   2.581   1.112   2.206 -0.4407 -0.0674 -0.6203
 2454SOL    HW118995   2.523   1.122   2.130 -0.5207 -0.8237 -0.6522
 2454SOL    HW218996   2.630   1.033   2.184 -1.3729 -0.8463  0.0948
 2455SOL     OW18997   3.520   3.754   6.689  0.1369  0.2013  0.6281
 2455SOL    HW118998   3.481   3.833   6.727 -0.7037 -0.1605  0.5319
 2455SOL    HW218999   3.597   3.742   6.744  1.2121  0.9614 -0.7457
 2456SOL     OW19000   2.970   4.371  12.686  0.4774 -1.0845  0.4530
 2456SOL    HW119001   2.962   4.279  12.709 -4.1507 -0.9236 -0.4744
 2456SOL    HW219002   3.046   4.398  12.738 -0.4332 -0.3080  1.3850
 2457SOL     OW19003   4.526   2.540  10.968 -0.2648  0.3883  0.2182
 2457SOL    HW119004   4.540   2.473  10.901 -0.9253 -1.4868  1.9667
 2457SOL    HW219005   4.434   2.526  10.990 -0.5956  1.8627 -0.1830
 2458SOL     OW19006   1.919   0.904  17.510 -0.1618 -0.1796 -0.4087
 2458SOL    HW119007   1.923   0.819  17.554 -0.6373  0.0903  0.1552
 2458SOL    HW219008   1.930   0.870  17.421  0.4063 -2.5072  0.5527
 2459SOL     OW19009   2.821   2.708   3.690  0.4337 -0.0755 -0.2013
 2459SOL    HW119010   2.804   2.614   3.680  0.8806 -0.0651 -1.0374
 2459SOL    HW219011   2.754   2.732   3.754  1.9748 -0.0252  1.3904
 2460SOL     OW19012   1.292   1.909   3.043  0.2778  0.3401 -0.1315
 2460SOL    HW119013   1.311   1.946   2.957  1.8492 -1.5221 -0.5836
 2460SOL    HW219014   1.211   1.861   3.023 -0.6847  2.1729 -0.6112
 2461SOL     OW19015   1.645   1.547   6.584  0.1649 -0.5315 -0.4414
 2461SOL    HW119016   1.707   1.582   6.521  2.8024 -2.3466  1.1078
 2461SOL    HW219017   1.647   1.618   6.648  2.3668  0.8062 -2.0152
 2462SOL     OW19018   2.398   2.830   1.520  0.8184 -0.3004 -0.0876
 2462SOL    HW119019   2.417   2.866   1.434 -1.3910  0.4359 -0.2679
 2462SOL    HW219020   2.490   2.830   1.546  0.7460  0.6015  0.1732
 2463SOL     OW19021   4.425   2.849   5.676 -0.2136 -0.2753  0.1725
 2463SOL    HW119022   4.376   2.931   5.677 -0.5637 -0.4844  0.3219
 2463SOL    HW219023   4.457   2.839   5.765  0.7288  1.7247  0.0408
 2464SOL     OW19024   0.968   3.478  11.706 -0.2476  0.3632 -0.0029
 2464SOL    HW119025   0.907   3.421  11.659  0.0205  2.2230 -2.5909
 2464SOL    HW219026   0.981   3.549  11.643  1.1368 -2.3277 -2.7658
 2465SOL     OW19027   2.743   0.985   6.233 -0.2161 -0.1930  0.0137
 2465SOL    HW119028   2.757   1.061   6.178 -0.5122  0.7147  1.1949
 2465SOL    HW219029   2.749   0.916   6.167 -1.8692 -1.0157  0.7173
 2466SOL     OW19030   2.944   2.124   5.684  0.5750  0.3915 -0.1467
 2466SOL    HW119031   3.021   2.178   5.701  0.8930  0.1852 -0.9320
 2466SOL    HW219032   2.879   2.160   5.744 -0.5881 -0.5809 -0.8234
 2467SOL     OW19033   4.016   3.855  12.328  0.2983 -0.4437  0.0581
 2467SOL    HW119034   4.014   3.882  12.237 -2.2366  0.0379  0.2712
 2467SOL    HW219035   3.965   3.775  12.318 -0.6826  0.1565  0.2502
 2468SOL     OW19036   0.414   2.367  13.941  0.3966  0.0118  0.4278
 2468SOL    HW119037   0.459   2.448  13.966  1.2170 -0.2466 -0.2392
 2468SOL    HW219038   0.325   2.395  13.918  0.0892  0.3540  2.0195
 2469SOL     OW19039   1.962   3.217   2.091  0.0461  0.5605 -0.1171
 2469SOL    HW119040   2.032   3.272   2.056 -0.4613 -0.0703 -2.1169
 2469SOL    HW219041   1.939   3.257   2.174  0.9002 -2.0309  1.3887
 2470SOL     OW19042   1.884   3.541   2.849 -0.1601 -0.1679 -0.0346
 2470SOL    HW119043   1.899   3.632   2.823 -3.1864  1.0591  2.5444
 2470SOL    HW219044   1.973   3.505   2.850  0.3727  1.1321 -1.6263
 2471SOL     OW19045   0.882   2.837   4.267  0.4707 -0.1981  0.1237
 2471SOL    HW119046   0.811   2.900   4.256 -1.0743 -2.0516 -0.5669
 2471SOL    HW219047   0.896   2.825   4.174 -1.1817  0.2813 -0.1870
 2472SOL     OW19048   0.131   4.264   4.680  0.3049  0.0164  0.1501
 2472SOL    HW119049   0.164   4.179   4.706  1.4311 -0.3591 -2.5286
 2472SOL    HW219050   0.178   4.319   4.743  0.0010  2.3968 -1.6581
 2473SOL     OW19051   0.388   1.204  10.898  0.0216  0.4326  0.5153
 2473SOL    HW119052   0.344   1.127  10.862 -0.3445  1.0568 -0.3660
 2473SOL    HW219053   0.313   1.263  10.897  0.0315  0.4344 -0.2085
 2474SOL     OW19054   2.366   1.421   6.793  0.3611 -0.1605  0.4003
 2474SOL    HW119055   2.291   1.411   6.851  1.1751 -1.3763  1.2414
 2474SOL    HW219056   2.421   1.476   6.849  3.1845 -0.7065 -1.7753
 2475SOL     OW19057   1.079   2.808   6.156 -0.0287 -0.1373 -0.6483
 2475SOL    HW119058   1.103   2.761   6.077  0.4263  0.7392 -1.0316
 2475SOL    HW219059   1.135   2.767   6.222 -1.1456  0.1682  0.4852
 2476SOL     OW19060   3.721   2.566  14.622  0.2064 -0.3052 -0.0959
 2476SOL    HW119061   3.747   2.657  14.638  3.4473 -1.9158  3.6487
 2476SOL    HW219062   3.665   2.570  14.544  0.6454  1.4832 -0.3244
 2477SOL     OW19063   0.100   3.261   8.960  0.6517  0.1858 -0.2887
 2477SOL    HW119064   0.032   3.319   8.996  2.7053  2.3871  0.0257
 2477SOL    HW219065   0.173   3.310   8.923  2.1469 -2.0397 -0.3294
 2478SOL     OW19066   0.163   2.560   7.169  0.1514 -0.6715  0.1861
 2478SOL    HW119067   0.231   2.543   7.234  1.6557 -0.9523 -1.4532
 2478SOL    HW219068   0.116   2.630   7.214  0.6116  0.0264 -0.4218
 2479SOL     OW19069   2.959   1.869   6.916  0.3445 -0.2782  0.2085
 2479SOL    HW119070   3.026   1.801   6.922 -0.4397 -1.0264  0.6415
 2479SOL    HW219071   2.906   1.837   6.843 -1.7089 -0.5602  1.7900
 2480SOL     OW19072   2.325   1.446   7.964 -0.1397  0.1945 -0.6770
 2480SOL    HW119073   2.411   1.442   7.922  0.1851  0.1519 -0.0007
 2480SOL    HW219074   2.357   1.468   8.051 -2.0775 -0.3656  0.1685
 2481SOL     OW19075   3.982   1.313   5.149 -0.3079  0.4895  0.0203
 2481SOL    HW119076   4.077   1.307   5.156 -0.1599  1.9996 -0.8412
 2481SOL    HW219077   3.971   1.407   5.155  1.1793  0.6175  0.7048
 2482SOL     OW19078   1.887   0.508  13.534  0.8091  0.0279  0.6014
 2482SOL    HW119079   1.972   0.523  13.493 -0.5503  1.6339 -1.6841
 2482SOL    HW219080   1.858   0.598  13.552  1.7382  0.4058  0.1984
 2483SOL     OW19081   4.546   0.164   3.056 -0.7815  0.1248  0.1058
 2483SOL    HW119082   4.469   0.109   3.061 -0.8916  0.2606 -0.0986
 2483SOL    HW219083   4.521   0.245   3.100  0.7069  1.0615 -0.7514
 2484SOL     OW19084   4.198   1.698  14.015  0.1634 -0.4903 -0.0658
 2484SOL    HW119085   4.130   1.761  13.991  1.6141  0.7062 -0.9737
 2484SOL    HW219086   4.251   1.749  14.076  0.3306  1.1454 -1.5716
 2485SOL     OW19087   4.584   3.509  13.727 -0.3862 -0.0194 -0.5777
 2485SOL    HW119088   4.642   3.460  13.670  1.6151  1.6772 -0.0044
 2485SOL    HW219089   4.620   3.593  13.700  2.5384 -1.0804  0.0757
 2486SOL     OW19090   1.307   2.664   5.956  0.3450 -0.0988  0.2046
 2486SOL    HW119091   1.372   2.639   5.891 -0.4785 -2.2405  0.2040
 2486SOL    HW219092   1.353   2.660   6.039  1.1872  1.6013 -0.1867
 2487SOL     OW19093   2.186   1.182   8.304  0.3644 -0.0882 -0.0017
 2487SOL    HW119094   2.184   1.178   8.400 -0.2476 -0.2926 -0.0235
 2487SOL    HW219095   2.246   1.256   8.300  0.3205  0.1043  2.7209
 2488SOL     OW19096   2.412   3.327   8.981  0.2822  0.1501  0.2129
 2488SOL    HW119097   2.444   3.269   8.911  0.6724  0.9521 -0.2745
 2488SOL    HW219098   2.325   3.291   8.994  0.2421 -0.1473 -0.8521
 2489SOL     OW19099   2.143   4.325   2.160  0.0443 -0.2749 -0.0591
 2489SOL    HW119100   2.093   4.378   2.223  0.3273  0.2344 -0.2575
 2489SOL    HW219101   2.156   4.392   2.092  0.9940 -1.6837 -1.2574
 2490SOL     OW19102   1.403   0.322   5.407  0.4737 -0.3522  0.3378
 2490SOL    HW119103   1.332   0.378   5.376  0.0671 -0.3834  1.2265
 2490SOL    HW219104   1.363   0.263   5.470  0.0586 -1.8168 -1.2971
 2491SOL     OW19105   1.360   3.885   3.723 -0.1909 -0.1044 -0.1529
 2491SOL    HW119106   1.320   3.887   3.636 -0.3390 -1.2386 -0.1056
 2491SOL    HW219107   1.317   3.963   3.758 -0.4126 -0.0828 -0.4763
 2492SOL     OW19108   3.780   1.084   3.955  0.2239 -0.4063 -0.2188
 2492SOL    HW119109   3.861   1.113   3.996 -0.1260 -1.3560  1.1454
 2492SOL    HW219110   3.719   1.097   4.028 -0.2698  0.8105 -0.8366
 2493SOL     OW19111   2.345   3.720  12.853 -0.5259  0.5056 -0.5053
 2493SOL    HW119112   2.429   3.765  12.858 -0.7679  1.1233 -2.3293
 2493SOL    HW219113   2.299   3.748  12.932 -0.2156 -0.8379  0.1583
 2494SOL     OW19114   3.585   0.029  11.343 -1.0479 -0.2191 -0.0821
 2494SOL    HW119115   3.644   4.707  11.296 -2.4880 -2.8491  1.4156
 2494SOL    HW219116   3.609   0.015  11.435  0.2974 -0.4064 -0.4578
 2495SOL     OW19117   3.491   1.815   4.772  0.5658 -0.2094 -0.1216
 2495SOL    HW119118   3.423   1.865   4.727 -2.0480 -3.0293  0.6857
 2495SOL    HW219119   3.580   1.841   4.748  0.3933  0.8339  0.3777
 2496SOL     OW19120   0.849   1.467   1.573 -0.1683  0.0341 -0.1818
 2496SOL    HW119121   0.933   1.421   1.574  0.1604  0.6717  2.2629
 2496SOL    HW219122   0.834   1.467   1.668  0.8618 -1.1809 -0.0188
 2497SOL     OW19123   2.870   1.650   2.672  0.0260  0.3111 -0.4805
 2497SOL    HW119124   2.824   1.636   2.589 -0.3029 -1.3639 -0.0285
 2497SOL    HW219125   2.927   1.725   2.654 -0.7509  0.6801 -1.4086
 2498SOL     OW19126   1.889   3.075   2.601 -0.7536  0.7943  0.4140
 2498SOL    HW119127   1.911   3.160   2.564 -1.3967  1.5018  1.6734
 2498SOL    HW219128   1.834   3.103   2.674  0.0121 -0.5242  1.4944
 2499SOL     OW19129   1.893   2.592  13.504  0.6970  0.5199  0.3923
 2499SOL    HW119130   1.948   2.636  13.569 -0.4335  1.4863  0.7131
 2499SOL    HW219131   1.830   2.553  13.564 -1.5225  3.2247 -0.1609
 2500SOL     OW19132   2.931   2.979   6.738  0.3979  0.1341 -0.3901
 2500SOL    HW119133   2.840   3.005   6.726  0.4849  0.6541  0.0753
 2500SOL    HW219134   2.926   2.892   6.778  2.0612  0.3387  0.2493
 2501SOL     OW19135   2.433   1.174   8.838 -0.3119  0.5408 -0.1597
 2501SOL    HW119136   2.477   1.200   8.918 -1.2627  1.6899 -0.0071
 2501SOL    HW219137   2.510   1.143   8.790 -0.3791 -3.6381  2.4492
 2502SOL     OW19138   1.608   0.792   2.254 -0.1765 -0.0254 -0.3348
 2502SOL    HW119139   1.605   0.828   2.343 -0.3945 -0.1589 -0.2884
 2502SOL    HW219140   1.516   0.792   2.227 -0.4521  3.0733  0.5760
 2503SOL     OW19141   2.753   4.106   2.663 -0.3365  0.4496  0.1058
 2503SOL    HW119142   2.712   4.185   2.699  0.5363  0.5194  0.9372
 2503SOL    HW219143   2.785   4.059   2.739  0.3803  0.0301 -0.4605
 2504SOL     OW19144   3.443   1.745   8.998 -0.0690  0.8196  0.5861
 2504SOL    HW119145   3.424   1.832   9.033 -2.4863  0.4513  0.1744
 2504SOL    HW219146   3.518   1.763   8.942  0.7566  0.8427  1.6930
 2505SOL     OW19147   1.274   2.996   5.818  0.3950 -0.6992  0.0886
 2505SOL    HW119148   1.333   2.972   5.889  2.0763  0.9278 -0.7296
 2505SOL    HW219149   1.314   3.081   5.797  0.0854 -0.8053 -0.9226
 2506SOL     OW19150   0.645   1.578   4.238  0.0735  0.2683 -0.2205
 2506SOL    HW119151   0.568   1.574   4.296  0.3290  3.1808  0.3304
 2506SOL    HW219152   0.604   1.603   4.156 -0.9861 -0.6243  0.0237
 2507SOL     OW19153   2.087   0.356   4.265  0.0726  0.0212  0.1194
 2507SOL    HW119154   2.030   0.420   4.307  1.0761 -0.6325  2.4885
 2507SOL    HW219155   2.165   0.410   4.250  0.0981 -0.1297 -0.2976
 2508SOL     OW19156   1.372   0.521   4.751 -0.2545 -0.3098  0.6498
 2508SOL    HW119157   1.455   0.483   4.721  0.2902 -1.8600  4.1329
 2508SOL    HW219158   1.387   0.615   4.751  0.4314 -0.4185  0.1600
 2509SOL     OW19159   0.394   1.979   7.475  0.0884 -0.0498 -0.2398
 2509SOL    HW119160   0.454   1.947   7.408 -2.8132 -2.4213 -1.7182
 2509SOL    HW219161   0.395   1.906   7.537 -1.3645 -0.1275 -0.3190
 2510SOL     OW19162   2.346   2.782  12.913 -0.1083 -0.4533 -0.2631
 2510SOL    HW119163   2.403   2.745  12.980  0.6539 -1.6788 -1.5844
 2510SOL    HW219164   2.399   2.756  12.838  0.5544  0.2908 -0.0482
 2511SOL     OW19165   4.009   4.471   4.730  0.2760  0.6022 -0.3700
 2511SOL    HW119166   4.095   4.430   4.722  0.2827  0.3499  1.0213
 2511SOL    HW219167   4.032   4.544   4.673  0.1844  0.4674 -0.5831
 2512SOL     OW19168   0.435   1.020   7.344  0.1617 -0.1716  0.5589
 2512SOL    HW119169   0.514   1.063   7.312 -1.1554 -0.7222 -3.3841
 2512SOL    HW219170   0.387   1.020   7.261 -1.4889  0.7341  1.5176
 2513SOL     OW19171   3.136   0.757   2.558  0.0209  0.0386  0.1392
 2513SOL    HW119172   3.051   0.801   2.556 -1.6085 -3.0175  2.2949
 2513SOL    HW219173   3.164   0.786   2.645 -1.0374 -1.7386  1.0646
 2514SOL     OW19174   2.456   0.071   2.170  0.2480 -0.0202  0.4195
 2514SOL    HW119175   2.372   0.065   2.214  0.5689  2.6898  1.3374
 2514SOL    HW219176   2.435   0.051   2.078 -1.7024 -0.6030  0.9971
 2515SOL     OW19177   0.571   3.065  11.024 -0.0477 -0.0683  0.1286
 2515SOL    HW119178   0.493   3.020  11.057 -0.0536  0.0318  0.2522
 2515SOL    HW219179   0.563   3.156  11.052 -0.0093 -0.5197  1.5974
 2516SOL     OW19180   2.623   2.287   9.183 -0.2710 -0.3276  0.2843
 2516SOL    HW119181   2.539   2.247   9.207 -0.3377 -0.5233 -0.2766
 2516SOL    HW219182   2.651   2.228   9.113  0.8522 -0.2874  0.7037
 2517SOL     OW19183   2.670   4.379  16.932 -0.3500 -0.1857 -0.1543
 2517SOL    HW119184   2.576   4.361  16.933  0.1266 -2.4825  2.8430
 2517SOL    HW219185   2.708   4.298  16.966 -1.1879  0.7637  3.0705
 2518SOL     OW19186   0.446   2.742   7.628  0.4462 -0.3431  0.3344
 2518SOL    HW119187   0.538   2.724   7.645  0.5074  0.1473  0.5200
 2518SOL    HW219188   0.399   2.659   7.641  0.4562  0.1381  3.4316
 2519SOL     OW19189   0.369   2.700   0.775 -0.3133 -0.1663 -0.6893
 2519SOL    HW119190   0.427   2.758   0.825  1.6137 -2.2251 -0.5036
 2519SOL    HW219191   0.284   2.728   0.808  0.7755  0.5643  1.4677
 2520SOL     OW19192   4.430   3.939   5.653 -0.2739  0.3270  0.0872
 2520SOL    HW119193   4.436   3.957   5.747 -0.2476 -2.5957  0.6375
 2520SOL    HW219194   4.335   3.948   5.641 -0.0189  2.9311 -0.0449
 2521SOL     OW19195   0.900   3.729   9.833  0.1058  0.0647 -0.0002
 2521SOL    HW119196   0.919   3.816   9.868  0.6879  0.3246 -0.9626
 2521SOL    HW219197   0.986   3.688   9.829 -0.5331 -0.9944 -2.4093
 2522SOL     OW19198   0.227   1.803  13.713  0.2668  0.2731 -0.0188
 2522SOL    HW119199   0.214   1.897  13.698  1.0626  0.1303 -1.6258
 2522SOL    HW219200   0.176   1.762  13.643 -0.4157 -0.6181  0.9935
 2523SOL     OW19201   0.405   2.529  10.703 -0.1966 -0.1906 -0.0426
 2523SOL    HW119202   0.454   2.454  10.740  0.2807 -0.4359 -1.1742
 2523SOL    HW219203   0.447   2.597  10.755  1.0725 -0.7702 -0.3047
 2524SOL     OW19204   2.154   3.614   3.679 -0.2839 -0.0975  0.2150
 2524SOL    HW119205   2.183   3.523   3.689 -0.4151 -0.2577 -0.8511
 2524SOL    HW219206   2.072   3.602   3.728 -0.3476  1.1646  0.4034
 2525SOL     OW19207   1.497   2.933  12.100 -0.2479 -0.2917 -0.3981
 2525SOL    HW119208   1.523   2.842  12.112  1.5703  0.2528 -0.1813
 2525SOL    HW219209   1.528   2.973  12.182  3.9387  0.1026 -2.1556
 2526SOL     OW19210   1.812   2.957  17.738 -0.0329 -0.1442 -0.1077
 2526SOL    HW119211   1.769   2.898  17.677 -2.2190  2.2372 -0.8815
 2526SOL    HW219212   1.827   2.901   0.069 -2.4034 -1.2943 -0.5174
 2527SOL     OW19213   0.762   2.022   1.798  0.2310 -0.2084 -0.9934
 2527SOL    HW119214   0.686   1.971   1.772 -0.1697  0.5943 -1.4006
 2527SOL    HW219215   0.834   1.978   1.753  1.0235  1.2094 -1.1248
 2528SOL     OW19216   4.009   0.312  15.925  0.4030  0.2989  0.0533
 2528SOL    HW119217   4.020   0.399  15.963 -1.7901  0.4545  0.3382
 2528SOL    HW219218   4.066   0.264  15.984  0.2239  1.6505  1.3338
 2529SOL     OW19219   2.795   0.486  10.255  0.0740 -0.1229  0.3923
 2529SOL    HW119220   2.743   0.425  10.307  2.0702 -0.7910  1.5936
 2529SOL    HW219221   2.768   0.576  10.278  0.0410  0.3564 -1.5486
 2530SOL     OW19222   4.522   2.213   5.812  0.0773 -0.1550  0.0664
 2530SOL    HW119223   4.510   2.139   5.872  1.6392 -1.4309 -1.1933
 2530SOL    HW219224   4.550   2.161   5.737 -1.1367 -0.1975 -0.3481
 2531SOL     OW19225   3.813   3.136  13.672 -0.2156 -0.0306  0.1509
 2531SOL    HW119226   3.743   3.102  13.617 -0.3696 -0.1053  0.3943
 2531SOL    HW219227   3.883   3.142  13.606 -1.3102  1.2677 -0.8756
 2532SOL     OW19228   1.705   1.009   5.627  0.4267  0.0786 -0.4195
 2532SOL    HW119229   1.712   0.952   5.704 -0.5093  1.7579  0.9305
 2532SOL    HW219230   1.730   0.940   5.566  1.1566 -0.0531  0.0337
 2533SOL     OW19231   3.327   2.896   8.069 -0.2714  0.1179  0.8317
 2533SOL    HW119232   3.267   2.823   8.081  2.3665 -2.1646  0.1727
 2533SOL    HW219233   3.343   2.916   8.161 -1.6329  0.0228  1.0761
 2534SOL     OW19234   2.470   3.725   4.079  0.9423 -0.1567  0.3645
 2534SOL    HW119235   2.453   3.708   3.987 -0.5875  1.2757  0.3630
 2534SOL    HW219236   2.535   3.794   4.066  0.3935  0.3304  0.1949
 2535SOL     OW19237   4.449   0.455  11.324  0.1910 -0.5216 -0.1869
 2535SOL    HW119238   4.429   0.548  11.320 -0.0556 -0.6142 -1.1408
 2535SOL    HW219239   4.538   0.472  11.353  0.9897 -1.1557 -2.2275
 2536SOL     OW19240   1.801   3.442   0.070 -0.1108 -0.0143  0.6041
 2536SOL    HW119241   1.858   3.369   0.045 -0.8622 -1.0938  2.0577
 2536SOL    HW219242   1.829   3.511   0.010  2.7583 -1.6204  0.0981
 2537SOL     OW19243   2.494   4.002   4.201 -0.7153  0.2988  0.1485
 2537SOL    HW119244   2.411   4.025   4.158 -1.3192 -1.9559  0.1200
 2537SOL    HW219245   2.565   4.013   4.138 -1.3308  1.1850 -0.4111
 2538SOL     OW19246   2.797   3.628   1.028  0.6730 -0.2473  0.0572
 2538SOL    HW119247   2.845   3.686   1.086 -0.6353  0.2260  0.6745
 2538SOL    HW219248   2.833   3.657   0.944 -0.9472  1.5707 -0.0117
 2539SOL     OW19249   2.830   2.328   1.186 -0.0812 -0.0281 -0.1293
 2539SOL    HW119250   2.863   2.415   1.161  0.8573  0.4257  2.7812
 2539SOL    HW219251   2.911   2.280   1.204  0.8075  1.7469  0.5810
 2540SOL     OW19252   4.585   1.348   4.157  0.2154 -0.4866 -0.0688
 2540SOL    HW119253   4.539   1.428   4.132 -0.4261 -0.5499  0.8760
 2540SOL    HW219254   4.521   1.317   4.222  0.0249 -1.1625 -0.5791
 2541SOL     OW19255   4.102   0.122  15.409 -0.1978 -0.5043 -0.0089
 2541SOL    HW119256   4.043   0.146  15.481  0.8294 -0.8347  0.9461
 2541SOL    HW219257   4.046   0.144  15.335 -1.1061 -1.3484  0.4434
 2542SOL     OW19258   0.784   3.637   9.559  0.7974  0.3139 -0.3538
 2542SOL    HW119259   0.703   3.615   9.605  0.1234 -0.4656 -1.9259
 2542SOL    HW219260   0.835   3.681   9.627  1.2138 -1.2728  0.3844
 2543SOL     OW19261   4.326   0.002  13.298  0.3848 -0.1136  0.1603
 2543SOL    HW119262   4.415   4.705  13.313  0.0009 -1.4049 -0.4800
 2543SOL    HW219263   4.339   0.086  13.254  0.5065 -1.2987 -2.0787
 2544SOL     OW19264   1.326   2.711   6.359  0.6484 -0.3104 -0.0678
 2544SOL    HW119265   1.363   2.740   6.276  2.1773  0.0741  0.7521
 2544SOL    HW219266   1.378   2.765   6.419 -1.6390 -0.3660  1.9712
 2545SOL     OW19267   4.370   3.059  13.782  0.2441 -0.1403  0.4583
 2545SOL    HW119268   4.389   3.144  13.822  2.6242  0.2738 -1.4752
 2545SOL    HW219269   4.444   3.048  13.721 -0.1988  2.1322 -0.5057
 2546SOL     OW19270   1.326   4.134   3.135  0.2671  0.0951  0.4315
 2546SOL    HW119271   1.277   4.065   3.180  0.4787  0.0564  0.6067
 2546SOL    HW219272   1.347   4.087   3.055  0.9181  3.5768 -1.4394
 2547SOL     OW19273   2.476   3.200   5.061  0.1033 -0.2290 -0.4244
 2547SOL    HW119274   2.464   3.247   5.143  0.0396 -1.5513  0.3250
 2547SOL    HW219275   2.543   3.259   5.028 -0.2469  2.1666  3.1440
 2548SOL     OW19276   0.416   3.943   8.491 -0.4550 -0.1998 -0.4719
 2548SOL    HW119277   0.346   3.975   8.434  0.9152  2.1023 -0.8131
 2548SOL    HW219278   0.393   3.962   8.582 -0.5010 -0.8310 -0.3486
 2549SOL     OW19279   0.098   3.073   4.515  0.3019  0.5548 -0.0599
 2549SOL    HW119280   0.093   3.137   4.444  0.2749  0.3858 -0.2077
 2549SOL    HW219281   0.159   3.010   4.476 -0.6749 -1.2337  1.3047
 2550SOL     OW19282   0.051   3.029  15.979 -0.1705  0.2861  0.3669
 2550SOL    HW119283   4.701   3.056  16.010  1.4784  2.4627  3.0799
 2550SOL    HW219284   0.102   3.110  15.973 -0.7625  0.5497 -1.1842
 2551SOL     OW19285   3.593   2.126  17.228  0.1411 -0.1742  0.8696
 2551SOL    HW119286   3.562   2.119  17.318  0.1457 -2.3581  0.7128
 2551SOL    HW219287   3.676   2.079  17.229  0.1899 -0.1507 -1.4795
 2552SOL     OW19288   4.540   2.354  10.775  0.2159 -0.2962  0.2739
 2552SOL    HW119289   4.594   2.416  10.726  1.4894 -1.1935  0.5550
 2552SOL    HW219290   4.484   2.327  10.703  0.5977  0.4783 -0.3120
 2553SOL     OW19291   0.634   2.998  16.343  0.4419  0.2030 -0.1851
 2553SOL    HW119292   0.560   3.003  16.283 -1.6455 -0.2111  2.3788
 2553SOL    HW219293   0.692   3.069  16.314  2.8154 -1.1644  1.1610
 2554SOL     OW19294   2.870   0.852   8.329  0.1614  0.3226 -0.0228
 2554SOL    HW119295   2.827   0.795   8.391 -0.8224  0.6008 -0.4533
 2554SOL    HW219296   2.960   0.818   8.322  0.5013  1.4379 -1.1477
 2555SOL     OW19297   1.623   1.580  16.447  0.2110  0.1071 -0.3467
 2555SOL    HW119298   1.630   1.504  16.389 -2.2396 -0.7088  0.4224
 2555SOL    HW219299   1.686   1.650  16.427  3.3031 -2.1250  1.5495
 2556SOL     OW19300   0.403   2.198   5.220  0.2262 -0.2151 -0.0221
 2556SOL    HW119301   0.429   2.149   5.298 -1.4593 -0.7933  0.1731
 2556SOL    HW219302   0.444   2.281   5.242 -0.4704 -0.3231  1.7024
 2557SOL     OW19303   0.138   0.971   4.319  0.5496  0.2685  0.2604
 2557SOL    HW119304   0.217   0.936   4.361 -0.5069 -1.1762  1.0435
 2557SOL    HW219305   0.182   1.003   4.241 -2.0949  0.9796 -0.9303
 2558SOL     OW19306   0.000   2.134   5.319 -0.2829  0.3043 -0.1266
 2558SOL    HW119307   4.653   2.179   5.310 -0.9055 -0.4199  2.0166
 2558SOL    HW219308   4.706   2.069   5.382  0.5284 -0.1974 -0.2513
 2559SOL     OW19309   1.024   2.738   2.239  0.0938 -0.1102 -0.2658
 2559SOL    HW119310   0.971   2.664   2.210  0.1467 -0.6498  1.0332
 2559SOL    HW219311   0.980   2.751   2.323 -0.8573  0.2417 -0.8204
 2560SOL     OW19312   1.787   0.333   3.011 -0.2344  0.1542  0.3537
 2560SOL    HW119313   1.858   0.268   3.015 -0.9946 -0.8994 -4.1111
 2560SOL    HW219314   1.723   0.297   3.073  0.9934  0.5315  1.8360
 2561SOL     OW19315   1.511   1.961   5.542  0.1206  0.3663  0.1992
 2561SOL    HW119316   1.460   1.885   5.513  0.2647 -0.2782  1.6326
 2561SOL    HW219317   1.520   2.012   5.462 -0.5333  0.9312  0.4868
 2562SOL     OW19318   1.435   2.792   7.837 -0.1001 -0.2989 -0.1251
 2562SOL    HW119319   1.522   2.814   7.869  0.1239 -1.2935 -0.0471
 2562SOL    HW219320   1.408   2.733   7.907  2.0031 -1.3741 -0.2482
 2563SOL     OW19321   4.034   2.686  11.042 -0.1241  0.8127 -0.0742
 2563SOL    HW119322   4.012   2.644  11.126 -1.7131 -2.9534 -2.3952
 2563SOL    HW219323   3.987   2.768  11.059  0.6004  1.1268  0.4007
 2564SOL     OW19324   3.450   3.107   3.254 -0.3726 -0.3265  0.0527
 2564SOL    HW119325   3.476   3.178   3.314 -0.9177 -2.1111  2.4257
 2564SOL    HW219326   3.454   3.152   3.170 -0.9124 -0.9247 -0.2909
 2565SOL     OW19327   2.211   3.055   0.889  0.2811 -0.3400 -0.2604
 2565SOL    HW119328   2.176   3.109   0.818 -1.8788 -1.8617 -0.3562
 2565SOL    HW219329   2.209   3.114   0.964  1.4494 -1.0399  0.3174
 2566SOL     OW19330   0.118   1.817   2.848 -0.2054  0.0704 -0.0651
 2566SOL    HW119331   0.070   1.896   2.824 -1.3198 -1.0697 -1.6599
 2566SOL    HW219332   0.101   1.756   2.775 -0.3356 -1.4672  1.2472
 2567SOL     OW19333   3.678   4.654   4.611  0.3549 -0.6553 -0.1095
 2567SOL    HW119334   3.664   4.569   4.651 -1.2374 -0.6031 -0.5220
 2567SOL    HW219335   3.770   4.655   4.585  0.9265 -3.1075  1.8584
 2568SOL     OW19336   4.271   0.372   4.515  0.1248  0.4908  0.7599
 2568SOL    HW119337   4.253   0.278   4.512 -0.7166  0.6294  1.2555
 2568SOL    HW219338   4.319   0.374   4.598 -0.7431  0.8374  1.2572
 2569SOL     OW19339   1.525   2.433   9.381  0.1473  0.6192 -0.0859
 2569SOL    HW119340   1.488   2.396   9.301  1.4001  0.8744 -0.7861
 2569SOL    HW219341   1.472   2.388   9.447 -0.7217  1.9057  0.0807
 2570SOL     OW19342   0.100   4.187   6.635  0.1595  0.1965  0.0841
 2570SOL    HW119343   0.072   4.263   6.686  1.1726 -0.8634  2.2276
 2570SOL    HW219344   0.023   4.179   6.579  0.6361 -0.2500 -0.5098
 2571SOL     OW19345   2.910   1.288   5.451 -0.4458  0.6842 -0.1692
 2571SOL    HW119346   2.990   1.243   5.423 -1.1663 -1.6428  1.5186
 2571SOL    HW219347   2.837   1.227   5.442  0.5194 -0.1679 -2.2053
 2572SOL     OW19348   2.897   4.159   7.707  1.0796 -0.0887 -0.1159
 2572SOL    HW119349   2.837   4.145   7.634  2.1883  2.8646 -1.5685
 2572SOL    HW219350   2.931   4.245   7.685 -1.4785  0.9911  0.1672
 2573SOL     OW19351   0.462   1.421   7.933 -0.1352 -0.3503  0.4944
 2573SOL    HW119352   0.460   1.491   7.998 -1.2393 -0.0115  0.1052
 2573SOL    HW219353   0.557   1.413   7.932 -0.2422 -1.4686 -0.3694
 2574SOL     OW19354   1.853   1.429   7.658 -0.4928  0.3903 -0.1225
 2574SOL    HW119355   1.901   1.510   7.676 -0.1319 -0.1132  1.2110
 2574SOL    HW219356   1.781   1.429   7.722  0.2164 -1.2335  0.6908
 2575SOL     OW19357   3.967   2.642   6.952 -0.3591  0.4365 -0.2852
 2575SOL    HW119358   3.921   2.560   6.969  1.0586  0.0761  1.7986
 2575SOL    HW219359   3.909   2.701   7.000  0.8030  0.2164  1.3643
 2576SOL     OW19360   2.264   0.861   5.414 -0.9287  1.2631 -0.5403
 2576SOL    HW119361   2.179   0.817   5.412 -0.2733  0.1093 -3.0256
 2576SOL    HW219362   2.323   0.787   5.430 -0.0101  2.3882  1.2874
 2577SOL     OW19363   1.108   3.322  11.892 -0.2012 -0.2728  0.1010
 2577SOL    HW119364   1.040   3.381  11.859 -0.1370 -0.8399 -1.0412
 2577SOL    HW219365   1.180   3.381  11.868  0.4981 -1.7228 -1.3417
 2578SOL     OW19366   3.430   1.522   7.025 -0.3323  0.1395  0.3575
 2578SOL    HW119367   3.512   1.484   6.995 -0.9372 -2.2618  1.7442
 2578SOL    HW219368   3.373   1.522   6.948 -0.8765 -0.8575  0.7620
 2579SOL     OW19369   3.402   1.221   8.632  0.2783 -0.6868 -0.7571
 2579SOL    HW119370   3.451   1.264   8.562  1.4486 -1.6915 -0.5631
 2579SOL    HW219371   3.454   1.144   8.654  0.2126 -0.0854  1.4955
 2580SOL     OW19372   2.677   4.512   8.657 -0.1410 -0.3342  0.2584
 2580SOL    HW119373   2.666   4.434   8.604  0.4395  0.3729 -0.9056
 2580SOL    HW219374   2.667   4.588   8.600 -0.6285 -1.1437 -0.7360
 2581SOL     OW19375   0.159   2.529  16.091  0.5806 -0.2615  0.3292
 2581SOL    HW119376   0.128   2.620  16.089 -0.6826 -0.6840  0.7825
 2581SOL    HW219377   0.184   2.515  16.000  0.5160 -2.6327  0.6693
 2582SOL     OW19378   1.131   4.673   3.922  0.5475  0.0577 -0.0610
 2582SOL    HW119379   1.067   4.707   3.984  1.5749  1.2407  0.3505
 2582SOL    HW219380   1.075   4.617   3.868  0.5479  1.2603 -1.3171
 2583SOL     OW19381   2.999   0.607  15.920  0.1297  0.0761 -0.0576
 2583SOL    HW119382   3.039   0.591  16.006 -0.6187 -0.6767  0.1542
 2583SOL    HW219383   2.913   0.641  15.946  1.9302  4.0595  0.7138
 2584SOL     OW19384   4.414   3.365   1.938  0.0188 -0.0781  0.0483
 2584SOL    HW119385   4.422   3.407   2.024 -0.4073 -0.4062  0.2443
 2584SOL    HW219386   4.400   3.451   1.897  1.0599 -0.2446 -0.6714
 2585SOL     OW19387   4.597   0.622   2.519 -0.0016 -0.2221  0.3995
 2585SOL    HW119388   4.534   0.613   2.447  0.4127 -1.0305  0.1446
 2585SOL    HW219389   4.610   0.532   2.548  0.0107  0.3216  2.0745
 2586SOL     OW19390   0.407   1.258  15.640  0.1574  0.4568  0.5743
 2586SOL    HW119391   0.321   1.229  15.672  1.2554  2.2245  5.0249
 2586SOL    HW219392   0.391   1.316  15.565  1.5745  1.7626  1.3005
 2587SOL     OW19393   2.108   0.297   8.278  0.2139  0.2837 -0.2735
 2587SOL    HW119394   2.054   0.219   8.260 -1.1236  0.5238  2.7393
 2587SOL    HW219395   2.046   0.332   8.341  0.4255  1.1125 -0.5335
 2588SOL     OW19396   2.914   1.670   9.175  0.3208  0.3291 -0.1272
 2588SOL    HW119397   3.002   1.706   9.161  1.0116 -1.2859  0.0481
 2588SOL    HW219398   2.930   1.579   9.149  1.9968  1.0997 -1.8524
 2589SOL     OW19399   2.568   0.485   2.409 -0.2561 -0.0302 -0.3919
 2589SOL    HW119400   2.599   0.572   2.382  2.2612 -0.4602  1.0991
 2589SOL    HW219401   2.547   0.445   2.325  0.9767  0.9013 -1.1487
 2590SOL     OW19402   1.782   1.191   9.227  0.1318 -0.0953  0.0811
 2590SOL    HW119403   1.873   1.161   9.223  0.4758  0.7075  1.9886
 2590SOL    HW219404   1.761   1.160   9.315  1.2127  2.2174  1.1476
 2591SOL     OW19405   3.548   3.203  12.900  0.4656 -0.4844 -0.1260
 2591SOL    HW119406   3.476   3.156  12.940  1.3166 -1.0299  0.7554
 2591SOL    HW219407   3.592   3.136  12.847  0.8918  1.9308 -2.8667
 2592SOL     OW19408   2.442   1.035   3.940  0.4166  0.1481  1.3461
 2592SOL    HW119409   2.374   0.967   3.936  1.1352 -0.5989  1.9183
 2592SOL    HW219410   2.429   1.071   4.028  0.3366  0.4294  1.2200
 2593SOL     OW19411   2.249   2.362   9.609  0.4653  0.5868  0.3978
 2593SOL    HW119412   2.296   2.403   9.536  0.4007  0.8537  0.5030
 2593SOL    HW219413   2.222   2.280   9.568  1.8044  1.6691 -2.6635
 2594SOL     OW19414   1.758   0.187   1.688  0.3065  0.2592  0.0832
 2594SOL    HW119415   1.707   0.246   1.744  2.3573  1.3179  0.8210
 2594SOL    HW219416   1.846   0.224   1.698 -1.2149  3.5595  1.5253
 2595SOL     OW19417   2.503   3.399   1.649 -0.5637  0.0954  0.3531
 2595SOL    HW119418   2.560   3.467   1.683 -0.4968  1.5488 -2.6796
 2595SOL    HW219419   2.416   3.437   1.657 -0.6165  0.5243 -2.2685
 2596SOL     OW19420   2.953   1.850   1.751  0.0261  0.1459 -0.1703
 2596SOL    HW119421   2.863   1.818   1.754  0.2319 -0.4885 -0.5788
 2596SOL    HW219422   2.942   1.943   1.735  0.6496  0.2748  0.1635
 2597SOL     OW19423   1.196   0.878   4.031 -0.5785  0.4392 -0.4554
 2597SOL    HW119424   1.110   0.873   3.990 -0.1294 -2.0270 -1.0950
 2597SOL    HW219425   1.254   0.895   3.956  0.4027  1.1407  0.4662
 2598SOL     OW19426   3.208   2.035  11.342 -0.7136 -0.1442 -0.3373
 2598SOL    HW119427   3.182   1.962  11.398 -1.1756  0.5730  0.3840
 2598SOL    HW219428   3.282   1.996  11.296 -0.3066  1.4210 -0.9905
 2599SOL     OW19429   4.244   2.104   9.111 -0.0124  0.0333 -0.3549
 2599SOL    HW119430   4.183   2.082   9.041 -2.1106 -1.0728  1.8651
 2599SOL    HW219431   4.179   2.144   9.169  1.1525  1.5057 -0.0558
 2600SOL     OW19432   2.705   3.437   0.192 -0.4967  0.0437 -0.4790
 2600SOL    HW119433   2.616   3.453   0.162 -0.7283  2.2979  1.4305
 2600SOL    HW219434   2.720   3.355   0.145  0.4405 -0.0016 -0.1083
 2601SOL     OW19435   0.491   2.867   0.457 -0.2097 -0.1494  0.1606
 2601SOL    HW119436   0.468   2.804   0.525 -1.3066  1.1315  0.9853
 2601SOL    HW219437   0.513   2.812   0.382 -0.6796  0.3716 -0.3523
 2602SOL     OW19438   0.435   2.334   6.029 -0.1809 -0.1278  0.4285
 2602SOL    HW119439   0.417   2.243   6.052 -0.7768 -1.0283 -3.6738
 2602SOL    HW219440   0.503   2.346   6.096  1.8094  3.0589 -2.1331
 2603SOL     OW19441   2.331   3.236   6.606 -0.3050 -0.1091 -0.5983
 2603SOL    HW119442   2.371   3.246   6.519 -1.5716 -1.9074 -1.4048
 2603SOL    HW219443   2.363   3.318   6.644 -1.7342 -0.0900  0.5640
 2604SOL     OW19444   3.395   3.264   5.372  0.2189  0.0983 -0.0246
 2604SOL    HW119445   3.310   3.280   5.415 -1.5057 -4.3275 -1.7694
 2604SOL    HW219446   3.413   3.348   5.330 -0.4013  1.3379  2.1762
 2605SOL     OW19447   1.572   0.522   5.703 -0.5106  0.2749  0.0695
 2605SOL    HW119448   1.588   0.538   5.610 -0.3710  0.9682  0.2137
 2605SOL    HW219449   1.590   0.428   5.707 -0.0911  0.3260 -0.5875
 2606SOL     OW19450   4.301   2.455  13.040 -0.2993 -0.7623  0.3238
 2606SOL    HW119451   4.272   2.516  13.108  1.9607  0.7260 -0.0520
 2606SOL    HW219452   4.388   2.486  13.017  0.1085 -0.4368  2.3033
 2607SOL     OW19453   0.150   4.542   6.659  0.0939  0.1665  0.2280
 2607SOL    HW119454   0.242   4.569   6.661 -0.1749  0.9549  2.2167
 2607SOL    HW219455   0.114   4.588   6.583  0.4264 -0.3001 -0.2102
 2608SOL     OW19456   0.719   3.567  11.020  0.4605  0.1336  0.8938
 2608SOL    HW119457   0.649   3.591  10.960 -0.0469 -0.7507  1.1206
 2608SOL    HW219458   0.796   3.554  10.964  0.1622  0.3830  0.4299
 2609SOL     OW19459   1.359   0.296   7.627 -0.3863  0.1659 -0.3417
 2609SOL    HW119460   1.285   0.244   7.595 -1.6783  0.2828  2.4851
 2609SOL    HW219461   1.346   0.296   7.722 -1.7146 -0.2308 -0.5237
 2610SOL     OW19462   1.265   1.738   1.251 -0.0102  0.1102 -0.9475
 2610SOL    HW119463   1.300   1.654   1.221 -1.1937 -1.1372  1.1788
 2610SOL    HW219464   1.332   1.769   1.312  2.4827 -0.6724 -3.2720
 2611SOL     OW19465   0.469   3.903   5.978 -0.3136  0.1288  0.4957
 2611SOL    HW119466   0.474   3.842   6.052 -1.4297  0.4893  0.8727
 2611SOL    HW219467   0.563   3.920   5.971 -0.2866  0.5470  1.7724
 2612SOL     OW19468   3.429   3.377   4.548 -0.6458 -0.1407 -0.4261
 2612SOL    HW119469   3.422   3.461   4.503  1.4529  0.8256  1.0275
 2612SOL    HW219470   3.406   3.403   4.637  0.1037 -0.2791 -0.1825
 2613SOL     OW19471   2.930   2.996   3.892  0.2963  0.0282 -0.1547
 2613SOL    HW119472   2.924   3.051   3.814  1.0969 -0.9160 -0.8646
 2613SOL    HW219473   2.851   3.025   3.939  0.1007  3.3751 -2.5418
 2614SOL     OW19474   0.708   0.309   6.365  0.0303 -0.8785  0.4213
 2614SOL    HW119475   0.670   0.385   6.321  0.7714 -1.5057 -1.2805
 2614SOL    HW219476   0.648   0.295   6.438  0.9187  1.3768  1.5903
 2615SOL     OW19477   3.275   2.401  15.556 -0.0744  0.5583 -0.1021
 2615SOL    HW119478   3.188   2.395  15.595 -0.3379 -1.6682 -1.0886
 2615SOL    HW219479   3.302   2.309  15.557  1.7600  1.0947  0.6730
 2616SOL     OW19480   4.530   2.964   7.480  0.2015 -0.1099 -0.3689
 2616SOL    HW119481   4.618   2.935   7.503 -0.6340 -0.7817  2.0205
 2616SOL    HW219482   4.512   2.923   7.396  1.6303  0.1462 -0.7975
 2617SOL     OW19483   1.051   1.989   1.716  0.0259  0.3094  0.0271
 2617SOL    HW119484   1.069   1.956   1.628  0.7458 -0.2690  0.3924
 2617SOL    HW219485   1.141   2.015   1.735 -0.3963  0.7301  1.3757
 2618SOL     OW19486   3.735   2.603  17.140  0.2130 -0.5320  0.4206
 2618SOL    HW119487   3.778   2.568  17.062  0.4905 -0.0224  0.3465
 2618SOL    HW219488   3.722   2.525  17.194  1.0959 -0.1108  1.2294
 2619SOL     OW19489   3.902   0.800   4.311 -0.1301 -0.1889 -0.0904
 2619SOL    HW119490   3.835   0.757   4.364  0.0297 -1.1646 -0.6694
 2619SOL    HW219491   3.889   0.770   4.221 -1.1703  3.8143 -1.2706
 2620SOL     OW19492   4.276   3.937  16.450 -0.2818  0.1004 -0.5283
 2620SOL    HW119493   4.290   3.945  16.356  1.3207 -0.5172 -0.3305
 2620SOL    HW219494   4.311   4.022  16.477 -1.5658  0.0964  1.1323
 2621SOL     OW19495   1.862   0.603  15.336  0.2297  0.2959 -0.3018
 2621SOL    HW119496   1.785   0.552  15.313  0.4401  0.0664 -0.5000
 2621SOL    HW219497   1.868   0.666  15.264 -1.5844  0.6725 -0.1287
 2622SOL     OW19498   2.345   0.493   7.096 -0.5681  0.0006  0.3107
 2622SOL    HW119499   2.426   0.532   7.128  0.4016  0.1711 -2.3153
 2622SOL    HW219500   2.294   0.555   7.045 -1.1754  0.3522  1.3534
 2623SOL     OW19501   4.532   4.081   7.979 -0.2274 -0.6054  0.0089
 2623SOL    HW119502   4.562   4.172   7.980 -0.3708 -0.5554 -0.3831
 2623SOL    HW219503   4.491   4.069   7.894  0.6929  0.0562 -0.5253
 2624SOL     OW19504   3.843   0.468   7.232 -0.0060  0.4201 -0.3812
 2624SOL    HW119505   3.937   0.485   7.244  0.3654 -1.9559 -0.0148
 2624SOL    HW219506   3.831   0.501   7.143  0.1789  1.9571  0.1507
 2625SOL     OW19507   3.036   1.799  16.362  0.6496  0.1138  0.5172
 2625SOL    HW119508   3.026   1.736  16.433 -0.1358  0.8029  1.0100
 2625SOL    HW219509   2.990   1.875  16.396  0.5653 -0.1118  0.9002
 2626SOL     OW19510   2.200   1.580   7.753  0.4468 -0.1790 -0.0382
 2626SOL    HW119511   2.247   1.527   7.688  1.8670  2.1302 -0.9028
 2626SOL    HW219512   2.204   1.527   7.833  0.9804  0.9896  0.7181
 2627SOL     OW19513   2.299   2.314  11.466 -0.3628 -0.3500  0.1747
 2627SOL    HW119514   2.378   2.364  11.481  1.8872 -3.7515 -0.3022
 2627SOL    HW219515   2.231   2.374  11.496  0.6235  1.0801 -0.4736
 2628SOL     OW19516   0.372   3.425  11.114  0.2039  0.2816  0.1428
 2628SOL    HW119517   0.386   3.494  11.049 -1.8783  0.5256 -0.0413
 2628SOL    HW219518   0.298   3.378  11.077 -0.8424  2.8377 -1.0070
 2629SOL     OW19519   1.544   0.109   7.191  0.0857  0.6611  0.2573
 2629SOL    HW119520   1.504   0.060   7.119 -0.0362  1.4837 -0.2363
 2629SOL    HW219521   1.585   0.041   7.244 -2.5284 -1.2386 -0.2054
 2630SOL     OW19522   4.362   2.819  13.932  0.3997  0.3611  0.4809
 2630SOL    HW119523   4.348   2.876  13.856  0.6860 -4.2720 -3.0666
 2630SOL    HW219524   4.404   2.741  13.897  1.7525  1.4243 -0.2272
 2631SOL     OW19525   4.618   1.017   2.471 -0.2117 -0.7484  0.8431
 2631SOL    HW119526   4.659   1.074   2.535  0.9834 -0.4528 -0.1796
 2631SOL    HW219527   4.688   1.013   2.405 -1.4381  1.6049 -0.5864
 2632SOL     OW19528   0.651   2.726   0.672  0.2141  0.6574 -0.2221
 2632SOL    HW119529   0.683   2.685   0.592 -1.8449 -2.5556  0.6150
 2632SOL    HW219530   0.563   2.688   0.674  0.7474 -0.5618  0.5496
 2633SOL     OW19531   3.189   0.950  16.652 -0.2269  0.2662 -0.1871
 2633SOL    HW119532   3.193   0.855  16.645  0.3688  0.1628  1.7228
 2633SOL    HW219533   3.164   0.975  16.563 -0.0866  0.9652 -0.0330
 2634SOL     OW19534   2.598   0.052  17.499  0.0421 -0.7063  0.3190
 2634SOL    HW119535   2.504   0.066  17.512 -0.1161 -0.7050 -0.7806
 2634SOL    HW219536   2.585   0.011  17.414 -1.0923  0.6153 -0.1426
 2635SOL     OW19537   2.982   0.992   5.195 -0.0755  0.1313  0.0231
 2635SOL    HW119538   2.890   1.016   5.204 -0.3656 -0.5658 -1.0253
 2635SOL    HW219539   3.016   1.020   5.279 -0.9198  0.4360  0.2672
 2636SOL     OW19540   3.906   4.474  17.116  0.1367 -0.3501  0.6127
 2636SOL    HW119541   3.981   4.475  17.176 -0.0467  0.4536  0.8214
 2636SOL    HW219542   3.855   4.551  17.142 -0.6619 -0.2226 -1.3123
 2637SOL     OW19543   4.082   1.450   3.010 -0.0379  0.1949  0.8674
 2637SOL    HW119544   4.106   1.507   2.938 -1.2308 -0.6882 -0.2204
 2637SOL    HW219545   4.026   1.383   2.970  1.8083 -0.8722  0.0901
 2638SOL     OW19546   4.275   1.538   2.137  0.1490 -0.2823  0.3485
 2638SOL    HW119547   4.254   1.564   2.226 -1.2297  2.4957 -0.7822
 2638SOL    HW219548   4.340   1.604   2.111 -0.6648  0.5265  0.3513
 2639SOL     OW19549   1.515   3.381   0.366 -0.1467 -0.0420 -0.7429
 2639SOL    HW119550   1.555   3.450   0.313 -3.1570  1.3421 -1.2434
 2639SOL    HW219551   1.547   3.405   0.453 -2.8174 -1.4637  0.6500
 2640SOL     OW19552   4.629   1.020  11.939 -0.4083  0.6675 -0.0918
 2640SOL    HW119553   4.604   1.086  12.004  1.3570  1.4511 -0.2204
 2640SOL    HW219554   4.628   1.073  11.860  1.4286  2.7540  1.2753
 2641SOL     OW19555   2.915   3.246   8.559 -0.3093  0.3744 -0.1609
 2641SOL    HW119556   2.862   3.175   8.594  0.2901 -0.4860 -0.9789
 2641SOL    HW219557   2.850   3.291   8.506 -1.2643 -0.4481  0.3102
 2642SOL     OW19558   2.569   2.606   9.456 -0.4648 -0.4584  0.4210
 2642SOL    HW119559   2.603   2.524   9.491  0.8481  0.2606  0.8450
 2642SOL    HW219560   2.483   2.573   9.431  0.2465 -1.3834 -0.7492
 2643SOL     OW19561   1.062   4.517   3.536  0.0439 -0.2484 -0.2128
 2643SOL    HW119562   1.142   4.519   3.484 -1.3753 -0.7098 -2.4203
 2643SOL    HW219563   1.069   4.429   3.573 -0.4476 -0.9930 -1.9294
 2644SOL     OW19564   2.777   3.974  12.842  0.0474  0.5210  0.7928
 2644SOL    HW119565   2.848   3.911  12.848 -0.6182 -0.2115  1.0438
 2644SOL    HW219566   2.821   4.034  12.902  0.7546  0.2178  0.5665
 2645SOL     OW19567   3.097   3.193  13.998 -0.0671 -0.0908 -0.1243
 2645SOL    HW119568   3.156   3.268  13.987 -1.0072  0.8122  0.9432
 2645SOL    HW219569   3.038   3.227  14.065 -2.1024 -1.7289 -1.0833
 2646SOL     OW19570   1.256   0.001  17.101 -0.0398 -0.2583  0.2135
 2646SOL    HW119571   1.254   0.005  17.196  0.3118 -0.1436  0.2151
 2646SOL    HW219572   1.243   4.645  17.079 -0.8236 -0.4745  1.5739
 2647SOL     OW19573   0.946   3.086   5.008 -0.0234  0.3534  0.5987
 2647SOL    HW119574   0.857   3.085   5.044  0.2443  1.3044  1.2883
 2647SOL    HW219575   1.006   3.046   5.071  0.4960 -1.3544 -0.9637
 2648SOL     OW19576   1.231   0.554   2.692 -0.0694  0.1686  0.6086
 2648SOL    HW119577   1.217   0.483   2.631  0.1707  1.5909 -1.0921
 2648SOL    HW219578   1.178   0.516   2.762 -0.3307  1.5372  1.1630
 2649SOL     OW19579   3.305   3.117  16.575 -0.6575  0.5483 -0.0893
 2649SOL    HW119580   3.334   3.027  16.559 -0.0176  0.6386  0.5613
 2649SOL    HW219581   3.328   3.167  16.497 -0.7420  2.1690  0.9330
 2650SOL     OW19582   0.880   2.905   2.046 -0.3043  0.4755  0.1117
 2650SOL    HW119583   0.912   2.842   2.111  0.2114  0.5096 -0.1047
 2650SOL    HW219584   0.787   2.885   2.038 -0.0166 -0.8045 -0.0923
 2651SOL     OW19585   0.910   3.340  13.865 -0.3827  0.2955 -0.3951
 2651SOL    HW119586   0.943   3.415  13.815 -0.5478  0.6436  0.0246
 2651SOL    HW219587   0.996   3.305  13.887 -0.8524 -1.8997 -2.0185
 2652SOL     OW19588   2.084   4.296   0.154  0.1114 -0.3781 -0.2745
 2652SOL    HW119589   2.001   4.249   0.144  0.5659 -0.7249 -2.4714
 2652SOL    HW219590   2.065   4.386   0.127  1.4661 -0.1364 -0.4427
 2653SOL     OW19591   2.001   4.644   8.663  0.1422 -0.1688 -0.4610
 2653SOL    HW119592   1.994   4.734   8.632  0.7684  0.1296  0.2590
 2653SOL    HW219593   2.095   4.631   8.679  0.0761 -1.5414 -1.2107
 2654SOL     OW19594   2.488   3.134   1.050  0.3834 -0.6122 -0.9613
 2654SOL    HW119595   2.452   3.207   1.100  2.4320 -0.3340  0.1407
 2654SOL    HW219596   2.460   3.157   0.962  0.8679  1.5899 -0.5574
 2655SOL     OW19597   1.473   2.246  13.640  0.6005 -0.0513 -0.1443
 2655SOL    HW119598   1.397   2.298  13.668 -0.8637 -0.4328 -3.4148
 2655SOL    HW219599   1.540   2.313  13.627 -0.7259  0.8524 -2.3374
 2656SOL     OW19600   3.187   3.443   2.307  0.5816  0.3050 -0.2383
 2656SOL    HW119601   3.239   3.384   2.362  1.9482  1.2752 -0.4859
 2656SOL    HW219602   3.246   3.456   2.232  0.2047  2.8081 -0.0855
 2657SOL     OW19603   0.939   0.040   4.101  0.5074  0.0136  0.4074
 2657SOL    HW119604   0.884   4.705   4.068 -0.8148  1.8493 -1.3441
 2657SOL    HW219605   0.944   0.020   4.195  2.0021  0.8522  0.5083
 2658SOL     OW19606   3.952   4.410   4.155 -0.1621 -0.0224 -0.3390
 2658SOL    HW119607   3.941   4.423   4.250  1.9518 -1.4966  0.1093
 2658SOL    HW219608   3.891   4.336   4.158 -1.1511  0.9319  3.2548
 2659SOL     OW19609   3.879   0.804   5.873  0.3201  0.2053 -0.1540
 2659SOL    HW119610   3.927   0.838   5.797 -0.0355  0.4758 -0.2565
 2659SOL    HW219611   3.790   0.824   5.844 -0.2337 -1.0258  0.7087
 2660SOL     OW19612   4.225   2.065  12.437 -0.6008  0.0330 -0.5246
 2660SOL    HW119613   4.163   2.067  12.364  0.6703 -3.7388 -1.7019
 2660SOL    HW219614   4.195   2.143  12.484  3.5523  1.4925 -0.3114
 2661SOL     OW19615   2.933   0.083   5.555  0.7297 -0.3463  0.2164
 2661SOL    HW119616   2.905   4.736   5.519  0.5656  0.2288 -1.0109
 2661SOL    HW219617   3.027   0.084   5.534  1.3978 -0.0624  3.2068
 2662SOL     OW19618   1.988   1.856   8.808  0.3704  0.0013  0.1159
 2662SOL    HW119619   1.901   1.873   8.771  1.0281 -0.1847 -1.5144
 2662SOL    HW219620   1.997   1.766   8.779 -0.6565 -0.5605  1.5186
 2663SOL     OW19621   2.625   1.025   0.302 -0.5273 -0.6628 -0.2327
 2663SOL    HW119622   2.661   1.109   0.330  0.6569 -1.3709  0.3405
 2663SOL    HW219623   2.629   0.974   0.383 -0.5419  0.5562  0.5413
 2664SOL     OW19624   1.403   3.787   6.706  0.1697  0.2475  0.0633
 2664SOL    HW119625   1.311   3.759   6.702 -0.3985  1.9914  0.8919
 2664SOL    HW219626   1.431   3.755   6.621  0.2663 -1.2857  0.6831
 2665SOL     OW19627   3.131   1.352   6.111 -0.3082 -0.2316 -0.1045
 2665SOL    HW119628   3.154   1.412   6.041 -0.3709  0.6586  0.6334
 2665SOL    HW219629   3.188   1.381   6.182 -1.0790  1.8578 -0.3572
 2666SOL     OW19630   1.764   4.141   1.505 -0.1968 -0.0480  0.3069
 2666SOL    HW119631   1.818   4.204   1.458 -0.2453 -0.6867 -0.6056
 2666SOL    HW219632   1.815   4.061   1.494 -0.5732  0.1184 -2.6640
 2667SOL     OW19633   4.474   2.234   9.065  0.6427  0.4219  0.1452
 2667SOL    HW119634   4.424   2.234   9.147 -1.7489  1.3852 -1.3070
 2667SOL    HW219635   4.417   2.179   9.013  0.8458  0.6723 -0.3405
 2668SOL     OW19636   2.669   0.527  14.117 -0.0584 -0.3260 -0.3043
 2668SOL    HW119637   2.606   0.559  14.181 -0.6712  0.5440 -1.3486
 2668SOL    HW219638   2.620   0.520  14.035  0.6915 -2.9634 -0.5260
 2669SOL     OW19639   4.021   0.373   5.498  0.2870 -0.4979  0.0034
 2669SOL    HW119640   4.008   0.384   5.403 -0.8516 -2.3681 -0.0617
 2669SOL    HW219641   4.021   0.462   5.533  1.4610 -0.1667 -0.8471
 2670SOL     OW19642   4.360   4.198   6.700 -0.4923  0.2119 -0.4036
 2670SOL    HW119643   4.300   4.265   6.667  0.5431  2.1062  1.5844
 2670SOL    HW219644   4.437   4.245   6.734  0.5505 -1.6102 -0.2337
 2671SOL     OW19645   0.743   1.061  14.069  0.2831  0.2074  0.6600
 2671SOL    HW119646   0.812   0.996  14.076  0.6487  0.2953 -2.3581
 2671SOL    HW219647   0.685   1.025  14.137  1.0731  2.9450  2.8111
 2672SOL     OW19648   3.160   1.437  14.984 -0.2441  0.2758 -0.6545
 2672SOL    HW119649   3.190   1.351  14.955 -2.9711 -1.2879  1.1225
 2672SOL    HW219650   3.235   1.488  14.953  0.4803 -0.6782 -0.4726
 2673SOL     OW19651   0.189   0.231  13.539 -0.7239  0.6797  0.0448
 2673SOL    HW119652   0.210   0.265  13.452 -2.1613  1.1167 -0.1290
 2673SOL    HW219653   0.094   0.222  13.538 -0.7476  0.8705  0.8810
 2674SOL     OW19654   2.671   3.695  17.274 -0.1006 -0.0398  0.2888
 2674SOL    HW119655   2.631   3.713  17.359 -2.7035 -0.1866 -0.9080
 2674SOL    HW219656   2.627   3.617  17.240 -2.4337  1.4041 -0.0316
 2675SOL     OW19657   3.074   0.751   7.681 -0.1332  0.1579 -0.2613
 2675SOL    HW119658   3.141   0.805   7.724  1.1398 -1.1607 -0.5890
 2675SOL    HW219659   3.030   0.718   7.760 -1.7506 -0.5882 -1.4947
 2676SOL     OW19660   2.476   4.158  11.206  0.3900 -0.4573 -0.3271
 2676SOL    HW119661   2.508   4.111  11.282  3.9830  2.0205 -0.3437
 2676SOL    HW219662   2.386   4.176  11.233  0.5974  0.5373 -0.3025
 2677SOL     OW19663   4.185   4.667  16.877 -0.1468  0.6969  0.0722
 2677SOL    HW119664   4.190   0.015  16.921 -1.0852  0.6522  0.2767
 2677SOL    HW219665   4.216   4.670  16.787  0.7681 -0.2009  0.3621
 2678SOL     OW19666   4.483   2.626  13.752  0.2293 -0.3933  0.7492
 2678SOL    HW119667   4.552   2.569  13.719 -0.5892 -0.8714 -0.1439
 2678SOL    HW219668   4.403   2.574  13.747 -0.0031 -0.1772  2.2282
 2679SOL     OW19669   4.703   1.190   8.119  0.0218 -0.1735  0.4605
 2679SOL    HW119670   0.052   1.199   8.075 -0.5976 -0.1937 -0.7464
 2679SOL    HW219671   4.639   1.195   8.048 -1.0970  1.9899  1.6576
 2680SOL     OW19672   4.302   2.699  15.879  0.0935  0.3897  0.6115
 2680SOL    HW119673   4.325   2.754  15.804 -3.3663 -2.8304 -2.7959
 2680SOL    HW219674   4.232   2.644  15.843 -0.3097  0.7608  0.8257
 2681SOL     OW19675   1.705   4.073   6.983 -0.8410  0.2458 -0.1653
 2681SOL    HW119676   1.710   4.168   6.987 -0.3934  0.2321 -0.4120
 2681SOL    HW219677   1.665   4.048   6.899  0.8915  1.8655 -1.4585
 2682SOL     OW19678   4.305   3.685  13.509  0.1646 -0.3151 -0.3869
 2682SOL    HW119679   4.373   3.630  13.469 -1.2447 -0.9360 -1.9093
 2682SOL    HW219680   4.353   3.731  13.578  0.3739  0.1956 -0.8713
 2683SOL     OW19681   1.474   4.020  13.919  0.4400 -0.2802 -0.2671
 2683SOL    HW119682   1.478   4.107  13.959 -0.0407  0.7676 -2.4913
 2683SOL    HW219683   1.530   4.015  13.842  0.3875 -1.4176 -0.2209
 2684SOL     OW19684   3.364   1.921   4.097 -0.1552 -0.4810 -0.1514
 2684SOL    HW119685   3.459   1.911   4.106  0.2528  4.0295  0.4041
 2684SOL    HW219686   3.344   1.941   4.189  0.8229  0.3519 -0.1240
 2685SOL     OW19687   0.899   1.576  10.013 -0.4107 -0.2593  0.6779
 2685SOL    HW119688   0.944   1.659   9.996  2.4769 -1.6021  1.5603
 2685SOL    HW219689   0.855   1.565   9.929  0.7919  0.6666 -0.0851
 2686SOL     OW19690   2.773   0.735  16.018 -0.0186  0.1322 -0.1970
 2686SOL    HW119691   2.708   0.798  16.050 -0.7239  0.7551 -2.9346
 2686SOL    HW219692   2.799   0.700  16.103  1.3396 -0.5684 -0.9087
 2687SOL     OW19693   0.111   1.204   2.021  0.4273  0.1717  0.3126
 2687SOL    HW119694   0.074   1.270   1.963  1.4569  0.6842  0.2435
 2687SOL    HW219695   0.188   1.248   2.054  1.7718 -1.8399 -0.1120
 2688SOL     OW19696   1.814   4.449   4.981  0.0696  0.4652  0.2771
 2688SOL    HW119697   1.759   4.502   4.923 -0.3360 -1.6014 -1.1925
 2688SOL    HW219698   1.841   4.504   5.055  1.8950  3.2893 -2.4928
 2689SOL     OW19699   3.476   0.437  17.006 -0.7174 -0.0101 -0.0887
 2689SOL    HW119700   3.387   0.402  17.007 -0.8844  0.3230 -1.8534
 2689SOL    HW219701   3.532   0.360  17.018 -0.9455 -0.0297  0.8292
 2690SOL     OW19702   3.652   4.172   5.551  0.0489 -0.3547 -0.1980
 2690SOL    HW119703   3.573   4.148   5.601  0.3904 -1.6963 -0.3017
 2690SOL    HW219704   3.632   4.265   5.543  0.6864 -0.0450  1.8335
 2691SOL     OW19705   3.638   3.579   1.693  0.1883 -0.1518 -0.3194
 2691SOL    HW119706   3.580   3.528   1.750  0.9658  0.5467  1.1018
 2691SOL    HW219707   3.690   3.506   1.663  3.3703  1.4536  1.2983
 2692SOL     OW19708   3.531   1.168   7.958 -0.0378 -0.4148 -0.6463
 2692SOL    HW119709   3.508   1.157   7.865  1.0538 -1.0708 -0.8425
 2692SOL    HW219710   3.606   1.227   7.948  0.1536 -0.7832 -1.4034
 2693SOL     OW19711   4.293   3.480   8.636 -0.0123 -0.3584 -0.0789
 2693SOL    HW119712   4.376   3.523   8.656 -0.3939  0.6996 -0.7917
 2693SOL    HW219713   4.330   3.402   8.595 -0.3476 -1.0518  0.9503
 2694SOL     OW19714   3.257   3.643  17.565 -0.3204  0.0575 -0.0585
 2694SOL    HW119715   3.182   3.697  17.537 -0.8210  0.0156  1.1617
 2694SOL    HW219716   3.323   3.703  17.599  0.4531 -1.3435  0.8931
 2695SOL     OW19717   3.684   3.534   2.627  0.1956  0.0131 -0.1992
 2695SOL    HW119718   3.771   3.510   2.598  0.7805 -0.3542  1.8713
 2695SOL    HW219719   3.695   3.629   2.622 -1.3266  0.2582  0.9857
 2696SOL     OW19720   0.522   2.033   9.014  0.2061 -0.1958 -0.1392
 2696SOL    HW119721   0.550   1.998   8.930  0.4035 -2.5044  0.8864
 2696SOL    HW219722   0.427   2.031   9.001  0.1234 -0.7513  0.5248
 2697SOL     OW19723   2.333   0.953   3.122 -0.2818 -1.1108  0.5773
 2697SOL    HW119724   2.288   0.882   3.077 -2.3587  0.1438  0.6927
 2697SOL    HW219725   2.263   1.000   3.166 -0.7352  1.4638 -2.8813
 2698SOL     OW19726   4.177   4.698   2.732  0.3145  0.2590 -0.4011
 2698SOL    HW119727   4.200   4.617   2.686  0.1866 -0.0156  0.0115
 2698SOL    HW219728   4.214   0.021   2.667  3.2458 -2.3279 -1.1356
 2699SOL     OW19729   1.797   0.048   5.885  0.5176  0.3655  0.0466
 2699SOL    HW119730   1.877   0.004   5.914  1.6567  0.6657 -2.6664
 2699SOL    HW219731   1.730   4.716   5.878  0.7002  0.2089 -0.1666
 2700SOL     OW19732   3.080   3.951   8.369  0.0898  0.0367 -0.0495
 2700SOL    HW119733   3.024   3.987   8.300 -0.0521  0.6399  0.3821
 2700SOL    HW219734   3.143   3.901   8.318  0.7627  0.0860  0.7247
 2701SOL     OW19735   4.441   0.281  12.876  0.5688 -0.2670 -0.3347
 2701SOL    HW119736   4.394   0.198  12.872 -1.2050  0.8493 -2.7685
 2701SOL    HW219737   4.503   0.293  12.804  2.0096 -0.5697  0.8506
 2702SOL     OW19738   2.184   0.715   3.067 -0.6942  0.0138 -0.4778
 2702SOL    HW119739   2.205   0.627   3.097  0.1134 -0.4599 -2.4905
 2702SOL    HW219740   2.194   0.705   2.973 -0.8393  2.3151 -0.7383
 2703SOL     OW19741   3.935   3.994   9.920  0.2490  0.0492 -0.2508
 2703SOL    HW119742   3.999   3.973   9.988  0.1006 -0.8113 -0.3674
 2703SOL    HW219743   3.959   3.925   9.858 -0.1856 -1.2988  1.0793
 2704SOL     OW19744   4.506   1.199  12.107 -0.0253 -0.0519 -0.6879
 2704SOL    HW119745   4.413   1.214  12.090 -0.3550 -0.4290  0.8280
 2704SOL    HW219746   4.527   1.283  12.148  0.0575 -0.6768  0.5468
 2705SOL     OW19747   0.798   2.832   3.782  0.1634  0.1629 -0.0399
 2705SOL    HW119748   0.771   2.789   3.863 -2.6603  0.2953 -0.8962
 2705SOL    HW219749   0.745   2.912   3.788  0.7160  0.4285  1.3154
 2706SOL     OW19750   3.147   1.663   1.804  0.7227 -0.1211  0.5621
 2706SOL    HW119751   3.091   1.740   1.796  1.7669  0.7965  2.0664
 2706SOL    HW219752   3.150   1.643   1.898  0.8365  0.8548  0.7645
 2707SOL     OW19753   4.591   1.271  14.801  0.9750  0.2118  0.2065
 2707SOL    HW119754   4.613   1.326  14.726 -2.0873 -0.4042 -1.1169
 2707SOL    HW219755   4.575   1.350  14.854  0.6632  1.2756 -1.4666
 2708SOL     OW19756   4.017   2.052   4.873 -0.1703 -0.5539  0.1742
 2708SOL    HW119757   4.035   2.029   4.964  0.6010 -0.1531  0.1254
 2708SOL    HW219758   4.078   1.993   4.830  2.0849  1.5202  0.5193
 2709SOL     OW19759   1.471   4.678   2.174 -0.1029  0.2356 -0.6807
 2709SOL    HW119760   1.404   0.007   2.155  0.3936  0.6089 -1.1336
 2709SOL    HW219761   1.545   4.714   2.127  0.4257  2.2235  1.7041
 2710SOL     OW19762   1.542   1.472   1.592  0.1874  0.5848  0.2298
 2710SOL    HW119763   1.576   1.560   1.608  0.0113  0.3743  1.7406
 2710SOL    HW219764   1.523   1.443   1.681 -1.4589  1.3802  0.1475
 2711SOL     OW19765   0.592   3.176   8.761 -0.2824  0.2351 -0.3112
 2711SOL    HW119766   0.576   3.220   8.678  2.2130 -1.7579 -1.8508
 2711SOL    HW219767   0.676   3.208   8.795  0.5881 -0.5364 -1.7379
 2712SOL     OW19768   2.388   3.483  13.897  0.1334  0.0027 -0.1444
 2712SOL    HW119769   2.407   3.572  13.865 -1.5766  0.3617 -0.1980
 2712SOL    HW219770   2.341   3.440  13.825 -0.2216 -1.5258  1.0013
 2713SOL     OW19771   0.693   4.537   8.898 -0.3383  0.0932 -0.2049
 2713SOL    HW119772   0.714   4.552   8.806 -0.6922  0.4960 -0.2219
 2713SOL    HW219773   0.645   4.454   8.895 -1.4711  0.6078  2.9110
 2714SOL     OW19774   2.770   0.607   7.803  0.0717 -0.1670  0.4259
 2714SOL    HW119775   2.834   0.539   7.782 -1.1271 -0.9032 -0.9312
 2714SOL    HW219776   2.820   0.687   7.789  0.0826 -0.3756 -0.7288
 2715SOL     OW19777   1.115   1.823  11.827 -0.3372  0.6578  0.0801
 2715SOL    HW119778   1.172   1.754  11.859  0.2736  1.0512 -0.1594
 2715SOL    HW219779   1.082   1.783  11.746  1.8903 -0.1558 -0.4205
 2716SOL     OW19780   3.900   4.494   6.290  0.6146 -0.3238 -0.7525
 2716SOL    HW119781   3.939   4.494   6.203 -2.6286  3.3516 -2.1967
 2716SOL    HW219782   3.809   4.502   6.264  0.9449  1.0574 -1.5196
 2717SOL     OW19783   2.690   1.853   8.544 -0.2368 -0.3718 -0.3174
 2717SOL    HW119784   2.720   1.832   8.633 -2.8221  1.9838  1.1175
 2717SOL    HW219785   2.598   1.875   8.559  0.4873  1.2814  1.6396
 2718SOL     OW19786   3.143   0.195   7.775  0.2838  0.5422  0.9146
 2718SOL    HW119787   3.227   0.231   7.803 -1.2508  5.3088 -0.7202
 2718SOL    HW219788   3.109   0.154   7.855  0.4599  1.6639  1.5691
 2719SOL     OW19789   1.213   2.321   3.345  0.3019  0.6772  0.4159
 2719SOL    HW119790   1.281   2.349   3.284  0.3570 -1.2448 -0.3996
 2719SOL    HW219791   1.202   2.230   3.317  0.3459  0.8868 -0.2728
 2720SOL     OW19792   4.288   3.724   5.917  0.3400 -0.2478  0.3191
 2720SOL    HW119793   4.241   3.801   5.886  0.7074 -0.5618 -1.0037
 2720SOL    HW219794   4.246   3.650   5.874 -0.5554  1.4795 -1.7212
 2721SOL     OW19795   0.497   2.253   3.585 -0.5168 -0.5081 -0.0285
 2721SOL    HW119796   0.403   2.235   3.580 -0.5237 -0.6775  0.6705
 2721SOL    HW219797   0.494   2.345   3.612  0.4168 -0.0544 -1.4564
 2722SOL     OW19798   0.220   3.289  14.159  0.3080 -0.1674  0.4897
 2722SOL    HW119799   0.125   3.293  14.167  0.3300  2.5990 -0.6928
 2722SOL    HW219800   0.249   3.327  14.241 -0.7730  1.4135  0.1231
 2723SOL     OW19801   1.240   0.267   0.578  0.4285 -0.1158  0.4106
 2723SOL    HW119802   1.281   0.239   0.496 -1.6043  0.7400 -0.9209
 2723SOL    HW219803   1.307   0.236   0.639  1.3704  1.3709  0.1337
 2724SOL     OW19804   2.479   3.949   6.045  0.0895 -0.2897  0.6772
 2724SOL    HW119805   2.572   3.929   6.056  0.3150 -1.1486 -2.7641
 2724SOL    HW219806   2.482   4.025   5.986  1.0378 -0.2785  0.7468
 2725SOL     OW19807   1.432   1.740   5.015 -0.2329  0.1285 -0.3510
 2725SOL    HW119808   1.346   1.700   5.021 -0.7755  1.1686 -1.1602
 2725SOL    HW219809   1.414   1.829   4.983  1.0756 -0.3767 -2.5006
 2726SOL     OW19810   2.474   2.413   6.559  0.5518 -0.7227  0.3458
 2726SOL    HW119811   2.435   2.396   6.644  0.5076  0.7389  0.6078
 2726SOL    HW219812   2.427   2.495   6.544  3.7174  1.3846  1.8450
 2727SOL     OW19813   3.351   3.975   3.702 -0.7836  0.4451  0.0661
 2727SOL    HW119814   3.365   3.953   3.794 -1.1233 -0.0353  0.0032
 2727SOL    HW219815   3.272   4.029   3.697 -0.5080  0.5537 -2.9341
 2728SOL     OW19816   3.821   0.249  13.973 -0.1237  0.3275  0.2004
 2728SOL    HW119817   3.873   0.190  14.027  0.6092  1.1213  0.3547
 2728SOL    HW219818   3.796   0.190  13.902  0.0861  1.0863 -0.5152
 2729SOL     OW19819   3.623   1.962  13.655  0.4686 -0.6055 -0.2381
 2729SOL    HW119820   3.675   1.886  13.629  0.7238 -0.2027 -0.9067
 2729SOL    HW219821   3.539   1.917  13.662 -0.0940  0.3375 -0.9048
 2730SOL     OW19822   0.581   0.021   4.619  0.2470 -0.2308  0.1195
 2730SOL    HW119823   0.558   4.664   4.619  1.8898 -0.6291  1.7297
 2730SOL    HW219824   0.610   0.020   4.527 -0.5168  0.5087 -0.1286
 2731SOL     OW19825   3.642   3.512   3.841  0.1671 -0.0040 -0.1434
 2731SOL    HW119826   3.663   3.605   3.833  2.6317 -0.5118  0.3898
 2731SOL    HW219827   3.635   3.491   3.748 -0.6081  0.8859 -0.2792
 2732SOL     OW19828   3.989   1.092   5.630 -0.6927 -0.3224  0.8496
 2732SOL    HW119829   4.018   1.024   5.690 -2.5709 -0.6420  1.3960
 2732SOL    HW219830   4.022   1.058   5.546  1.9199  1.7253  1.0492
 2733SOL     OW19831   4.619   3.503  17.014  0.3014  0.5584  0.8135
 2733SOL    HW119832   4.617   3.595  17.041 -0.0164  1.0296 -0.8272
 2733SOL    HW219833   4.667   3.469  17.090 -0.0364 -2.8335 -0.5142
 2734SOL     OW19834   1.706   0.957   0.204  0.6904  0.0166 -0.4695
 2734SOL    HW119835   1.614   0.968   0.179 -0.6373 -0.4820  4.1610
 2734SOL    HW219836   1.741   1.042   0.230  0.1906  0.1854 -0.3503
 2735SOL     OW19837   4.721   0.457   2.216  0.1515 -0.2392 -0.5989
 2735SOL    HW119838   0.021   0.493   2.136  4.0017  0.6565  1.5460
 2735SOL    HW219839   4.734   0.536   2.270 -0.4535 -0.7209  0.2551
 2736SOL     OW19840   4.520   3.564  13.376  1.0755  0.0242 -0.1989
 2736SOL    HW119841   4.513   3.521  13.291  2.7028 -0.5281 -0.0686
 2736SOL    HW219842   4.585   3.630  13.352  1.4977 -0.4710 -0.4174
 2737SOL     OW19843   1.030   2.552   3.346 -0.0138 -0.4142 -0.1343
 2737SOL    HW119844   1.094   2.484   3.325  3.2644  1.9691  2.2575
 2737SOL    HW219845   1.079   2.618   3.394  1.6091  0.3017 -2.7728
 2738SOL     OW19846   1.485   2.829   4.916 -0.1816 -0.6030  0.3437
 2738SOL    HW119847   1.434   2.907   4.891 -1.3963 -0.4940  3.1586
 2738SOL    HW219848   1.562   2.839   4.861  0.6013 -0.4722  1.4609
 2739SOL     OW19849   3.471   3.495   2.399 -0.2891 -0.9471  0.3686
 2739SOL    HW119850   3.429   3.578   2.419  0.9995 -0.3306  0.5295
 2739SOL    HW219851   3.533   3.499   2.472  0.6796  2.3195 -0.6308
 2740SOL     OW19852   3.309   4.358   6.509  0.8824  0.3996  0.4082
 2740SOL    HW119853   3.249   4.370   6.582  0.6419 -2.1841  0.6627
 2740SOL    HW219854   3.277   4.432   6.458 -1.1525 -1.8103 -1.5525
 2741SOL     OW19855   1.789   0.491   7.854 -0.2925  0.8732  0.1615
 2741SOL    HW119856   1.766   0.484   7.761 -1.7240  1.4303  0.4752
 2741SOL    HW219857   1.805   0.585   7.848 -0.2775  0.9282  1.1363
 2742SOL     OW19858   3.908   4.091  13.916  0.0383  0.1343 -0.0032
 2742SOL    HW119859   3.814   4.081  13.902  0.5063 -1.2175 -2.3648
 2742SOL    HW219860   3.912   4.065  14.008  1.5271  0.8129  0.1109
 2743SOL     OW19861   2.229   1.629   3.496 -0.1254 -0.2636 -0.0776
 2743SOL    HW119862   2.318   1.636   3.531  0.8364  0.3591 -2.6186
 2743SOL    HW219863   2.217   1.720   3.468 -0.0730  0.6294  2.8458
 2744SOL     OW19864   2.325   3.702   5.038 -0.1131  0.3168  0.6061
 2744SOL    HW119865   2.251   3.735   4.986  0.5263 -0.2902 -0.7075
 2744SOL    HW219866   2.386   3.772   5.013 -1.1057 -0.2386 -3.3929
 2745SOL     OW19867   0.170   2.453   9.618  0.0533  0.0985  0.6902
 2745SOL    HW119868   0.129   2.373   9.651  1.2967 -1.3820 -1.3871
 2745SOL    HW219869   0.115   2.512   9.670 -2.3680 -0.9510 -0.7175
 2746SOL     OW19870   2.499   1.751   7.626 -0.2532 -0.7649  0.6889
 2746SOL    HW119871   2.518   1.657   7.631 -0.9668 -0.9938 -0.8153
 2746SOL    HW219872   2.406   1.746   7.648  0.0447 -0.8426  1.9168
 2747SOL     OW19873   4.433   3.385   7.527  0.0977  0.1068  0.0363
 2747SOL    HW119874   4.394   3.300   7.547 -0.0189 -0.1873 -1.4266
 2747SOL    HW219875   4.515   3.351   7.489 -0.8450 -0.5282 -1.4096
 2748SOL     OW19876   3.136   1.850  15.183 -0.2108 -0.3065  0.3484
 2748SOL    HW119877   3.183   1.771  15.156  0.9557 -0.0497  1.6333
 2748SOL    HW219878   3.059   1.837  15.127  0.2829 -1.3977 -0.0781
 2749SOL     OW19879   4.193   3.550   7.999 -0.2203 -0.4721 -0.1469
 2749SOL    HW119880   4.130   3.478   8.005 -2.5776  1.6089  0.0962
 2749SOL    HW219881   4.178   3.583   7.910  1.1674 -2.5894 -1.1647
 2750SOL     OW19882   0.005   0.498  12.488  0.3897  0.3729 -0.6454
 2750SOL    HW119883   4.712   0.589  12.493 -0.9047 -0.1010  0.3261
 2750SOL    HW219884   0.094   0.499  12.454 -0.2295  0.2828 -2.2367
 2751SOL     OW19885   1.999   3.502   9.103  0.2063  0.2822 -0.9704
 2751SOL    HW119886   2.075   3.454   9.137 -0.6278  0.1065  0.6949
 2751SOL    HW219887   1.959   3.528   9.186  2.7210  0.2953  0.2378
 2752SOL     OW19888   4.525   3.116   4.575 -0.1289  0.1061 -0.3324
 2752SOL    HW119889   4.491   3.073   4.497  0.2361  0.1042 -0.4899
 2752SOL    HW219890   4.612   3.077   4.574  0.7446  2.0482  0.6918
 2753SOL     OW19891   3.060   3.780   9.654 -0.4650  0.0211 -0.5309
 2753SOL    HW119892   3.144   3.749   9.620 -1.2625 -1.5250 -1.0929
 2753SOL    HW219893   2.998   3.743   9.591 -2.0730  3.1222 -0.8071
 2754SOL     OW19894   2.180   0.104   9.772 -0.0189 -0.1698  0.2563
 2754SOL    HW119895   2.238   0.140   9.840 -0.6945  2.1693 -0.3809
 2754SOL    HW219896   2.107   0.094   9.833  0.8180  1.1068  1.4695
 2755SOL     OW19897   2.266   0.414  10.124  0.1930 -0.3950 -0.6482
 2755SOL    HW119898   2.330   0.435  10.192 -0.0147  1.1173 -0.9021
 2755SOL    HW219899   2.191   0.464  10.157  1.9331  0.9758  1.2471
 2756SOL     OW19900   3.984   0.058   9.800 -0.9329  0.4436 -0.0314
 2756SOL    HW119901   3.976   4.705   9.767  1.0736  0.7744 -1.3902
 2756SOL    HW219902   3.966   0.042   9.893  2.7270 -1.4270  0.3682
 2757SOL     OW19903   4.526   3.451   1.481 -0.1976  0.4809 -0.5257
 2757SOL    HW119904   4.435   3.423   1.485 -0.1342  0.5103  1.1647
 2757SOL    HW219905   4.580   3.375   1.503 -3.2495 -1.9237 -1.5049
 2758SOL     OW19906   1.050   1.896   5.888 -0.0110 -0.1234  0.4113
 2758SOL    HW119907   1.117   1.890   5.956 -2.6178 -0.2732  2.9917
 2758SOL    HW219908   1.097   1.888   5.805  0.8217  2.3087  0.6421
 2759SOL     OW19909   1.163   1.451   0.970  0.2593 -0.2033  0.0297
 2759SOL    HW119910   1.144   1.544   0.959  0.2964 -0.0421  1.3938
 2759SOL    HW219911   1.119   1.412   0.895  2.2546 -1.6767 -0.3880
 2760SOL     OW19912   0.237   2.726   2.277  0.5926  0.2552  0.4823
 2760SOL    HW119913   0.322   2.767   2.288  0.4819  0.4243  0.7267
 2760SOL    HW219914   0.184   2.768   2.346  0.0275 -0.3454  0.4219
 2761SOL     OW19915   2.461   2.181   8.169 -0.5019  0.1631  0.5917
 2761SOL    HW119916   2.532   2.193   8.105 -1.0621 -2.1109 -0.4358
 2761SOL    HW219917   2.511   2.212   8.244  1.4820  0.7215 -0.9402
 2762SOL     OW19918   0.844   2.459   2.488 -0.5092 -0.2851  0.3727
 2762SOL    HW119919   0.857   2.415   2.572  0.2181  1.3036  1.0860
 2762SOL    HW219920   0.773   2.407   2.449  1.3224 -1.9740 -0.6773
 2763SOL     OW19921   4.015   4.117   7.651  0.4684  0.2761 -0.4731
 2763SOL    HW119922   3.997   4.205   7.684 -1.9253 -0.4292  0.1587
 2763SOL    HW219923   4.105   4.110   7.620 -0.1402 -2.3021 -1.6006
 2764SOL     OW19924   2.991   3.748  11.287 -0.1514 -0.4051  0.2245
 2764SOL    HW119925   2.950   3.772  11.370 -0.5130 -0.3939  0.0451
 2764SOL    HW219926   2.938   3.800  11.227 -0.8356 -0.5338  0.7057
 2765SOL     OW19927   1.905   4.205  12.600  0.0399 -0.3750 -0.5143
 2765SOL    HW119928   1.957   4.142  12.551 -1.5174 -1.2252 -1.0892
 2765SOL    HW219929   1.965   4.233  12.669 -0.6466  0.4493 -0.2507
 2766SOL     OW19930   2.061   3.987  12.567  0.4064  0.4169 -0.7538
 2766SOL    HW119931   1.994   3.925  12.597  0.8198  0.6337  0.6442
 2766SOL    HW219932   2.134   3.924  12.569  0.2731  0.3677  2.4853
 2767SOL     OW19933   0.207   3.718   7.636  0.4846  0.0029 -0.2958
 2767SOL    HW119934   0.119   3.706   7.673  1.2213  1.7111  1.9856
 2767SOL    HW219935   0.184   3.749   7.548  0.1609 -0.1912 -0.2795
 2768SOL     OW19936   1.693   4.164   2.687  0.2026 -0.8349  0.5283
 2768SOL    HW119937   1.658   4.076   2.694  0.7545 -1.1021 -0.0393
 2768SOL    HW219938   1.608   4.205   2.672  1.1886  0.5385 -1.4009
 2769SOL     OW19939   3.541   1.073   7.128  0.3265  0.3322 -0.1593
 2769SOL    HW119940   3.555   1.046   7.037 -0.7085 -0.3111 -0.1294
 2769SOL    HW219941   3.587   1.157   7.132  1.5311 -0.3241 -0.2662
 2770SOL     OW19942   4.531   0.515  14.608  0.0817 -0.1835  0.9383
 2770SOL    HW119943   4.509   0.475  14.692 -0.0957 -2.4915 -0.1880
 2770SOL    HW219944   4.489   0.455  14.545 -0.8439  1.0251  0.4166
 2771SOL     OW19945   1.910   0.386   6.391 -0.5614 -0.0682 -0.2895
 2771SOL    HW119946   1.983   0.361   6.448 -1.3245  1.7474  1.4521
 2771SOL    HW219947   1.952   0.467   6.360 -1.3631  0.3443 -0.3038
 2772SOL     OW19948   3.740   3.209   7.182 -0.2422  0.2508  0.1628
 2772SOL    HW119949   3.757   3.187   7.091  2.8523 -0.4518  0.8853
 2772SOL    HW219950   3.809   3.164   7.232  2.5319  3.3913 -0.8134
 2773SOL     OW19951   2.736   4.713   9.136  0.4503 -0.0611 -0.0906
 2773SOL    HW119952   2.755   4.620   9.144  0.3556 -0.1406 -0.7979
 2773SOL    HW219953   2.772   0.010   9.219  1.1216 -2.1181  0.4378
 2774SOL     OW19954   1.356   3.258  14.372  0.2590  0.3242 -0.4387
 2774SOL    HW119955   1.416   3.290  14.305 -0.1022 -0.3102 -1.0652
 2774SOL    HW219956   1.293   3.330  14.364  0.3366  0.6656  2.1889
 2775SOL     OW19957   0.248   2.828   3.954 -0.5239  0.4919 -0.1629
 2775SOL    HW119958   0.177   2.809   3.893 -0.2254 -0.4181 -0.2291
 2775SOL    HW219959   0.227   2.750   4.006 -0.7205 -0.8975 -2.3179
 2776SOL     OW19960   2.530   4.187   2.504  0.1946  0.1147  0.0404
 2776SOL    HW119961   2.454   4.178   2.562  1.0445  1.5181  1.3862
 2776SOL    HW219962   2.601   4.153   2.558 -1.4268 -0.1131  2.0101
 2777SOL     OW19963   4.504   3.070   4.306  0.0164 -0.0063  0.2740
 2777SOL    HW119964   4.444   3.065   4.232  2.7826  0.7778 -2.0227
 2777SOL    HW219965   4.505   2.976   4.320  0.2365 -0.1325 -0.6367
 2778SOL     OW19966   1.174   3.279   8.213 -0.1541 -0.5360 -0.3126
 2778SOL    HW119967   1.087   3.288   8.253  0.3148 -3.2546  1.3573
 2778SOL    HW219968   1.154   3.298   8.122  1.5672  1.2321 -0.3243
 2779SOL     OW19969   3.564   1.564   8.665 -0.2849  0.3544 -0.4437
 2779SOL    HW119970   3.551   1.638   8.605  1.2262  0.2852 -0.8690
 2779SOL    HW219971   3.541   1.496   8.601  0.2814  1.5100 -1.9007
 2780SOL     OW19972   3.857   4.033   2.519 -0.4765  0.3667 -0.0932
 2780SOL    HW119973   3.805   4.107   2.550 -1.3900  0.4039 -1.6949
 2780SOL    HW219974   3.785   3.971   2.504 -1.9805  2.0125  0.2316
 2781SOL     OW19975   3.486   1.535   6.448 -0.2375  0.0251  0.4751
 2781SOL    HW119976   3.570   1.573   6.425  0.7995 -0.9140  2.7184
 2781SOL    HW219977   3.515   1.464   6.505 -1.0556 -1.0254 -0.4149
 2782SOL     OW19978   1.660   0.259   6.021  0.1146  0.3365  0.3517
 2782SOL    HW119979   1.621   0.271   5.934 -0.6651 -0.0188  0.6566
 2782SOL    HW219980   1.728   0.199   5.989  0.3856 -0.3854  2.3369
 2783SOL     OW19981   4.020   2.100   3.816  0.5838  0.1387 -0.3151
 2783SOL    HW119982   4.030   2.011   3.848 -1.3935 -0.6294 -1.8750
 2783SOL    HW219983   4.069   2.103   3.734  1.1327  4.2462  0.1568
 2784SOL     OW19984   3.095   3.529   8.498 -0.3284 -0.0663 -0.0823
 2784SOL    HW119985   3.070   3.605   8.446  0.0066  0.9420  1.2249
 2784SOL    HW219986   3.145   3.561   8.573  0.1582  1.2662 -0.9836
 2785SOL     OW19987   2.841   2.063   4.129  0.1275 -0.7709 -0.2048
 2785SOL    HW119988   2.784   2.106   4.194  1.3550  0.8995 -0.2612
 2785SOL    HW219989   2.903   2.134   4.114  0.7242 -1.2981 -0.2354
 2786SOL     OW19990   1.700   0.426   7.556  0.1160  0.4969 -0.0583
 2786SOL    HW119991   1.743   0.340   7.561 -1.2519 -0.3361 -2.5600
 2786SOL    HW219992   1.768   0.492   7.561 -1.1441  1.8509 -0.9429
 2787SOL     OW19993   0.774   3.496   2.210  0.4237 -0.0619  0.3495
 2787SOL    HW119994   0.788   3.462   2.122 -0.9076 -0.5031  0.3126
 2787SOL    HW219995   0.685   3.531   2.205  0.5941 -0.0026 -2.2921
 2788SOL     OW19996   3.886   2.528   6.661  0.1058 -0.2563 -0.2237
 2788SOL    HW119997   3.906   2.488   6.746  0.6505 -3.8691 -2.0348
 2788SOL    HW219998   3.890   2.623   6.669  0.7003 -0.3746  1.0332
 2789SOL     OW19999   4.156   3.253   4.369  0.0774 -0.5188  0.4426
 2789SOL    HW120000   4.081   3.267   4.426  0.2296  1.5633  0.1460
 2789SOL    HW220001   4.179   3.167   4.405  1.2698  0.1190  1.2086
 2790SOL     OW20002   4.181   3.630  15.951  0.3182  0.3167 -0.6807
 2790SOL    HW120003   4.094   3.670  15.950  0.7988  1.4087  1.1901
 2790SOL    HW220004   4.165   3.568  15.879 -1.7372  0.8042 -0.6310
 2791SOL     OW20005   2.051   2.132   1.617 -0.4076 -0.0555  0.3578
 2791SOL    HW120006   2.078   2.219   1.590  1.4126 -0.4535  0.9010
 2791SOL    HW220007   1.963   2.139   1.580 -0.2967  0.9053  0.2770
 2792SOL     OW20008   2.625   2.394   0.220 -0.0613 -0.0989 -0.2258
 2792SOL    HW120009   2.688   2.421   0.153  0.8931 -0.7886  0.4020
 2792SOL    HW220010   2.589   2.315   0.179 -0.4117 -0.3315  0.5204
 2793SOL     OW20011   3.431   3.764   7.536  0.2960  0.0470  0.0536
 2793SOL    HW120012   3.499   3.784   7.599 -0.2647 -0.6004  0.8558
 2793SOL    HW220013   3.453   3.680   7.496  0.0783  0.1556 -0.2996
 2794SOL     OW20014   1.705   1.846  17.291 -0.2194 -0.2251 -0.1594
 2794SOL    HW120015   1.740   1.771  17.242  0.8425 -0.4088  0.8839
 2794SOL    HW220016   1.610   1.845  17.293 -0.2168  2.2808  0.7567
 2795SOL     OW20017   1.224   1.647   1.578  0.0081  0.0643  0.5112
 2795SOL    HW120018   1.236   1.571   1.521 -1.7703  1.2239 -1.4077
 2795SOL    HW220019   1.183   1.613   1.658  3.3733 -2.3062  1.2427
 2796SOL     OW20020   2.139   2.675   9.242  0.5326 -0.2061 -0.1161
 2796SOL    HW120021   2.108   2.607   9.182  0.8229 -0.6270  0.2081
 2796SOL    HW220022   2.054   2.706   9.275  1.0536  0.2690  0.7752
 2797SOL     OW20023   4.704   4.226   9.201  0.3752 -0.0013 -0.0477
 2797SOL    HW120024   4.633   4.265   9.150 -0.1414 -0.5387  0.2640
 2797SOL    HW220025   0.024   4.304   9.202  0.8715 -0.3659  0.3859
 2798SOL     OW20026   3.495   3.481  13.622  0.2205 -0.1751  0.4741
 2798SOL    HW120027   3.413   3.509  13.662 -0.6339 -1.5503 -0.3140
 2798SOL    HW220028   3.498   3.394  13.661 -1.0537 -0.8244 -0.8813
 2799SOL     OW20029   0.531   0.153   2.871 -0.0150  0.0258  0.2552
 2799SOL    HW120030   0.480   0.155   2.789  1.2320  0.3983 -0.5220
 2799SOL    HW220031   0.462   0.165   2.936  0.6766 -0.1640  1.0121
 2800SOL     OW20032   1.726   0.183   8.202 -0.3316 -0.5765  0.0895
 2800SOL    HW120033   1.714   0.181   8.107 -0.7776 -1.9436  0.1725
 2800SOL    HW220034   1.730   0.278   8.215  2.6292 -0.9864  1.9970
 2801SOL     OW20035   4.450   3.516  11.537 -0.6389  0.1316 -0.4672
 2801SOL    HW120036   4.507   3.447  11.502 -1.0574  0.4752 -1.8159
 2801SOL    HW220037   4.501   3.596  11.551  2.5225 -1.9789  0.0970
 2802SOL     OW20038   2.883   3.711  13.630  0.1049  0.0990 -0.2366
 2802SOL    HW120039   2.811   3.733  13.570 -1.5319  0.2540  1.7649
 2802SOL    HW220040   2.953   3.774  13.614 -1.1429  0.7131 -3.4023
 2803SOL     OW20041   2.723   2.880   1.869  0.2242 -0.3098  0.2001
 2803SOL    HW120042   2.721   2.865   1.963 -2.3803 -0.2240  0.1785
 2803SOL    HW220043   2.810   2.919   1.862 -0.3829  1.2044  1.1485
 2804SOL     OW20044   4.089   0.267   9.316 -0.1575  0.1182  0.1935
 2804SOL    HW120045   4.025   0.236   9.251 -1.4068 -1.0713  1.9788
 2804SOL    HW220046   4.075   0.361   9.321 -1.2634  0.0664 -1.9829
 2805SOL     OW20047   1.467   0.929   7.022 -0.5272 -0.1106 -0.1051
 2805SOL    HW120048   1.517   0.849   7.043  0.0350  0.1851 -0.3192
 2805SOL    HW220049   1.458   0.932   6.927 -0.1316  0.7528 -0.1096
 2806SOL     OW20050   2.998   4.419  12.229  0.1380 -0.2879 -0.4591
 2806SOL    HW120051   2.923   4.438  12.172  1.5591  0.8161 -1.9624
 2806SOL    HW220052   3.066   4.456  12.172 -0.8810  0.3216 -1.2869
 2807SOL     OW20053   0.286   3.354  14.414  0.0536  0.5424 -0.1488
 2807SOL    HW120054   0.321   3.440  14.435  0.5408  0.2977  0.0427
 2807SOL    HW220055   0.204   3.351  14.463 -0.0416 -0.0554 -0.3404
 2808SOL     OW20056   1.204   3.855  16.454 -0.1396  0.1842 -0.2622
 2808SOL    HW120057   1.182   3.809  16.373 -2.3576  0.1589  0.3691
 2808SOL    HW220058   1.299   3.840  16.458 -0.4997 -2.1509 -0.0321
 2809SOL     OW20059   2.284   0.503   2.467 -0.4362 -0.2709 -0.1897
 2809SOL    HW120060   2.374   0.472   2.464 -0.5031 -0.8073  2.7701
 2809SOL    HW220061   2.296   0.589   2.508 -2.1920 -0.2200  0.2240
 2810SOL     OW20062   0.417   0.820  10.993 -0.4156  0.1002  0.1228
 2810SOL    HW120063   0.350   0.880  10.960 -1.8662 -1.1615  0.7519
 2810SOL    HW220064   0.493   0.849  10.942 -0.3741 -1.1649 -0.5264
 2811SOL     OW20065   3.740   1.230  11.585  0.6761 -0.0821 -0.5562
 2811SOL    HW120066   3.827   1.267  11.597  0.6432  0.1797 -1.1172
 2811SOL    HW220067   3.709   1.310  11.543  1.2178  0.1972 -0.4093
 2812SOL     OW20068   3.154   0.359  10.062 -0.4576 -0.0955 -0.5355
 2812SOL    HW120069   3.113   0.273  10.052 -0.4706  0.1959 -3.0745
 2812SOL    HW220070   3.247   0.335  10.062  0.0179  1.7497 -0.4303
 2813SOL     OW20071   3.120   1.281   1.944 -0.5000 -0.2396 -0.2886
 2813SOL    HW120072   3.164   1.199   1.968 -1.3575 -0.0914  1.8249
 2813SOL    HW220073   3.170   1.308   1.867 -1.3932 -0.4329 -0.9248
 2814SOL     OW20074   2.602   1.275   7.605  0.2761 -0.1787 -0.3399
 2814SOL    HW120075   2.686   1.317   7.586 -0.6728  1.3635 -1.1041
 2814SOL    HW220076   2.620   1.186   7.573  1.8415 -1.4022  3.9248
 2815SOL     OW20077   4.126   0.643   9.934 -0.3963 -0.0630  0.5044
 2815SOL    HW120078   4.059   0.669   9.997  0.1014  0.0630  0.9742
 2815SOL    HW220079   4.201   0.681   9.979 -0.0733  2.2252 -1.9302
 2816SOL     OW20080   3.891   4.270   6.977  0.7738 -0.2929  0.2779
 2816SOL    HW120081   3.923   4.250   6.888  0.9722 -1.6524  0.6530
 2816SOL    HW220082   3.964   4.236   7.030  0.9251 -1.8566 -0.9252
 2817SOL     OW20083   2.981   2.958   2.757 -0.2316 -0.0183 -0.3898
 2817SOL    HW120084   2.939   2.904   2.824 -0.3546 -0.8911 -1.1629
 2817SOL    HW220085   2.948   3.040   2.794  2.0091  0.6664  0.1112
 2818SOL     OW20086   3.705   4.438   7.087  0.8319 -0.0106 -0.7916
 2818SOL    HW120087   3.737   4.366   7.032  2.0513  1.4430 -2.0030
 2818SOL    HW220088   3.765   4.441   7.162 -0.5646 -1.4858  0.3562
 2819SOL     OW20089   0.065   2.079  10.678 -0.7240  0.1301  0.2074
 2819SOL    HW120090   0.073   2.148  10.612  1.0688  0.1291  0.4091
 2819SOL    HW220091   0.004   2.015  10.643  0.1581 -1.2539  1.1976
 2820SOL     OW20092   2.194   2.093  14.636 -0.5975 -0.2176 -0.0207
 2820SOL    HW120093   2.184   2.079  14.542 -0.8776 -5.3033  0.7481
 2820SOL    HW220094   2.108   2.064  14.666  0.0631 -1.7573  0.3653
 2821SOL     OW20095   0.515   0.072  11.711  0.1067 -0.1025 -0.0958
 2821SOL    HW120096   0.464   0.127  11.651  1.4477  0.6608 -0.5351
 2821SOL    HW220097   0.572   0.137  11.752 -0.6548  2.0140 -2.4490
 2822SOL     OW20098   0.001   1.614   2.977 -0.5424 -0.2013 -0.1228
 2822SOL    HW120099   0.061   1.676   2.936 -0.7638 -0.3067 -0.6059
 2822SOL    HW220100   0.058   1.569   3.039 -0.2454  1.2008  0.6335
 2823SOL     OW20101   0.856   1.486   5.108 -0.5175 -0.4613 -0.8497
 2823SOL    HW120102   0.901   1.403   5.093 -1.5777 -0.9095 -1.5480
 2823SOL    HW220103   0.766   1.479   5.076  0.2360 -0.5188 -2.9282
 2824SOL     OW20104   4.044   4.409   8.510 -0.3683 -0.3394  0.4193
 2824SOL    HW120105   4.090   4.353   8.448 -0.7472  0.0001 -0.1739
 2824SOL    HW220106   4.067   4.490   8.465  0.5265  0.3659  2.1739
 2825SOL     OW20107   3.217   0.605   5.901  0.1986 -0.2289 -0.2987
 2825SOL    HW120108   3.241   0.688   5.942 -0.9646 -0.9266  1.7818
 2825SOL    HW220109   3.188   0.633   5.814 -1.4846 -0.1658  0.2879
 2826SOL     OW20110   3.673   0.857  14.994  0.3222  0.1021 -0.6946
 2826SOL    HW120111   3.602   0.800  15.025  0.6299 -0.8553 -1.7436
 2826SOL    HW220112   3.656   0.866  14.901 -0.8273 -2.1600 -0.7028
 2827SOL     OW20113   1.546   0.588   6.139 -0.0448  0.0264  0.2025
 2827SOL    HW120114   1.586   0.668   6.104  0.8923 -1.6884 -2.6309
 2827SOL    HW220115   1.538   0.532   6.062  1.7696  0.4620 -0.3081
 2828SOL     OW20116   2.775   0.902   8.066 -0.1661 -0.2344  0.5085
 2828SOL    HW120117   2.734   0.977   8.111 -0.2802 -0.6131  1.0415
 2828SOL    HW220118   2.813   0.871   8.148  0.9942  0.7610  0.3577
 2829SOL     OW20119   0.735   3.221   2.408 -0.3340 -0.0286 -0.6335
 2829SOL    HW120120   0.704   3.300   2.364  0.8197  0.8058  0.0443
 2829SOL    HW220121   0.665   3.205   2.471 -0.9217 -0.6328 -1.4513
 2830SOL     OW20122   2.735   4.595   6.761  0.5285  0.0681 -0.4256
 2830SOL    HW120123   2.664   4.616   6.700  1.7569  0.6208 -1.6534
 2830SOL    HW220124   2.774   4.682   6.766  2.4442 -0.8456  0.2490
 2831SOL     OW20125   2.948   1.481  15.466 -0.0043  0.0032  0.1611
 2831SOL    HW120126   2.963   1.466  15.372 -0.3512 -1.0249  0.2653
 2831SOL    HW220127   3.035   1.466  15.503  1.7404 -1.2183 -4.4158
 2832SOL     OW20128   2.627   3.002  12.348 -0.3299 -0.6589  0.5872
 2832SOL    HW120129   2.706   3.034  12.305 -2.1653 -0.3331 -2.5133
 2832SOL    HW220130   2.563   3.071  12.328 -0.4624 -0.1805  2.6197
 2833SOL     OW20131   3.004   3.160  15.890  0.1221  0.2351  0.7954
 2833SOL    HW120132   3.008   3.078  15.940  1.2659 -0.6364 -0.7481
 2833SOL    HW220133   2.990   3.214  15.969 -1.3612  1.6757 -0.4480
 2834SOL     OW20134   2.394   4.039   0.202 -0.1421  0.0840 -0.2773
 2834SOL    HW120135   2.313   3.998   0.235 -0.9477  1.4672 -0.5415
 2834SOL    HW220136   2.395   4.118   0.256  0.9021  1.1883 -1.9316
 2835SOL     OW20137   2.429   3.729   0.852 -0.3100 -0.0024  0.2720
 2835SOL    HW120138   2.493   3.793   0.823  0.6064  0.1771  2.6330
 2835SOL    HW220139   2.374   3.709   0.777 -0.3014  1.5339 -0.1253
 2836SOL     OW20140   2.348   0.655   4.446 -0.0947 -0.2503 -0.0188
 2836SOL    HW120141   2.292   0.675   4.520  0.2487  0.8500 -0.0605
 2836SOL    HW220142   2.281   0.616   4.390  0.0577 -0.4499 -0.0621
 2837SOL     OW20143   0.004   4.439   4.193 -0.1897  0.9227  0.2147
 2837SOL    HW120144   0.090   4.458   4.154  0.0190 -0.2937  0.1027
 2837SOL    HW220145   0.015   4.486   4.276  3.0657 -0.7340  0.7450
 2838SOL     OW20146   0.490   4.645   2.532  0.2212  0.7266  0.3964
 2838SOL    HW120147   0.423   4.663   2.465 -1.1949 -0.4909  1.4779
 2838SOL    HW220148   0.538   4.727   2.535  0.9968  0.2552  0.7786
 2839SOL     OW20149   0.922   2.158   3.369 -0.4521  0.1469 -0.0973
 2839SOL    HW120150   0.928   2.079   3.314  1.1051  1.2769 -1.5434
 2839SOL    HW220151   0.828   2.173   3.380 -0.6447 -0.8448 -0.3568
 2840SOL     OW20152   1.952   2.971   5.369 -0.2067 -0.0676  0.5109
 2840SOL    HW120153   2.031   3.021   5.352  0.5723 -0.0955  3.9854
 2840SOL    HW220154   1.978   2.907   5.436  0.5099 -0.9336 -0.5981
 2841SOL     OW20155   4.352   0.980  12.486 -0.1498  0.1691 -0.3223
 2841SOL    HW120156   4.360   1.025  12.570 -2.5896  1.1628 -0.6503
 2841SOL    HW220157   4.434   1.018  12.453 -0.1661  0.9022  0.4893
 2842SOL     OW20158   3.326   3.305  17.118  0.2460 -0.2741 -0.5723
 2842SOL    HW120159   3.259   3.318  17.185  1.6536 -2.7869  1.3102
 2842SOL    HW220160   3.296   3.230  17.066  0.0900 -0.1336 -0.6871
 2843SOL     OW20161   4.646   1.345   2.818  0.5882  0.1045 -0.1528
 2843SOL    HW120162   4.553   1.351   2.840  0.9128  1.1533  0.9323
 2843SOL    HW220163   4.679   1.311   2.901  2.1133 -0.9183 -1.1806
 2844SOL     OW20164   3.610   0.407   2.309 -0.2995 -0.2200  0.0803
 2844SOL    HW120165   3.523   0.439   2.289 -0.1801 -0.7044 -1.2061
 2844SOL    HW220166   3.652   0.480   2.355  0.6416 -0.7870  0.1265
 2845SOL     OW20167   0.922   3.163   0.883  0.0872 -0.1596  0.4746
 2845SOL    HW120168   0.910   3.123   0.797 -0.1230  0.8961  0.0099
 2845SOL    HW220169   0.831   3.177   0.908 -0.1281  0.6993 -0.7970
 2846SOL     OW20170   4.125   1.595   7.134 -0.4306 -0.4560  0.7190
 2846SOL    HW120171   4.065   1.669   7.135  3.7747  3.0404 -1.5678
 2846SOL    HW220172   4.060   1.525   7.132 -0.7300 -0.1029 -2.1104
 2847SOL     OW20173   1.562   4.586   4.196 -0.6162  0.3074 -0.3689
 2847SOL    HW120174   1.504   4.608   4.270  1.0228 -0.8636  1.2728
 2847SOL    HW220175   1.510   4.614   4.121 -1.2107  1.4076  0.4410
 2848SOL     OW20176   0.551   1.918  10.442  0.1285  0.5730 -0.1170
 2848SOL    HW120177   0.545   1.833  10.399  1.0008  0.2857  0.3363
 2848SOL    HW220178   0.461   1.924  10.475  0.1083  0.4022 -0.1412
 2849SOL     OW20179   2.197   4.150  11.280 -0.5425 -0.1856 -0.2200
 2849SOL    HW120180   2.143   4.227  11.295 -0.9302 -0.1265 -1.8292
 2849SOL    HW220181   2.153   4.088  11.337  0.0584 -0.6913 -0.2955
 2850SOL     OW20182   4.093   3.284   1.972  0.2376  0.3475 -0.6031
 2850SOL    HW120183   4.007   3.246   1.990  0.3705  0.6889  0.8050
 2850SOL    HW220184   4.086   3.358   2.032 -3.3554  0.5764 -1.3017
 2851SOL     OW20185   1.984   1.960   4.136  0.0013 -0.1846 -0.5939
 2851SOL    HW120186   2.023   1.971   4.050  0.2277 -0.1798 -0.4892
 2851SOL    HW220187   1.959   2.052   4.145 -2.1802 -0.6506 -1.7792
 2852SOL     OW20188   3.090   1.949   5.538  1.0704  0.0108  0.2333
 2852SOL    HW120189   3.044   1.865   5.545  0.7856 -0.2071 -4.2644
 2852SOL    HW220190   3.048   2.006   5.602  1.5199  1.6504 -0.9451
 2853SOL     OW20191   2.591   4.583   5.244 -0.1771 -0.1571 -0.4002
 2853SOL    HW120192   2.545   4.543   5.318 -2.5974  1.0588 -1.2727
 2853SOL    HW220193   2.598   4.668   5.287  1.0623 -0.5709  0.2235
 2854SOL     OW20194   1.276   2.083   6.512 -0.0649 -0.1868 -0.1278
 2854SOL    HW120195   1.187   2.068   6.481  0.0496 -0.9824 -0.0557
 2854SOL    HW220196   1.263   2.153   6.577 -1.1715  0.8736 -1.4949
 2855SOL     OW20197   4.503   2.845   7.157  0.0797 -0.2880 -0.9114
 2855SOL    HW120198   4.454   2.780   7.209 -2.0786  1.1685 -1.1082
 2855SOL    HW220199   4.551   2.782   7.103  1.0988 -1.8832  1.8420
 2856SOL     OW20200   3.165   2.494   4.302 -0.1897 -0.3860  0.1091
 2856SOL    HW120201   3.161   2.584   4.270  1.8650 -0.4855 -0.4203
 2856SOL    HW220202   3.215   2.452   4.231 -0.1221 -0.2607  0.0826
 2857SOL     OW20203   4.218   2.191   4.421  0.2914  0.3474 -0.3460
 2857SOL    HW120204   4.233   2.107   4.466 -1.0074  0.4520  0.2827
 2857SOL    HW220205   4.262   2.252   4.480  2.3829 -2.1336  0.6812
 2858SOL     OW20206   1.374   3.040   8.718 -0.4441  0.2972  0.2112
 2858SOL    HW120207   1.421   2.974   8.666 -0.3655  0.3567  0.2066
 2858SOL    HW220208   1.397   3.011   8.806 -3.1047 -1.9307  0.1752
 2859SOL     OW20209   0.550   3.247  15.955 -0.1233 -0.0387 -1.5545
 2859SOL    HW120210   0.492   3.220  16.026 -2.9353 -0.3869 -4.0202
 2859SOL    HW220211   0.603   3.167  15.960 -0.6662 -0.2126  1.5789
 2860SOL     OW20212   2.509   0.808  12.383  0.2367 -0.4829  0.1829
 2860SOL    HW120213   2.448   0.787  12.454  1.6949  0.9805  1.8757
 2860SOL    HW220214   2.565   0.866  12.434 -1.2003  0.1342  1.0578
 2861SOL     OW20215   4.279   4.484   9.816 -0.0671  0.3005  0.3798
 2861SOL    HW120216   4.321   4.494   9.901  0.2352  0.3413  0.2253
 2861SOL    HW220217   4.349   4.432   9.777 -0.1849 -1.2335  2.2192
 2862SOL     OW20218   4.256   2.499   6.410 -0.0690 -0.1344  0.3135
 2862SOL    HW120219   4.233   2.455   6.492 -1.4800  2.1277  1.1337
 2862SOL    HW220220   4.291   2.583   6.439  0.8499 -0.4819  0.2342
 2863SOL     OW20221   3.295   4.678   7.535 -0.3322 -0.3455  0.0912
 2863SOL    HW120222   3.385   4.711   7.534 -0.4548 -0.0195 -0.3384
 2863SOL    HW220223   3.267   4.696   7.625 -1.8732  2.7427 -1.0345
 2864SOL     OW20224   3.630   1.887  12.072 -0.3706 -0.3040  0.0474
 2864SOL    HW120225   3.545   1.925  12.053 -0.6999 -1.2118 -0.3284
 2864SOL    HW220226   3.611   1.841  12.154 -2.2501 -2.3761 -1.5632
 2865SOL     OW20227   3.503   3.287   6.300  0.1306  0.0876  0.6185
 2865SOL    HW120228   3.471   3.359   6.355 -0.2553 -0.4156  1.0479
 2865SOL    HW220229   3.451   3.213   6.332 -0.2336 -0.1177 -0.4185
 2866SOL     OW20230   4.108   4.253   5.938  0.2674  0.1670 -0.0209
 2866SOL    HW120231   4.081   4.183   5.999  0.2469 -0.1200 -0.3593
 2866SOL    HW220232   4.193   4.272   5.977 -0.5853  0.8079  1.5170
 2867SOL     OW20233   1.609   3.443   4.569 -0.0507  0.3917  0.9106
 2867SOL    HW120234   1.519   3.459   4.596 -0.3747  0.5098 -0.2365
 2867SOL    HW220235   1.645   3.398   4.645  0.8946  2.1257  1.4849
 2868SOL     OW20236   2.848   3.420  17.041  0.1720 -0.7679  0.2683
 2868SOL    HW120237   2.885   3.338  17.007  0.3754 -0.1518 -0.9937
 2868SOL    HW220238   2.930   3.469  17.043  0.6704 -1.5450 -1.5149
 2869SOL     OW20239   1.555   1.210   4.000  0.1292  0.4307 -0.3813
 2869SOL    HW120240   1.507   1.214   3.917 -1.0153  0.5895  0.2789
 2869SOL    HW220241   1.506   1.258   4.068 -1.3997 -1.0618 -0.4288
 2870SOL     OW20242   2.878   3.955   2.849 -0.1418 -0.1174  0.1497
 2870SOL    HW120243   2.971   3.931   2.853  0.6001  3.2368  3.5683
 2870SOL    HW220244   2.867   3.969   2.943  0.3471  0.7609  0.0812
 2871SOL     OW20245   1.108   2.192   5.747  0.2662  0.3686 -0.4159
 2871SOL    HW120246   1.139   2.263   5.804 -1.8078  2.0483 -1.3651
 2871SOL    HW220247   1.192   2.169   5.707 -0.3867 -2.1131 -0.3298
 2872SOL     OW20248   1.110   4.372   4.431  0.1280  0.0230  0.0224
 2872SOL    HW120249   1.124   4.398   4.340  1.6927 -1.4216 -0.1622
 2872SOL    HW220250   1.150   4.285   4.433 -0.7758 -0.4242 -1.3591
 2873SOL     OW20251   2.484   3.462  10.862  0.2351 -0.1984  0.1191
 2873SOL    HW120252   2.495   3.436  10.771 -0.8284 -0.1018 -0.0440
 2873SOL    HW220253   2.421   3.398  10.894 -0.7544  1.2259  1.0439
 2874SOL     OW20254   0.263   1.890   9.938 -0.5763 -0.0319  0.0827
 2874SOL    HW120255   0.276   1.972   9.985 -0.0942  0.1007 -0.2843
 2874SOL    HW220256   0.334   1.885   9.873 -0.3410  0.3521  0.3125
 2875SOL     OW20257   4.498   1.849   9.509  0.0263  0.4362  0.1684
 2875SOL    HW120258   4.562   1.891   9.566 -1.7765  0.1362  2.4166
 2875SOL    HW220259   4.492   1.906   9.432 -0.1143  1.5019  0.9845
 2876SOL     OW20260   1.879   2.660  14.300  0.0311  0.0527  0.1796
 2876SOL    HW120261   1.910   2.615  14.379 -3.1250 -0.4295  1.1586
 2876SOL    HW220262   1.799   2.701  14.332 -1.1798  0.0385 -2.8177
 2877SOL     OW20263   2.337   4.610   4.588 -0.0278 -0.3416 -0.2856
 2877SOL    HW120264   2.380   4.544   4.643 -1.3427 -0.3836  0.6628
 2877SOL    HW220265   2.416   4.631   4.538 -0.2259  0.1830 -0.3804
 2878SOL     OW20266   2.898   3.214   2.866 -0.2421 -0.3121 -0.2375
 2878SOL    HW120267   2.991   3.236   2.863 -0.7327  1.8915  0.7311
 2878SOL    HW220268   2.875   3.305   2.882  1.0832  0.2480 -1.4825
 2879SOL     OW20269   1.040   2.327   5.184 -0.0781 -0.2299  0.0401
 2879SOL    HW120270   0.951   2.294   5.192  0.2477 -0.5440  2.3275
 2879SOL    HW220271   1.061   2.302   5.274  0.0314  1.1387  0.3921
 2880SOL     OW20272   3.311   3.313  16.738 -0.3514 -0.0632 -0.3873
 2880SOL    HW120273   3.302   3.230  16.691  0.5180  0.7349 -1.9553
 2880SOL    HW220274   3.334   3.379  16.673 -0.2861  1.1499  0.8603
 2881SOL     OW20275   2.110   0.206   3.219  0.1679  0.2245 -0.6746
 2881SOL    HW120276   2.043   0.138   3.227  1.2178 -0.3805  2.7711
 2881SOL    HW220277   2.109   0.241   3.308 -0.4401  0.6824 -0.8582
 2882SOL     OW20278   2.884   2.027   7.120  0.6935 -0.0168  0.2336
 2882SOL    HW120279   2.824   1.967   7.164  0.2666 -0.6064 -1.1400
 2882SOL    HW220280   2.909   1.976   7.043  0.1211  1.1142 -0.6985
 2883SOL     OW20281   2.977   0.589  14.119 -1.1494  1.0016 -0.3081
 2883SOL    HW120282   2.887   0.566  14.144 -0.2128 -3.2896 -0.8915
 2883SOL    HW220283   3.025   0.522  14.169 -2.3975  1.1522  1.0997
 2884SOL     OW20284   0.214   3.436   3.036  0.0497  0.0591  0.0146
 2884SOL    HW120285   0.131   3.446   3.083  0.5309  3.1804  0.2097
 2884SOL    HW220286   0.269   3.504   3.076 -0.0759  1.4690 -2.2487
 2885SOL     OW20287   2.154   0.965   9.450  0.1857  0.2605 -0.2702
 2885SOL    HW120288   2.199   0.895   9.403 -3.9826 -1.0201 -2.3728
 2885SOL    HW220289   2.207   0.969   9.530 -0.7996 -1.3225  0.4613
 2886SOL     OW20290   1.273   3.749   1.099  0.1867  0.1276  0.0833
 2886SOL    HW120291   1.249   3.700   1.178  0.3917 -0.8873 -0.4869
 2886SOL    HW220292   1.187   3.764   1.060  0.2241 -1.4817 -0.6168
 2887SOL     OW20293   1.683   1.461   4.836  0.5764 -0.3614  0.3323
 2887SOL    HW120294   1.763   1.427   4.875 -0.1174 -1.5715  0.6996
 2887SOL    HW220295   1.695   1.556   4.836  2.0216 -0.5515 -0.4254
 2888SOL     OW20296   2.928   3.004   9.059  0.0446 -0.1605 -0.0929
 2888SOL    HW120297   2.848   2.962   9.028 -0.5275  0.8342  0.0574
 2888SOL    HW220298   2.945   2.961   9.143 -1.6008 -0.7430 -0.0621
 2889SOL     OW20299   2.300   3.870   5.664  0.0494 -0.4414 -0.2207
 2889SOL    HW120300   2.232   3.900   5.604 -0.1257 -1.9504 -0.7797
 2889SOL    HW220301   2.235   3.833   5.723  0.8333  0.4086  1.1768
 2890SOL     OW20302   1.114   0.940  15.870  0.4263  0.3788  0.1638
 2890SOL    HW120303   1.155   1.019  15.905  0.5072  0.6946 -0.6429
 2890SOL    HW220304   1.089   0.973  15.784 -0.0755  0.8643  0.4982
 2891SOL     OW20305   3.390   4.373  16.620 -0.1328 -0.6665 -0.1348
 2891SOL    HW120306   3.300   4.379  16.589 -0.4066 -1.9168  0.4042
 2891SOL    HW220307   3.387   4.302  16.684  0.3056  0.0097  0.6444
 2892SOL     OW20308   4.314   1.985   7.950  0.1256 -0.1465  0.7531
 2892SOL    HW120309   4.399   1.944   7.937  1.3599  1.9093  2.2548
 2892SOL    HW220310   4.335   2.060   8.006  0.7622 -0.6144  1.1327
 2893SOL     OW20311   0.209   0.751   2.577 -0.0139  0.2796  0.7065
 2893SOL    HW120312   0.141   0.690   2.603  1.6317 -1.2474  1.4057
 2893SOL    HW220313   0.213   0.732   2.483 -4.0521  2.2969  0.1089
 2894SOL     OW20314   2.914   2.559   3.941 -0.0189  0.0981 -0.2108
 2894SOL    HW120315   2.834   2.608   3.921  0.2764  0.6078 -0.1320
 2894SOL    HW220316   2.963   2.624   3.992  0.6521  0.6365 -1.5440
 2895SOL     OW20317   2.061   0.319  12.125 -0.3098 -0.2604  0.0920
 2895SOL    HW120318   2.069   0.240  12.178 -2.4479  0.3815  1.3860
 2895SOL    HW220319   1.975   0.309  12.085 -0.4915 -1.1596  0.7096
 2896SOL     OW20320   3.624   3.063  15.260  0.1435 -0.4218  0.3221
 2896SOL    HW120321   3.562   3.098  15.195  0.0197 -3.2288 -1.1004
 2896SOL    HW220322   3.553   3.019  15.306  0.1353 -1.0528 -0.2793
 2897SOL     OW20323   0.094   1.612   9.666  0.5138  0.8146 -0.6803
 2897SOL    HW120324   0.080   1.558   9.589  1.5715 -0.1897 -0.1755
 2897SOL    HW220325   0.188   1.600   9.680  0.1916  0.5696  1.4060
 2898SOL     OW20326   1.460   1.150  16.302  0.2697  0.3622 -0.3830
 2898SOL    HW120327   1.457   1.235  16.260 -0.6400  0.8844  0.7534
 2898SOL    HW220328   1.377   1.113  16.274 -0.7235  0.9498  1.7366
 2899SOL     OW20329   1.629   3.632  15.030 -0.1135  0.0451  0.2169
 2899SOL    HW120330   1.612   3.707  14.974 -1.0055  1.1927  2.0286
 2899SOL    HW220331   1.547   3.585  15.017  0.5521 -0.6040 -1.7231
 2900SOL     OW20332   1.949   2.503   9.127  0.3947  0.1864 -0.2265
 2900SOL    HW120333   1.913   2.467   9.208  3.1736 -1.5195  0.2651
 2900SOL    HW220334   1.993   2.427   9.087 -2.3302 -0.7330 -1.4584
 2901SOL     OW20335   0.120   0.209   2.615 -0.2452 -0.3158 -0.0501
 2901SOL    HW120336   0.081   0.238   2.698  0.2385 -2.3019  0.8699
 2901SOL    HW220337   0.203   0.255   2.624  0.7929 -2.3498  0.8212
 2902SOL     OW20338   1.363   3.706   6.961  0.2275  0.3331 -0.3480
 2902SOL    HW120339   1.346   3.614   6.940  2.4235 -0.1306 -0.1768
 2902SOL    HW220340   1.394   3.743   6.879  1.2186  2.1536  0.8418
 2903SOL     OW20341   2.579   3.428  11.783 -0.3827 -0.2477  0.2452
 2903SOL    HW120342   2.549   3.338  11.770 -1.8525  0.5563 -1.7931
 2903SOL    HW220343   2.496   3.467  11.808  0.3672  1.0634  0.7216
 2904SOL     OW20344   3.528   0.956  14.026  0.2278 -0.3330 -0.6045
 2904SOL    HW120345   3.615   0.948  13.987  0.7862 -1.6316  0.9553
 2904SOL    HW220346   3.554   0.998  14.108  0.2413 -0.0148 -0.7691
 2905SOL     OW20347   3.017   0.320   4.331  0.0237 -0.1545  0.0636
 2905SOL    HW120348   3.063   0.341   4.249 -2.3636  1.9789 -0.7243
 2905SOL    HW220349   3.079   0.345   4.399 -2.3437 -0.4145  2.3158
 2906SOL     OW20350   4.207   3.578  11.456  0.1951 -0.2705 -1.1908
 2906SOL    HW120351   4.152   3.573  11.534  0.0648  0.4178 -1.2393
 2906SOL    HW220352   4.295   3.580  11.492 -0.1777 -0.6596 -0.2726
 2907SOL     OW20353   2.675   1.239   2.782  0.2110 -1.0842 -0.1064
 2907SOL    HW120354   2.719   1.162   2.817  0.3924 -0.4047  1.1847
 2907SOL    HW220355   2.619   1.243   2.860 -1.1669 -1.2784 -1.1006
 2908SOL     OW20356   2.003   1.635   6.696  0.2005 -0.2451 -0.9819
 2908SOL    HW120357   2.087   1.679   6.691  0.4066 -0.7836 -2.3290
 2908SOL    HW220358   1.946   1.670   6.628  0.7287  1.3653 -0.5762
 2909SOL     OW20359   2.416   1.344   0.994 -0.3456 -0.3369 -0.1177
 2909SOL    HW120360   2.468   1.418   0.963  0.2553 -0.4083  0.7268
 2909SOL    HW220361   2.424   1.285   0.919 -0.2675  0.1102 -0.4584
 2910SOL     OW20362   0.885   1.100   4.791 -0.0356 -0.0002  0.1293
 2910SOL    HW120363   0.878   1.079   4.698 -1.0475 -0.3934  0.2967
 2910SOL    HW220364   0.901   1.194   4.794 -1.3215  0.1914  0.8609
 2911SOL     OW20365   1.577   3.407   5.691 -0.3053 -0.0861  0.2794
 2911SOL    HW120366   1.587   3.312   5.687 -1.8249 -0.2820  1.1232
 2911SOL    HW220367   1.556   3.425   5.599 -0.3031  0.0408  0.3043
 2912SOL     OW20368   1.554   4.107   1.945  0.0134  0.7586  0.3319
 2912SOL    HW120369   1.541   4.183   2.002 -0.9796  2.4908 -2.2334
 2912SOL    HW220370   1.624   4.147   1.895 -0.4533  0.7933 -0.2967
 2913SOL     OW20371   4.357   1.212   7.189  0.4384 -0.4072 -0.2095
 2913SOL    HW120372   4.379   1.262   7.111  1.5520 -0.1354  0.2676
 2913SOL    HW220373   4.442   1.193   7.229 -0.0165  0.4714  1.1935
 2914SOL     OW20374   0.587   1.499   3.092  0.0564  0.2969 -0.6228
 2914SOL    HW120375   0.544   1.459   3.016 -0.1124  0.0400 -0.3883
 2914SOL    HW220376   0.504   1.492   3.139 -0.5910  1.8953 -1.5083
 2915SOL     OW20377   1.565   2.726   9.750 -0.2629 -0.1333  0.1931
 2915SOL    HW120378   1.487   2.686   9.787 -1.6209 -0.1941 -2.7322
 2915SOL    HW220379   1.621   2.734   9.827  1.1184  1.2317 -0.9457
 2916SOL     OW20380   4.248   2.343   6.189 -0.6185  0.6006 -0.3420
 2916SOL    HW120381   4.264   2.401   6.263  1.2242 -0.9122  0.4416
 2916SOL    HW220382   4.339   2.325   6.165 -0.3119 -0.0822  1.3927
 2917SOL     OW20383   4.200   4.122  10.566  0.1631  0.0444 -0.1976
 2917SOL    HW120384   4.157   4.108  10.650  0.4950  0.4726  0.0464
 2917SOL    HW220385   4.175   4.041  10.522 -0.1941 -1.0256  1.9947
 2918SOL     OW20386   2.757   2.986   8.252 -0.3100 -0.6214  0.0875
 2918SOL    HW120387   2.783   2.916   8.192  0.4645  0.3805 -0.7447
 2918SOL    HW220388   2.786   2.947   8.334  0.8649  2.5320  1.1425
 2919SOL     OW20389   0.217   2.820   8.947 -0.0782 -0.2041 -0.1785
 2919SOL    HW120390   0.276   2.863   8.886 -2.6017  0.8397 -1.8871
 2919SOL    HW220391   0.192   2.887   9.010 -0.3155  0.2063 -0.7159
 2920SOL     OW20392   0.208   2.513   2.121 -0.2272 -0.8049  0.0009
 2920SOL    HW120393   0.217   2.579   2.190  2.4670 -2.2828  1.0686
 2920SOL    HW220394   0.293   2.489   2.085 -0.1361  2.1061 -1.7014
 2921SOL     OW20395   0.046   2.500   4.812  0.3567 -0.0214  0.1017
 2921SOL    HW120396   0.016   2.409   4.819  0.3684 -0.0244  0.1129
 2921SOL    HW220397   0.026   2.522   4.903  0.2217 -0.7490  0.2500
 2922SOL     OW20398   1.371   0.878   1.724 -0.0140  0.2846  0.4657
 2922SOL    HW120399   1.457   0.875   1.766  0.2211  0.0709 -0.0306
 2922SOL    HW220400   1.329   0.932   1.790 -0.3019  0.8922 -0.2197
 2923SOL     OW20401   4.307   0.304   8.065  0.1074  0.0596  0.2984
 2923SOL    HW120402   4.272   0.393   8.074 -2.6303 -0.7132 -2.6994
 2923SOL    HW220403   4.395   0.318   8.029 -1.3324  0.9977 -2.8198
 2924SOL     OW20404   1.875   4.685   7.666 -0.3195 -0.6572  0.1696
 2924SOL    HW120405   1.971   4.682   7.657 -0.3394  0.6298 -0.4075
 2924SOL    HW220406   1.846   4.594   7.665 -1.9369 -0.1113 -1.4475
 2925SOL     OW20407   3.573   1.359  15.302 -0.2532  0.3305  0.4514
 2925SOL    HW120408   3.631   1.421  15.345  0.5301  2.1231 -3.1812
 2925SOL    HW220409   3.521   1.415  15.245 -0.0496 -0.6615 -0.7293
 2926SOL     OW20410   0.316   1.727   6.562  1.0312  0.1636  0.7982
 2926SOL    HW120411   0.222   1.744   6.570  0.6967 -1.3902  0.2013
 2926SOL    HW220412   0.323   1.658   6.628  2.6821 -1.7593 -1.3911
 2927SOL     OW20413   4.400   4.103   4.590  0.5256 -0.4175 -0.0045
 2927SOL    HW120414   4.478   4.101   4.535  0.8539  2.3846  0.3663
 2927SOL    HW220415   4.439   4.102   4.677  1.5185  0.9392 -0.4411
 2928SOL     OW20416   3.839   2.249   5.187  0.5245 -0.4673  0.1732
 2928SOL    HW120417   3.894   2.306   5.242  0.0733 -0.7660  0.9271
 2928SOL    HW220418   3.759   2.300   5.198  1.0666  1.0150 -2.7072
 2929SOL     OW20419   0.951   2.658  15.525  0.3957  0.1848  0.5081
 2929SOL    HW120420   0.874   2.693  15.480  1.1395  0.0743 -0.8571
 2929SOL    HW220421   1.017   2.712  15.483 -1.7514  1.1957 -1.5556
 2930SOL     OW20422   1.594   2.191   6.594 -0.1934  0.7263  0.0345
 2930SOL    HW120423   1.683   2.157   6.580 -0.8606 -1.5613  1.3443
 2930SOL    HW220424   1.563   2.166   6.681  3.1221  0.1275  1.0389
 2931SOL     OW20425   3.835   3.251   2.088  0.2883  0.0566  0.1395
 2931SOL    HW120426   3.791   3.258   2.173  0.1757 -0.0568  0.0902
 2931SOL    HW220427   3.827   3.158   2.068 -0.6178  0.1595  0.0198
 2932SOL     OW20428   0.395   1.184  15.060 -0.7543 -0.1209  0.2115
 2932SOL    HW120429   0.317   1.223  15.099 -0.2558  0.2507  0.8346
 2932SOL    HW220430   0.465   1.227  15.109 -1.0074  0.8439 -0.2648
 2933SOL     OW20431   2.264   3.373   2.094  0.0967 -0.3591  0.0429
 2933SOL    HW120432   2.349   3.331   2.104  0.4143  0.2718 -0.0250
 2933SOL    HW220433   2.225   3.314   2.030 -1.0216  0.7407 -0.2842
 2934SOL     OW20434   1.709   0.213   7.917  0.0610 -0.2103 -0.2166
 2934SOL    HW120435   1.659   0.193   7.838 -1.2517  0.9161  0.3247
 2934SOL    HW220436   1.757   0.288   7.882 -0.4227 -0.2208 -0.9080
 2935SOL     OW20437   0.975   4.145   7.163 -0.2381 -0.6767  0.0608
 2935SOL    HW120438   1.063   4.152   7.124 -0.6180  3.0486 -0.0640
 2935SOL    HW220439   0.923   4.137   7.083 -0.7014  0.3868  0.2547
 2936SOL     OW20440   3.397   2.182   0.774 -0.3830  0.4005  0.3709
 2936SOL    HW120441   3.451   2.123   0.721  0.0833  1.3671 -0.2363
 2936SOL    HW220442   3.443   2.266   0.768 -1.1225  0.9085  1.8743
 2937SOL     OW20443   1.222   1.807   2.160  0.2062  0.3807  0.4489
 2937SOL    HW120444   1.248   1.716   2.170 -1.6278  0.0774  2.3250
 2937SOL    HW220445   1.263   1.844   2.238 -1.5829  1.7278  0.7518
 2938SOL     OW20446   4.071   1.875  12.605  0.1353 -0.4574 -0.3169
 2938SOL    HW120447   4.121   1.920  12.536 -0.7330 -2.3278 -2.1584
 2938SOL    HW220448   3.986   1.859  12.566  0.2976  2.0378 -1.6757
 2939SOL     OW20449   4.063   0.526   9.326 -0.2613  0.0832 -0.1063
 2939SOL    HW120450   4.073   0.620   9.346  2.6322 -0.1865 -0.3299
 2939SOL    HW220451   4.049   0.501   9.418  1.7636 -3.2524 -0.7127
 2940SOL     OW20452   1.812   3.557  15.253 -0.6309  0.6562  0.0550
 2940SOL    HW120453   1.890   3.604  15.224 -0.2467 -1.1374 -1.8615
 2940SOL    HW220454   1.767   3.561  15.168 -1.2789  2.0675  0.4715
 2941SOL     OW20455   4.281   1.565   6.149 -0.3833  0.1763  0.2785
 2941SOL    HW120456   4.346   1.627   6.180 -1.0854 -0.2101  2.5160
 2941SOL    HW220457   4.220   1.623   6.104  1.7282  1.7508 -0.4940
 2942SOL     OW20458   0.828   3.963   2.784 -0.0775 -0.4161  0.2978
 2942SOL    HW120459   0.811   3.874   2.816 -2.6588 -0.0870 -0.2049
 2942SOL    HW220460   0.762   4.008   2.837  0.7895  0.2914  0.7795
 2943SOL     OW20461   1.331   0.214   4.067 -0.2992 -0.2440  0.1597
 2943SOL    HW120462   1.265   0.266   4.113 -0.7024 -1.2142  0.6703
 2943SOL    HW220463   1.355   0.257   3.985  2.2512 -1.3400  0.3217
 2944SOL     OW20464   4.206   4.403   4.085  0.1597  0.2062  0.0405
 2944SOL    HW120465   4.119   4.404   4.124 -1.2738  0.4791 -3.1617
 2944SOL    HW220466   4.253   4.351   4.149  0.9681  0.6650 -0.1836
 2945SOL     OW20467   0.320   2.271  10.931 -0.2644 -0.2451 -0.1851
 2945SOL    HW120468   0.239   2.223  10.952 -0.8577  1.4501  1.3835
 2945SOL    HW220469   0.283   2.358  10.944  0.7898  0.2178 -0.2567
 2946SOL     OW20470   2.161   0.464   5.563 -0.0369 -0.1725  0.2901
 2946SOL    HW120471   2.147   0.530   5.632 -1.1832  0.9884 -1.0574
 2946SOL    HW220472   2.199   0.390   5.611 -0.5168 -1.5657 -1.4836
 2947SOL     OW20473   2.653   4.208  14.926  0.6396  0.5095  0.2125
 2947SOL    HW120474   2.653   4.301  14.904 -0.4045  0.2197 -0.9943
 2947SOL    HW220475   2.628   4.174  14.841  0.1853  1.2817  0.0333
 2948SOL     OW20476   3.819   4.420  17.421  0.0702  0.1849 -0.7402
 2948SOL    HW120477   3.771   4.417  17.504  0.0035 -0.8849 -0.8082
 2948SOL    HW220478   3.775   4.498  17.389 -0.7041  0.3621  0.7743
 2949SOL     OW20479   4.335   0.815  11.074 -0.0392  0.3527  0.4385
 2949SOL    HW120480   4.282   0.799  10.995  1.8645  0.2860 -0.8069
 2949SOL    HW220481   4.296   0.895  11.108 -0.7803  0.1899 -0.0069
 2950SOL     OW20482   4.414   3.240   8.103 -0.3475  0.1210  0.1090
 2950SOL    HW120483   4.416   3.220   8.197 -0.0693 -1.3534 -0.1996
 2950SOL    HW220484   4.426   3.157   8.056 -1.7387 -0.4000  0.6854
 2951SOL     OW20485   0.728   3.329   1.750 -0.0493  0.0711 -0.1677
 2951SOL    HW120486   0.657   3.383   1.717  1.7046  0.0682 -3.9962
 2951SOL    HW220487   0.802   3.358   1.696  1.1688 -1.9080  0.4412
 2952SOL     OW20488   3.668   0.951   2.869 -0.4251  0.3003  0.5845
 2952SOL    HW120489   3.577   0.951   2.838  0.2097 -0.0327 -1.2454
 2952SOL    HW220490   3.662   1.019   2.936 -1.0744 -0.5844  1.4119
 2953SOL     OW20491   2.302   3.936   3.841 -0.5245  0.3137  0.3327
 2953SOL    HW120492   2.284   3.891   3.759 -0.4889 -0.7483  0.9178
 2953SOL    HW220493   2.387   3.900   3.865 -0.2934  1.2766  0.9508
 2954SOL     OW20494   1.183   2.082   5.134  0.1331 -0.4906 -0.3798
 2954SOL    HW120495   1.171   2.175   5.116  0.6716 -0.6869 -1.7456
 2954SOL    HW220496   1.094   2.047   5.134  0.3139 -0.9361 -1.3250
 2955SOL     OW20497   3.840   4.576  15.423  0.1837  0.1309  0.6492
 2955SOL    HW120498   3.881   4.630  15.355 -0.8883  0.1184 -0.0045
 2955SOL    HW220499   3.755   4.620  15.427  1.7564  3.5078 -2.4647
 2956SOL     OW20500   3.300   1.981   3.255  0.2564  0.7457 -0.4509
 2956SOL    HW120501   3.343   2.058   3.218  3.5275 -1.1852 -0.6561
 2956SOL    HW220502   3.236   1.968   3.185  1.9488 -2.2397 -1.4402
 2957SOL     OW20503   0.072   3.678   3.617  0.3570  0.1822 -0.1495
 2957SOL    HW120504   0.118   3.756   3.586 -2.1950  1.9871  0.6251
 2957SOL    HW220505   0.088   3.611   3.551  1.5481 -0.9174  1.2755
 2958SOL     OW20506   1.451   4.561  13.291  0.1540  0.0624 -0.2018
 2958SOL    HW120507   1.411   4.474  13.294  1.0129 -0.3422 -0.3120
 2958SOL    HW220508   1.379   4.622  13.300  0.6294  0.5753  0.1445
 2959SOL     OW20509   1.637   3.422  17.498  0.2316  0.2584  0.2622
 2959SOL    HW120510   1.622   3.409  17.592 -2.4437 -1.2217 -0.3724
 2959SOL    HW220511   1.600   3.340  17.465 -0.1072  0.0305  1.1954
 2960SOL     OW20512   4.624   1.994  10.893 -0.3113  0.4611 -0.0888
 2960SOL    HW120513   4.654   2.046  10.967  1.5865  0.7600 -1.0854
 2960SOL    HW220514   4.689   2.026  10.830  0.2778  0.5021  0.5403
 2961SOL     OW20515   3.266   4.712   2.124 -0.1157 -0.0971  0.3960
 2961SOL    HW120516   3.172   4.694   2.126 -0.6021  2.8169  3.5535
 2961SOL    HW220517   3.301   0.005   2.208  3.2910 -1.8641 -0.3886
 2962SOL     OW20518   3.543   1.398   3.163 -0.1976 -0.3747  0.1622
 2962SOL    HW120519   3.605   1.418   3.233  0.6503  0.9300 -0.9663
 2962SOL    HW220520   3.551   1.476   3.108 -1.2886  0.1845  0.7979
 2963SOL     OW20521   3.799   0.870   9.382 -0.5063 -0.1721 -0.1704
 2963SOL    HW120522   3.747   0.791   9.367 -1.5366  0.9084 -2.1383
 2963SOL    HW220523   3.812   0.865   9.477 -0.6401  2.6158 -0.0189
 2964SOL     OW20524   1.798   1.663   1.243 -0.3772  0.0452 -0.0923
 2964SOL    HW120525   1.781   1.576   1.281  0.3025 -0.4602 -0.9441
 2964SOL    HW220526   1.861   1.696   1.306 -1.3142 -0.1311  0.9440
 2965SOL     OW20527   1.368   3.172   5.089  0.1412 -0.1139 -0.2168
 2965SOL    HW120528   1.426   3.241   5.122  0.6178 -1.4566  1.7806
 2965SOL    HW220529   1.375   3.110   5.162  1.0816  0.1801 -0.0582
 2966SOL     OW20530   3.548   4.468  17.023  0.1701 -0.0029  0.2074
 2966SOL    HW120531   3.629   4.518  17.038  0.7895 -1.0606  0.4104
 2966SOL    HW220532   3.581   4.393  16.973 -3.3394 -0.9347 -0.7268
 2967SOL     OW20533   1.934   0.912  15.978 -0.2431  0.3037 -0.6159
 2967SOL    HW120534   1.941   1.004  15.953  0.1765 -0.2501 -2.5039
 2967SOL    HW220535   1.884   0.920  16.059  1.8714 -0.8215  0.7921
 2968SOL     OW20536   2.416   3.157   3.544 -0.6234  0.1330  0.3210
 2968SOL    HW120537   2.332   3.118   3.518  0.9832 -2.1457 -1.5129
 2968SOL    HW220538   2.426   3.219   3.471 -1.2985  0.0017  0.1098
 2969SOL     OW20539   1.875   1.659   8.978 -0.2308  0.4973 -0.4005
 2969SOL    HW120540   1.855   1.591   8.914  0.0141 -0.6643  0.7650
 2969SOL    HW220541   1.799   1.716   8.967 -0.5731  0.4721  1.8891
 2970SOL     OW20542   0.545   3.886   8.769 -0.1890  0.1925 -0.0680
 2970SOL    HW120543   0.634   3.880   8.735  0.0591  0.3245  0.5557
 2970SOL    HW220544   0.545   3.936   8.850 -0.1922 -0.5982  0.4272
 2971SOL     OW20545   0.399   4.709   8.342  0.8004  0.2831 -0.5977
 2971SOL    HW120546   0.370   4.734   8.430 -1.5880  1.5006 -1.7109
 2971SOL    HW220547   0.352   4.626   8.342  0.1268  0.6676 -2.3984
 2972SOL     OW20548   1.000   0.183   0.400 -0.3148 -0.9175 -0.3734
 2972SOL    HW120549   1.080   0.164   0.450  0.4243 -0.4376 -1.3574
 2972SOL    HW220550   1.001   0.278   0.386  0.9790 -1.1959 -2.2626
 2973SOL     OW20551   3.942   3.934  12.064 -0.1313  0.4004  0.0970
 2973SOL    HW120552   3.919   3.936  11.971 -0.1313 -0.3309  0.0803
 2973SOL    HW220553   3.859   3.924  12.112 -0.0491  2.2144  0.6251
 2974SOL     OW20554   4.344   2.792  12.121  0.1887 -0.1969 -0.3243
 2974SOL    HW120555   4.267   2.821  12.073  2.1244  2.5712 -1.7923
 2974SOL    HW220556   4.403   2.762  12.052  1.3100  1.0707  0.0796
 2975SOL     OW20557   4.493   4.361  15.110  0.2645 -0.1177 -0.4663
 2975SOL    HW120558   4.491   4.302  15.034 -1.5837 -1.7958  0.9086
 2975SOL    HW220559   4.444   4.308  15.172 -3.0312  2.0889 -1.1784
 2976SOL     OW20560   2.732   3.653   3.720  0.0371  0.0886  0.0397
 2976SOL    HW120561   2.814   3.607   3.703 -0.7223 -1.1440 -0.2409
 2976SOL    HW220562   2.722   3.706   3.641 -0.9954  0.4196  0.3939
 2977SOL     OW20563   4.145   0.334  10.399  0.2386 -0.0004 -0.5420
 2977SOL    HW120564   4.190   0.272  10.341 -0.8480  0.6992 -2.1359
 2977SOL    HW220565   4.221   0.359  10.451 -1.0885 -0.6050  1.6787
 2978SOL     OW20566   1.586   4.170   6.023  0.4679 -0.2286  0.9127
 2978SOL    HW120567   1.634   4.163   6.105  0.4777 -1.8458  0.7598
 2978SOL    HW220568   1.510   4.222   6.050 -0.2618 -1.0280  0.3781
 2979SOL     OW20569   4.306   3.974  16.189  0.5233  0.2016  0.1592
 2979SOL    HW120570   4.331   3.904  16.128 -0.9817 -0.7594  0.6325
 2979SOL    HW220571   4.310   4.054  16.137 -1.3678  0.5730  0.6116
 2980SOL     OW20572   0.263   2.429   7.422 -0.1017  0.1552  0.2826
 2980SOL    HW120573   0.247   2.474   7.505  0.1455  0.2371  0.2884
 2980SOL    HW220574   0.221   2.344   7.428 -1.0541  0.5968 -0.1121
 2981SOL     OW20575   0.215   3.950   6.556 -0.0401 -0.1487 -0.0522
 2981SOL    HW120576   0.193   4.038   6.585 -0.3143  0.0164 -0.7534
 2981SOL    HW220577   0.238   3.908   6.639  1.1085 -0.5270 -0.5602
 2982SOL     OW20578   0.942   1.154   3.780 -0.4198 -0.3892 -0.1517
 2982SOL    HW120579   0.888   1.229   3.805  0.2040 -0.0747  0.2382
 2982SOL    HW220580   1.014   1.194   3.733 -0.6263 -0.4810 -0.5490
 2983SOL     OW20581   4.510   2.972   8.550 -0.2957 -0.4565  0.3188
 2983SOL    HW120582   4.427   2.948   8.510 -0.1913  0.2698 -0.3373
 2983SOL    HW220583   4.575   2.917   8.506 -0.2225 -0.2461  0.1635
 2984SOL     OW20584   2.440   0.012   0.945  0.7260 -0.4466  0.0220
 2984SOL    HW120585   2.434   4.678   0.880  1.8845 -0.0413 -0.5199
 2984SOL    HW220586   2.509   0.070   0.912 -1.0249  1.1305 -0.8609
 2985SOL     OW20587   4.459   2.435   3.765  0.3688  0.6675  0.3466
 2985SOL    HW120588   4.493   2.432   3.855  1.5888  1.3308 -0.1017
 2985SOL    HW220589   4.452   2.529   3.748 -1.3900  0.7059  1.3321
 2986SOL     OW20590   4.407   2.696  15.337 -0.1100 -0.2605  0.0505
 2986SOL    HW120591   4.502   2.684  15.343 -0.5119 -2.9191  1.0354
 2986SOL    HW220592   4.390   2.733  15.251 -0.2842 -0.5844 -0.0532
 2987SOL     OW20593   3.625   2.338  11.701 -0.6372  0.1849 -0.3482
 2987SOL    HW120594   3.678   2.321  11.623 -2.0881  1.5717 -1.6284
 2987SOL    HW220595   3.682   2.394  11.753  0.1680 -1.4356  0.5247
 2988SOL     OW20596   4.434   2.282  16.681  0.6008  0.9479 -0.0305
 2988SOL    HW120597   4.415   2.365  16.725 -0.3697  0.9553 -0.4729
 2988SOL    HW220598   4.469   2.317  16.599 -1.8500 -0.8592 -1.8269
 2989SOL     OW20599   1.902   0.798  17.257  0.4020 -0.0127  0.1685
 2989SOL    HW120600   1.810   0.820  17.267  0.7111  1.3321  0.1124
 2989SOL    HW220601   1.907   0.720  17.201  0.4200 -0.3546  0.6544
 2990SOL     OW20602   0.308   4.661  13.827  0.0095  0.2808 -0.0863
 2990SOL    HW120603   0.240   4.603  13.792 -0.9090  0.1266  1.9231
 2990SOL    HW220604   0.247   4.682  13.899  0.2768  0.2121  0.1623
 2991SOL     OW20605   2.329   2.101   1.638  0.7307 -0.0952  0.6106
 2991SOL    HW120606   2.339   2.006   1.643 -0.2750 -0.1814  1.0383
 2991SOL    HW220607   2.233   2.101   1.643  0.6407  3.8038 -1.5087
 2992SOL     OW20608   2.332   0.025   4.281  0.2610 -0.6661  0.6023
 2992SOL    HW120609   2.402   0.004   4.219 -0.9530 -0.5992 -0.8063
 2992SOL    HW220610   2.286   4.679   4.289  0.0964 -0.5797  0.5439
 2993SOL     OW20611   2.335   4.202   5.316 -0.3701  0.4251 -0.1086
 2993SOL    HW120612   2.240   4.198   5.306 -0.3928  0.3237  0.1512
 2993SOL    HW220613   2.353   4.296   5.317  0.9535  0.1502  1.6875
 2994SOL     OW20614   0.002   3.192   2.535 -0.3185  0.0313  0.1490
 2994SOL    HW120615   4.706   3.216   2.622 -2.1177 -1.3073 -0.1383
 2994SOL    HW220616   4.690   3.256   2.483 -0.0625  0.9083  0.9866
 2995SOL     OW20617   1.313   1.885   7.489  0.2969  0.3117 -0.1377
 2995SOL    HW120618   1.272   1.935   7.418 -0.8421 -0.0532  0.2694
 2995SOL    HW220619   1.365   1.945   7.543 -0.0266  0.5754 -0.1213
 2996SOL     OW20620   4.175   0.408  13.877  0.6106  0.1246 -0.2037
 2996SOL    HW120621   4.160   0.357  13.797  0.5438  0.3719 -0.3510
 2996SOL    HW220622   4.241   0.473  13.852  1.0951  0.5424  2.1631
 2997SOL     OW20623   2.321   2.957  14.784 -0.2878 -0.1717  0.3043
 2997SOL    HW120624   2.247   2.897  14.785 -0.6205  0.2379 -0.4105
 2997SOL    HW220625   2.384   2.893  14.818 -0.7831 -2.3240 -2.7858
 2998SOL     OW20626   2.690   3.253  15.807  0.2140  0.2520  0.1035
 2998SOL    HW120627   2.625   3.237  15.739  0.7704 -2.1349  0.1254
 2998SOL    HW220628   2.687   3.174  15.861 -3.8261 -0.2094 -0.8034
 2999SOL     OW20629   3.671   1.441  16.202  0.1458 -0.0226  0.3171
 2999SOL    HW120630   3.765   1.451  16.191 -0.3608  1.6062 -2.5525
 2999SOL    HW220631   3.641   1.520  16.157 -1.5183 -1.2056 -0.6415
 3000SOL     OW20632   2.683   4.286  15.497 -0.1822  0.0532  0.3569
 3000SOL    HW120633   2.700   4.380  15.493  0.1913  0.0956  3.1761
 3000SOL    HW220634   2.720   4.259  15.413 -3.2397 -2.0411 -0.2884
 3001SOL     OW20635   1.667   1.525  10.369  0.4547 -1.0416  0.1958
 3001SOL    HW120636   1.627   1.604  10.334  2.5007 -0.0007  0.2116
 3001SOL    HW220637   1.708   1.489  10.290  0.2897 -1.1620  0.1655
 3002SOL     OW20638   3.924   2.857   2.790 -0.0855  0.1988  0.8911
 3002SOL    HW120639   3.921   2.923   2.859 -1.9573  1.6097 -0.5307
 3002SOL    HW220640   3.873   2.788   2.835  1.2923 -0.1183  1.9676
 3003SOL     OW20641   3.402   2.462   8.886  0.1111  0.2605 -0.4506
 3003SOL    HW120642   3.421   2.427   8.973  1.5697  4.0367  0.7414
 3003SOL    HW220643   3.488   2.470   8.845 -1.8141 -0.4906 -4.6395
 3004SOL     OW20644   4.165   3.544   6.477  0.4765 -0.3481  0.2791
 3004SOL    HW120645   4.253   3.581   6.469 -0.2101  0.9122 -1.7574
 3004SOL    HW220646   4.126   3.615   6.528 -0.2518 -1.4852  1.2809
 3005SOL     OW20647   2.201   3.184   1.887  0.2479  0.5214  0.4946
 3005SOL    HW120648   2.268   3.123   1.856  0.5356  0.7638  0.6522
 3005SOL    HW220649   2.134   3.156   1.825 -0.3756 -0.8128  1.7550
 3006SOL     OW20650   2.178   0.014   7.560 -0.7609  0.5569  0.3321
 3006SOL    HW120651   2.229   0.092   7.582 -0.6203  0.5331  0.0932
 3006SOL    HW220652   2.137   0.039   7.477 -2.8042 -1.1020  0.8678
 3007SOL     OW20653   3.271   0.051   5.140  0.0730 -0.0616  0.2384
 3007SOL    HW120654   3.228   4.722   5.084  0.4701  0.1616 -0.3281
 3007SOL    HW220655   3.355   0.056   5.094  1.2855 -0.0912  2.4676
 3008SOL     OW20656   0.912   1.406   2.537 -0.0232 -0.5490 -0.4117
 3008SOL    HW120657   0.888   1.318   2.567 -1.7251  0.8189  2.1986
 3008SOL    HW220658   0.869   1.397   2.451  0.2498 -0.3266 -0.5702
 3009SOL     OW20659   3.624   3.137   8.333  0.3493 -0.2221  0.1796
 3009SOL    HW120660   3.537   3.108   8.307  1.0692 -1.6358 -0.6546
 3009SOL    HW220661   3.650   3.061   8.385 -0.3659 -0.0851  0.7289
 3010SOL     OW20662   1.411   2.351   7.744 -0.3333  0.1130 -0.2238
 3010SOL    HW120663   1.329   2.302   7.741  0.4168 -1.1199 -0.7178
 3010SOL    HW220664   1.466   2.309   7.677  1.1055 -1.3141  1.8665
 3011SOL     OW20665   3.899   2.348   9.394 -0.0824  0.4881 -0.4547
 3011SOL    HW120666   3.903   2.329   9.488  1.5600  0.2100 -0.5843
 3011SOL    HW220667   3.961   2.419   9.379 -2.6432  2.5329 -1.2630
 3012SOL     OW20668   0.103   4.002   8.075  0.0224  0.8456  0.3580
 3012SOL    HW120669   0.160   3.995   8.151 -1.0391 -4.0343  0.7169
 3012SOL    HW220670   0.028   3.945   8.091  0.4786  0.4872  1.1791
 3013SOL     OW20671   3.030   2.133   4.389  0.7038  0.4505  0.3211
 3013SOL    HW120672   2.992   2.219   4.403 -1.2650 -0.6437  1.7574
 3013SOL    HW220673   2.965   2.069   4.417 -0.2533  0.9251 -0.8321
 3014SOL     OW20674   3.597   3.363  13.243  0.2561 -0.5163  0.7004
 3014SOL    HW120675   3.653   3.286  13.240  1.0231  0.0754 -0.2597
 3014SOL    HW220676   3.523   3.324  13.289 -1.3751  1.0583 -0.5967
 3015SOL     OW20677   2.622   2.403   3.206  0.3874  0.2935 -1.0505
 3015SOL    HW120678   2.683   2.446   3.146  2.8961  1.2079  2.1613
 3015SOL    HW220679   2.650   2.432   3.292  0.2703 -0.7114 -0.6735
 3016SOL     OW20680   3.378   3.790   3.933 -0.3468 -0.5267  0.2262
 3016SOL    HW120681   3.458   3.819   3.889 -0.4052  0.2971  0.6513
 3016SOL    HW220682   3.415   3.721   3.988 -0.0976 -0.3579  0.2684
 3017SOL     OW20683   2.305   0.468   3.463 -0.4236 -0.3362 -0.2098
 3017SOL    HW120684   2.283   0.503   3.550 -1.3260 -0.4063 -0.4057
 3017SOL    HW220685   2.379   0.413   3.488 -2.0392 -2.2725  0.3044
 3018SOL     OW20686   3.506   1.470   8.978  0.1252  0.1168  0.3554
 3018SOL    HW120687   3.460   1.540   9.024 -2.6117  0.7495 -3.3610
 3018SOL    HW220688   3.550   1.512   8.904 -0.2907 -0.6626 -0.3365
 3019SOL     OW20689   3.205   2.720   9.543 -0.1621  0.4587  0.4601
 3019SOL    HW120690   3.249   2.679   9.468 -1.9802  0.7530 -0.7912
 3019SOL    HW220691   3.129   2.758   9.498 -1.0761 -0.7649  0.9775
 3020SOL     OW20692   1.896   2.758   9.519  0.2048  0.3398 -0.3582
 3020SOL    HW120693   1.832   2.828   9.508  0.3926  0.4378 -0.8498
 3020SOL    HW220694   1.858   2.698   9.455  1.3692 -1.2616  0.4390
 3021SOL     OW20695   2.571   2.415   3.658  0.4931 -0.2461 -0.0755
 3021SOL    HW120696   2.593   2.369   3.578 -3.6415 -0.4836 -1.1113
 3021SOL    HW220697   2.585   2.349   3.726  0.2038 -0.0305  0.2019
 3022SOL     OW20698   0.172   2.316   1.356 -0.3559  0.6660 -0.5001
 3022SOL    HW120699   0.162   2.410   1.367 -2.0254  0.1734  2.2556
 3022SOL    HW220700   0.113   2.278   1.422  1.6555 -0.2106  0.7827
 3023SOL     OW20701   2.723   2.028   9.105  0.1290  0.0961  0.2488
 3023SOL    HW120702   2.747   2.001   9.194  3.0571 -0.7981 -0.8354
 3023SOL    HW220703   2.671   1.951   9.083  0.0398 -0.5083  2.5227
 3024SOL     OW20704   2.832   0.830   4.428 -0.3530  0.2340  0.2541
 3024SOL    HW120705   2.833   0.913   4.476  0.2066  0.2975  0.1290
 3024SOL    HW220706   2.742   0.802   4.440  0.0233 -0.1750  2.2162
 3025SOL     OW20707   3.283   1.334  11.937  0.2295 -0.5990  0.5357
 3025SOL    HW120708   3.244   1.255  11.900 -1.2588  0.8674 -1.0262
 3025SOL    HW220709   3.210   1.396  11.934  0.0853 -0.7283  1.2150
 3026SOL     OW20710   1.943   2.617   2.838  0.1919 -0.0846 -0.0125
 3026SOL    HW120711   1.865   2.628   2.784  0.3287 -1.2397 -0.4431
 3026SOL    HW220712   1.972   2.537   2.794 -0.3954 -0.5996  0.5412
 3027SOL     OW20713   2.582   4.310   4.127 -0.3732  0.7483  0.0331
 3027SOL    HW120714   2.493   4.342   4.136 -0.8983 -0.7520  0.1186
 3027SOL    HW220715   2.559   4.220   4.102  1.1885  0.3455  0.0235
 3028SOL     OW20716   0.329   3.129   6.210  0.1157  0.0950  0.1968
 3028SOL    HW120717   0.275   3.054   6.187 -0.5260  0.7409 -0.3871
 3028SOL    HW220718   0.418   3.096   6.198  0.0446 -0.0292  0.0197
 3029SOL     OW20719   4.723   2.197  16.129 -0.2965  0.8505  0.0363
 3029SOL    HW120720   0.051   2.176  16.062 -0.2046 -1.5060  0.8745
 3029SOL    HW220721   4.689   2.281  16.097 -0.4077  0.9762  0.4822
 3030SOL     OW20722   1.589   1.025   6.052 -0.3161  0.9372  0.2413
 3030SOL    HW120723   1.533   1.019   6.130 -1.3922 -0.0598 -0.6024
 3030SOL    HW220724   1.520   1.044   5.988 -0.3153 -0.5432 -0.2098
 3031SOL     OW20725   2.938   1.774   3.108 -0.1399 -0.2226 -0.0913
 3031SOL    HW120726   2.955   1.695   3.056  2.9324  0.9011 -0.7882
 3031SOL    HW220727   2.842   1.772   3.104 -0.1500 -1.5325  0.7533
 3032SOL     OW20728   4.309   1.484   9.899  0.1684 -0.1679 -0.0100
 3032SOL    HW120729   4.368   1.552   9.866 -0.4903  0.6182  0.4559
 3032SOL    HW220730   4.354   1.409   9.860 -1.7312 -1.0967 -0.4098
 3033SOL     OW20731   1.386   1.378  15.970  0.1014 -0.8281  0.3258
 3033SOL    HW120732   1.372   1.456  15.916  1.6784 -1.3726 -0.8603
 3033SOL    HW220733   1.407   1.413  16.056  1.3857  0.0676 -0.3492
 3034SOL     OW20734   2.896   1.002   7.841 -0.2173  0.0525  0.9191
 3034SOL    HW120735   2.867   0.977   7.928  0.7970  0.8854  1.5007
 3034SOL    HW220736   2.815   0.978   7.797  1.1579 -0.4828 -1.3465
 3035SOL     OW20737   0.794   1.858   6.960  0.5579  0.2350  0.1452
 3035SOL    HW120738   0.806   1.766   6.984  2.8089  0.1380 -1.3089
 3035SOL    HW220739   0.830   1.845   6.872 -1.3100 -2.0797 -0.2989
 3036SOL     OW20740   4.414   1.600  10.244 -0.1463  0.0148  0.2426
 3036SOL    HW120741   4.359   1.522  10.249  0.8923 -0.8155 -1.2961
 3036SOL    HW220742   4.502   1.562  10.239  0.0275  0.5879 -1.0055
 3037SOL     OW20743   1.100   2.974   4.377 -0.2438  0.2411  0.3183
 3037SOL    HW120744   1.027   2.944   4.322 -0.1317 -1.4646  1.1144
 3037SOL    HW220745   1.161   3.015   4.316  0.3462  0.4879  1.0837
 3038SOL     OW20746   3.347   1.752   6.690 -0.0398 -0.3839  0.2978
 3038SOL    HW120747   3.281   1.822   6.689 -0.3251 -0.6453  1.5314
 3038SOL    HW220748   3.367   1.767   6.597  2.6216 -0.7957  0.8106
 3039SOL     OW20749   1.673   0.383   2.217  0.0281 -0.1919  0.2313
 3039SOL    HW120750   1.620   0.416   2.288  0.4830  1.0274  0.0062
 3039SOL    HW220751   1.762   0.399   2.250  1.1209 -2.4143 -1.5538
 3040SOL     OW20752   1.261   4.361   3.993  0.0660 -0.3288  0.4051
 3040SOL    HW120753   1.170   4.360   3.962  0.6076 -1.4696 -1.1463
 3040SOL    HW220754   1.245   4.408   4.075 -1.4246 -2.5536  1.4062
 3041SOL     OW20755   4.554   2.859  15.757  0.1054 -0.0321  0.1190
 3041SOL    HW120756   4.470   2.901  15.775 -0.3051 -0.9991  0.4666
 3041SOL    HW220757   4.596   2.901  15.682 -0.5695  2.3100  1.0620
 3042SOL     OW20758   0.444   0.097   3.538  0.0023 -0.1992  0.2105
 3042SOL    HW120759   0.492   0.128   3.462 -1.7425  0.7522 -0.5203
 3042SOL    HW220760   0.486   0.013   3.557 -1.8572 -1.1139  0.3043
 3043SOL     OW20761   3.768   3.073  10.295 -0.0200 -0.1551 -0.1228
 3043SOL    HW120762   3.800   2.987  10.322 -0.7988 -0.6167 -0.6393
 3043SOL    HW220763   3.689   3.047  10.247 -0.0311 -0.5470  0.1025
 3044SOL     OW20764   2.673   3.531   4.452 -0.4687 -0.0944  0.6800
 3044SOL    HW120765   2.673   3.436   4.462 -5.7736 -0.0672  0.7475
 3044SOL    HW220766   2.622   3.542   4.372  1.5762  1.8044 -0.3974
 3045SOL     OW20767   3.761   2.982  14.175 -0.6339 -0.1294  0.2471
 3045SOL    HW120768   3.795   2.961  14.087  0.7439  2.2125  0.2327
 3045SOL    HW220769   3.836   2.980  14.235 -0.0524 -2.0458 -0.5151
 3046SOL     OW20770   0.988   0.958  16.452 -0.4262 -0.2120  0.1241
 3046SOL    HW120771   0.901   0.960  16.491 -1.2339 -0.1102 -1.6728
 3046SOL    HW220772   0.981   1.028  16.387 -0.4014  0.0044  0.3554
 3047SOL     OW20773   1.063   1.158   2.719 -0.5897  0.1556 -0.0757
 3047SOL    HW120774   0.972   1.186   2.705 -0.6028 -1.9272 -4.1824
 3047SOL    HW220775   1.082   1.217   2.792  1.1901 -0.4487 -0.0656
 3048SOL     OW20776   4.267   3.673   6.894 -0.0078 -0.4242 -0.7942
 3048SOL    HW120777   4.217   3.599   6.926 -0.5709  0.9171  1.3763
 3048SOL    HW220778   4.195   3.729   6.863  2.1914  2.1440 -1.3345
 3049SOL     OW20779   2.532   3.050   4.188 -0.4935  0.2007  0.2941
 3049SOL    HW120780   2.558   2.995   4.262  2.1250 -1.3468 -1.7463
 3049SOL    HW220781   2.437   3.054   4.192 -0.5092  0.9550 -0.6982
 3050SOL     OW20782   4.627   4.156  11.113 -0.1305 -0.0266 -0.0152
 3050SOL    HW120783   4.702   4.166  11.055 -2.2007 -0.0641 -2.6917
 3050SOL    HW220784   4.646   4.234  11.166 -1.5378  1.0569 -1.1123
 3051SOL     OW20785   1.217   2.070   4.732 -0.1252 -0.2796  0.6748
 3051SOL    HW120786   1.176   2.088   4.648  0.7401 -1.6730 -0.0590
 3051SOL    HW220787   1.135   2.058   4.779 -1.3240 -1.4713 -1.7493
 3052SOL     OW20788   0.548   4.346   8.499  0.3272  0.5804 -0.2051
 3052SOL    HW120789   0.573   4.404   8.571 -2.4298  0.1747  1.1019
 3052SOL    HW220790   0.622   4.355   8.439  0.4325  0.3102 -0.1186
 3053SOL     OW20791   1.693   2.858   7.937 -0.0430  0.6105 -0.4816
 3053SOL    HW120792   1.777   2.846   7.894  0.3876  0.6441  0.3497
 3053SOL    HW220793   1.684   2.953   7.944  0.3067  0.6108  0.0172
 3054SOL     OW20794   4.181   3.637   0.264 -0.2543  0.7686 -0.2107
 3054SOL    HW120795   4.104   3.664   0.314 -0.6407 -0.1807 -0.2862
 3054SOL    HW220796   4.149   3.679   0.183  2.4492  2.2135 -0.5065
 3055SOL     OW20797   4.037   2.364  11.680 -0.1115 -0.1271 -0.2431
 3055SOL    HW120798   4.061   2.299  11.614  2.5118  0.8579 -0.2582
 3055SOL    HW220799   4.017   2.308  11.756 -1.4976  0.6280 -0.0624
 3056SOL     OW20800   2.643   2.456   7.345  0.0285  0.4418 -0.7030
 3056SOL    HW120801   2.689   2.377   7.318  0.6470  1.0262 -1.3470
 3056SOL    HW220802   2.609   2.478   7.258 -3.3684 -0.6948  0.3448
 3057SOL     OW20803   1.361   2.707  15.276  0.1162  0.3611 -0.5362
 3057SOL    HW120804   1.332   2.680  15.363  0.1051  1.0619 -0.3222
 3057SOL    HW220805   1.349   2.631  15.220  0.5947 -0.6032  0.6719
 3058SOL     OW20806   3.377   4.065   3.995 -0.2907  0.4035  0.0292
 3058SOL    HW120807   3.437   4.020   4.055 -0.1634 -1.0600 -1.2239
 3058SOL    HW220808   3.316   4.085   4.066  0.2322  1.1131  0.2885
 3059SOL     OW20809   2.142   0.007   8.018  0.0987  0.0252  0.2123
 3059SOL    HW120810   2.140   0.074   7.950 -1.1759  0.1007  0.3317
 3059SOL    HW220811   2.087   0.056   8.079 -0.9901  0.3079 -0.9806
 3060SOL     OW20812   2.088   3.734  17.484  0.5386  0.2637  0.4113
 3060SOL    HW120813   2.057   3.822  17.464  2.5386  0.8548 -0.1200
 3060SOL    HW220814   2.008   3.682  17.484 -0.2344  1.4608 -1.5794
 3061SOL     OW20815   1.462   2.189   4.709 -0.4187  0.3223 -0.6059
 3061SOL    HW120816   1.381   2.140   4.719 -0.4240  0.1037 -1.8076
 3061SOL    HW220817   1.420   2.270   4.680  1.3775 -0.0251 -4.1044
 3062SOL     OW20818   1.838   4.586   8.398  0.4113 -0.6495 -0.0089
 3062SOL    HW120819   1.749   4.590   8.363 -0.2037 -0.5064  1.5413
 3062SOL    HW220820   1.849   4.644   8.474  2.1433  1.7882 -2.1501
 3063SOL     OW20821   1.153   3.788   6.539 -0.0878  0.1870 -0.2183
 3063SOL    HW120822   1.085   3.822   6.598 -2.2344 -1.9440 -1.4635
 3063SOL    HW220823   1.103   3.710   6.514  0.2749 -0.6279  1.6011
 3064SOL     OW20824   4.439   3.931   6.600  0.0624  0.4833 -0.3279
 3064SOL    HW120825   4.386   3.905   6.525  0.1027  1.0775 -0.5681
 3064SOL    HW220826   4.388   4.007   6.630 -0.6613 -1.0554  2.3972
 3065SOL     OW20827   3.421   1.361   5.870  0.3016 -0.1419 -0.2324
 3065SOL    HW120828   3.418   1.451   5.903  1.1882  0.0188 -0.5682
 3065SOL    HW220829   3.504   1.340   5.914 -0.5143 -0.4519  1.1300
 3066SOL     OW20830   4.733   1.610   2.129  0.0987  0.3622 -0.0049
 3066SOL    HW120831   0.025   1.656   2.050 -0.5987  1.0195  0.1275
 3066SOL    HW220832   4.639   1.610   2.113 -0.0001 -2.1616  0.7008
 3067SOL     OW20833   3.582   4.197   2.231  0.2186 -0.2341  0.5514
 3067SOL    HW120834   3.521   4.270   2.225  0.0490 -0.5973 -1.8991
 3067SOL    HW220835   3.661   4.211   2.179  0.1109 -1.1343  0.1501
 3068SOL     OW20836   1.722   2.695   5.402 -0.1533 -0.2247  0.0511
 3068SOL    HW120837   1.634   2.705   5.367  0.2704  2.8046 -0.1377
 3068SOL    HW220838   1.775   2.740   5.336  0.9949  1.3599  2.0659
 3069SOL     OW20839   3.824   2.515  11.369 -0.2901  0.7416 -0.2014
 3069SOL    HW120840   3.735   2.533  11.339 -1.3148 -0.9711  1.8320
 3069SOL    HW220841   3.844   2.592  11.423 -2.5822  0.4949  1.0205
 3070SOL     OW20842   3.363   4.563  15.611  0.0161 -0.0699  0.3155
 3070SOL    HW120843   3.353   4.598  15.699  0.1735 -2.3127  1.2222
 3070SOL    HW220844   3.362   4.468  15.626  1.2106  0.3092  2.7280
 3071SOL     OW20845   3.985   3.394   8.006 -0.1447 -0.1160 -0.4963
 3071SOL    HW120846   3.906   3.413   7.956  0.5211  0.5012 -1.3051
 3071SOL    HW220847   3.974   3.300   8.021 -0.8401 -0.1848 -1.4388
 3072SOL     OW20848   0.200   0.522   0.015  0.0396  0.3600 -0.2818
 3072SOL    HW120849   0.173   0.584  17.691 -1.7452 -0.2908 -0.1815
 3072SOL    HW220850   0.269   0.482  17.707  1.7427  1.3573  1.1930
 3073SOL     OW20851   0.943   3.034   9.507 -0.1298  0.1013 -0.2031
 3073SOL    HW120852   0.978   3.084   9.581  0.9657 -0.9584 -0.0028
 3073SOL    HW220853   0.867   3.088   9.484 -0.7387 -1.1036 -0.9885
 3074SOL     OW20854   0.236   4.283   8.773  0.2017  0.1094  0.2532
 3074SOL    HW120855   0.221   4.190   8.757 -0.3020  0.0451  1.0956
 3074SOL    HW220856   0.188   4.326   8.702 -0.6874 -2.1513 -0.5198
 3075SOL     OW20857   3.494   3.319   7.259 -0.0982 -0.1103  0.2158
 3075SOL    HW120858   3.568   3.264   7.234 -0.5603 -0.8980  0.6103
 3075SOL    HW220859   3.447   3.318   7.176 -0.7879  2.2209  0.5746
 3076SOL     OW20860   2.555   1.598   2.186  0.1132 -0.2534  0.2979
 3076SOL    HW120861   2.537   1.601   2.092 -0.8739 -0.1559  0.4919
 3076SOL    HW220862   2.585   1.508   2.199  1.0293 -0.3946 -2.8043
 3077SOL     OW20863   3.836   2.202   2.683  0.2745  0.5797 -0.1817
 3077SOL    HW120864   3.889   2.122   2.690 -0.8615 -0.1902 -0.3678
 3077SOL    HW220865   3.745   2.175   2.667 -0.7235  3.7906  0.1458
 3078SOL     OW20866   1.122   3.841   6.866 -0.1786  0.3776 -0.6243
 3078SOL    HW120867   1.201   3.797   6.898  0.1631 -1.5390 -4.0507
 3078SOL    HW220868   1.155   3.930   6.856  1.1142  0.0003  0.1868
 3079SOL     OW20869   3.812   4.038   1.584 -0.5388  0.1106 -0.3841
 3079SOL    HW120870   3.885   4.071   1.637  0.6814 -4.1300  0.5374
 3079SOL    HW220871   3.805   4.103   1.514  3.1883  0.2988 -0.5763
 3080SOL     OW20872   3.912   4.200  12.335  0.0242 -0.0418 -0.1417
 3080SOL    HW120873   3.934   4.243  12.417 -0.6499 -0.1826  0.1143
 3080SOL    HW220874   3.960   4.250  12.270  1.4678 -0.8755  0.2933
 3081SOL     OW20875   0.820   0.600   5.160  0.3464 -0.5531  0.4579
 3081SOL    HW120876   0.878   0.528   5.135  3.5904  1.4447  2.1984
 3081SOL    HW220877   0.754   0.597   5.091  3.5802 -0.3225 -2.6609
 3082SOL     OW20878   2.153   0.912   7.934  0.6958 -0.0192  0.1513
 3082SOL    HW120879   2.226   0.887   7.879  0.1722 -1.6520  0.1930
 3082SOL    HW220880   2.192   0.903   8.021 -0.7925  1.4993  0.9920
 3083SOL     OW20881   1.290   1.060  16.561 -0.4772 -0.2671  0.6229
 3083SOL    HW120882   1.241   1.084  16.482  1.9319  0.9403 -0.5470
 3083SOL    HW220883   1.382   1.078  16.541 -0.8634 -0.0926 -1.0071
 3084SOL     OW20884   1.327   1.750   2.445  0.2998 -0.5295 -0.3777
 3084SOL    HW120885   1.364   1.729   2.531  0.2959  2.6371  0.3884
 3084SOL    HW220886   1.238   1.714   2.451  0.5287 -1.0808 -0.2686
 3085SOL     OW20887   1.856   2.683   8.923 -0.1408 -0.3581  0.3226
 3085SOL    HW120888   1.943   2.704   8.890 -0.7345  1.9195  0.1552
 3085SOL    HW220889   1.884   2.666   9.013  1.6459  0.2973 -0.1053
 3086SOL     OW20890   2.854   4.590   6.482  0.3727 -0.0869  0.7768
 3086SOL    HW120891   2.837   4.611   6.390  2.8152 -3.4658 -0.4811
 3086SOL    HW220892   2.765   4.585   6.516 -0.5093  1.6329 -1.2842
 3087SOL     OW20893   3.803   3.953  13.003 -0.5048 -0.3069  0.2882
 3087SOL    HW120894   3.731   3.917  13.054 -0.9833 -1.6645 -1.3267
 3087SOL    HW220895   3.871   3.893  13.032 -0.3412 -1.4633 -2.4259
 3088SOL     OW20896   0.555   2.600   6.713  0.0634 -0.3133 -0.2000
 3088SOL    HW120897   0.623   2.667   6.721 -1.3294  1.4235 -2.9168
 3088SOL    HW220898   0.469   2.639   6.695 -0.9097 -1.8958  1.0776
 3089SOL     OW20899   2.167   3.779   2.906  0.3250 -0.3162 -0.3026
 3089SOL    HW120900   2.247   3.736   2.937  1.1582  0.8433 -0.8483
 3089SOL    HW220901   2.186   3.762   2.814 -1.3769 -1.7847 -0.3872
 3090SOL     OW20902   0.375   0.010   4.299  0.4339 -0.4196 -0.5124
 3090SOL    HW120903   0.448   0.062   4.333  0.8992 -1.1969 -0.3355
 3090SOL    HW220904   0.395   4.736   4.206  0.5127  1.6584 -0.7355
 3091SOL     OW20905   3.022   1.738   5.332  0.0302  0.0623  0.4943
 3091SOL    HW120906   3.053   1.650   5.311  0.7467  0.2938  0.5760
 3091SOL    HW220907   2.927   1.728   5.336 -0.0772  1.3477  1.1872
 3092SOL     OW20908   3.933   0.629   8.359  0.1400 -0.3143  0.8982
 3092SOL    HW120909   3.989   0.657   8.431  0.0320  2.1107  0.0419
 3092SOL    HW220910   3.873   0.702   8.342 -1.9069 -1.3448  3.6955
 3093SOL     OW20911   0.900   0.956   6.005 -0.2734 -0.1094  1.0911
 3093SOL    HW120912   0.980   0.928   6.048  0.7656 -0.3126 -0.9822
 3093SOL    HW220913   0.838   0.900   6.053 -1.0733  1.4736  1.9202
 3094SOL     OW20914   3.802   0.378   9.490  0.9274 -0.2023 -0.4722
 3094SOL    HW120915   3.857   0.427   9.551 -0.3186  1.0381 -0.3480
 3094SOL    HW220916   3.797   0.287   9.518 -1.9975 -0.6986 -2.5934
 3095SOL     OW20917   4.467   4.705  11.951  0.1375  0.3084  0.0713
 3095SOL    HW120918   4.379   4.699  11.913 -0.9507 -0.8067  2.8129
 3095SOL    HW220919   4.450   4.690  12.044 -0.4014  3.1009  0.4025
 3096SOL     OW20920   1.896   0.250   1.998  0.3106 -0.6586  0.1020
 3096SOL    HW120921   1.854   0.332   1.972  0.9477 -0.8715 -1.6507
 3096SOL    HW220922   1.961   0.242   1.928  0.1311  0.4446 -0.1924
 3097SOL     OW20923   3.741   3.415   6.577  0.5128 -0.2741  0.0185
 3097SOL    HW120924   3.800   3.443   6.507 -1.6236  1.2579 -1.1714
 3097SOL    HW220925   3.794   3.433   6.655  0.2384  0.1452  0.1086
 3098SOL     OW20926   1.187   2.984   0.398  0.1555  0.3078 -0.5933
 3098SOL    HW120927   1.200   3.069   0.440  1.2598 -0.0906 -0.1261
 3098SOL    HW220928   1.091   2.992   0.398  0.2917  1.9560  0.2919
 3099SOL     OW20929   4.120   1.923   2.933  0.1664 -0.0207 -0.2220
 3099SOL    HW120930   4.210   1.908   2.963  0.4817  1.8371 -0.2675
 3099SOL    HW220931   4.076   1.878   3.005  1.4744  1.5971  1.5863
 3100SOL     OW20932   1.756   0.553   8.300 -0.0139  0.6375 -0.2586
 3100SOL    HW120933   1.663   0.534   8.311 -0.0897  1.4973  0.6100
 3100SOL    HW220934   1.763   0.626   8.239  0.4431  1.3994  0.6919
 3101SOL     OW20935   1.981   0.139  10.409  0.1816 -0.5399 -0.7237
 3101SOL    HW120936   2.065   0.124  10.453 -0.8458 -3.0381  0.3947
 3101SOL    HW220937   1.982   0.072  10.341 -0.4713 -1.1967 -0.0877
 3102SOL     OW20938   0.673   0.018  12.585 -0.0206  0.3408  0.1052
 3102SOL    HW120939   0.627   0.056  12.509  2.1363  1.1629 -0.8092
 3102SOL    HW220940   0.732   4.697  12.536  0.6112  1.2661 -0.2473
 3103SOL     OW20941   3.211   0.224   2.474  0.1977  0.3080 -0.0442
 3103SOL    HW120942   3.248   0.233   2.562 -0.8413  0.7776  0.3469
 3103SOL    HW220943   3.165   0.308   2.469  1.8594  1.2105 -0.0027
 3104SOL     OW20944   3.000   1.881  13.227 -0.5971 -0.5968  0.0935
 3104SOL    HW120945   2.941   1.957  13.222 -0.8674 -0.9074 -1.3487
 3104SOL    HW220946   3.062   1.915  13.162 -1.3110 -1.0501 -0.8287
 3105SOL     OW20947   4.724   1.073   7.476 -0.5110 -0.4209  0.4986
 3105SOL    HW120948   4.713   1.093   7.382 -0.6853  0.3402  0.6773
 3105SOL    HW220949   0.041   0.994   7.483  2.5771  1.4498 -1.5429
 3106SOL     OW20950   0.465   3.444   0.821 -0.4518  0.1447  0.2092
 3106SOL    HW120951   0.515   3.447   0.739 -0.0355 -1.0550  0.4143
 3106SOL    HW220952   0.441   3.351   0.819 -0.5411  0.1987 -1.1319
 3107SOL     OW20953   2.328   4.665  15.131  0.1060 -0.0355 -0.3175
 3107SOL    HW120954   2.288   4.581  15.108 -1.9208  0.1309  2.4345
 3107SOL    HW220955   2.358   4.698  15.047  2.1339  0.9992  0.8024
 3108SOL     OW20956   1.285   1.990   3.554 -0.4774 -0.5396 -0.4687
 3108SOL    HW120957   1.273   1.968   3.462  1.0339 -3.3669 -0.0047
 3108SOL    HW220958   1.375   2.023   3.549 -0.9239  0.5053 -1.5088
 3109SOL     OW20959   4.179   2.965   5.987  0.1849 -0.8003  0.2253
 3109SOL    HW120960   4.091   2.982   5.954  0.0363 -0.5642  0.7430
 3109SOL    HW220961   4.179   2.870   5.977  1.6142 -0.5116 -2.3966
 3110SOL     OW20962   0.226   2.193   3.589 -0.3879  0.2736  0.3060
 3110SOL    HW120963   0.187   2.150   3.513  1.2174  0.4037 -0.5905
 3110SOL    HW220964   0.157   2.251   3.620 -1.2879 -1.2071  1.0554
 3111SOL     OW20965   3.248   0.854   6.016  0.3906 -0.3754  0.4810
 3111SOL    HW120966   3.304   0.913   6.066  0.3024 -0.5895  0.8297
 3111SOL    HW220967   3.160   0.882   6.039  0.7527  0.7073  0.5540
 3112SOL     OW20968   0.477   2.308   9.103 -0.0532 -0.2559 -0.0004
 3112SOL    HW120969   0.531   2.302   9.181  0.5615 -1.0873 -0.4896
 3112SOL    HW220970   0.410   2.241   9.118  0.6737 -0.6063  1.6670
 3113SOL     OW20971   2.033   2.386   4.159 -0.0696 -0.0663 -0.4624
 3113SOL    HW120972   2.005   2.313   4.214 -2.3938  1.9304  1.0074
 3113SOL    HW220973   1.990   2.362   4.077  0.3684 -0.3337 -0.6163
 3114SOL     OW20974   1.607   1.115  11.649 -0.2196 -0.4436 -0.0673
 3114SOL    HW120975   1.671   1.182  11.672 -1.4609  0.5351  0.5788
 3114SOL    HW220976   1.612   1.071  11.734  1.5011 -0.8599 -0.3885
 3115SOL     OW20977   1.383   4.203   6.595  0.2028 -0.0694 -0.7109
 3115SOL    HW120978   1.374   4.164   6.508 -2.9847  1.2623 -1.0017
 3115SOL    HW220979   1.319   4.274   6.600 -0.0008 -0.4199  1.6624
 3116SOL     OW20980   2.711   3.804   3.953 -0.8491  0.2886  0.4019
 3116SOL    HW120981   2.805   3.785   3.958 -0.2041  2.9381 -1.3522
 3116SOL    HW220982   2.687   3.766   3.868  3.5566  1.3568 -1.3518
 3117SOL     OW20983   1.218   1.095   3.179 -0.3762  0.1941 -0.2564
 3117SOL    HW120984   1.150   1.045   3.223 -0.3667  0.4619  0.0577
 3117SOL    HW220985   1.255   1.157   3.242  0.5485  0.2268 -0.8118
 3118SOL     OW20986   3.837   0.106   9.554  0.1243  0.2979 -0.0988
 3118SOL    HW120987   3.864   0.109   9.646  1.4243  0.7321 -0.4903
 3118SOL    HW220988   3.904   0.049   9.515 -0.5902 -0.3150 -0.4400
 3119SOL     OW20989   4.692   3.944  12.601  0.1724  0.4894  0.5935
 3119SOL    HW120990   4.616   3.914  12.551 -1.4983  1.2340  2.7215
 3119SOL    HW220991   0.007   3.993  12.537  0.7126  1.3934  1.7187
 3120SOL     OW20992   4.731   2.147   1.805 -0.3496  0.4695 -0.0737
 3120SOL    HW120993   0.058   2.092   1.851 -0.6947  0.1652  0.0360
 3120SOL    HW220994   4.652   2.097   1.822 -1.4714  1.8975 -1.0915
 3121SOL     OW20995   2.346   1.386   5.929 -0.1990 -0.3800 -0.5229
 3121SOL    HW120996   2.343   1.364   6.022 -1.2400  0.9747 -0.2391
 3121SOL    HW220997   2.289   1.316   5.897  0.8541 -0.4947 -2.1969
 3122SOL     OW20998   1.905   2.403  15.687 -0.2768 -0.1933 -0.2748
 3122SOL    HW120999   1.852   2.368  15.758 -1.4455 -2.0231 -2.0487
 3122SOL    HW221000   1.925   2.494  15.712  0.7145 -0.3546 -0.4546
 3123SOL     OW21001   4.088   0.014   2.150  0.2722 -0.2834  0.5394
 3123SOL    HW121002   4.037   4.689   2.097  1.3116 -0.2825 -0.4618
 3123SOL    HW221003   4.060   0.098   2.113  0.9656 -0.1452  0.3168
 3124SOL     OW21004   0.474   1.494  15.091 -0.9969 -0.3351  0.0544
 3124SOL    HW121005   0.458   1.435  15.017  0.0899 -0.4132 -0.1250
 3124SOL    HW221006   0.511   1.567  15.043  1.4013 -0.3235  1.9168
 3125SOL     OW21007   0.627   1.835   5.615  0.2673  0.2900 -0.5791
 3125SOL    HW121008   0.628   1.771   5.544 -0.6153 -1.0558  0.6376
 3125SOL    HW221009   0.719   1.854   5.634  0.2723  0.2759 -0.5898
 3126SOL     OW21010   0.298   1.064   3.829  0.1982 -0.6921 -0.0372
 3126SOL    HW121011   0.238   1.038   3.760  0.8024 -0.1956 -0.7522
 3126SOL    HW221012   0.320   1.156   3.810 -0.8060 -0.5999 -0.7519
 3127SOL     OW21013   0.475   3.621   7.954  0.7285 -0.6999  0.3303
 3127SOL    HW121014   0.441   3.584   7.873  0.5214 -2.2258  1.1056
 3127SOL    HW221015   0.517   3.539   7.980  0.6798 -0.3650  1.4583
 3128SOL     OW21016   4.706   0.108   3.689 -0.2929  0.5166 -0.0510
 3128SOL    HW121017   0.040   0.116   3.754 -1.0622  2.2201  0.5699
 3128SOL    HW221018   4.733   0.125   3.599  0.3742  0.1777  0.0796
 3129SOL     OW21019   0.033   2.143   6.101 -0.1439 -0.0602  0.2864
 3129SOL    HW121020   0.027   2.143   6.005  2.0071 -1.5832  0.1356
 3129SOL    HW221021   4.729   2.058   6.121  2.2105 -1.3758 -0.5255
 3130SOL     OW21022   0.004   2.341  11.835 -0.0470 -0.0189  0.1786
 3130SOL    HW121023   0.038   2.412  11.891  1.0792 -0.1070 -0.3929
 3130SOL    HW221024   0.067   2.282  11.876  0.4176 -1.2228 -2.2906
 3131SOL     OW21025   2.737   1.809   7.538 -0.0566 -0.5312 -0.0412
 3131SOL    HW121026   2.785   1.782   7.616 -0.2087 -0.5432  0.0493
 3131SOL    HW221027   2.648   1.775   7.549 -0.0951 -1.0972 -2.0110
 3132SOL     OW21028   2.564   2.877   6.228 -0.3870 -0.1458 -0.2888
 3132SOL    HW121029   2.529   2.876   6.139  0.1922  1.6236 -0.5421
 3132SOL    HW221030   2.654   2.844   6.223 -0.8169 -1.5594  1.3213
 3133SOL     OW21031   1.213   4.343  12.545 -0.1427  0.1549 -0.8265
 3133SOL    HW121032   1.177   4.270  12.596  1.5656  0.4759  0.8107
 3133SOL    HW221033   1.291   4.302  12.508  0.6988 -1.4621  2.7774
 3134SOL     OW21034   0.153   1.599   3.334  0.3642 -0.2901 -0.3110
 3134SOL    HW121035   0.154   1.596   3.429  0.8583  0.1447 -0.3063
 3134SOL    HW221036   0.231   1.552   3.305 -1.3435 -2.0031 -2.1521
 3135SOL     OW21037   3.608   1.013   6.864  0.0686 -0.0771 -0.1328
 3135SOL    HW121038   3.544   1.058   6.810  0.9968 -0.2336 -1.3506
 3135SOL    HW221039   3.597   0.928   6.821 -0.4104 -1.3041  2.4130
 3136SOL     OW21040   4.294   3.893   3.960 -0.3261  0.0708  0.3832
 3136SOL    HW121041   4.304   3.798   3.967 -0.2125  0.0772  0.2951
 3136SOL    HW221042   4.378   3.919   3.923 -0.3447 -1.7845 -0.9990
 3137SOL     OW21043   4.656   0.687   4.691  0.3708  0.3112  0.1320
 3137SOL    HW121044   4.623   0.774   4.712 -1.6345 -0.4024 -0.1314
 3137SOL    HW221045   4.606   0.675   4.611  2.4414 -2.0019 -0.8282
 3138SOL     OW21046   2.767   0.759  16.431  0.0995 -0.1851 -0.4124
 3138SOL    HW121047   2.677   0.790  16.435  0.3422  0.6217 -1.2229
 3138SOL    HW221048   2.772   0.710  16.349  3.9177 -3.2029  1.6444
 3139SOL     OW21049   0.365   3.900  17.675 -0.3777 -0.4111  0.1275
 3139SOL    HW121050   0.448   3.940  17.650 -0.0769 -1.4822 -0.5729
 3139SOL    HW221051   0.386   3.899   0.024 -0.1452  1.4394  0.0967
 3140SOL     OW21052   0.563   3.125   0.478  0.1282  0.1802 -0.6002
 3140SOL    HW121053   0.539   3.039   0.444  2.3073  0.3548 -2.5157
 3140SOL    HW221054   0.483   3.142   0.529  0.9023  0.2829  0.5927
 3141SOL     OW21055   1.454   1.429   5.505  0.2686 -0.1905  0.2636
 3141SOL    HW121056   1.364   1.454   5.524 -0.2624 -2.0459  0.1788
 3141SOL    HW221057   1.463   1.427   5.409 -1.9649 -1.0570  0.0968
 3142SOL     OW21058   3.509   1.371   8.184 -0.2516 -0.2957 -0.3595
 3142SOL    HW121059   3.447   1.406   8.119  1.0407  0.9241 -0.9292
 3142SOL    HW221060   3.541   1.303   8.126 -1.4784 -0.8862 -0.3559
 3143SOL     OW21061   0.164   4.227   1.864  0.3922 -0.0383 -0.0922
 3143SOL    HW121062   0.125   4.140   1.875  2.2336 -0.6418  1.6286
 3143SOL    HW221063   0.117   4.248   1.783 -1.0665 -0.5590  0.6320
 3144SOL     OW21064   1.261   3.890  15.107 -0.4024 -0.1958 -0.2129
 3144SOL    HW121065   1.281   3.855  15.020 -0.3385  0.1518 -0.3353
 3144SOL    HW221066   1.276   3.978  15.075  0.3196 -0.3566 -0.3146
 3145SOL     OW21067   2.512   2.397  17.332 -0.8865 -0.4671  0.5516
 3145SOL    HW121068   2.578   2.335  17.302  0.1614  1.5976 -1.4400
 3145SOL    HW221069   2.492   2.454  17.257  1.2523 -2.6056 -1.6573
 3146SOL     OW21070   3.774   0.796   5.027 -0.6047 -0.2451 -0.0892
 3146SOL    HW121071   3.824   0.874   5.003 -0.6499 -0.2156 -0.0862
 3146SOL    HW221072   3.686   0.832   5.035 -0.0166  0.9603  0.9197
 3147SOL     OW21073   4.661   3.262   4.153 -0.1071 -0.1700  0.1898
 3147SOL    HW121074   4.602   3.205   4.201 -0.5056 -1.2533 -1.5768
 3147SOL    HW221075   4.638   3.343   4.198 -0.8040  0.9921 -2.2206
 3148SOL     OW21076   0.452   2.837   5.857 -0.7496  0.1859  0.3425
 3148SOL    HW121077   0.519   2.782   5.897  0.8157  0.9423 -1.2063
 3148SOL    HW221078   0.384   2.773   5.835  0.8231 -1.5173  0.4603
 3149SOL     OW21079   2.910   4.041   8.161  0.1742 -0.3502 -0.1545
 3149SOL    HW121080   2.829   4.089   8.147  1.1518  0.8890 -1.6315
 3149SOL    HW221081   2.917   4.010   8.070  1.5612  1.9972 -0.8618
 3150SOL     OW21082   2.791   2.297   5.869 -0.4469  0.3463 -0.2681
 3150SOL    HW121083   2.853   2.360   5.907 -1.0789  1.4166 -0.9844
 3150SOL    HW221084   2.752   2.259   5.947 -1.6593  1.6498 -0.2272
 3151SOL     OW21085   0.946   0.209   6.281 -0.1243  0.0410 -0.0230
 3151SOL    HW121086   0.874   0.264   6.311  0.8533  1.0441  0.4638
 3151SOL    HW221087   1.029   0.252   6.301 -0.4364 -0.0873  1.5289
 3152SOL     OW21088   1.044   0.525   4.905 -0.0559  0.6468 -0.2627
 3152SOL    HW121089   1.123   0.497   4.951 -0.2839  0.3597 -0.0548
 3152SOL    HW221090   0.979   0.471   4.949 -0.9821  2.7771  0.9969
 3153SOL     OW21091   1.285   1.194   1.795 -0.2059 -1.1664 -0.3587
 3153SOL    HW121092   1.361   1.221   1.744 -0.1669 -2.3165 -0.9109
 3153SOL    HW221093   1.326   1.147   1.868  0.7436  2.0057  1.1414
 3154SOL     OW21094   3.883   1.569   6.275 -0.5465 -0.2247 -0.2805
 3154SOL    HW121095   3.897   1.494   6.217  1.0987  1.2249 -1.7247
 3154SOL    HW221096   3.887   1.649   6.224  2.1089  0.2393  0.6855
 3155SOL     OW21097   3.162   1.385   9.281 -0.2992  0.3433  0.2779
 3155SOL    HW121098   3.178   1.479   9.291 -0.8520  0.3165  1.3661
 3155SOL    HW221099   3.070   1.369   9.301 -0.3778  2.1129  1.3884
 3156SOL     OW21100   4.279   2.474   0.644 -0.8079  0.2622  0.2441
 3156SOL    HW121101   4.368   2.501   0.663 -0.5756  0.1873 -0.7303
 3156SOL    HW221102   4.242   2.562   0.646 -3.5389 -0.8672  0.3926
 3157SOL     OW21103   3.244   4.202  12.827  0.0485  0.0604 -0.1378
 3157SOL    HW121104   3.209   4.278  12.873  2.2184  1.0842 -0.1782
 3157SOL    HW221105   3.187   4.126  12.840 -1.7082  1.1724 -1.3119
 3158SOL     OW21106   3.592   0.222   4.847  0.5518 -0.1567 -0.5875
 3158SOL    HW121107   3.516   0.281   4.839  0.0712 -0.9300 -1.8129
 3158SOL    HW221108   3.612   0.205   4.755  0.3750 -0.3244 -0.5956
 3159SOL     OW21109   4.651   4.394   8.295  0.5196  0.8683  0.3141
 3159SOL    HW121110   4.703   4.374   8.373 -1.1162 -0.5029  1.0767
 3159SOL    HW221111   4.625   4.302   8.284 -0.6237  0.9917  1.9373
 3160SOL     OW21112   0.717   3.755   5.248 -0.2083  0.2851 -0.4601
 3160SOL    HW121113   0.806   3.721   5.257  0.1889  0.8019 -2.3113
 3160SOL    HW221114   0.706   3.782   5.339  0.3617 -0.9326 -0.0287
 3161SOL     OW21115   2.504   1.430   2.710 -0.3405  0.1601  0.7915
 3161SOL    HW121116   2.472   1.421   2.620  2.1440 -1.4090  0.0622
 3161SOL    HW221117   2.563   1.355   2.712 -1.0222 -0.3096  2.8931
 3162SOL     OW21118   4.429   2.845   3.155  0.1188 -0.2504 -0.0128
 3162SOL    HW121119   4.389   2.893   3.083 -0.3251 -1.4608 -0.5722
 3162SOL    HW221120   4.515   2.888   3.153 -0.5717  1.1458  0.6601
 3163SOL     OW21121   3.666   2.134   3.548  0.2749 -0.0460  0.1998
 3163SOL    HW121122   3.653   2.039   3.548 -0.8743  0.1118  1.9324
 3163SOL    HW221123   3.729   2.149   3.477  2.0068 -0.7293  1.5975
 3164SOL     OW21124   2.303   4.201   3.739  0.0195 -0.2192 -0.3676
 3164SOL    HW121125   2.331   4.120   3.780 -2.5850 -1.3688 -0.9010
 3164SOL    HW221126   2.222   4.224   3.784  0.4176 -1.1799  0.8437
 3165SOL     OW21127   4.417   1.783   5.100 -0.1178  0.4057  0.0774
 3165SOL    HW121128   4.495   1.728   5.110  0.1279  0.6725 -0.3989
 3165SOL    HW221129   4.440   1.840   5.027  1.2021  0.9553  0.9180
 3166SOL     OW21130   0.521   1.641  17.701  0.4070 -0.5445  0.1633
 3166SOL    HW121131   0.432   1.635  17.666  0.3556 -2.3790  0.6084
 3166SOL    HW221132   0.528   1.579   0.029 -0.5880 -1.1222 -0.2276
 3167SOL     OW21133   3.410   2.564   6.732  0.6392  0.0752  0.2625
 3167SOL    HW121134   3.473   2.636   6.732  0.8376 -0.1008  0.7329
 3167SOL    HW221135   3.399   2.563   6.827 -0.6256  1.3846  0.1378
 3168SOL     OW21136   3.894   1.452   7.088  0.7478 -0.1292  0.8754
 3168SOL    HW121137   3.856   1.423   7.171 -1.8966 -1.1189 -0.6630
 3168SOL    HW221138   3.812   1.476   7.044  1.2352 -0.9557 -0.4858
 3169SOL     OW21139   2.829   4.281   2.144  0.0251 -0.3417  0.3265
 3169SOL    HW121140   2.780   4.241   2.216 -0.1820  3.2939  2.2534
 3169SOL    HW221141   2.885   4.210   2.112 -0.4589 -0.5942  0.0443
 3170SOL     OW21142   3.693   0.891  14.446 -0.3784 -0.1746  0.0393
 3170SOL    HW121143   3.775   0.911  14.402  0.4387 -1.1347  1.1225
 3170SOL    HW221144   3.648   0.976  14.442  0.1650  0.0837 -0.5489
 3171SOL     OW21145   2.573   1.095   7.176 -0.0470 -0.5760  0.0737
 3171SOL    HW121146   2.656   1.082   7.131 -0.4031 -1.6086 -0.2640
 3171SOL    HW221147   2.535   1.167   7.125  0.6560  0.7555  1.4004
 3172SOL     OW21148   1.666   4.094   3.464  0.8571 -0.6074 -0.2095
 3172SOL    HW121149   1.738   4.129   3.516  1.1279 -2.2203  0.5071
 3172SOL    HW221150   1.590   4.143   3.494  0.3958 -1.2349 -0.3497
 3173SOL     OW21151   2.195   3.032   7.167 -0.0449 -0.4641  0.0893
 3173SOL    HW121152   2.114   3.083   7.179  1.2141  1.3593  0.8294
 3173SOL    HW221153   2.226   3.023   7.257 -0.4023  3.0079  0.5657
 3174SOL     OW21154   0.263   3.177   9.501  0.2216  0.3911  0.4546
 3174SOL    HW121155   0.281   3.086   9.477 -1.8608 -0.1658  0.9911
 3174SOL    HW221156   0.172   3.190   9.474  0.4427  2.9737  0.9626
 3175SOL     OW21157   1.595   0.148   7.659 -0.2387 -0.0479  0.1183
 3175SOL    HW121158   1.524   0.199   7.621 -0.8434 -1.5664 -0.8152
 3175SOL    HW221159   1.585   0.067   7.609  0.1483  0.1826 -0.3304
 3176SOL     OW21160   3.293   4.697  17.443 -0.3821 -0.2755  0.1153
 3176SOL    HW121161   3.223   4.638  17.419 -1.0998  1.6713 -2.6825
 3176SOL    HW221162   3.243   0.038  17.468  1.5021  0.8552  0.4213
 3177SOL     OW21163   3.128   1.542   1.494  0.8132  0.5047  0.6806
 3177SOL    HW121164   3.130   1.577   1.583  0.1557  2.3793 -0.0481
 3177SOL    HW221165   3.033   1.550   1.483  1.0470  1.3197 -0.8268
 3178SOL     OW21166   3.540   2.980  12.065 -0.4068 -0.1680  0.0431
 3178SOL    HW121167   3.459   2.930  12.072  0.7262 -1.9759  0.1570
 3178SOL    HW221168   3.533   3.026  11.981 -1.5772  1.5790  1.0992
 3179SOL     OW21169   0.650   1.499  16.320 -0.0418  0.6159  0.8488
 3179SOL    HW121170   0.592   1.518  16.394  0.4626  2.5992  0.7342
 3179SOL    HW221171   0.710   1.438  16.363 -2.2775 -1.0376  1.6200
 3180SOL     OW21172   1.552   1.118   0.541 -0.3634 -0.3960 -0.1407
 3180SOL    HW121173   1.468   1.088   0.507 -1.1567  1.4431  0.1772
 3180SOL    HW221174   1.595   1.128   0.456 -1.4631  1.7568 -0.4495
 3181SOL     OW21175   0.441   4.093   2.716  0.4426 -0.5071  0.4377
 3181SOL    HW121176   0.508   4.053   2.771  0.3817 -2.5743 -1.0065
 3181SOL    HW221177   0.386   4.150   2.771  0.2395 -0.9431  0.6924
 3182SOL     OW21178   0.719   0.626  14.263 -0.5135  0.3913  0.4029
 3182SOL    HW121179   0.629   0.654  14.279 -0.6643  0.3243 -0.3021
 3182SOL    HW221180   0.724   0.657  14.172 -0.0602  0.7860  0.5608
 3183SOL     OW21181   2.183   4.327   6.725  0.4092 -0.2244 -0.0206
 3183SOL    HW121182   2.260   4.342   6.780  0.9627 -1.0645 -0.5515
 3183SOL    HW221183   2.221   4.279   6.651 -2.2451  0.1306 -1.6385
 3184SOL     OW21184   0.090   4.723   6.157  0.1395 -0.2414  0.4299
 3184SOL    HW121185   0.028   4.656   6.127  0.5488  0.3811 -1.7994
 3184SOL    HW221186   0.156   4.714   6.088 -1.0355  0.0224 -0.7276
 3185SOL     OW21187   0.780   1.254   8.853 -0.4747  0.8502  0.4242
 3185SOL    HW121188   0.739   1.216   8.931  0.4054  1.0459  0.9822
 3185SOL    HW221189   0.854   1.295   8.897 -0.4289  1.4862 -0.2431
 3186SOL     OW21190   3.346   4.735  13.435 -0.3188 -0.2322  1.0515
 3186SOL    HW121191   3.254   0.010  13.412 -0.4490 -1.0703  1.1436
 3186SOL    HW221192   3.342   4.717  13.529 -0.3641 -0.3557  1.0255
 3187SOL     OW21193   2.949   4.016  16.210 -1.3695  0.8826 -0.3599
 3187SOL    HW121194   2.854   4.018  16.197 -1.2433 -2.5059 -1.6837
 3187SOL    HW221195   2.968   4.110  16.203  2.2428  0.1777  0.3136
 3188SOL     OW21196   1.135   1.150   8.238  0.2817 -0.1557 -0.8009
 3188SOL    HW121197   1.206   1.088   8.220 -0.0578 -0.3323 -1.5499
 3188SOL    HW221198   1.086   1.158   8.156  0.9182 -0.0685 -1.1704
 3189SOL     OW21199   3.478   0.260   5.927  0.1913  0.3084 -0.1764
 3189SOL    HW121200   3.547   0.296   5.872  1.5559 -0.3504  1.1054
 3189SOL    HW221201   3.527   0.252   6.009  0.0567  0.2330 -0.1025
 3190SOL     OW21202   0.423   2.944   8.810 -0.4897  0.0610 -0.5016
 3190SOL    HW121203   0.461   3.025   8.778  0.2701 -0.1781 -0.2147
 3190SOL    HW221204   0.491   2.883   8.780 -0.5332  0.0608 -0.6009
 3191SOL     OW21205   2.604   3.282  13.933  0.0716 -0.3966 -0.0532
 3191SOL    HW121206   2.526   3.328  13.905  0.0487  0.5327  1.5655
 3191SOL    HW221207   2.666   3.324  13.873 -1.4952  0.8958 -0.7461
 3192SOL     OW21208   0.976   0.075  11.224 -0.2602  0.1736  0.0280
 3192SOL    HW121209   1.070   0.085  11.214 -0.3187  0.4241 -0.2954
 3192SOL    HW221210   0.971   4.730  11.274 -0.4726  0.0796 -0.1438
 3193SOL     OW21211   0.682   4.372  14.637 -0.2555 -0.2444  0.7964
 3193SOL    HW121212   0.742   4.437  14.602 -2.1689  0.4681 -1.1491
 3193SOL    HW221213   0.692   4.395  14.729 -0.5134  2.0741  0.2238
 3194SOL     OW21214   4.246   3.108   3.029 -0.1218  0.1820  0.3494
 3194SOL    HW121215   4.243   3.157   3.111  0.6904 -1.3678  1.3090
 3194SOL    HW221216   4.173   3.047   3.039 -0.4192  0.7219  1.4217
 3195SOL     OW21217   3.253   0.654  10.216 -0.3913  0.1379  0.0553
 3195SOL    HW121218   3.279   0.611  10.135 -0.0335 -0.4991  0.5025
 3195SOL    HW221219   3.182   0.711  10.188  0.1136  0.1979 -1.0811
 3196SOL     OW21220   0.862   0.719   7.779  0.8729 -0.5209  0.1073
 3196SOL    HW121221   0.893   0.628   7.769  1.2724 -0.5404  1.5944
 3196SOL    HW221222   0.917   0.757   7.847  0.0803 -1.6171  1.3672
 3197SOL     OW21223   2.122   3.145   0.615 -0.5068  0.4212 -0.2534
 3197SOL    HW121224   2.145   3.237   0.601 -2.1190  0.7730 -0.6227
 3197SOL    HW221225   2.115   3.116   0.524 -1.2082  0.1363 -0.1070
 3198SOL     OW21226   4.224   4.565   7.488 -0.9817 -0.2584 -0.0633
 3198SOL    HW121227   4.213   4.660   7.490  0.4924 -0.0839 -0.2582
 3198SOL    HW221228   4.312   4.556   7.451 -1.0734  0.3110 -0.4235
 3199SOL     OW21229   0.625   1.597   7.065  0.1286 -0.3932 -0.1825
 3199SOL    HW121230   0.562   1.656   7.024  3.2932  2.7860 -0.3738
 3199SOL    HW221231   0.621   1.514   7.016 -0.7864 -0.9053  0.7513
 3200SOL     OW21232   3.075   3.141   5.542  0.2514  0.8182 -0.4017
 3200SOL    HW121233   3.147   3.197   5.570  1.2026 -0.2342 -0.7761
 3200SOL    HW221234   3.013   3.209   5.570 -0.2168 -0.5502  1.8516
 3201SOL     OW21235   1.327   0.934   4.881 -0.6389 -0.1352 -0.0979
 3201SOL    HW121236   1.396   0.941   4.815 -0.8491 -0.8548 -0.3915
 3201SOL    HW221237   1.301   1.026   4.891 -1.2851 -0.6465  2.7716
 3202SOL     OW21238   3.104   1.420   7.446  0.5138 -0.4351  0.2797
 3202SOL    HW121239   3.195   1.405   7.419 -0.0545  1.8184 -2.8111
 3202SOL    HW221240   3.101   1.361   7.522 -0.5039  0.5560  1.0030
 3203SOL     OW21241   4.346   2.815  10.094  0.2618  1.2182  0.5024
 3203SOL    HW121242   4.318   2.809  10.185  0.7816 -1.0523  0.5081
 3203SOL    HW221243   4.361   2.910  10.086 -1.6702  1.8574  4.7143
 3204SOL     OW21244   4.415   2.253  16.375 -0.2636 -0.4180  0.0445
 3204SOL    HW121245   4.428   2.158  16.384  1.1980 -0.0014  2.3650
 3204SOL    HW221246   4.481   2.287  16.314  0.3205  1.5625  1.7952
 3205SOL     OW21247   1.598   2.864   3.276  0.7641 -0.2804 -0.2994
 3205SOL    HW121248   1.634   2.776   3.291  0.0776 -0.4592  0.2910
 3205SOL    HW221249   1.650   2.878   3.197 -0.8094  0.3585 -1.2112
 3206SOL     OW21250   4.171   2.053   3.578  0.3690 -0.0539  0.0380
 3206SOL    HW121251   4.240   2.081   3.518 -0.1947 -0.0084 -0.5803
 3206SOL    HW221252   4.100   2.045   3.515  0.0461 -1.8612  0.6534
 3207SOL     OW21253   1.024   2.625   8.134 -0.1276 -0.1198  0.1075
 3207SOL    HW121254   0.937   2.641   8.171 -0.3732 -0.5132 -0.3136
 3207SOL    HW221255   1.051   2.707   8.094 -1.8579  0.5920  0.3816
 3208SOL     OW21256   3.665   2.416  14.829  0.4221 -0.5733  0.3214
 3208SOL    HW121257   3.706   2.467  14.899 -1.1417 -2.0229  2.2883
 3208SOL    HW221258   3.679   2.464  14.747  0.1000  1.8714  1.7142
 3209SOL     OW21259   0.995   2.051  11.774  0.0787 -0.5222  0.0326
 3209SOL    HW121260   1.013   1.958  11.764 -0.6065 -0.8487  1.9149
 3209SOL    HW221261   0.974   2.059  11.867 -0.1150  0.0610 -0.0631
 3210SOL     OW21262   1.464   1.413  14.818  0.0172  0.7336 -0.2088
 3210SOL    HW121263   1.381   1.377  14.788 -0.1402  0.1908  0.8387
 3210SOL    HW221264   1.525   1.374  14.755  2.6118  4.9229 -0.2831
 3211SOL     OW21265   2.913   0.712   4.922  0.5838  0.0835  0.2902
 3211SOL    HW121266   2.978   0.780   4.941  1.3782 -0.1804 -1.4418
 3211SOL    HW221267   2.844   0.736   4.983  0.2677 -0.7972  0.2848
 3212SOL     OW21268   1.344   3.058  16.568 -0.0845 -0.3751  0.4305
 3212SOL    HW121269   1.252   3.049  16.542 -0.0311  3.2540 -0.9595
 3212SOL    HW221270   1.390   3.065  16.485 -2.3080  1.6758 -0.6057
 3213SOL     OW21271   3.070   0.468  10.331 -0.2787 -0.2330  0.5621
 3213SOL    HW121272   3.128   0.470  10.255 -1.3969  3.1431 -0.1779
 3213SOL    HW221273   2.980   0.457  10.299 -0.3230 -1.9491  1.2760
 3214SOL     OW21274   1.340   3.974   6.402  0.5548 -0.0729 -0.2109
 3214SOL    HW121275   1.417   3.930   6.364  0.0762  0.8773 -2.2513
 3214SOL    HW221276   1.307   3.914   6.469  0.2924  1.5881  1.1344
 3215SOL     OW21277   3.648   3.222   4.199 -0.0944 -0.4667  0.3559
 3215SOL    HW121278   3.671   3.216   4.291  0.2344 -2.4017  0.1444
 3215SOL    HW221279   3.572   3.279   4.204  0.3305 -0.1136  2.4940
 3216SOL     OW21280   1.581   1.327   4.621 -0.3819  0.6614  0.6844
 3216SOL    HW121281   1.529   1.399   4.584  0.3906  1.1124  0.4889
 3216SOL    HW221282   1.630   1.371   4.690  1.5670 -0.2336 -0.1284
 3217SOL     OW21283   0.911   2.564   4.330 -0.1527  0.1705 -0.4768
 3217SOL    HW121284   0.923   2.658   4.316 -1.5532  0.4827  0.3636
 3217SOL    HW221285   0.855   2.555   4.253 -0.3885  1.6756 -0.4731
 3218SOL     OW21286   2.385   2.665   6.555  0.5773  0.1217  0.5308
 3218SOL    HW121287   2.364   2.743   6.606 -1.3359  1.9734 -3.1084
 3218SOL    HW221288   2.298   2.626   6.545  1.1318 -1.2757  1.0510
 3219SOL     OW21289   2.471   1.509   7.480  0.2405  0.3199  0.1586
 3219SOL    HW121290   2.529   1.483   7.409 -0.0365  1.2025 -0.3936
 3219SOL    HW221291   2.490   1.440   7.544 -0.5500 -0.9800 -1.0084
 3220SOL     OW21292   3.706   2.373  17.317  0.0026 -0.0221 -0.8064
 3220SOL    HW121293   3.632   2.388  17.376  0.1594  1.1046 -0.8903
 3220SOL    HW221294   3.672   2.309  17.254  0.8854 -0.1953 -1.1001
 3221SOL     OW21295   3.983   2.948   7.952  0.0502  0.0604 -0.0924
 3221SOL    HW121296   3.901   2.990   7.925  0.5184  0.2551 -1.1990
 3221SOL    HW221297   3.976   2.950   8.048 -1.3187  0.7793 -0.2047
 3222SOL     OW21298   4.399   4.138   7.280  0.1073 -0.1064  0.1421
 3222SOL    HW121299   4.461   4.140   7.207 -1.3572 -0.7036 -1.1134
 3222SOL    HW221300   4.405   4.230   7.307  0.1334  0.5505 -2.1175
 3223SOL     OW21301   3.094   1.004  16.348  0.2920 -0.5255  0.0819
 3223SOL    HW121302   3.019   1.064  16.343 -2.3554 -3.8251  0.2834
 3223SOL    HW221303   3.071   0.924  16.302 -1.3066  1.1340 -2.0370
 3224SOL     OW21304   2.928   4.570   0.852  0.3313 -0.0314 -0.1237
 3224SOL    HW121305   2.885   4.584   0.936 -0.8451 -0.6623 -0.6188
 3224SOL    HW221306   3.017   4.581   0.886  0.6897  2.6856 -1.9816
 3225SOL     OW21307   1.177   1.748  13.663 -0.0900  0.3178 -0.1355
 3225SOL    HW121308   1.186   1.839  13.636 -1.9228 -0.0812 -2.1412
 3225SOL    HW221309   1.156   1.707  13.579  1.2881 -3.1008  1.1959
 3226SOL     OW21310   0.525   1.050   8.885 -0.3572 -0.6064  0.3759
 3226SOL    HW121311   0.500   1.136   8.850 -0.6832 -0.4676  0.9281
 3226SOL    HW221312   0.559   1.007   8.807  0.5573 -0.2298  0.5726
 3227SOL     OW21313   4.176   1.769   8.019 -0.2489  0.0762  0.4363
 3227SOL    HW121314   4.215   1.848   7.982 -0.8113 -0.3893 -1.1273
 3227SOL    HW221315   4.214   1.707   7.958  0.2740 -1.6367  2.4898
 3228SOL     OW21316   3.232   3.144   7.407  0.4963  0.3468  0.3125
 3228SOL    HW121317   3.309   3.088   7.400  1.2629  1.5489 -0.8557
 3228SOL    HW221318   3.258   3.191   7.486  1.8010  1.0169 -0.5202
 3229SOL     OW21319   4.109   1.196   9.225  0.2655  0.0750  0.1227
 3229SOL    HW121320   4.020   1.172   9.200  0.0784  1.3937 -0.5029
 3229SOL    HW221321   4.093   1.268   9.287 -0.1076  0.3805 -0.3373
 3230SOL     OW21322   0.271   1.651   2.245  0.4761 -0.4970  0.0635
 3230SOL    HW121323   0.190   1.674   2.291  0.8874  0.9180  0.0822
 3230SOL    HW221324   0.245   1.563   2.215  0.1868 -0.8121  1.2279
 3231SOL     OW21325   4.547   4.536  13.814  0.2271 -0.7184 -0.5984
 3231SOL    HW121326   4.562   4.569  13.902 -2.2883 -0.9855 -0.0889
 3231SOL    HW221327   4.527   4.445  13.834  1.1982 -1.0214 -0.9598
 3232SOL     OW21328   2.218   0.540   3.724 -0.1719 -0.2477 -0.1494
 3232SOL    HW121329   2.185   0.486   3.796 -1.2726  0.2089 -0.3084
 3232SOL    HW221330   2.298   0.581   3.757  0.3860  0.4981 -2.4390
 3233SOL     OW21331   3.767   2.117  17.644  0.2060 -0.3350 -0.4133
 3233SOL    HW121332   3.812   2.101  17.727 -2.6235 -2.0833  0.7951
 3233SOL    HW221333   3.787   2.210  17.633  0.4082 -0.5620 -2.0650
 3234SOL     OW21334   0.516   3.411   4.154  0.2489 -0.0729 -0.4889
 3234SOL    HW121335   0.423   3.394   4.137 -0.2352  2.7956 -0.7946
 3234SOL    HW221336   0.563   3.343   4.107 -0.8279 -0.4276 -1.0648
 3235SOL     OW21337   2.926   0.019   5.075 -0.1136  0.0477 -0.1196
 3235SOL    HW121338   2.897   0.102   5.114  0.9968  0.8329 -0.9824
 3235SOL    HW221339   2.960   0.051   4.992 -0.4387 -3.2143 -1.4998
 3236SOL     OW21340   3.909   4.675   5.832 -0.9313  0.8118  0.1292
 3236SOL    HW121341   3.846   4.713   5.893  0.3972  0.5904  1.6388
 3236SOL    HW221342   3.986   4.725   5.859 -0.0282 -0.2314 -0.4604
 3237SOL     OW21343   3.910   1.691  15.949  0.0171 -0.4304  0.5489
 3237SOL    HW121344   4.002   1.711  15.934  0.2239 -0.8833  1.2253
 3237SOL    HW221345   3.898   1.596  15.940  0.0302 -0.4627  0.8695
 3238SOL     OW21346   3.579   2.221  15.492 -0.7329 -0.0682 -0.1150
 3238SOL    HW121347   3.626   2.139  15.477 -0.5064  0.1462 -0.5661
 3238SOL    HW221348   3.489   2.190  15.484 -0.7542 -0.1703  0.5607
 3239SOL     OW21349   3.337   1.614   5.673  0.3051 -0.4045  0.1992
 3239SOL    HW121350   3.423   1.573   5.661 -0.5813 -2.1471 -0.1792
 3239SOL    HW221351   3.330   1.660   5.590 -1.8103 -1.1034  0.0093
 3240SOL     OW21352   0.301   2.206   9.487 -0.1730  0.1093  0.2908
 3240SOL    HW121353   0.255   2.125   9.468  2.0248 -1.0403 -0.1475
 3240SOL    HW221354   0.227   2.267   9.493 -1.6815 -1.7928  1.0774
 3241SOL     OW21355   3.234   0.601  10.490  0.6467 -0.3723 -0.2337
 3241SOL    HW121356   3.180   0.532  10.451  0.1624  1.2110 -2.2922
 3241SOL    HW221357   3.234   0.650  10.408 -0.5405  1.2836  0.7620
 3242SOL     OW21358   4.670   0.996  13.144 -0.1646  0.2389 -0.2959
 3242SOL    HW121359   4.651   1.078  13.190  0.4322 -0.0493  0.4654
 3242SOL    HW221360   4.587   0.955  13.119 -0.7306  2.2182 -1.6147
 3243SOL     OW21361   1.878   4.689  13.302 -0.0555 -0.1602 -0.5690
 3243SOL    HW121362   1.808   4.624  13.299 -0.1758 -0.0151 -0.9884
 3243SOL    HW221363   1.849   0.012  13.233  1.1598  0.9618 -0.1065
 3244SOL     OW21364   3.986   2.628   3.417 -0.0561 -0.0115 -0.2736
 3244SOL    HW121365   4.001   2.554   3.476  0.2417  0.0039 -0.3314
 3244SOL    HW221366   3.940   2.693   3.470 -0.0238  1.8783 -2.5703
 3245SOL     OW21367   0.211   3.665   5.299  0.0521 -0.1663 -0.1182
 3245SOL    HW121368   0.123   3.694   5.322  0.7629  2.5802 -0.7812
 3245SOL    HW221369   0.199   3.627   5.213 -3.3133 -0.7479  0.6095
 3246SOL     OW21370   1.231   0.237   1.335 -0.1901 -0.2105  0.0475
 3246SOL    HW121371   1.182   0.315   1.309 -0.2295 -1.1236 -2.5679
 3246SOL    HW221372   1.303   0.283   1.378 -1.5959  0.4485  1.6933
 3247SOL     OW21373   3.378   3.257   2.086  0.1656 -0.0210 -0.2841
 3247SOL    HW121374   3.427   3.302   2.155  0.6401 -1.3267  0.2297
 3247SOL    HW221375   3.359   3.336   2.035  1.7813  0.8103  0.4202
 3248SOL     OW21376   2.832   1.295   8.405 -0.3835 -0.3555  0.2953
 3248SOL    HW121377   2.874   1.317   8.488 -0.9366  2.1586 -0.0972
 3248SOL    HW221378   2.778   1.374   8.399  2.7045  1.8156  0.6640
 3249SOL     OW21379   0.336   4.619   4.814  0.0176  0.0600 -0.0917
 3249SOL    HW121380   0.348   4.609   4.909  0.3061 -0.2891 -0.1650
 3249SOL    HW221381   0.252   4.663   4.812 -0.4545 -0.8369  0.2144
 3250SOL     OW21382   3.857   2.410   7.337 -0.3137  0.2413 -0.1169
 3250SOL    HW121383   3.817   2.413   7.424  2.6362 -2.6435  1.3194
 3250SOL    HW221384   3.787   2.368   7.287  0.6426  0.6490 -1.7979
 3251SOL     OW21385   0.416   2.781  14.522  0.4850  0.5502 -0.4056
 3251SOL    HW121386   0.386   2.871  14.536  0.1488  0.5584 -1.1740
 3251SOL    HW221387   0.505   2.803  14.494  1.2862 -2.3790 -0.1050
 3252SOL     OW21388   2.745   1.079   5.236 -0.6577 -0.3270  0.2925
 3252SOL    HW121389   2.701   1.146   5.183 -2.7301 -1.2917  0.8031
 3252SOL    HW221390   2.665   1.027   5.243 -0.0830 -1.2408  0.0132
 3253SOL     OW21391   3.916   2.343   4.606  0.0910  0.2962 -0.2802
 3253SOL    HW121392   3.833   2.300   4.628 -1.3804  1.9544 -2.6078
 3253SOL    HW221393   3.928   2.300   4.522 -2.0325 -1.3844  0.2561
 3254SOL     OW21394   1.296   0.753   4.438 -0.4094  0.4160 -0.3062
 3254SOL    HW121395   1.235   0.822   4.462  0.1483  0.4169  1.1224
 3254SOL    HW221396   1.337   0.744   4.523  1.1019 -0.0949 -1.0847
 3255SOL     OW21397   4.317   1.001   2.196 -0.1553  0.4938 -0.2487
 3255SOL    HW121398   4.292   0.986   2.287 -0.3784  0.7687 -0.2674
 3255SOL    HW221399   4.389   0.937   2.191  0.9785  1.6051  2.1805
 3256SOL     OW21400   3.942   4.177   4.704 -0.0992 -0.0189  0.0178
 3256SOL    HW121401   4.013   4.138   4.653  0.7690 -0.1297  1.3052
 3256SOL    HW221402   3.975   4.267   4.708  0.2870 -0.1457 -0.2687
 3257SOL     OW21403   0.183   1.744   7.690  0.7402  0.3961 -0.0310
 3257SOL    HW121404   0.278   1.732   7.697  0.7658 -1.3323 -3.2995
 3257SOL    HW221405   0.174   1.725   7.783 -0.3282 -1.7836 -0.5929
 3258SOL     OW21406   0.382   0.481   6.176  0.3017 -0.0093 -0.3832
 3258SOL    HW121407   0.442   0.506   6.246 -0.0270 -0.3067  0.0048
 3258SOL    HW221408   0.433   0.463   6.097  0.7615 -0.8096  0.0925
 3259SOL     OW21409   4.312   4.637  14.478  0.0516  1.1199  0.4949
 3259SOL    HW121410   4.235   4.604  14.526 -0.6461 -0.3224 -1.6392
 3259SOL    HW221411   4.277   4.655  14.391 -4.1972 -0.0704  1.9580
 3260SOL     OW21412   1.041   0.033  12.392 -0.1328 -0.3318  0.4920
 3260SOL    HW121413   1.127   0.075  12.382 -0.9298  1.2222  0.0720
 3260SOL    HW221414   1.068   4.694  12.444  1.0183  0.7220  1.4322
 3261SOL     OW21415   0.869   3.647   3.988 -0.3301  0.0160 -1.0461
 3261SOL    HW121416   0.958   3.639   3.955  0.0902 -0.3264  0.1645
 3261SOL    HW221417   0.882   3.583   4.058  0.1933 -1.8048 -2.8373
 3262SOL     OW21418   2.763   2.812  10.618  0.2410  0.3709  0.2414
 3262SOL    HW121419   2.757   2.718  10.599  0.5974  0.5968 -0.9933
 3262SOL    HW221420   2.672   2.840  10.611 -0.2016 -0.9211  0.8181
 3263SOL     OW21421   3.226   1.527   2.937 -0.4154  0.7083 -0.2546
 3263SOL    HW121422   3.293   1.586   2.904  0.7876  0.2209  1.3584
 3263SOL    HW221423   3.158   1.538   2.870 -1.6236  0.0317  0.8596
 3264SOL     OW21424   0.721   0.743  14.020 -0.1114 -0.4283 -0.4923
 3264SOL    HW121425   0.813   0.737  13.995 -0.8059 -5.0092 -1.9936
 3264SOL    HW221426   0.676   0.738  13.936 -2.2039 -0.1363  0.6044
 3265SOL     OW21427   0.646   4.145   8.659 -0.6011  0.0295  0.2835
 3265SOL    HW121428   0.615   4.224   8.615 -0.7967 -0.7027 -0.8911
 3265SOL    HW221429   0.574   4.123   8.719  1.0719  0.9016  2.6050
 3266SOL     OW21430   2.954   3.445  11.430 -0.7441  0.7358  0.5552
 3266SOL    HW121431   2.872   3.490  11.451 -0.4418  1.5224  0.0347
 3266SOL    HW221432   2.949   3.440  11.335  1.0403 -0.6901  0.5372
 3267SOL     OW21433   1.310   1.690   8.063 -0.2577 -0.0703 -0.1061
 3267SOL    HW121434   1.357   1.771   8.082 -1.1949  0.0090  1.8215
 3267SOL    HW221435   1.336   1.673   7.972  3.8225  0.1783  1.0289
 3268SOL     OW21436   4.374   2.346   4.604 -0.5493  0.0471 -0.6860
 3268SOL    HW121437   4.316   2.416   4.634 -0.1804  1.4181 -3.1930
 3268SOL    HW221438   4.451   2.401   4.590 -0.4058  0.0279  0.0153
 3269SOL     OW21439   2.882   0.766   8.630 -0.1605  0.2307  0.4512
 3269SOL    HW121440   2.917   0.854   8.646  0.7359  0.2580 -1.6403
 3269SOL    HW221441   2.836   0.752   8.712 -0.8683  3.1527  0.5703
 3270SOL     OW21442   3.602   2.052   6.649  0.2993  0.7349  0.2633
 3270SOL    HW121443   3.547   2.083   6.721 -0.0466  0.9970 -0.1146
 3270SOL    HW221444   3.686   2.096   6.664 -1.2849  3.6150  0.7830
 3271SOL     OW21445   3.202   2.253   5.160 -0.3069  0.1032 -0.2764
 3271SOL    HW121446   3.231   2.195   5.090 -1.6363 -1.4771  0.5065
 3271SOL    HW221447   3.125   2.208   5.195 -0.3295 -1.3067 -2.1157
 3272SOL     OW21448   1.900   0.383  10.449 -0.3433  0.9754  0.2774
 3272SOL    HW121449   1.939   0.296  10.437 -1.4928  0.6271 -0.8968
 3272SOL    HW221450   1.825   0.364  10.505 -1.0502  2.4248 -0.1995
 3273SOL     OW21451   1.525   4.111   4.029 -1.0582 -0.4016  0.1027
 3273SOL    HW121452   1.446   4.076   4.071 -0.4668  0.1474  1.6546
 3273SOL    HW221453   1.557   4.171   4.097 -0.2031  0.5176 -1.1224
 3274SOL     OW21454   2.528   0.612   5.001  0.0485  0.1272  0.0951
 3274SOL    HW121455   2.594   0.679   5.018  0.1465  0.1238 -0.2772
 3274SOL    HW221456   2.533   0.563   5.083  2.7355 -2.1805 -1.4052
 3275SOL     OW21457   3.095   3.929  13.567 -0.5751 -0.5890 -0.3459
 3275SOL    HW121458   3.150   3.962  13.496 -1.1045  2.8015  0.8456
 3275SOL    HW221459   3.042   4.007  13.582 -0.0332 -0.3581  0.3224
 3276SOL     OW21460   3.393   2.287   4.259  0.1661  0.3113 -0.0123
 3276SOL    HW121461   3.484   2.257   4.259 -0.0598 -0.3449 -0.7996
 3276SOL    HW221462   3.405   2.359   4.197 -2.5549 -1.2216 -2.2986
 3277SOL     OW21463   3.197   0.679   4.882  0.1831  0.6342 -0.3578
 3277SOL    HW121464   3.137   0.634   4.823 -1.5755 -0.1006  1.9913
 3277SOL    HW221465   3.153   0.762   4.899 -3.1002 -1.1747  0.0298
 3278SOL     OW21466   1.163   2.306   6.961 -0.0874  0.0025  0.8262
 3278SOL    HW121467   1.099   2.370   6.929  0.2420 -0.7366 -1.2596
 3278SOL    HW221468   1.173   2.337   7.052  0.7318 -2.8800  1.6949
 3279SOL     OW21469   2.807   1.465   3.412  0.7153  0.8558 -0.0164
 3279SOL    HW121470   2.792   1.438   3.503  1.8899 -0.3601 -0.1862
 3279SOL    HW221471   2.887   1.517   3.416  0.7055  0.7298  1.9763
 3280SOL     OW21472   3.894   2.061   1.756 -0.2922 -0.2898 -0.1806
 3280SOL    HW121473   3.877   1.987   1.698 -1.5357  0.9472 -1.4028
 3280SOL    HW221474   3.832   2.120   1.713 -0.5369 -0.1485  0.3585
 3281SOL     OW21475   3.741   0.783   2.490  0.1778  0.3465  0.1928
 3281SOL    HW121476   3.682   0.709   2.491  0.5476  0.0317 -1.4675
 3281SOL    HW221477   3.825   0.757   2.453  0.0854 -0.7294  0.7351
 3282SOL     OW21478   1.550   2.551   6.068  0.1275  0.1155 -0.3075
 3282SOL    HW121479   1.569   2.504   6.149 -0.3587  1.5936  0.6601
 3282SOL    HW221480   1.553   2.476   6.008 -0.6935  0.1778 -0.4320
 3283SOL     OW21481   0.995   0.470   7.061  0.2053 -0.1498 -0.0747
 3283SOL    HW121482   0.911   0.503   7.094  0.0368 -0.9998  0.3349
 3283SOL    HW221483   1.001   0.392   7.116  0.5397 -1.0579 -1.3826
 3284SOL     OW21484   1.357   2.116   8.738  0.0814 -0.8996 -0.5264
 3284SOL    HW121485   1.408   2.196   8.746  0.1722 -1.0563  0.3709
 3284SOL    HW221486   1.389   2.058   8.806 -1.2040  0.1936  0.9956
 3285SOL     OW21487   0.771   1.311   1.345  0.4605 -0.2840 -0.1799
 3285SOL    HW121488   0.827   1.364   1.402  2.8059 -2.6938 -0.2322
 3285SOL    HW221489   0.695   1.311   1.404  0.2887  0.9076 -0.3886
 3286SOL     OW21490   4.512   1.828   7.852 -0.6173  0.6789 -0.1932
 3286SOL    HW121491   4.584   1.768   7.835 -1.4885 -0.6668  0.8913
 3286SOL    HW221492   4.435   1.778   7.825 -0.5399  0.3815  0.1496
 3287SOL     OW21493   2.061   1.359   6.691  0.0380  0.7123 -0.3006
 3287SOL    HW121494   2.087   1.380   6.602 -1.0271 -4.1395 -1.7516
 3287SOL    HW221495   2.035   1.447   6.720 -0.1663  0.0041  1.7116
 3288SOL     OW21496   2.246   2.685  15.709  0.5523 -0.1486 -0.1775
 3288SOL    HW121497   2.238   2.740  15.631 -1.1899  2.2539  1.6611
 3288SOL    HW221498   2.316   2.736  15.750  0.5188  0.1703 -0.5225
 3289SOL     OW21499   4.273   4.373   4.792  0.2782 -0.2209 -0.0761
 3289SOL    HW121500   4.326   4.307   4.837  0.2851  0.2736  0.6359
 3289SOL    HW221501   4.288   4.452   4.843  2.6890  0.0027 -1.1665
 3290SOL     OW21502   0.032   0.333   0.203 -0.5845 -0.0377 -0.5817
 3290SOL    HW121503   0.098   0.307   0.267 -2.0907  1.9839  1.7809
 3290SOL    HW221504   0.084   0.384   0.141  1.3319 -0.4251  0.7284
 3291SOL     OW21505   2.227   1.231   2.360  0.3591  0.5220  0.0730
 3291SOL    HW121506   2.154   1.183   2.398  0.2663  0.6319  0.0327
 3291SOL    HW221507   2.209   1.225   2.266 -1.7522 -1.8740  0.6167
 3292SOL     OW21508   2.457   1.622  16.522  0.2461  0.6146 -0.2617
 3292SOL    HW121509   2.502   1.691  16.474  0.0346  1.0012  0.1034
 3292SOL    HW221510   2.409   1.683  16.576 -0.2619  0.4576 -0.5370
 3293SOL     OW21511   4.155   2.262   7.557  0.1816 -0.0034  0.1937
 3293SOL    HW121512   4.107   2.187   7.592 -2.8862  1.4799 -0.8309
 3293SOL    HW221513   4.138   2.323   7.629 -0.8541 -0.3252  0.2263
 3294SOL     OW21514   3.114   0.990   7.503  0.1534 -0.1407 -0.0945
 3294SOL    HW121515   3.130   0.911   7.555 -0.2959 -0.8586 -1.0290
 3294SOL    HW221516   3.124   1.059   7.569  0.8615 -1.6302  1.3659
 3295SOL     OW21517   1.819   3.326   7.667  0.4482 -0.2395  0.4658
 3295SOL    HW121518   1.752   3.375   7.715 -0.5402 -2.3966  1.2761
 3295SOL    HW221519   1.880   3.306   7.738 -0.1491  0.9283  1.3225
 3296SOL     OW21520   2.173   0.493   9.262  0.2335 -0.4872 -0.5784
 3296SOL    HW121521   2.150   0.406   9.230 -2.4299  0.4352 -1.1285
 3296SOL    HW221522   2.100   0.506   9.323  0.9390 -0.3905  0.2482
 3297SOL     OW21523   0.012   0.309   0.647 -0.1114  0.2442  0.1280
 3297SOL    HW121524   4.674   0.251   0.633  0.3350 -0.7940  2.0882
 3297SOL    HW221525   0.018   0.320   0.742 -1.7204  2.5349 -0.0149
 3298SOL     OW21526   1.615   0.352   6.937  0.0762  0.3212 -0.5451
 3298SOL    HW121527   1.656   0.398   7.010  1.5460 -0.5491 -0.8232
 3298SOL    HW221528   1.641   0.408   6.864  0.0972 -1.0754 -1.6169
 3299SOL     OW21529   2.383   1.229   5.349  0.2903  0.3684  0.2627
 3299SOL    HW121530   2.468   1.238   5.392 -0.0989  3.0189  0.4526
 3299SOL    HW221531   2.323   1.257   5.418  0.8018 -1.5851  1.5237
 3300SOL     OW21532   1.969   4.118   8.428  0.0071  0.1117  0.0625
 3300SOL    HW121533   2.029   4.078   8.491  1.4604  0.5412 -1.0472
 3300SOL    HW221534   1.949   4.204   8.465  1.8256  0.7939 -0.4956
 3301SOL     OW21535   1.036   2.723   8.464 -0.1238  0.0683 -0.0774
 3301SOL    HW121536   0.989   2.639   8.467  2.4393 -1.3870 -0.6091
 3301SOL    HW221537   1.126   2.703   8.489  0.1620  0.9336 -0.4014
 3302SOL     OW21538   1.849   4.423   5.943  0.2780 -0.4765 -0.2833
 3302SOL    HW121539   1.762   4.389   5.924  0.3319  1.1073 -3.2416
 3302SOL    HW221540   1.839   4.459   6.031  0.0802 -0.9690 -0.1001
 3303SOL     OW21541   3.155   3.246   0.411 -0.0003 -0.2409  0.4339
 3303SOL    HW121542   3.217   3.191   0.364 -1.8253 -0.3796 -1.8375
 3303SOL    HW221543   3.077   3.199   0.381  0.0574  0.1334 -0.3077
 3304SOL     OW21544   1.809   4.089   0.668 -0.2660  0.0150 -0.5030
 3304SOL    HW121545   1.870   4.021   0.696  0.9850  1.2540 -0.1895
 3304SOL    HW221546   1.734   4.042   0.703 -0.0949 -1.9913 -2.8807
 3305SOL     OW21547   3.172   1.040   8.952  0.0414 -0.3783  0.1973
 3305SOL    HW121548   3.261   1.016   8.927 -1.6224 -2.9900 -3.3411
 3305SOL    HW221549   3.192   1.122   8.997 -0.3176 -0.6755  0.8936
 3306SOL     OW21550   4.489   4.583   8.616 -0.4150 -0.5746  0.5121
 3306SOL    HW121551   4.475   4.610   8.525  0.0560  0.9222  0.8767
 3306SOL    HW221552   4.496   4.672   8.651 -0.2223  0.0518 -1.1169
 3307SOL     OW21553   1.690   0.789   5.465 -0.0986  0.8641 -0.5009
 3307SOL    HW121554   1.614   0.738   5.435 -0.1844  1.6357 -1.6088
 3307SOL    HW221555   1.722   0.806   5.377  1.4393 -2.9312 -0.6644
 3308SOL     OW21556   1.777   3.213   3.384 -0.0662  0.5265  0.1779
 3308SOL    HW121557   1.865   3.176   3.396 -1.2586 -1.8616  1.4185
 3308SOL    HW221558   1.762   3.227   3.477 -0.9604 -0.0513  0.1220
 3309SOL     OW21559   0.679   4.185   5.651  0.4975 -0.0173  0.4763
 3309SOL    HW121560   0.760   4.172   5.602  0.0509 -0.1332 -0.2211
 3309SOL    HW221561   0.699   4.136   5.731 -0.6603 -2.2662 -0.6321
 3310SOL     OW21562   0.845   0.838   3.198 -0.6261  0.5767  0.5223
 3310SOL    HW121563   0.880   0.830   3.109  0.4135  1.3941  0.8663
 3310SOL    HW221564   0.847   0.750   3.234  0.3091  0.1002 -0.6978
 3311SOL     OW21565   4.599   0.870   5.742 -0.0834 -0.1166 -0.3379
 3311SOL    HW121566   4.531   0.865   5.675 -0.3722  1.4070 -0.1606
 3311SOL    HW221567   4.675   0.860   5.685  1.4046 -0.7954  1.7646
 3312SOL     OW21568   0.801   4.561   3.437  0.5422 -0.7377  0.2520
 3312SOL    HW121569   0.801   4.572   3.342 -1.6094 -1.9878  0.1108
 3312SOL    HW221570   0.893   4.545   3.457  0.7193  0.2408  0.2362
 3313SOL     OW21571   0.664   2.101   7.001 -0.2833  0.2913 -0.0925
 3313SOL    HW121572   0.725   2.035   6.967  0.3814  0.1200  1.4262
 3313SOL    HW221573   0.655   2.137   6.914 -0.0825 -0.5363 -0.4594
 3314SOL     OW21574   0.439   4.144  10.848  0.0253 -0.1363  0.7368
 3314SOL    HW121575   0.497   4.206  10.892 -0.2424  1.8759 -1.7651
 3314SOL    HW221576   0.388   4.129  10.927 -0.4562 -2.0123  0.0719
 3315SOL     OW21577   3.522   1.833   6.474  0.0161  0.5585  0.4609
 3315SOL    HW121578   3.579   1.758   6.490  0.1239 -0.1491 -3.2686
 3315SOL    HW221579   3.572   1.909   6.500  0.7597  1.5053 -3.7593
 3316SOL     OW21580   3.865   3.321   0.112  0.3847  0.8240  0.3213
 3316SOL    HW121581   3.785   3.355   0.152 -0.4356 -0.1044 -0.5286
 3316SOL    HW221582   3.887   3.397   0.058 -1.7050  0.8809 -0.4573
 3317SOL     OW21583   2.545   3.859   2.449  0.0568 -0.2044  0.3294
 3317SOL    HW121584   2.471   3.918   2.437 -0.3607 -1.0026 -1.0492
 3317SOL    HW221585   2.585   3.855   2.362  0.5422  1.1658  0.4961
 3318SOL     OW21586   1.026   0.781   5.804  0.2541 -0.0442  0.1845
 3318SOL    HW121587   1.046   0.874   5.788  0.6586 -0.3654 -1.2241
 3318SOL    HW221588   1.100   0.730   5.772 -0.1185  1.0609 -2.4828
 3319SOL     OW21589   0.232   3.626   9.241 -0.2390  0.4232  0.3503
 3319SOL    HW121590   0.171   3.572   9.290  2.4554 -1.8965  1.1863
 3319SOL    HW221591   0.176   3.654   9.169  0.3592 -0.8575 -0.6172
 3320SOL     OW21592   2.226   1.214   9.131  0.5506  0.7941 -0.3215
 3320SOL    HW121593   2.252   1.263   9.053  1.7060  1.5707  0.5462
 3320SOL    HW221594   2.299   1.240   9.187 -1.6358  0.7190  2.5609
 3321SOL     OW21595   1.525   4.603   8.620  0.0876  0.1582 -0.2159
 3321SOL    HW121596   1.586   4.659   8.667 -0.1531 -0.6871  1.0968
 3321SOL    HW221597   1.531   4.539   8.690  3.3438 -2.0981 -2.5496
 3322SOL     OW21598   1.085   1.543  14.741  0.7847 -0.1849  0.0991
 3322SOL    HW121599   1.023   1.510  14.676  2.4493 -0.8250 -1.1964
 3322SOL    HW221600   1.158   1.480  14.736  2.0293  1.3716 -1.2909
 3323SOL     OW21601   2.335   0.680   9.635 -0.2524  0.1900  0.1018
 3323SOL    HW121602   2.325   0.775   9.645 -3.5506 -0.3519  1.7441
 3323SOL    HW221603   2.406   0.670   9.698  0.8778  2.5294 -0.7736
 3324SOL     OW21604   0.209   0.739   0.435  0.7983 -0.3008  0.3848
 3324SOL    HW121605   0.158   0.659   0.453  1.0701 -0.7292 -0.7618
 3324SOL    HW221606   0.257   0.703   0.360 -1.7493 -1.1086 -0.8699
 3325SOL     OW21607   2.119   1.448   6.370  0.2790 -0.2856  0.2991
 3325SOL    HW121608   2.191   1.503   6.338  1.2533 -0.9259  1.4012
 3325SOL    HW221609   2.051   1.468   6.306  0.9468 -1.9000 -0.8965
 3326SOL     OW21610   0.125   1.277  15.021  0.1208  0.1612 -0.3193
 3326SOL    HW121611   0.039   1.319  15.025 -0.5780 -1.3636  0.7546
 3326SOL    HW221612   0.107   1.188  14.991 -0.2165  0.0984  0.0679
 3327SOL     OW21613   0.121   0.746   6.185  0.1418  0.0260  0.0079
 3327SOL    HW121614   0.052   0.767   6.248  0.5627 -0.1030  0.5068
 3327SOL    HW221615   0.180   0.819   6.207  0.7486 -0.9604  1.6307
 3328SOL     OW21616   0.783   4.587   3.731  0.0128  0.0504 -0.2538
 3328SOL    HW121617   0.842   4.523   3.772  0.1634  1.1062  1.1894
 3328SOL    HW221618   0.814   4.573   3.641  2.7341 -0.5797  0.7558
 3329SOL     OW21619   1.582   4.611  16.794 -0.1930 -0.2408 -0.5962
 3329SOL    HW121620   1.609   4.693  16.751  2.1981 -0.8367 -0.2402
 3329SOL    HW221621   1.494   4.596  16.761 -0.3260 -0.2348 -0.2439
 3330SOL     OW21622   2.043   2.619  15.883  0.0886  0.0760  0.1264
 3330SOL    HW121623   2.127   2.624  15.838  0.0739  0.1571  0.1070
 3330SOL    HW221624   1.997   2.698  15.853 -1.7810 -1.3118 -0.6395
 3331SOL     OW21625   2.715   0.929   3.818  0.0867  0.3054 -0.2064
 3331SOL    HW121626   2.642   0.973   3.861  0.6504  0.1770  0.8792
 3331SOL    HW221627   2.690   0.908   3.728 -2.5678  0.7608  0.4391
 3332SOL     OW21628   3.720   3.704   3.183  0.2228 -0.2161  0.0649
 3332SOL    HW121629   3.715   3.799   3.193  0.5142 -0.1263 -0.6151
 3332SOL    HW221630   3.793   3.682   3.241  1.2986 -1.4312 -1.7474
 3333SOL     OW21631   1.144   4.307  10.856  0.2032 -0.0281 -0.1712
 3333SOL    HW121632   1.099   4.301  10.772 -2.3296 -1.8723  1.3278
 3333SOL    HW221633   1.066   4.282  10.905  0.1324 -0.5866 -0.5694
 3334SOL     OW21634   2.722   3.173   0.878  0.3806 -0.4770  0.2744
 3334SOL    HW121635   2.680   3.229   0.812  0.4164  0.4185  1.0053
 3334SOL    HW221636   2.721   3.236   0.950 -0.0857 -3.2973  2.7293
 3335SOL     OW21637   0.651   2.742   0.250 -0.2578 -0.3565 -0.6479
 3335SOL    HW121638   0.714   2.790   0.197  0.8952 -0.5529  0.5680
 3335SOL    HW221639   0.585   2.735   0.181 -0.8745  1.4010 -0.2505
 3336SOL     OW21640   3.953   1.815   7.222 -0.6736  0.3674  0.2982
 3336SOL    HW121641   3.868   1.798   7.182 -1.2387 -1.1296  2.1133
 3336SOL    HW221642   3.984   1.889   7.170  2.8610 -0.8388  0.6663
 3337SOL     OW21643   3.367   2.025  12.897  0.4303 -0.2708  0.2853
 3337SOL    HW121644   3.380   2.042  12.803  1.0389 -1.0033  0.2379
 3337SOL    HW221645   3.420   2.092  12.940  0.0767  0.4242 -0.3516
 3338SOL     OW21646   2.087   3.617   5.403  0.1339  0.2269 -0.6308
 3338SOL    HW121647   2.054   3.645   5.318  0.8585 -1.1113 -1.3501
 3338SOL    HW221648   2.182   3.608   5.395 -0.0147  0.4914 -2.6538
 3339SOL     OW21649   1.953   4.092   2.149 -0.4297 -0.4624  0.3750
 3339SOL    HW121650   2.014   4.019   2.134 -1.5521 -1.0718 -1.2180
 3339SOL    HW221651   2.009   4.168   2.140 -0.1747 -0.8985 -1.7345
 3340SOL     OW21652   2.974   1.203   8.216  0.2637  0.4728 -0.6587
 3340SOL    HW121653   3.022   1.128   8.252 -0.9679 -0.4268 -0.8672
 3340SOL    HW221654   2.932   1.237   8.295 -0.3706  0.6646 -1.0792
 3341SOL     OW21655   4.431   1.381   5.710  0.2787 -0.1597 -0.0088
 3341SOL    HW121656   4.487   1.367   5.787 -0.8339  0.4020  0.9185
 3341SOL    HW221657   4.366   1.439   5.751  0.0580 -1.4913  1.5082
 3342SOL     OW21658   1.393   2.822   6.862  0.1564  0.2894 -0.1185
 3342SOL    HW121659   1.473   2.821   6.915  0.2057 -1.5550 -0.2070
 3342SOL    HW221660   1.425   2.856   6.778 -0.3437 -2.2622 -1.3450
 3343SOL     OW21661   2.324   4.000   1.651 -0.5742  0.3232 -0.7086
 3343SOL    HW121662   2.258   4.064   1.623  0.3710  0.6311 -2.2537
 3343SOL    HW221663   2.297   3.919   1.607  3.5050 -1.3618 -0.1840
 3344SOL     OW21664   3.218   3.497   0.461 -0.2193  0.0317  1.0146
 3344SOL    HW121665   3.198   3.409   0.430 -0.2781  1.0794 -1.9861
 3344SOL    HW221666   3.147   3.551   0.427 -0.4757 -1.6254 -1.0774
 3345SOL     OW21667   4.684   1.838   1.934 -0.6281 -0.5371  0.1958
 3345SOL    HW121668   0.030   1.883   1.948 -1.2842  0.5239  0.6674
 3345SOL    HW221669   4.684   1.841   1.839 -1.2481  4.0779  0.3496
 3346SOL     OW21670   3.780   3.633   2.119  0.1336  0.0316 -0.2347
 3346SOL    HW121671   3.867   3.671   2.105 -1.0837  2.8259 -0.3059
 3346SOL    HW221672   3.736   3.691   2.056 -0.3221  0.9073  0.9083
 3347SOL     OW21673   0.370   1.692   9.393 -0.2320  0.0180  0.4033
 3347SOL    HW121674   0.399   1.669   9.481 -0.4532 -0.2354  0.4098
 3347SOL    HW221675   0.424   1.629   9.347 -1.5331 -0.0441 -1.0262
 3348SOL     OW21676   3.507   4.132  13.367  0.1135 -0.1283  0.0380
 3348SOL    HW121677   3.517   4.120  13.273 -0.3152  2.8684 -0.3756
 3348SOL    HW221678   3.587   4.179  13.392  0.0652  0.4614 -0.9317
 3349SOL     OW21679   4.558   1.829   0.141  0.0416 -0.9474 -0.1708
 3349SOL    HW121680   4.601   1.744   0.135 -0.7140 -1.2853 -0.9194
 3349SOL    HW221681   4.566   1.846   0.047  1.0478 -0.7204 -0.0378
 3350SOL     OW21682   3.802   1.514   3.987  0.6505  0.5863  0.3832
 3350SOL    HW121683   3.751   1.455   3.931 -1.6093 -1.6536  4.7942
 3350SOL    HW221684   3.756   1.486   4.066 -0.9199  0.8417 -0.4308
 3351SOL     OW21685   1.789   2.575   9.347  0.2049  0.2766  0.2934
 3351SOL    HW121686   1.714   2.560   9.291  0.0351 -0.8909  0.8256
 3351SOL    HW221687   1.791   2.488   9.387 -0.6294  0.0252 -0.2191
 3352SOL     OW21688   3.027   0.171  16.059 -0.2405 -0.2463  0.0047
 3352SOL    HW121689   2.980   0.245  16.021 -0.8184 -0.2701  0.6738
 3352SOL    HW221690   3.035   0.113  15.984  0.2244  0.2795 -0.3609
 3353SOL     OW21691   0.491   2.734   3.780 -0.1486  0.3688 -0.3503
 3353SOL    HW121692   0.436   2.780   3.844 -1.7619 -1.5462 -0.3388
 3353SOL    HW221693   0.573   2.727   3.829 -0.1942 -0.6542 -0.4186
 3354SOL     OW21694   2.313   3.014   5.165 -0.0424  0.1797 -0.5000
 3354SOL    HW121695   2.363   3.087   5.128  1.3681  0.4148  1.8962
 3354SOL    HW221696   2.362   2.992   5.244 -0.2449  1.2409 -0.0694
 3355SOL     OW21697   0.735   1.793  11.586 -0.4338  0.0002  0.1162
 3355SOL    HW121698   0.683   1.716  11.610  1.1275 -2.0615 -3.0564
 3355SOL    HW221699   0.666   1.859  11.593 -1.0835 -0.5044 -1.4187
 3356SOL     OW21700   3.428   4.534  15.937  0.1059  0.3670  0.2106
 3356SOL    HW121701   3.434   4.621  15.899 -1.6532 -0.1231 -1.2147
 3356SOL    HW221702   3.458   4.557  16.025  0.9974 -0.7940  0.2111
 3357SOL     OW21703   0.005   1.537   8.117 -0.1280  0.0062  0.3011
 3357SOL    HW121704   4.718   1.545   8.210 -1.8222 -0.2180 -0.1063
 3357SOL    HW221705   0.086   1.487   8.129 -0.4148 -0.1519  1.6409
 3358SOL     OW21706   2.507   2.356  11.105 -0.4525  0.6169 -0.1394
 3358SOL    HW121707   2.476   2.318  11.187  0.7580  2.2482  1.0557
 3358SOL    HW221708   2.452   2.434  11.104  2.1019  2.4029 -0.3208
 3359SOL     OW21709   2.615   0.880  16.179 -0.0616 -0.3537  0.0931
 3359SOL    HW121710   2.606   0.970  16.146 -1.8570 -0.6610 -0.2821
 3359SOL    HW221711   2.582   0.887  16.268  0.4817 -1.7062  0.3920
 3360SOL     OW21712   1.048   4.602  16.185  0.0744  0.0862 -0.3055
 3360SOL    HW121713   0.966   4.584  16.230  0.8133  1.5286  1.6093
 3360SOL    HW221714   1.016   4.633  16.100  1.7202  0.9654 -0.6041
 3361SOL     OW21715   4.415   0.109   4.803  0.1580  0.1581  0.3137
 3361SOL    HW121716   4.406   0.166   4.727  0.3333 -0.2907 -0.0484
 3361SOL    HW221717   4.441   0.173   4.869  0.9773 -0.5572  0.6803
 3362SOL     OW21718   3.521   0.567  11.677  0.3399  0.7284 -0.1329
 3362SOL    HW121719   3.445   0.587  11.623 -0.1213 -1.2094 -0.2096
 3362SOL    HW221720   3.578   0.641  11.656 -0.7105  1.0518 -1.8084
 3363SOL     OW21721   2.148   4.664   6.396 -0.2991 -0.4032  0.0729
 3363SOL    HW121722   2.219   4.684   6.457 -0.5719 -0.8440  0.5345
 3363SOL    HW221723   2.119   0.016   6.373 -0.7768 -1.1509 -2.1756
 3364SOL     OW21724   2.788   3.704   0.522  0.0252  0.1991 -0.1488
 3364SOL    HW121725   2.738   3.623   0.529  0.9545 -0.3622  0.0032
 3364SOL    HW221726   2.757   3.743   0.440  1.8895  1.9706 -0.0228
 3365SOL     OW21727   1.191   4.654   7.943 -0.0836  0.8456  0.3036
 3365SOL    HW121728   1.123   4.651   7.876  0.5220 -1.2018 -0.2106
 3365SOL    HW221729   1.150   4.621   8.023 -0.8712 -0.9801 -0.8367
 3366SOL     OW21730   1.878   2.132   9.569  0.0061 -0.7191 -0.2291
 3366SOL    HW121731   1.818   2.206   9.566 -2.9319 -3.1965 -1.8777
 3366SOL    HW221732   1.894   2.134   9.475  1.5702 -0.7162  0.0296
 3367SOL     OW21733   4.285   2.978  14.132 -0.3170  0.3658  0.1049
 3367SOL    HW121734   4.319   2.929  14.057  0.4917 -1.7626  1.8681
 3367SOL    HW221735   4.369   3.009  14.166  0.1506 -0.4790 -0.2813
 3368SOL     OW21736   2.147   0.896   7.252  0.7009  0.1598 -0.1266
 3368SOL    HW121737   2.143   0.896   7.156  0.5194  2.0915 -0.1097
 3368SOL    HW221738   2.240   0.916   7.256  0.2705  1.6104  2.1802
 3369SOL     OW21739   3.045   1.149  10.933  0.1322  0.1407 -0.5747
 3369SOL    HW121740   3.118   1.087  10.937 -0.7819 -0.7574  2.4640
 3369SOL    HW221741   3.072   1.202  10.858 -2.1743 -0.5785 -1.9104
 3370SOL     OW21742   2.282   4.160   4.942 -0.1673 -0.0789 -0.2364
 3370SOL    HW121743   2.351   4.102   4.973  0.3634 -0.9866 -3.0558
 3370SOL    HW221744   2.323   4.204   4.868  1.5101 -0.7157  0.3199
 3371SOL     OW21745   4.053   2.800   6.564 -0.1821 -0.0596  0.8071
 3371SOL    HW121746   4.096   2.745   6.499  1.6960  1.2632  0.9375
 3371SOL    HW221747   4.129   2.827   6.615  0.1212 -1.3400  1.0082
 3372SOL     OW21748   1.855   2.009  10.951 -0.1811  0.6142  0.5156
 3372SOL    HW121749   1.787   2.003  11.018 -1.4372  0.7865 -0.7670
 3372SOL    HW221750   1.808   2.071  10.895  0.4260  1.3654  0.8322
 3373SOL     OW21751   4.465   2.012   6.610 -0.2129 -0.1424  0.3852
 3373SOL    HW121752   4.444   1.968   6.527 -1.1992  0.4676  0.3070
 3373SOL    HW221753   4.512   1.940   6.651  0.6869  0.7007  0.8136
 3374SOL     OW21754   2.708   0.260   3.752  0.0813  1.0010 -0.0144
 3374SOL    HW121755   2.638   0.252   3.817  1.1270 -2.5009  0.6380
 3374SOL    HW221756   2.784   0.289   3.802 -0.1624  0.0824  0.8854
 3375SOL     OW21757   0.279   4.148   3.693 -0.4993  0.4114  0.2345
 3375SOL    HW121758   0.318   4.227   3.731 -0.8604  1.3647 -1.3400
 3375SOL    HW221759   0.222   4.120   3.764 -1.0000 -0.3910 -0.4844
 3376SOL     OW21760   0.395   0.121  15.206  0.2747  0.3043 -0.2576
 3376SOL    HW121761   0.407   0.132  15.301 -0.0173  0.1105 -0.2001
 3376SOL    HW221762   0.319   0.064  15.211  0.4946 -0.1769 -2.3630
 3377SOL     OW21763   1.363   3.103   6.971  0.0222 -0.0749 -0.7153
 3377SOL    HW121764   1.346   3.009   6.957  2.6893 -0.5585 -0.6308
 3377SOL    HW221765   1.427   3.092   7.041  0.0891 -0.8783 -0.9011
 3378SOL     OW21766   3.285   4.436  10.535  0.3422 -0.2161 -0.3457
 3378SOL    HW121767   3.204   4.483  10.513  0.4992  0.2076 -0.0177
 3378SOL    HW221768   3.256   4.346  10.550 -0.5326  0.3163  1.1711
 3379SOL     OW21769   3.319   4.310   7.198 -0.6344  0.2357 -0.4232
 3379SOL    HW121770   3.350   4.289   7.110  1.7491 -1.2901  0.7661
 3379SOL    HW221771   3.386   4.375   7.218  0.2032 -0.5306 -0.7112
 3380SOL     OW21772   4.022   3.752  16.301  0.0315  1.0107 -0.0269
 3380SOL    HW121773   4.083   3.682  16.277  0.2557  1.3713 -0.5141
 3380SOL    HW221774   4.076   3.822  16.263 -0.0478 -0.2513 -2.4497
 3381SOL     OW21775   3.480   1.970   7.209 -0.3563  0.3505 -0.2875
 3381SOL    HW121776   3.491   1.950   7.302 -1.6875 -0.2220 -0.2413
 3381SOL    HW221777   3.391   1.934   7.206 -1.2697  2.6206 -0.2384
 3382SOL     OW21778   4.437   2.188  14.514  0.4058  0.1358 -0.2243
 3382SOL    HW121779   4.466   2.278  14.530 -1.0776  0.5576  0.0925
 3382SOL    HW221780   4.345   2.199  14.490  0.6168  1.2668 -0.5383
 3383SOL     OW21781   1.434   0.711  11.280 -0.0555 -0.4081 -0.0996
 3383SOL    HW121782   1.422   0.798  11.243 -3.4207 -0.7153  0.2632
 3383SOL    HW221783   1.454   0.724  11.373 -0.2643 -1.9274  0.1608
 3384SOL     OW21784   1.071   2.858   6.517  0.7070  0.2886 -0.2900
 3384SOL    HW121785   1.070   2.793   6.587  2.1227 -0.1398 -0.6664
 3384SOL    HW221786   1.106   2.813   6.440  2.4204 -2.6884  2.1954
 3385SOL     OW21787   0.268   3.347   4.096  0.5163 -0.0289  0.5953
 3385SOL    HW121788   0.227   3.262   4.080 -1.5969  1.1321 -0.2027
 3385SOL    HW221789   0.204   3.395   4.148 -0.0996  0.4030 -0.5497
 3386SOL     OW21790   4.502   1.447   5.989  0.1028 -0.1233 -0.1406
 3386SOL    HW121791   4.413   1.483   5.984 -0.0923 -0.4098  1.4371
 3386SOL    HW221792   4.498   1.401   6.072  0.1855 -2.0636 -1.2203
 3387SOL     OW21793   0.022   1.555   9.157 -0.1850 -0.6656 -0.1992
 3387SOL    HW121794   4.733   1.597   9.239 -1.5267 -1.1987 -0.3513
 3387SOL    HW221795   4.685   1.494   9.154 -2.0926  1.5097  3.0326
 3388SOL     OW21796   1.950   2.517   1.739  0.2165  0.2487 -0.0062
 3388SOL    HW121797   1.903   2.504   1.821  0.1138  2.7085  0.3237
 3388SOL    HW221798   2.016   2.578   1.770  0.1810  0.5076 -0.4295
 3389SOL     OW21799   2.816   0.434   7.055 -0.0602 -0.2303 -0.4327
 3389SOL    HW121800   2.860   0.374   6.995 -0.3092  0.1103 -0.9457
 3389SOL    HW221801   2.896   0.451   7.105 -0.8490  0.3825  0.6165
 3390SOL     OW21802   2.804   2.526  10.591 -0.3426  0.1853 -0.1665
 3390SOL    HW121803   2.727   2.469  10.583  1.5440 -2.2231 -1.0182
 3390SOL    HW221804   2.805   2.535  10.687 -1.0288  1.4273 -0.2818
 3391SOL     OW21805   2.983   0.699  15.644  0.1859  0.2631  0.5045
 3391SOL    HW121806   2.996   0.681  15.737  0.3587  0.9098  0.6057
 3391SOL    HW221807   2.962   0.614  15.604 -0.1279  0.5086  0.1553
 3392SOL     OW21808   3.708   0.922   6.068  0.8701 -0.3263  0.6147
 3392SOL    HW121809   3.764   0.866   6.015 -1.3437  0.1572 -2.1910
 3392SOL    HW221810   3.622   0.883   6.051 -0.1177  1.7608  0.7118
 3393SOL     OW21811   4.552   0.995   8.242 -0.2606 -0.0274 -0.2208
 3393SOL    HW121812   4.577   1.051   8.315 -1.4787 -1.2074  1.1108
 3393SOL    HW221813   4.619   1.014   8.177 -0.9667 -0.6228 -1.1248
 3394SOL     OW21814   2.406   4.250   4.724  0.2750  0.0033  0.6605
 3394SOL    HW121815   2.483   4.247   4.668  0.3906 -0.7652  0.8648
 3394SOL    HW221816   2.418   4.328   4.779  1.0591  0.0401  0.4380
 3395SOL     OW21817   3.829   0.565   9.889  0.4023  0.1491  0.0860
 3395SOL    HW121818   3.849   0.632   9.953  0.1054  0.6337 -0.3297
 3395SOL    HW221819   3.769   0.604   9.826 -0.2334 -0.6200  0.2127
 3396SOL     OW21820   1.865   0.938  13.657  0.0149 -0.4941 -0.2509
 3396SOL    HW121821   1.826   1.025  13.659  0.6279 -0.2396  0.4972
 3396SOL    HW221822   1.826   0.916  13.572 -1.3063 -1.8966  0.7014
 3397SOL     OW21823   3.677   2.367   2.831  0.2389  0.0539  0.0357
 3397SOL    HW121824   3.743   2.342   2.766  1.5838 -1.0810  1.8467
 3397SOL    HW221825   3.737   2.356   2.904 -0.7159  0.3017  0.8633
 3398SOL     OW21826   0.310   0.608   3.937 -0.0187 -0.0326  1.1906
 3398SOL    HW121827   0.282   0.518   3.922  0.8576  0.0614 -0.8948
 3398SOL    HW221828   0.404   0.594   3.947  0.2119 -0.6457 -1.8940
 3399SOL     OW21829   1.838   0.568  16.406 -0.5021 -0.8696 -0.5199
 3399SOL    HW121830   1.920   0.603  16.372 -0.8342  1.7252  1.3268
 3399SOL    HW221831   1.794   0.647  16.437 -2.4903 -1.4065 -1.9080
 3400SOL     OW21832   0.450   2.095  16.882  0.1026 -1.0642 -0.2805
 3400SOL    HW121833   0.373   2.054  16.844  0.4100 -0.1536 -1.9330
 3400SOL    HW221834   0.502   2.097  16.801  0.5094 -1.0122 -0.0221
 3401SOL     OW21835   1.571   1.330   6.736 -0.4822  0.5566 -0.0324
 3401SOL    HW121836   1.599   1.400   6.678 -0.9516  1.2829  0.6185
 3401SOL    HW221837   1.493   1.364   6.780 -1.0378 -0.7235 -0.0136
 3402SOL     OW21838   3.628   1.343  17.205 -0.0009 -0.2941  0.0544
 3402SOL    HW121839   3.666   1.260  17.233  0.7587  0.2806  0.7331
 3402SOL    HW221840   3.624   1.332  17.110 -2.5781 -1.2000  0.2770
 3403SOL     OW21841   3.822   3.069   0.557 -0.8607 -0.2825  1.0409
 3403SOL    HW121842   3.829   3.052   0.464  0.5341  1.2930  0.8665
 3403SOL    HW221843   3.884   3.141   0.568  0.6128 -1.3832 -0.1197
 3404SOL     OW21844   1.226   1.867   6.104  0.0712  0.3903 -0.1607
 3404SOL    HW121845   1.154   1.818   6.144  0.6133 -0.8396 -0.6636
 3404SOL    HW221846   1.280   1.889   6.180 -0.3654 -1.4140  0.6684
 3405SOL     OW21847   3.110   4.390   4.015  0.2190 -0.0460  0.0157
 3405SOL    HW121848   3.015   4.382   4.025  0.2288  0.7196  0.6859
 3405SOL    HW221849   3.147   4.363   4.099  0.6698 -3.0485 -1.1376
 3406SOL     OW21850   0.401   3.806   5.105  0.2551 -0.1736 -0.5181
 3406SOL    HW121851   0.449   3.724   5.119  0.1567 -0.2306 -0.5092
 3406SOL    HW221852   0.407   3.842   5.193  0.7715  0.4625 -0.8123
 3407SOL     OW21853   2.450   2.112   3.853  0.6810  0.3134  0.3316
 3407SOL    HW121854   2.406   2.027   3.849  0.8565  0.2760 -0.5852
 3407SOL    HW221855   2.542   2.101   3.829  0.2660 -0.3742 -0.8974
 3408SOL     OW21856   3.002   0.884   3.064  0.5298  0.0725 -0.2705
 3408SOL    HW121857   2.955   0.814   3.109 -1.5404  0.9737 -1.0323
 3408SOL    HW221858   3.023   0.939   3.139 -0.3227  0.5332 -0.3670
 3409SOL     OW21859   1.585   1.599   7.385 -0.0987 -0.2151 -0.1318
 3409SOL    HW121860   1.492   1.580   7.394  0.0526 -0.1195  1.7459
 3409SOL    HW221861   1.624   1.517   7.353 -1.5442 -1.2921  0.8989
 3410SOL     OW21862   1.700   1.932   2.877  0.1930  0.1510  0.7532
 3410SOL    HW121863   1.713   1.940   2.782 -2.0582  1.5572  0.5780
 3410SOL    HW221864   1.790   1.932   2.910  0.7376  2.0665 -0.7217
 3411SOL     OW21865   3.276   1.117   4.922 -0.0234 -0.5462 -0.1872
 3411SOL    HW121866   3.363   1.079   4.912 -0.2473 -0.9060 -0.7792
 3411SOL    HW221867   3.287   1.208   4.951  0.5009 -0.2403 -1.3359
 3412SOL     OW21868   3.558   0.944  16.736 -0.4545 -0.2041 -0.1975
 3412SOL    HW121869   3.597   0.883  16.798  2.0610  2.1484  0.5438
 3412SOL    HW221870   3.475   0.964  16.781 -0.4476  0.0781 -0.3095
 3413SOL     OW21871   0.296   1.035   9.494  0.3761  0.4013 -0.6443
 3413SOL    HW121872   0.274   1.107   9.435  0.8553  0.2276 -1.0423
 3413SOL    HW221873   0.243   0.962   9.461  0.5180  0.9006 -1.9972
 3414SOL     OW21874   2.138   3.322   3.090 -0.3337  0.6808 -0.2360
 3414SOL    HW121875   2.061   3.294   3.042 -0.9457  1.1009  0.4993
 3414SOL    HW221876   2.096   3.323   3.176  0.0639  1.1097 -0.0433
 3415SOL     OW21877   0.753   2.209   4.403 -0.3297  0.1027 -0.0260
 3415SOL    HW121878   0.663   2.182   4.425 -0.2686 -0.7956 -0.9116
 3415SOL    HW221879   0.744   2.278   4.338  1.1142 -0.7059 -1.0736
 3416SOL     OW21880   2.802   3.106   4.236  1.0954  0.6000 -0.1954
 3416SOL    HW121881   2.711   3.076   4.231  1.6686 -0.8397 -1.6159
 3416SOL    HW221882   2.819   3.147   4.152  0.8748 -0.1081 -0.5826
 3417SOL     OW21883   0.997   3.165   9.950  0.2601  0.1538  0.2159
 3417SOL    HW121884   1.037   3.181   9.864  0.1918 -1.4767 -0.1124
 3417SOL    HW221885   0.917   3.118   9.928 -0.8925  1.7361  0.9970
 3418SOL     OW21886   2.356   1.108   4.391 -0.1617 -0.7426 -0.5988
 3418SOL    HW121887   2.325   1.197   4.371 -1.3289 -1.3137 -1.2830
 3418SOL    HW221888   2.425   1.107   4.325  0.2555  1.0098 -0.2087
 3419SOL     OW21889   3.444   0.150   2.040  0.0891  0.0671 -0.0403
 3419SOL    HW121890   3.453   0.178   2.131 -0.3721 -2.4566  0.7689
 3419SOL    HW221891   3.377   0.083   2.053  0.1039 -0.2112 -1.4605
 3420SOL     OW21892   2.602   2.888   4.379 -0.3250  0.7827 -0.3278
 3420SOL    HW121893   2.647   2.805   4.366 -1.0260  0.3107  0.2881
 3420SOL    HW221894   2.564   2.891   4.467 -1.2255  0.0688 -0.7006
 3421SOL     OW21895   3.012   0.108   4.819 -0.5644  0.3289 -0.1934
 3421SOL    HW121896   3.094   0.069   4.786 -0.6170  0.3347 -0.3329
 3421SOL    HW221897   2.968   0.138   4.740  0.5990 -3.0901 -2.1740
 3422SOL     OW21898   2.459   0.702   4.098 -0.3466  0.5770  0.1711
 3422SOL    HW121899   2.455   0.707   4.002 -0.8729  1.1861  0.2256
 3422SOL    HW221900   2.550   0.673   4.107 -0.1028  1.9453  1.9245
 3423SOL     OW21901   2.893   4.117  13.614 -0.1478 -0.0627 -0.1283
 3423SOL    HW121902   2.850   4.035  13.638 -1.3305  1.2578  2.2398
 3423SOL    HW221903   2.873   4.131  13.522  1.2698  1.7451 -0.1556
 3424SOL     OW21904   3.090   0.715   8.279  0.2746  0.7579 -0.6755
 3424SOL    HW121905   3.012   0.660   8.278  0.4846  0.4646 -0.6816
 3424SOL    HW221906   3.148   0.657   8.229 -0.0520 -0.2473  0.1286
 3425SOL     OW21907   4.361   1.334   0.715  0.0036 -0.2478 -0.1996
 3425SOL    HW121908   4.346   1.292   0.800  0.7113 -1.4180 -0.6517
 3425SOL    HW221909   4.274   1.333   0.675  0.2387 -1.8544 -0.6912
 3426SOL     OW21910   2.018   2.601   3.478  0.2236 -0.0649 -0.1066
 3426SOL    HW121911   2.079   2.590   3.405 -0.1870 -0.9658 -0.3062
 3426SOL    HW221912   2.039   2.526   3.532 -3.5147 -1.1028 -0.0911
 3427SOL     OW21913   2.191   1.819  14.254 -0.0102 -0.0516  0.3946
 3427SOL    HW121914   2.260   1.773  14.302  0.3570  0.2328  0.1354
 3427SOL    HW221915   2.182   1.899  14.306 -3.1519  0.0301 -0.2620
 3428SOL     OW21916   0.774   1.082   8.195 -0.1310 -0.2576 -0.2252
 3428SOL    HW121917   0.790   1.144   8.267  1.4179  0.9099 -1.5665
 3428SOL    HW221918   0.688   1.106   8.158  0.4231  1.3745 -0.4549
 3429SOL     OW21919   1.688   2.760  17.592  0.4768  0.0826 -0.4401
 3429SOL    HW121920   1.611   2.781  17.645  1.4770  2.6240 -0.0107
 3429SOL    HW221921   1.645   2.745  17.508 -0.3006 -2.0284  0.3384
 3430SOL     OW21922   0.264   1.933   8.922 -0.4070  0.2219 -0.0048
 3430SOL    HW121923   0.238   1.874   8.993  0.1774 -1.6933 -1.3536
 3430SOL    HW221924   0.266   1.865   8.853  4.1614  0.9776 -0.6352
 3431SOL     OW21925   0.055   2.541   3.825  0.3317  0.1339 -0.1615
 3431SOL    HW121926   0.017   2.496   3.749 -1.1553  1.3577 -0.1226
 3431SOL    HW221927   4.718   2.598   3.845 -0.8423 -1.4492  0.0290
 3432SOL     OW21928   1.042   0.704   5.276 -0.4313  0.5262 -0.7159
 3432SOL    HW121929   1.047   0.741   5.188 -2.9218 -0.8173 -1.4185
 3432SOL    HW221930   0.947   0.695   5.282 -0.3445  0.2476  0.3255
 3433SOL     OW21931   2.042   2.481   5.378  0.2662 -0.5720  0.2158
 3433SOL    HW121932   2.120   2.489   5.434 -1.1312 -2.5755  2.4471
 3433SOL    HW221933   2.049   2.555   5.318  1.7794  1.4124  2.8288
 3434SOL     OW21934   1.096   1.539   2.873 -0.1077  0.0270 -0.0075
 3434SOL    HW121935   1.046   1.537   2.955  1.1532 -0.3336  0.7403
 3434SOL    HW221936   1.173   1.491   2.901 -1.5740 -1.5181  1.3935
 3435SOL     OW21937   1.926   0.834   3.950  0.1333  0.1368  1.0947
 3435SOL    HW121938   1.874   0.888   4.011 -0.6776 -0.1162  0.6371
 3435SOL    HW221939   1.849   0.812   3.897  0.2388  2.3751  0.0015
 3436SOL     OW21940   0.814   0.193   4.500 -0.1649 -0.3608 -0.6958
 3436SOL    HW121941   0.751   0.122   4.486 -0.0244 -1.1937  2.7419
 3436SOL    HW221942   0.895   0.159   4.462  1.0693 -1.8150  3.2001
 3437SOL     OW21943   0.993   4.411   2.737 -0.2465  0.0928  0.3413
 3437SOL    HW121944   0.925   4.367   2.686 -0.9767 -1.8923  3.0250
 3437SOL    HW221945   0.979   4.494   2.690  0.2885  0.5600  1.0123
 3438SOL     OW21946   2.301   3.720   0.613 -0.6161  0.4534 -0.2076
 3438SOL    HW121947   2.309   3.815   0.621 -1.0593  0.4199  0.5955
 3438SOL    HW221948   2.312   3.707   0.519  0.4549 -1.4388  0.1785
 3439SOL     OW21949   2.173   4.599   7.167  0.1607  0.3417  0.3470
 3439SOL    HW121950   2.097   4.542   7.178 -1.2955  1.9164 -1.3803
 3439SOL    HW221951   2.234   4.559   7.105  0.6991 -1.0655  1.8177
 3440SOL     OW21952   2.310   4.494  14.880  0.1120  0.3508 -0.1228
 3440SOL    HW121953   2.239   4.548  14.846 -0.0907 -0.0435 -0.3298
 3440SOL    HW221954   2.260   4.443  14.944  1.5459 -0.4361  0.3785
 3441SOL     OW21955   1.569   3.705   4.777  0.2189  0.3246  0.2289
 3441SOL    HW121956   1.609   3.621   4.799 -2.0395 -0.4456  1.3629
 3441SOL    HW221957   1.479   3.680   4.755  0.5744 -1.2286  0.5679
 3442SOL     OW21958   2.725   2.934  15.899  0.2553  0.6922 -0.0048
 3442SOL    HW121959   2.792   2.955  15.963  0.2926  1.6696 -0.3585
 3442SOL    HW221960   2.771   2.947  15.816  0.5117  0.1585  0.0509
 3443SOL     OW21961   0.881   0.232   3.356  0.2270 -0.4222  0.0156
 3443SOL    HW121962   0.957   0.278   3.392 -0.2286  0.2368  0.1481
 3443SOL    HW221963   0.896   0.149   3.400  0.0111 -0.5202 -0.0950
 3444SOL     OW21964   4.014   3.579   6.075 -0.8897  0.4057 -0.4680
 3444SOL    HW121965   4.006   3.486   6.055  0.2756  0.3427 -0.6632
 3444SOL    HW221966   3.990   3.615   5.989 -2.9630  1.5513  0.5970
 3445SOL     OW21967   1.727   0.888   7.589 -0.5569 -0.3629  0.2053
 3445SOL    HW121968   1.746   0.931   7.506  1.7806  0.0237  0.9315
 3445SOL    HW221969   1.812   0.882   7.633 -0.3197  0.9893 -0.0759
 3446SOL     OW21970   3.904   3.067   6.978 -0.3596  0.0612 -0.0726
 3446SOL    HW121971   3.968   3.136   6.964  0.9314 -1.7419 -3.1202
 3446SOL    HW221972   3.962   2.991   6.973 -0.9701 -0.4911  1.2558
 3447SOL     OW21973   1.374   1.663  11.008 -0.5893  0.0205  0.0187
 3447SOL    HW121974   1.311   1.734  10.991  1.4825  1.2288 -2.5997
 3447SOL    HW221975   1.428   1.658  10.929  1.1477 -0.1861  1.2214
 3448SOL     OW21976   3.745   0.019   5.512  0.0794  0.3936  0.2099
 3448SOL    HW121977   3.815   0.050   5.569  0.2166  0.7034 -0.1314
 3448SOL    HW221978   3.677   0.077   5.547  0.7620 -0.0847  2.3387
 3449SOL     OW21979   3.293   0.730   3.439 -0.6671 -0.1150 -0.0647
 3449SOL    HW121980   3.229   0.736   3.510 -0.8441  0.8057 -0.3073
 3449SOL    HW221981   3.263   0.802   3.384 -0.6237 -0.2656 -0.2883
 3450SOL     OW21982   3.336   1.806   3.574  0.2401 -0.0629  0.3882
 3450SOL    HW121983   3.341   1.853   3.657 -2.7763 -0.9049  1.0483
 3450SOL    HW221984   3.243   1.785   3.570 -0.0146  1.0790  0.1830
 3451SOL     OW21985   3.344   2.073   4.967  0.3199 -0.4528 -0.8803
 3451SOL    HW121986   3.366   2.004   5.030 -0.4577  0.2875  0.1981
 3451SOL    HW221987   3.412   2.136   4.988 -2.5905  2.2997  0.2248
 3452SOL     OW21988   1.082   0.727   1.933  0.5570 -0.3229  0.0578
 3452SOL    HW121989   1.029   0.744   2.011  1.9691  1.0212  0.7144
 3452SOL    HW221990   1.034   0.785   1.874  2.1949  0.3889 -0.5730
 3453SOL     OW21991   1.016   1.130   4.091  0.0725 -0.4896 -0.4013
 3453SOL    HW121992   1.061   1.186   4.027 -3.5458  3.8531  0.8586
 3453SOL    HW221993   1.002   1.053   4.037  1.1877 -3.1604  3.1071
 3454SOL     OW21994   0.359   4.002  11.581 -0.3912  0.9241  0.6736
 3454SOL    HW121995   0.264   3.991  11.578 -0.1281 -1.4546  1.0539
 3454SOL    HW221996   0.361   4.097  11.596 -3.0148  1.4473 -2.3946
 3455SOL     OW21997   4.393   2.705   3.412 -0.4127  0.3708  0.3479
 3455SOL    HW121998   4.338   2.669   3.343  1.0067 -2.6271  0.7977
 3455SOL    HW221999   4.327   2.724   3.479  0.4702  0.2518  1.2458
 3456SOL     OW22000   2.283   4.669  16.472 -0.7314 -0.5098  0.2463
 3456SOL    HW122001   2.327   4.585  16.460  2.6903  1.5446 -1.5372
 3456SOL    HW222002   2.214   4.651  16.536  0.2127 -1.8782  0.8875
 3457SOL     OW22003   2.968   2.020   3.664  0.0949  0.1689  0.4933
 3457SOL    HW122004   2.974   2.043   3.572 -0.3851 -0.1083  0.3925
 3457SOL    HW222005   2.999   1.929   3.664  0.9379  0.4484  1.9660
 3458SOL     OW22006   0.606   3.545   6.445 -0.2899  0.7711 -0.3459
 3458SOL    HW122007   0.589   3.488   6.520  1.1083 -1.7480 -1.9716
 3458SOL    HW222008   0.677   3.500   6.400  0.1151  0.1226  0.9254
 3459SOL     OW22009   3.203   3.315  15.751 -0.1317 -0.1913  0.0838
 3459SOL    HW122010   3.243   3.250  15.810 -0.9577 -0.4931  0.3128
 3459SOL    HW222011   3.115   3.318  15.788 -0.1988 -1.6874  0.0786
 3460SOL     OW22012   0.343   1.198   1.038 -0.1556 -0.4162  0.8317
 3460SOL    HW122013   0.413   1.167   0.980 -0.0118 -0.9298  1.2766
 3460SOL    HW222014   0.394   1.230   1.112 -0.2301  1.3659  0.1004
 3461SOL     OW22015   0.949   3.007   8.502 -0.1643  0.0058  0.1470
 3461SOL    HW122016   1.043   3.025   8.502 -0.3562  1.0068 -0.3807
 3461SOL    HW222017   0.952   2.911   8.497 -1.3104 -0.1235  1.8038
 3462SOL     OW22018   1.124   0.397   2.488 -0.2545 -0.0413 -0.4025
 3462SOL    HW122019   1.106   0.358   2.402 -1.4942 -3.7168  1.5029
 3462SOL    HW222020   1.109   0.489   2.466  0.4385  0.0221 -0.6178
 3463SOL     OW22021   1.811   0.683   1.567  0.1194  0.0481 -0.0198
 3463SOL    HW122022   1.774   0.764   1.532 -2.1510 -0.8408  0.3146
 3463SOL    HW222023   1.732   0.634   1.592 -0.4393  1.1566  0.3944
 3464SOL     OW22024   0.369   4.299   4.034  0.0228  0.0488  0.4080
 3464SOL    HW122025   0.328   4.337   4.112 -0.0329  2.1098 -0.6337
 3464SOL    HW222026   0.376   4.365   3.965  2.3284 -1.7458 -1.0697
 3465SOL     OW22027   3.071   2.770   5.070 -0.0089 -0.1479  0.9746
 3465SOL    HW122028   3.102   2.766   4.980 -0.6985 -1.7365  0.8075
 3465SOL    HW222029   3.085   2.683   5.107 -3.6317 -1.5783 -0.9763
 3466SOL     OW22030   2.978   0.143   3.388  0.8480 -0.3383 -0.1975
 3466SOL    HW122031   3.069   0.159   3.363  0.8830  2.0327  1.4118
 3466SOL    HW222032   2.956   0.064   3.341 -1.1702  0.6580 -0.9039
 3467SOL     OW22033   2.673   3.799   8.303 -0.4393 -0.7409 -0.9684
 3467SOL    HW122034   2.619   3.720   8.308 -1.4507  0.0289  0.2708
 3467SOL    HW222035   2.632   3.854   8.370  2.2768  2.0840 -1.6267
 3468SOL     OW22036   3.530   0.797  17.375  0.4950  0.2825  0.3693
 3468SOL    HW122037   3.574   0.712  17.372 -0.6875 -0.3402  0.8752
 3468SOL    HW222038   3.595   0.843  17.429  1.7973  1.9731 -2.6370
 3469SOL     OW22039   0.764   0.670   4.626 -0.5174 -0.1978  0.1340
 3469SOL    HW122040   0.746   0.580   4.653  1.5231 -1.5311 -2.9950
 3469SOL    HW222041   0.816   0.700   4.700 -0.3532 -0.3792  0.0905
 3470SOL     OW22042   4.028   4.171   0.655  0.3251 -0.3480 -0.1454
 3470SOL    HW122043   3.942   4.129   0.667  0.5118 -0.6948 -0.0187
 3470SOL    HW222044   4.023   4.187   0.561  0.3104  0.1184 -0.0614
 3471SOL     OW22045   0.792   0.860   8.518  0.3596 -0.5262  0.1260
 3471SOL    HW122046   0.777   0.953   8.534  0.2456 -0.2040 -1.8389
 3471SOL    HW222047   0.843   0.869   8.437  1.5031  0.0459  0.9069
 3472SOL     OW22048   2.352   0.694   5.876 -0.6937 -0.0931 -0.0672
 3472SOL    HW122049   2.263   0.696   5.842 -0.5167  2.8479 -0.4177
 3472SOL    HW222050   2.339   0.760   5.944  2.1703  1.7907 -1.2997
 3473SOL     OW22051   3.744   1.608   8.851  0.2479  0.4507 -0.4853
 3473SOL    HW122052   3.707   1.572   8.770  0.1373 -0.4520 -0.0307
 3473SOL    HW222053   3.781   1.529   8.889 -0.6372 -0.3215 -1.2166
 3474SOL     OW22054   0.240   4.579   4.089  0.0736  0.0082 -0.2726
 3474SOL    HW122055   0.229   4.540   4.002  0.2003  0.3923 -0.4638
 3474SOL    HW222056   0.276   4.666   4.070  0.5095  0.1458  1.1672
 3475SOL     OW22057   1.311   2.589   3.672  0.4763  0.1487 -0.1846
 3475SOL    HW122058   1.363   2.532   3.729  1.2419  0.7414 -0.2854
 3475SOL    HW222059   1.257   2.527   3.623  0.7640 -0.0632 -0.2353
 3476SOL     OW22060   4.137   3.256   0.171 -0.5184  0.4157  0.6600
 3476SOL    HW122061   4.152   3.285   0.261 -1.1328 -0.1984  0.9613
 3476SOL    HW222062   4.044   3.275   0.165 -0.3516  1.5915  1.8496
 3477SOL     OW22063   3.540   0.812   5.526 -0.5177  0.0744  0.6468
 3477SOL    HW122064   3.610   0.760   5.488 -0.5235  0.3238  0.3012
 3477SOL    HW222065   3.492   0.849   5.452 -0.1710  0.0837  0.4266
 3478SOL     OW22066   1.939   1.164   1.376  0.3447  0.4000 -0.6913
 3478SOL    HW122067   1.979   1.197   1.295  1.1781 -1.0155 -0.8630
 3478SOL    HW222068   2.009   1.143   1.437 -1.0325 -2.7190 -0.1820
 3479SOL     OW22069   1.473   1.625   2.229 -0.6055  0.9805 -0.3158
 3479SOL    HW122070   1.439   1.540   2.199  2.1649 -0.4881  0.7637
 3479SOL    HW222071   1.422   1.641   2.308 -1.4484 -1.3688 -0.3615
 3480SOL     OW22072   2.731   4.723  15.118  0.0501 -0.7130 -0.2753
 3480SOL    HW122073   2.668   4.652  15.107 -1.1277  0.0105  1.7826
 3480SOL    HW222074   2.778   4.694  15.197  0.1076  0.4808  0.1336
 3481SOL     OW22075   2.051   2.900   5.032  0.5117  0.2669  0.1805
 3481SOL    HW122076   1.995   2.969   4.997  0.9265  0.1132 -0.7669
 3481SOL    HW222077   2.100   2.949   5.099 -1.0961  1.0352  0.7892
 3482SOL     OW22078   2.431   0.698   3.814  0.0431  0.1087  0.2353
 3482SOL    HW122079   2.398   0.761   3.750 -1.5943 -0.9953 -0.0279
 3482SOL    HW222080   2.517   0.681   3.777 -0.2889  0.1048 -0.5332
 3483SOL     OW22081   2.127   2.093   8.889 -0.0532 -0.0998  0.2066
 3483SOL    HW122082   2.083   2.010   8.877 -0.9549  0.7201 -2.0098
 3483SOL    HW222083   2.170   2.103   8.805  1.1430  1.2312  0.9658
 3484SOL     OW22084   2.762   2.135  16.930  0.8447  0.5882  0.1399
 3484SOL    HW122085   2.754   2.040  16.936 -0.4219  0.7533  1.1086
 3484SOL    HW222086   2.850   2.154  16.896 -0.1922  0.4985 -2.5935
 3485SOL     OW22087   0.438   0.105  15.484  0.3421 -0.4748  0.1131
 3485SOL    HW122088   0.478   0.138  15.564 -0.0806 -0.1685  0.1967
 3485SOL    HW222089   0.468   0.014  15.481 -0.7330 -0.8031 -0.4406
 3486SOL     OW22090   1.062   4.285   7.765  0.3583  0.0964  0.0493
 3486SOL    HW122091   0.985   4.313   7.815 -0.4142  0.3939 -1.3122
 3486SOL    HW222092   1.036   4.201   7.728  1.7896 -1.6113  2.9269
 3487SOL     OW22093   2.635   2.243   6.113 -0.0635  0.1325  0.1199
 3487SOL    HW122094   2.547   2.253   6.078  0.2129 -1.1871 -0.9179
 3487SOL    HW222095   2.641   2.328   6.157 -0.1814 -0.0195  0.4273
 3488SOL     OW22096   1.600   1.799   5.209  0.2162  0.1445  0.4577
 3488SOL    HW122097   1.529   1.766   5.154 -1.5272  0.7358  2.3602
 3488SOL    HW222098   1.566   1.885   5.234 -2.2200 -0.6143 -0.2529
 3489SOL     OW22099   2.488   1.578   1.897  0.0595  0.0594 -0.4861
 3489SOL    HW122100   2.404   1.557   1.857  0.2889 -0.5584 -0.6471
 3489SOL    HW222101   2.523   1.490   1.905 -2.3546 -0.8424  0.0872
 3490SOL     OW22102   0.995   1.706   5.594  0.2821 -0.0627  0.4124
 3490SOL    HW122103   1.054   1.755   5.652  0.3077 -0.2748  0.5667
 3490SOL    HW222104   0.942   1.778   5.559  0.5210  1.9249  4.0675
 3491SOL     OW22105   3.418   3.367   8.189 -0.7623 -0.2036  0.0410
 3491SOL    HW122106   3.362   3.340   8.262  1.3375 -0.5469  1.5621
 3491SOL    HW222107   3.492   3.397   8.242 -1.9865  0.5938  1.2972
 3492SOL     OW22108   3.030   2.438   5.979 -0.3016  0.0347  0.4161
 3492SOL    HW122109   3.119   2.414   6.007 -0.3649  1.4482  1.8130
 3492SOL    HW222110   3.038   2.533   5.975 -0.2071 -0.1430 -3.3793
 3493SOL     OW22111   0.175   3.808   2.902 -0.7854 -0.6940 -0.2260
 3493SOL    HW122112   0.242   3.811   2.835 -1.5546 -0.9251 -1.0044
 3493SOL    HW222113   0.125   3.883   2.871 -0.5264 -0.8306 -0.9757
 3494SOL     OW22114   1.780   1.892   1.842  0.7556  0.3964  0.0754
 3494SOL    HW122115   1.862   1.941   1.840  0.4534  0.8268 -1.6769
 3494SOL    HW222116   1.718   1.965   1.846  0.0222 -0.2058 -0.2749
 3495SOL     OW22117   3.533   1.110  14.682 -0.3670  0.2023 -0.4270
 3495SOL    HW122118   3.565   1.021  14.695 -0.3987 -0.1068 -2.4104
 3495SOL    HW222119   3.443   1.093  14.652 -1.1211  0.5873  1.5782
 3496SOL     OW22120   1.701   3.379   1.419 -0.3779 -0.2869  0.3883
 3496SOL    HW122121   1.618   3.427   1.424  0.5420  1.1670  1.4973
 3496SOL    HW222122   1.733   3.411   1.503 -2.0743 -0.4376  1.0938
 3497SOL     OW22123   1.775   2.304   7.859  0.0453 -0.4255 -0.5712
 3497SOL    HW122124   1.793   2.313   7.952  1.0534 -1.9469 -0.6105
 3497SOL    HW222125   1.723   2.223   7.854  1.1750 -1.2822  1.5513
 3498SOL     OW22126   3.505   1.660  15.292 -0.0709  0.5562  0.2534
 3498SOL    HW122127   3.555   1.623  15.219  0.7567  0.4644  0.8641
 3498SOL    HW222128   3.498   1.749  15.256  0.2577  0.7104  0.5623
 3499SOL     OW22129   1.679   3.150   1.867  0.0666 -0.2689  0.0525
 3499SOL    HW122130   1.631   3.215   1.816  0.3383 -0.2376 -0.1621
 3499SOL    HW222131   1.747   3.201   1.911  1.8765 -1.5088 -1.3388
 3500SOL     OW22132   2.526   4.533   2.800 -0.5855  0.3918  0.4829
 3500SOL    HW122133   2.491   4.473   2.865 -1.0319 -1.0623 -1.0947
 3500SOL    HW222134   2.467   4.534   2.724  0.6974  0.9531 -0.5077
 3501SOL     OW22135   2.674   2.946  12.599 -0.4347 -0.4165  0.3307
 3501SOL    HW122136   2.647   2.959  12.508  1.8074 -3.2629 -0.7231
 3501SOL    HW222137   2.683   3.037  12.627  2.4702 -0.5651 -0.1671
 3502SOL     OW22138   1.293   4.045   4.154 -0.2094 -0.2764 -0.0404
 3502SOL    HW122139   1.273   3.955   4.129 -3.6214  0.3488  0.4965
 3502SOL    HW222140   1.211   4.094   4.150  1.0432  1.8968  1.0885
 3503SOL     OW22141   0.461   0.594  17.347 -0.0005  0.0890 -0.1068
 3503SOL    HW122142   0.480   0.683  17.376  1.6975 -0.1347 -0.5507
 3503SOL    HW222143   0.479   0.605  17.254  1.0550  0.5247  0.1453
 3504SOL     OW22144   2.012   2.950   9.261 -0.3077  0.3067  0.6724
 3504SOL    HW122145   2.040   3.000   9.338  0.4554  1.9094 -0.6261
 3504SOL    HW222146   1.916   2.957   9.258 -0.3858 -1.3360 -0.2113
 3505SOL     OW22147   1.664   1.862   2.564  0.1198  0.2031 -0.2778
 3505SOL    HW122148   1.676   1.923   2.491 -0.9348 -0.0833 -0.6986
 3505SOL    HW222149   1.750   1.827   2.585  0.7544  1.2186 -1.2324
 3506SOL     OW22150   0.145   2.877   1.205 -0.2110 -0.1434 -0.0153
 3506SOL    HW122151   0.131   2.794   1.158  1.5908 -0.9849  0.9477
 3506SOL    HW222152   0.231   2.895   1.167 -0.3177  1.3124  0.4371
 3507SOL     OW22153   3.908   1.811  13.938  0.3627  0.2223 -0.1583
 3507SOL    HW122154   3.824   1.817  13.983  0.8197  0.6474  0.6560
 3507SOL    HW222155   3.922   1.718  13.954  0.1640  0.2253  0.0190
 3508SOL     OW22156   3.914   2.712   8.703  0.4215  0.4821  0.0899
 3508SOL    HW122157   3.900   2.723   8.797  1.5970  1.3046  0.1685
 3508SOL    HW222158   3.955   2.626   8.708 -0.8983 -0.2560 -1.7582
 3509SOL     OW22159   1.206   0.498   3.352  0.2775 -0.1008 -0.0113
 3509SOL    HW122160   1.287   0.545   3.329  0.1041 -0.0595 -0.5387
 3509SOL    HW222161   1.182   0.545   3.432 -0.1498  0.8084 -0.6665
 3510SOL     OW22162   4.468   2.362   1.653  0.1408  0.1111  0.3142
 3510SOL    HW122163   4.421   2.407   1.724 -0.2915  1.1216 -0.6119
 3510SOL    HW222164   4.535   2.427   1.632 -1.5637  1.5207 -0.7199
 3511SOL     OW22165   1.940   1.395   8.030  0.2801  0.0338  0.4062
 3511SOL    HW122166   1.927   1.422   7.939 -1.3049  0.1995  0.6671
 3511SOL    HW222167   1.903   1.307   8.037  2.0650 -0.7844 -0.5832
 3512SOL     OW22168   4.410   2.919   2.902  0.1934 -0.3240  0.6701
 3512SOL    HW122169   4.347   2.986   2.927  1.1192  1.5225 -1.8978
 3512SOL    HW222170   4.367   2.887   2.822  2.8506  0.9321 -1.2782
 3513SOL     OW22171   4.465   2.181   7.598  0.2771  0.0381  0.0801
 3513SOL    HW122172   4.419   2.098   7.593  0.1766  0.1988 -1.6892
 3513SOL    HW222173   4.480   2.205   7.507 -0.5131  2.3003  0.5438
 3514SOL     OW22174   0.094   0.783   5.269  0.8313 -0.4822 -0.6457
 3514SOL    HW122175   0.033   0.710   5.257 -1.0939  1.1405 -0.6893
 3514SOL    HW222176   0.155   0.776   5.196 -1.9647  0.8978 -3.1300
 3515SOL     OW22177   2.532   2.314   7.854  0.2875 -0.0655 -0.6103
 3515SOL    HW122178   2.544   2.395   7.804  0.8308  0.0668 -0.2581
 3515SOL    HW222179   2.442   2.334   7.882  0.0200  1.5762 -2.6424
 3516SOL     OW22180   0.121   1.801   6.006 -0.2431 -0.3997 -0.3814
 3516SOL    HW122181   0.095   1.804   6.098  1.8981  0.6901  0.1713
 3516SOL    HW222182   0.129   1.707   5.990 -3.7904 -0.4032 -2.2778
 3517SOL     OW22183   2.945   3.852  15.859  0.1620  0.3398 -0.2280
 3517SOL    HW122184   2.886   3.915  15.900  1.5994  1.4226  0.1574
 3517SOL    HW222185   2.877   3.809  15.807 -1.7021  0.6989  1.8997
 3518SOL     OW22186   0.978   0.022   6.078 -0.4882  0.4510 -0.7894
 3518SOL    HW122187   0.948   4.684   6.130 -1.7153  1.3070 -0.2777
 3518SOL    HW222188   0.956   0.096   6.134 -0.5701 -0.3161  0.2124
 3519SOL     OW22189   2.483   2.589   6.866 -0.3213 -1.4082  0.2294
 3519SOL    HW122190   2.438   2.508   6.843 -3.2695  0.9491 -2.3048
 3519SOL    HW222191   2.532   2.597   6.785 -0.9851  0.6475  0.0142
 3520SOL     OW22192   4.436   3.936   2.927  0.2827  0.4132  0.2851
 3520SOL    HW122193   4.372   3.966   2.991 -0.5109  0.3131 -0.4667
 3520SOL    HW222194   4.419   3.988   2.848  0.7802 -2.0536 -1.4753
 3521SOL     OW22195   4.465   1.298  14.141 -0.4609  0.4319 -0.4748
 3521SOL    HW122196   4.408   1.228  14.110 -1.2349  0.2890  1.2901
 3521SOL    HW222197   4.406   1.366  14.172 -2.2110 -0.9554 -0.7478
 3522SOL     OW22198   0.772   0.904   5.091 -0.6261  0.3319 -0.0124
 3522SOL    HW122199   0.824   0.877   5.015 -0.3977  0.2470  0.1750
 3522SOL    HW222200   0.717   0.827   5.105  0.4192 -1.1129 -3.7387
 3523SOL     OW22201   2.077   0.605   4.658  0.7326  0.5603  0.1313
 3523SOL    HW122202   2.046   0.519   4.628  0.9864  0.3596  0.4403
 3523SOL    HW222203   2.137   0.588   4.730  2.2364  0.8019 -1.0753
 3524SOL     OW22204   1.241   1.478   4.841  0.5065 -0.4231  0.0952
 3524SOL    HW122205   1.261   1.517   4.756  0.2610 -1.4713 -0.4469
 3524SOL    HW222206   1.199   1.552   4.884 -1.9785 -1.8270  0.1372
 3525SOL     OW22207   2.893   0.801  17.303  0.4155  0.6459  0.3463
 3525SOL    HW122208   2.938   0.841  17.378  2.0144  1.1335 -0.8719
 3525SOL    HW222209   2.963   0.740  17.280  0.1602  0.7923 -0.8082
 3526SOL     OW22210   3.835   1.343   8.910 -0.0744 -0.0769 -0.1685
 3526SOL    HW122211   3.781   1.265   8.924  1.1345 -1.1177 -1.3174
 3526SOL    HW222212   3.853   1.342   8.816  1.3142  2.8191  0.0541
 3527SOL     OW22213   0.375   3.642   4.220  0.0155  0.3193 -0.0603
 3527SOL    HW122214   0.432   3.580   4.174  1.3043  2.5358 -1.4512
 3527SOL    HW222215   0.356   3.702   4.148 -0.3828 -0.0965 -0.3036
 3528SOL     OW22216   0.133   0.107   9.001 -0.2655  0.0236 -0.0364
 3528SOL    HW122217   0.182   0.025   8.998  0.9819  0.8127 -1.4606
 3528SOL    HW222218   0.057   0.073   8.953  0.2025 -0.0864 -0.6966
 3529SOL     OW22219   3.838   0.080   2.541  0.1398  0.2358 -1.0150
 3529SOL    HW122220   3.816   0.117   2.456 -2.4863  0.2018 -0.3646
 3529SOL    HW222221   3.930   0.055   2.533  0.0303 -0.2567 -0.7325
 3530SOL     OW22222   2.178   2.463   8.624 -0.2599 -0.2850 -0.3248
 3530SOL    HW122223   2.243   2.474   8.694 -0.6652  1.1588 -0.1754
 3530SOL    HW222224   2.099   2.510   8.651 -1.3744 -1.6082 -1.2709
 3531SOL     OW22225   3.646   2.469   3.773 -0.0518 -0.0316 -0.4916
 3531SOL    HW122226   3.725   2.415   3.778 -0.2807 -0.0321  3.5589
 3531SOL    HW222227   3.586   2.404   3.736  0.4375 -1.6002  1.4471
 3532SOL     OW22228   1.734   3.281   2.764  0.2414  0.2002 -0.4859
 3532SOL    HW122229   1.672   3.231   2.710  0.4646  0.1051 -0.6498
 3532SOL    HW222230   1.678   3.355   2.788  1.2618  1.5007 -2.1625
 3533SOL     OW22231   2.723   1.858   8.841  0.4995  0.0755 -0.1767
 3533SOL    HW122232   2.780   1.782   8.855 -2.0080 -2.0748 -1.6389
 3533SOL    HW222233   2.662   1.843   8.913 -0.3249 -0.3511 -0.9632
 3534SOL     OW22234   4.618   1.996   2.248 -0.1862 -0.1906  0.0315
 3534SOL    HW122235   4.644   2.083   2.216 -3.0117  1.0686  1.1122
 3534SOL    HW222236   4.545   1.971   2.191  1.3883  1.8303 -2.8928
 3535SOL     OW22237   2.038   4.407   2.649 -0.3373 -0.1821  0.0909
 3535SOL    HW122238   2.020   4.317   2.621 -0.5789 -0.5279  1.3531
 3535SOL    HW222239   1.951   4.440   2.671  0.2077  0.8830  0.6506
 3536SOL     OW22240   1.857   2.511   6.913 -0.2893 -0.7815  0.3854
 3536SOL    HW122241   1.946   2.544   6.913  0.2823 -2.3256 -1.4762
 3536SOL    HW222242   1.823   2.582   6.967 -0.1801 -0.9616  0.6889
 3537SOL     OW22243   0.903   4.184   6.889 -0.2210  0.6752 -0.0050
 3537SOL    HW122244   0.967   4.128   6.846 -0.1564  0.3913  0.4576
 3537SOL    HW222245   0.823   4.134   6.869 -0.0355  0.2177  0.3979
 3538SOL     OW22246   3.244   2.090  14.313  0.3841  0.5988  0.2314
 3538SOL    HW122247   3.171   2.114  14.257 -0.2427  0.1414  0.8438
 3538SOL    HW222248   3.278   2.178  14.326 -0.0988  0.9419 -0.8859
 3539SOL     OW22249   2.147   3.154   5.906 -0.1365 -0.3126  0.3754
 3539SOL    HW122250   2.222   3.154   5.847  0.6009  1.5136  1.3345
 3539SOL    HW222251   2.167   3.224   5.967  0.0051  0.3846 -0.4674
 3540SOL     OW22252   1.343   2.639   9.267  0.0052 -0.4298  0.2305
 3540SOL    HW122253   1.270   2.639   9.329 -0.0020 -2.2565  0.2098
 3540SOL    HW222254   1.419   2.655   9.323 -0.1153  2.1080 -0.3446
 3541SOL     OW22255   2.912   4.373   6.823  0.0650  0.2609 -0.5255
 3541SOL    HW122256   2.859   4.436   6.775 -1.2289 -1.3259 -1.1838
 3541SOL    HW222257   2.877   4.291   6.787  0.7133 -0.5077  0.5737
 3542SOL     OW22258   2.053   4.404   1.541  0.8519  0.3579 -0.5038
 3542SOL    HW122259   2.077   4.312   1.551  0.0459  0.0061 -1.7873
 3542SOL    HW222260   2.067   4.446   1.627 -2.3850  0.2926  0.0580
 3543SOL     OW22261   2.631   4.066   3.978  0.5320 -0.2897  0.1632
 3543SOL    HW122262   2.681   3.985   3.965  1.6967  0.1657  1.8120
 3543SOL    HW222263   2.661   4.123   3.906  2.2843 -2.2263 -0.6508
 3544SOL     OW22264   2.293   3.321  10.952  0.4611  0.1793  0.1926
 3544SOL    HW122265   2.332   3.235  10.969 -1.0010 -0.6124 -0.5193
 3544SOL    HW222266   2.206   3.282  10.961  0.0899  0.8802 -0.4124
 3545SOL     OW22267   1.505   2.990   6.698 -0.3458 -0.4516  0.5863
 3545SOL    HW122268   1.564   3.053   6.739  0.9683 -3.0831  2.7769
 3545SOL    HW222269   1.431   3.046   6.674  0.3931  0.3649  0.2218
 3546SOL     OW22270   2.297   2.097   6.629 -0.0393  0.0705 -0.0667
 3546SOL    HW122271   2.226   2.040   6.599 -0.3926  0.2302  0.4738
 3546SOL    HW222272   2.264   2.127   6.714  0.8756 -0.7649  0.5906
 3547SOL     OW22273   2.604   4.695   4.160 -0.3320 -0.3017 -0.0067
 3547SOL    HW122274   2.606   4.623   4.223 -1.5499 -0.9675 -0.7406
 3547SOL    HW222275   2.653   0.024   4.210  0.5478 -0.3737 -0.7833
 3548SOL     OW22276   2.267   3.973  14.813 -0.3641  0.0205  0.5131
 3548SOL    HW122277   2.323   3.911  14.767  0.0488  0.2204  0.7416
 3548SOL    HW222278   2.324   4.017  14.877 -0.1245  0.3129  0.0977
 3549SOL     OW22279   2.581   2.981  16.293 -0.3011 -0.2109  0.0674
 3549SOL    HW122280   2.541   3.067  16.306 -1.0803 -0.6704  0.7909
 3549SOL    HW222281   2.597   2.955  16.384  3.9191  1.0893 -0.3011
 3550SOL     OW22282   2.681   1.275   6.793 -0.1695  0.0523  0.1159
 3550SOL    HW122283   2.678   1.180   6.784  0.0079  0.0508  0.0876
 3550SOL    HW222284   2.632   1.297   6.873  1.0883 -0.8256  1.1218
 3551SOL     OW22285   3.392   1.918  10.684 -0.5102  0.2063 -0.0955
 3551SOL    HW122286   3.301   1.917  10.655 -0.4126  0.1158 -0.3970
 3551SOL    HW222287   3.434   1.957  10.607  0.4913 -1.7494 -0.5415
 3552SOL     OW22288   3.864   1.061   5.080  0.1466  0.1980  0.5966
 3552SOL    HW122289   3.800   1.071   5.010  0.7139  1.1987  0.2266
 3552SOL    HW222290   3.918   1.139   5.069 -0.3485  0.3576 -0.6564
 3553SOL     OW22291   0.394   3.942  10.487  0.1566 -0.0262  0.6954
 3553SOL    HW122292   0.487   3.948  10.508  0.1171  0.4204  0.7493
 3553SOL    HW222293   0.370   4.035  10.487 -1.5631 -0.4724  0.5816
 3554SOL     OW22294   4.476   3.584   2.181  0.1371  0.3550 -0.0814
 3554SOL    HW122295   4.434   3.614   2.101 -0.1992 -1.0138 -0.4226
 3554SOL    HW222296   4.480   3.669   2.225 -0.9155 -0.2909  1.2564
 3555SOL     OW22297   2.400   2.496   1.894 -0.3382  0.0223  0.3400
 3555SOL    HW122298   2.462   2.509   1.966  0.9646 -0.3365 -0.7068
 3555SOL    HW222299   2.431   2.414   1.855 -0.0236 -1.6673  4.1647
 3556SOL     OW22300   3.452   1.054   7.548  0.2028  0.5181 -0.0686
 3556SOL    HW122301   3.498   1.111   7.608  0.6184 -0.4379  0.5214
 3556SOL    HW222302   3.516   0.984   7.538  0.9654  1.2263 -0.0954
 3557SOL     OW22303   2.521   4.076  15.408  0.3171 -0.7150  0.0367
 3557SOL    HW122304   2.568   4.143  15.458 -0.1825 -0.4220  0.1235
 3557SOL    HW222305   2.506   4.137  15.336 -1.7239 -0.6775  0.4867
 3558SOL     OW22306   0.958   1.850   7.583  0.5866 -0.3331  0.4969
 3558SOL    HW122307   1.025   1.911   7.614  1.2219 -1.5060  1.3890
 3558SOL    HW222308   0.965   1.854   7.487  1.3649  1.8765  0.6373
 3559SOL     OW22309   2.536   2.043   0.876  0.2911 -0.0325  0.0358
 3559SOL    HW122310   2.584   2.083   0.949 -1.8160  0.0923  1.3680
 3559SOL    HW222311   2.567   2.099   0.805 -0.4017 -1.2037 -1.1818
 3560SOL     OW22312   1.433   1.907   8.124  0.7108  0.2545 -0.1662
 3560SOL    HW122313   1.397   1.977   8.179  0.1797  0.9945 -1.4767
 3560SOL    HW222314   1.526   1.930   8.115  0.7818 -0.6781 -1.7684
 3561SOL     OW22315   4.711   2.225   1.531  0.4801  0.1800  0.0726
 3561SOL    HW122316   4.638   2.276   1.568  1.3245  0.8580  0.7947
 3561SOL    HW222317   0.008   2.179   1.607 -0.8435 -0.2548  0.3964
 3562SOL     OW22318   3.126   2.571   7.132 -0.2011 -0.2392  0.0397
 3562SOL    HW122319   3.086   2.632   7.194  1.5940 -0.9750  1.9310
 3562SOL    HW222320   3.166   2.517   7.200 -0.3478  2.1039  1.9973
 3563SOL     OW22321   0.082   4.047   2.288  0.4717  0.6806  0.5036
 3563SOL    HW122322   0.083   4.005   2.374  0.4791  2.4144  1.3412
 3563SOL    HW222323   0.060   4.135   2.317  1.4185  1.2249 -0.4171
 3564SOL     OW22324   4.580   0.851  10.019  0.1267 -0.1935 -0.3061
 3564SOL    HW122325   4.649   0.841   9.954 -0.1918  1.1324 -0.8471
 3564SOL    HW222326   4.544   0.925   9.970  1.7380  0.0263 -1.1642
 3565SOL     OW22327   3.500   1.317   6.607  0.6920 -0.1570  0.0840
 3565SOL    HW122328   3.593   1.306   6.628  0.0073 -1.5343  2.4431
 3565SOL    HW222329   3.459   1.261   6.673 -0.5057 -0.3000 -0.8020
 3566SOL     OW22330   4.201   1.148   5.889 -0.1528 -0.6424 -0.5578
 3566SOL    HW122331   4.170   1.062   5.916 -1.2261  0.6478  2.3624
 3566SOL    HW222332   4.295   1.142   5.907  0.6586  2.8305 -3.7011
 3567SOL     OW22333   2.261   2.867   4.458  0.1204 -0.0340 -0.1992
 3567SOL    HW122334   2.259   2.934   4.389  0.1689 -0.1763 -0.3388
 3567SOL    HW222335   2.316   2.911   4.523 -1.8441  0.2917  1.2462
 3568SOL     OW22336   4.420   0.911  15.118  0.4175  0.2102 -0.2132
 3568SOL    HW122337   4.403   0.999  15.085 -1.0647 -0.7282 -1.9599
 3568SOL    HW222338   4.361   0.905  15.193  1.4973 -3.8144  0.3145
 3569SOL     OW22339   2.912   1.982   9.963 -0.0527  0.4026  0.1484
 3569SOL    HW122340   2.994   1.938   9.942 -0.2249 -0.5307  1.4413
 3569SOL    HW222341   2.865   1.954   9.885 -0.9401  2.0927  0.0649
 3570SOL     OW22342   3.763   0.644   3.799 -0.1343 -0.0427  0.1487
 3570SOL    HW122343   3.750   0.671   3.708 -1.0706  1.3634  0.7039
 3570SOL    HW222344   3.772   0.729   3.841 -0.0961 -1.5199  3.1676
 3571SOL     OW22345   0.249   2.327   2.890 -0.2954  0.3582  0.3106
 3571SOL    HW122346   0.251   2.286   2.803 -1.5698 -1.7138  1.2620
 3571SOL    HW222347   0.328   2.305   2.939  1.1542  3.0876 -0.7835
 3572SOL     OW22348   4.273   3.412   6.168 -0.0438 -0.3494 -0.0233
 3572SOL    HW122349   4.210   3.483   6.150 -0.1209 -0.5681 -0.6225
 3572SOL    HW222350   4.318   3.451   6.243 -2.6337 -0.5705  1.6645
 3573SOL     OW22351   2.630   3.290   6.152  0.2517 -0.0750  0.4637
 3573SOL    HW122352   2.695   3.344   6.108  2.4969 -2.2708  1.0699
 3573SOL    HW222353   2.554   3.347   6.152  0.9571  0.8703  0.0021
 3574SOL     OW22354   2.002   2.347   1.266  0.5684 -0.0789  0.5183
 3574SOL    HW122355   2.043   2.381   1.345 -0.5730  1.8023  0.3041
 3574SOL    HW222356   2.070   2.355   1.199  0.2630  0.7436  0.3041
 3575SOL     OW22357   2.554   1.810   9.047  0.5442 -0.6588 -0.6020
 3575SOL    HW122358   2.476   1.788   8.997 -0.7965 -0.0202  1.2104
 3575SOL    HW222359   2.554   1.731   9.101  0.4514  0.3681  0.9228
 3576SOL     OW22360   3.901   3.030   6.589 -0.0120 -0.3193 -0.5243
 3576SOL    HW122361   3.942   2.945   6.576  0.4548  0.2284 -2.7180
 3576SOL    HW222362   3.976   3.089   6.597 -2.0485  2.2579 -0.3365
 3577SOL     OW22363   4.081   0.240   6.503  0.1637 -0.3462  0.0706
 3577SOL    HW122364   4.046   0.158   6.536 -2.6240  0.3813 -1.0863
 3577SOL    HW222365   4.154   0.201   6.454 -0.4298 -1.5383  0.1386
 3578SOL     OW22366   1.296   3.625   8.630  0.4942  0.1014 -0.3359
 3578SOL    HW122367   1.342   3.540   8.628 -0.6655 -0.5186 -0.4205
 3578SOL    HW222368   1.310   3.651   8.539  0.4599 -0.2557 -0.4437
 3579SOL     OW22369   1.753   3.266   4.335  0.1484 -0.2441  0.0639
 3579SOL    HW122370   1.698   3.340   4.309 -0.6809 -0.3331  1.5485
 3579SOL    HW222371   1.790   3.220   4.260  0.1682 -1.9824  1.1495
 3580SOL     OW22372   1.867   1.540   2.462 -0.5024  0.0489  0.2797
 3580SOL    HW122373   1.860   1.478   2.390 -0.8366 -0.6226  0.8927
 3580SOL    HW222374   1.933   1.497   2.516 -0.9067  0.1745  0.8742
 3581SOL     OW22375   0.195   2.123   8.567 -0.1810 -0.3256 -0.1361
 3581SOL    HW122376   0.110   2.093   8.600 -0.8200 -0.2983 -1.7693
 3581SOL    HW222377   0.234   2.157   8.648  1.5712 -1.3348 -0.5582
 3582SOL     OW22378   4.371   2.497   5.832  0.3835  0.3845  0.1279
 3582SOL    HW122379   4.342   2.423   5.886  1.3569  1.0601  1.5776
 3582SOL    HW222380   4.463   2.497   5.855  0.7765  0.6267 -1.4294
 3583SOL     OW22381   3.735   3.463   7.297  0.3929  0.8693  0.4775
 3583SOL    HW122382   3.753   3.380   7.253  0.5621  0.8911  0.5047
 3583SOL    HW222383   3.644   3.471   7.269  0.9265  0.0897 -1.5327
 3584SOL     OW22384   4.543   3.988   6.928  0.3489  0.2052 -0.2781
 3584SOL    HW122385   4.555   3.896   6.951 -3.5176 -0.7451 -2.0346
 3584SOL    HW222386   4.518   3.973   6.837  0.2130 -0.3206 -0.1539
 3585SOL     OW22387   4.108   2.946   7.133 -0.3185 -0.2313  0.2216
 3585SOL    HW122388   4.192   2.991   7.126  0.5130 -1.8732 -0.3460
 3585SOL    HW222389   4.116   2.861   7.090  0.2529  0.3856 -0.8826
 3586SOL     OW22390   4.156   0.794   9.403 -0.2934  0.1517 -0.0538
 3586SOL    HW122391   4.244   0.755   9.398 -1.0710 -1.4527 -1.4431
 3586SOL    HW222392   4.170   0.852   9.477 -0.5116  2.0631 -1.5148
 3587SOL     OW22393   1.806   3.431  15.993 -0.0658  0.4317  0.4477
 3587SOL    HW122394   1.847   3.350  16.021 -1.4581 -0.8640 -1.2577
 3587SOL    HW222395   1.842   3.446  15.906 -1.1277 -1.4269 -0.3103
 3588SOL     OW22396   0.087   4.480   0.842 -0.0626 -0.0878  0.2000
 3588SOL    HW122397   0.176   4.446   0.833  0.9865  2.8846 -0.9018
 3588SOL    HW222398   0.113   4.569   0.866 -0.2186 -0.2673  1.0329
 3589SOL     OW22399   3.115   1.143  11.854  0.1572 -0.1210 -0.0329
 3589SOL    HW122400   3.106   1.136  11.949 -2.6409  4.9848  0.0709
 3589SOL    HW222401   3.029   1.170  11.823  0.6012  0.7813 -0.4620
 3590SOL     OW22402   1.336   3.958   3.451 -0.2876 -0.5649 -0.0373
 3590SOL    HW122403   1.418   3.920   3.419 -0.7427 -0.5719 -1.1939
 3590SOL    HW222404   1.281   3.952   3.374  0.0483  1.1551 -0.4077
 3591SOL     OW22405   3.191   1.732   7.157  0.0360 -0.7124 -0.3111
 3591SOL    HW122406   3.132   1.714   7.084  0.9982 -5.8488  0.1657
 3591SOL    HW222407   3.152   1.674   7.222 -0.2384 -0.3788 -0.1792
 3592SOL     OW22408   4.346   1.995   5.903  0.1239 -0.0082 -0.2685
 3592SOL    HW122409   4.253   1.976   5.910 -0.1933  1.8086  0.3530
 3592SOL    HW222410   4.360   1.984   5.809  1.5203  2.8304 -0.4018
 3593SOL     OW22411   4.530   3.337  10.913  0.1504 -0.6125 -0.3224
 3593SOL    HW122412   4.577   3.260  10.884  0.3142 -0.0100 -1.6484
 3593SOL    HW222413   4.570   3.403  10.856  1.8277  0.5610  2.2346
 3594SOL     OW22414   2.861   0.282  11.388  0.3131 -1.3056  0.4729
 3594SOL    HW122415   2.831   0.370  11.411  1.6933 -0.1675 -2.1132
 3594SOL    HW222416   2.945   0.294  11.343  0.6339 -2.4217  0.7785
 3595SOL     OW22417   3.987   1.850   2.070  0.2287 -0.8212 -0.0574
 3595SOL    HW122418   3.932   1.780   2.034  1.0622 -1.7737  0.5293
 3595SOL    HW222419   4.071   1.809   2.087  0.9807  0.1786 -1.4337
 3596SOL     OW22420   0.548   3.197   2.612 -0.3259  0.7608 -0.0477
 3596SOL    HW122421   0.502   3.272   2.651 -0.3683  0.0579  1.2251
 3596SOL    HW222422   0.542   3.139   2.687 -1.2062  0.6629 -0.1967
 3597SOL     OW22423   0.042   2.429   2.751 -0.5851 -0.1858  0.2542
 3597SOL    HW122424   0.081   2.367   2.689  0.0583  0.2998  0.1779
 3597SOL    HW222425   0.103   2.414   2.823  0.6609  0.5695 -0.6563
 3598SOL     OW22426   4.094   2.921   6.250 -0.2815 -0.0221 -0.9179
 3598SOL    HW122427   4.084   3.000   6.303  0.6852  1.6648 -3.2185
 3598SOL    HW222428   4.113   2.964   6.166  0.4948  1.9865  0.2695
 3599SOL     OW22429   4.686   0.488  11.480  0.1084 -0.5802  0.3108
 3599SOL    HW122430   4.711   0.580  11.493 -1.7754  0.0246 -0.2617
 3599SOL    HW222431   4.704   0.444  11.563 -2.7939 -1.1151  0.6898
 3600SOL     OW22432   3.196   4.112   6.487  0.1346  0.4130  0.3718
 3600SOL    HW122433   3.241   4.196   6.477  0.9718  0.2519  2.9951
 3600SOL    HW222434   3.110   4.153   6.477 -0.4437 -0.9473 -0.2838
 3601SOL     OW22435   1.724   2.802   4.230 -0.1933 -0.5564  0.1471
 3601SOL    HW122436   1.751   2.728   4.176 -1.9080 -0.4706 -0.8502
 3601SOL    HW222437   1.658   2.755   4.281 -1.5062 -0.6343 -1.6168
 3602SOL     OW22438   2.182   2.069   5.428 -0.6693  0.3547 -0.0195
 3602SOL    HW122439   2.096   2.095   5.462 -0.3143 -0.2121  1.3110
 3602SOL    HW222440   2.173   1.974   5.417 -1.1106  0.3777  0.1292
 3603SOL     OW22441   2.629   0.197   8.616  0.0215  0.1674 -0.3259
 3603SOL    HW122442   2.614   0.154   8.700  0.9436  0.9704  0.2394
 3603SOL    HW222443   2.695   0.135   8.583  1.2309  0.8813  0.7817
 3604SOL     OW22444   2.456   0.217  16.792  0.8076 -0.6828 -0.3913
 3604SOL    HW122445   2.465   0.197  16.886  2.2239  0.0248 -0.3727
 3604SOL    HW222446   2.498   0.143  16.749  2.8432  0.5000 -0.4793
 3605SOL     OW22447   4.367   0.010   5.204 -0.3726 -0.1363  0.4761
 3605SOL    HW122448   4.293   0.044   5.154  0.5209  1.6451  0.3476
 3605SOL    HW222449   4.390   0.084   5.260 -0.7916 -1.2814  2.1715
 3606SOL     OW22450   1.943   3.441   0.626  0.1199  0.6535  0.1616
 3606SOL    HW122451   1.860   3.459   0.669 -1.7469 -2.8527 -1.9952
 3606SOL    HW222452   1.909   3.385   0.557  0.6844  0.3859  0.0983
 3607SOL     OW22453   0.557   2.345   7.119 -0.4657 -0.3148 -0.4354
 3607SOL    HW122454   0.611   2.407   7.069  0.1443 -0.4118  0.1020
 3607SOL    HW222455   0.565   2.264   7.069  0.9743  0.3334 -1.2555
 3608SOL     OW22456   3.315   0.397   7.953  0.3479 -0.1090  0.3102
 3608SOL    HW122457   3.342   0.484   7.982 -2.6399  1.1309 -0.4994
 3608SOL    HW222458   3.381   0.385   7.884  0.1073  0.2348  0.0163
 3609SOL     OW22459   3.112   3.188   8.952  0.1933 -0.0325  0.2024
 3609SOL    HW122460   3.105   3.247   8.877  2.5508  1.5392  1.2159
 3609SOL    HW222461   3.027   3.144   8.963 -0.5991  1.6864  1.1370
 3610SOL     OW22462   1.257   0.036   3.712 -0.0537  0.0310  0.0229
 3610SOL    HW122463   1.238   4.681   3.734  0.8826 -0.0525  0.4784
 3610SOL    HW222464   1.226   0.080   3.792  0.7902 -0.1670  0.4598
 3611SOL     OW22465   2.679   0.064   2.428 -0.7088  0.4044 -0.0626
 3611SOL    HW122466   2.599   0.071   2.479 -0.4182 -0.4949  0.5086
 3611SOL    HW222467   2.733   0.140   2.452  1.5466 -1.1069 -0.3176
 3612SOL     OW22468   3.835   0.144   7.101  0.5124  0.4495  1.1508
 3612SOL    HW122469   3.921   0.101   7.101  0.3225  0.0486 -0.1269
 3612SOL    HW222470   3.847   0.239   7.106  0.0777  0.5858 -0.2014
 3613SOL     OW22471   2.126   4.130   0.408 -0.1358  0.2392 -0.2033
 3613SOL    HW122472   2.131   4.186   0.485  2.5752 -0.3132  0.0230
 3613SOL    HW222473   2.122   4.196   0.338 -1.4638 -1.7047 -1.9791
 3614SOL     OW22474   0.014   2.980   5.260  0.2205 -0.4261  0.1574
 3614SOL    HW122475   4.703   2.918   5.204  0.5663 -1.2553  0.7845
 3614SOL    HW222476   4.702   2.980   5.343  0.2174 -0.6345  0.1547
 3615SOL     OW22477   1.797   0.793   9.979 -0.2412  0.4822 -0.0379
 3615SOL    HW122478   1.861   0.802   9.908  2.6929 -0.2747  2.4995
 3615SOL    HW222479   1.811   0.702  10.003  5.4270  1.6494  1.0972
 3616SOL     OW22480   3.186   0.675  16.557  0.6000  0.1631 -0.3311
 3616SOL    HW122481   3.242   0.663  16.480 -0.9175  0.4913 -1.4939
 3616SOL    HW222482   3.242   0.634  16.622  0.0663  1.3110  0.8487
 3617SOL     OW22483   0.561   2.500  14.634 -0.0258  0.7928 -0.2031
 3617SOL    HW122484   0.476   2.474  14.600  0.2826 -0.3973 -0.0755
 3617SOL    HW222485   0.600   2.414  14.653 -0.8699  0.7870  1.5350
 3618SOL     OW22486   0.315   1.247   1.466  0.3547  0.5156  0.0833
 3618SOL    HW122487   0.264   1.264   1.387 -0.2323 -1.3452  0.0610
 3618SOL    HW222488   0.272   1.185   1.524  0.7251  0.4896  0.3274
 3619SOL     OW22489   0.699   2.218  13.242  0.6136 -0.2965  0.1760
 3619SOL    HW122490   0.794   2.216  13.239  0.5299 -1.0059 -2.0738
 3619SOL    HW222491   0.674   2.178  13.325 -0.5040  0.7830  0.3707
 3620SOL     OW22492   4.252   0.999   9.596  0.2399  0.2775  0.3363
 3620SOL    HW122493   4.322   0.980   9.659 -1.1354 -0.1614  1.7343
 3620SOL    HW222494   4.220   1.080   9.636  0.1528  0.4901 -0.1654
 3621SOL     OW22495   2.390   2.148  10.881  0.5567  0.7242  0.3344
 3621SOL    HW122496   2.375   2.236  10.915  0.6377  0.3136  1.4318
 3621SOL    HW222497   2.486   2.152  10.892  0.4816 -1.1113  1.6735
 3622SOL     OW22498   0.243   0.339  13.225 -0.6397  0.4651 -0.4340
 3622SOL    HW122499   0.184   0.271  13.192 -1.7996  1.5245 -0.5869
 3622SOL    HW222500   0.216   0.418  13.177 -1.7295  1.5131  1.8753
 3623SOL     OW22501   0.869   4.617   5.188 -0.5022 -0.5943  0.2111
 3623SOL    HW122502   0.851   4.624   5.094 -0.1133  0.9227  0.2656
 3623SOL    HW222503   0.784   4.589   5.223 -0.6689  0.0366  0.2985
 3624SOL     OW22504   1.241   2.825   7.669  0.1042  0.0115  0.7446
 3624SOL    HW122505   1.177   2.886   7.705 -1.2763 -2.0591  1.8261
 3624SOL    HW222506   1.313   2.823   7.732  1.4452  1.4205 -0.7470
 3625SOL     OW22507   4.648   0.610   7.406 -0.1535  0.5978 -0.6861
 3625SOL    HW122508   4.647   0.674   7.478 -0.8060 -0.1369 -0.0331
 3625SOL    HW222509   4.608   0.532   7.444  1.2256  0.4795  0.5171
 3626SOL     OW22510   2.812   3.302   2.491 -0.2190 -0.1100  0.0346
 3626SOL    HW122511   2.801   3.391   2.457  1.0359 -0.6632 -1.7881
 3626SOL    HW222512   2.904   3.304   2.516  0.3387  0.5621 -2.1125
 3627SOL     OW22513   0.869   1.401   3.863 -0.5211  0.1221  0.2567
 3627SOL    HW122514   0.794   1.448   3.899  1.7102  4.2961 -0.4720
 3627SOL    HW222515   0.940   1.426   3.922  0.3122 -1.2210 -0.1792
 3628SOL     OW22516   3.996   1.963   2.413 -0.8944  0.1106 -0.4143
 3628SOL    HW122517   4.009   1.950   2.507 -1.6291 -1.4221 -0.5280
 3628SOL    HW222518   4.082   1.998   2.390 -0.7807  0.2841  0.2781
 3629SOL     OW22519   3.792   3.268  16.680  0.6841 -0.4930  0.5886
 3629SOL    HW122520   3.853   3.233  16.614 -1.1737  1.5048 -2.2225
 3629SOL    HW222521   3.859   3.303  16.738  2.0685 -2.3221  0.0896
 3630SOL     OW22522   1.103   1.822   3.675 -0.4833  0.2514  0.2877
 3630SOL    HW122523   1.174   1.873   3.635 -0.1005  0.1077  0.7870
 3630SOL    HW222524   1.162   1.749   3.695 -0.8920 -0.2274 -0.2543
 3631SOL     OW22525   1.040   2.148   6.049  0.0828 -0.0798  0.1004
 3631SOL    HW122526   0.993   2.139   6.132  1.3802  1.4190  1.0174
 3631SOL    HW222527   1.061   2.060   6.019  1.6091  1.2006 -2.5432
 3632SOL     OW22528   4.237   1.151   1.270  0.0015 -0.0609 -0.0166
 3632SOL    HW122529   4.187   1.231   1.253  0.9870  1.1702  2.9587
 3632SOL    HW222530   4.313   1.184   1.317  0.5217 -0.4154 -0.6089
 3633SOL     OW22531   1.711   2.355   1.893 -0.4015 -0.2073  0.0085
 3633SOL    HW122532   1.771   2.281   1.885  1.4369  1.1639  1.0856
 3633SOL    HW222533   1.682   2.363   1.802  0.2387  2.1207  0.0287
 3634SOL     OW22534   0.611   4.147   9.276 -0.1250 -0.1148 -0.6328
 3634SOL    HW122535   0.602   4.065   9.325  0.4053 -0.5908 -1.3266
 3634SOL    HW222536   0.705   4.142   9.255 -0.2845 -3.5730 -0.5764
 3635SOL     OW22537   0.821   0.478   7.391  0.4619  0.3884  0.8188
 3635SOL    HW122538   0.904   0.527   7.391 -0.1140  1.4160 -2.6473
 3635SOL    HW222539   0.803   0.481   7.484  0.1192 -1.9590  0.8365
 3636SOL     OW22540   0.706   0.195   0.424  0.7823  0.0229  0.7970
 3636SOL    HW122541   0.724   0.113   0.470 -1.1787 -1.5410 -1.2153
 3636SOL    HW222542   0.787   0.200   0.374  1.5683  1.0922  2.1752
 3637SOL     OW22543   0.581   1.504   5.043 -0.5551  0.3333  0.0594
 3637SOL    HW122544   0.490   1.492   5.071  0.4377 -2.2238  2.1602
 3637SOL    HW222545   0.587   1.417   5.004  1.2119 -0.1878  1.5125
 3638SOL     OW22546   4.277   1.285   2.566  0.2495 -0.8491 -0.1698
 3638SOL    HW122547   4.272   1.279   2.662  1.3892  2.4103  0.1241
 3638SOL    HW222548   4.187   1.285   2.534  0.1451  0.1913  0.1184
 3639SOL     OW22549   3.258   3.418   6.395  0.1221 -0.3288  0.2016
 3639SOL    HW122550   3.181   3.425   6.452  0.4621  0.9314  0.5029
 3639SOL    HW222551   3.326   3.451   6.453 -0.8614 -1.3173  1.9325
 3640SOL     OW22552   0.395   1.795   6.221  0.0230  0.7456  0.2615
 3640SOL    HW122553   0.484   1.819   6.246 -0.1113  0.8000  0.6765
 3640SOL    HW222554   0.386   1.858   6.149 -2.1782 -0.1953 -0.2760
 3641SOL     OW22555   3.636   1.841  14.020 -0.5199 -0.0025  0.2088
 3641SOL    HW122556   3.547   1.810  14.006 -0.2860  0.7567 -3.1394
 3641SOL    HW222557   3.636   1.934  14.042 -2.2615 -0.4813  2.1691
 3642SOL     OW22558   0.765   1.808  11.846  0.2391 -0.1142  0.2393
 3642SOL    HW122559   0.780   1.828  11.753  0.7097 -0.3229  0.2725
 3642SOL    HW222560   0.678   1.846  11.861 -0.3686 -0.5629 -2.0083
 3643SOL     OW22561   2.582   3.217   9.209 -0.0710  0.0145  0.2191
 3643SOL    HW122562   2.506   3.161   9.224  0.0053  0.2197  1.3129
 3643SOL    HW222563   2.536   3.269   9.142  3.3285  2.1764 -0.4254
 3644SOL     OW22564   4.331   0.884   1.239 -0.1480  0.1936 -0.3652
 3644SOL    HW122565   4.317   0.976   1.263  2.4436  0.3593  0.4971
 3644SOL    HW222566   4.249   0.867   1.193 -2.2361  0.6574  3.1285
 3645SOL     OW22567   0.029   2.391   0.904 -0.5022 -0.1080 -0.1168
 3645SOL    HW122568   4.691   2.338   0.875  0.4467 -0.9514 -1.0221
 3645SOL    HW222569   0.100   2.348   0.856 -0.1048 -1.7454  1.9424
 3646SOL     OW22570   3.195   3.057  10.684  0.2499  0.3096 -0.0849
 3646SOL    HW122571   3.126   2.993  10.703 -0.1685  1.2962  1.7457
 3646SOL    HW222572   3.265   2.997  10.709 -1.6401 -1.9178 -0.1280
 3647SOL     OW22573   1.476   2.421  14.295 -0.3590 -0.3272  0.1830
 3647SOL    HW122574   1.545   2.381  14.349  0.7090 -0.4943 -1.3072
 3647SOL    HW222575   1.449   2.341  14.249  0.9439  0.4171 -1.8400
 3648SOL     OW22576   0.722   3.134   2.937 -0.3925  0.5157 -0.7408
 3648SOL    HW122577   0.627   3.146   2.937 -0.3456  0.8530  0.5481
 3648SOL    HW222578   0.741   3.064   2.875  1.7284  0.6995 -0.3312
 3649SOL     OW22579   2.585   3.306  14.999 -0.0630  0.0597 -0.0371
 3649SOL    HW122580   2.493   3.332  15.002  0.4997  1.9977 -0.1536
 3649SOL    HW222581   2.606   3.273  15.087  1.8794  1.3506 -0.0192
 3650SOL     OW22582   3.618   3.496   8.835  0.1665  0.6025  0.2955
 3650SOL    HW122583   3.610   3.591   8.839 -0.5798  0.7257 -4.5391
 3650SOL    HW222584   3.708   3.489   8.803 -0.1032 -0.4450 -0.2391
 3651SOL     OW22585   4.477   1.866  12.628 -0.1354 -0.1321 -0.1901
 3651SOL    HW122586   4.570   1.848  12.641 -0.3807 -1.1345  0.1706
 3651SOL    HW222587   4.472   1.903  12.540 -2.9421 -0.3335 -0.1129
 3652SOL     OW22588   1.634   2.653  13.611 -0.0800  0.0670 -0.5988
 3652SOL    HW122589   1.619   2.607  13.693 -1.6552  1.2028 -0.2390
 3652SOL    HW222590   1.541   2.663  13.588  0.2508  1.2359 -1.4350
 3653SOL     OW22591   4.279   4.486  17.100  0.0547  0.1919  1.0204
 3653SOL    HW122592   4.279   4.471  17.005  2.6432 -1.0741  1.2065
 3653SOL    HW222593   4.209   4.549  17.113  0.3867  0.6094  0.7770
 3654SOL     OW22594   2.421   3.482   6.206 -1.0559  0.2057 -0.4437
 3654SOL    HW122595   2.434   3.429   6.284  1.8435  0.5125 -0.7310
 3654SOL    HW222596   2.462   3.565   6.230 -0.6927 -0.0645 -0.1406
 3655SOL     OW22597   3.537   3.763   8.805  0.0897 -0.3651 -0.1814
 3655SOL    HW122598   3.626   3.783   8.777  0.2840  2.2508  2.3006
 3655SOL    HW222599   3.494   3.805   8.730 -0.8561 -1.4205 -0.2286
 3656SOL     OW22600   3.366   1.204   1.528  0.0163 -0.2459 -0.7132
 3656SOL    HW122601   3.360   1.252   1.611  1.3093 -1.4703  0.1039
 3656SOL    HW222602   3.364   1.114   1.561  0.0814  0.4735  1.2661
 3657SOL     OW22603   4.007   3.539   8.493  0.4706  0.1589 -0.1971
 3657SOL    HW122604   4.078   3.590   8.532  1.4498 -1.0672 -0.3839
 3657SOL    HW222605   4.058   3.504   8.420 -2.5108  1.3140 -2.8445
 3658SOL     OW22606   3.562   3.057   2.431  0.1330 -0.1229 -0.4935
 3658SOL    HW122607   3.519   3.129   2.476  0.6168  1.1113 -2.0345
 3658SOL    HW222608   3.531   2.990   2.492  0.5605 -0.4769 -0.6605
 3659SOL     OW22609   2.242   4.013   2.234 -0.2218 -0.0500  0.2057
 3659SOL    HW122610   2.283   4.056   2.159  1.6857 -0.7313  0.8361
 3659SOL    HW222611   2.237   4.084   2.299 -0.9125  0.3331 -0.2698
 3660SOL     OW22612   1.715   0.788   6.007  0.1227  0.3944 -0.1934
 3660SOL    HW122613   1.693   0.878   6.032 -1.1920  0.8268 -2.9529
 3660SOL    HW222614   1.672   0.774   5.922 -0.3330  0.6217 -0.0014
 3661SOL     OW22615   2.075   4.335   5.646  0.3539 -0.1696  0.3381
 3661SOL    HW122616   2.014   4.409   5.648 -0.0583 -0.5269  1.1281
 3661SOL    HW222617   2.008   4.267   5.655 -1.2074  1.0838 -1.9434
 3662SOL     OW22618   2.505   3.019   8.987 -0.2598 -0.1267  0.1632
 3662SOL    HW122619   2.451   3.040   8.911 -0.9141  2.2055  1.2664
 3662SOL    HW222620   2.439   3.010   9.056 -0.5306 -0.4984 -0.1510
 3663SOL     OW22621   1.574   3.941   0.791  0.0119 -0.4012 -0.6692
 3663SOL    HW122622   1.524   4.014   0.826  1.1664 -1.2020  2.5959
 3663SOL    HW222623   1.549   3.863   0.840  1.0503  0.0952  0.6398
 3664SOL     OW22624   2.336   3.142   9.244 -0.1688 -0.0922 -0.1710
 3664SOL    HW122625   2.260   3.163   9.189 -1.0430  0.0364  1.1080
 3664SOL    HW222626   2.306   3.067   9.296  1.0806  0.1883  0.9434
 3665SOL     OW22627   2.635   3.680  14.587 -0.0862 -0.0497 -0.6722
 3665SOL    HW122628   2.710   3.659  14.531 -0.0789 -1.2574 -0.2081
 3665SOL    HW222629   2.617   3.596  14.628 -1.8937  0.0966 -1.1529
 3666SOL     OW22630   1.240   4.384   7.597 -0.3296  0.3069 -0.9292
 3666SOL    HW122631   1.298   4.435   7.654  1.0301 -0.6995 -1.4076
 3666SOL    HW222632   1.177   4.350   7.660  0.6240 -1.8682 -1.1433
 3667SOL     OW22633   2.620   4.022  17.722  0.3783  1.0642  0.5213
 3667SOL    HW122634   2.671   3.952   0.018 -1.7776  0.8749  2.9889
 3667SOL    HW222635   2.556   4.040   0.047 -0.4257  1.0490 -0.2306
 3668SOL     OW22636   2.251   3.785  15.041  0.3520 -0.5430 -0.2464
 3668SOL    HW122637   2.329   3.822  15.081 -0.7699  0.4523  1.0262
 3668SOL    HW222638   2.233   3.848  14.971  2.1689  1.6040  1.2361
 3669SOL     OW22639   1.429   1.495  11.762 -0.1506  0.9092 -0.0246
 3669SOL    HW122640   1.396   1.408  11.740 -0.5604  1.0213  0.1491
 3669SOL    HW222641   1.515   1.479  11.800 -0.4013  1.1353  0.6403
 3670SOL     OW22642   4.627   2.402   8.804 -0.2259  0.9354  0.2485
 3670SOL    HW122643   4.564   2.375   8.871 -0.0084  2.9736  1.2787
 3670SOL    HW222644   4.637   2.492   8.833  0.8901  0.9915 -0.3150
 3671SOL     OW22645   4.109   2.889   3.320  0.3932 -0.2163 -0.4095
 3671SOL    HW122646   4.090   2.803   3.357  0.6571 -0.8136 -1.6691
 3671SOL    HW222647   4.195   2.912   3.356 -0.3113  0.2472  1.0083
 3672SOL     OW22648   4.610   1.097  12.367  0.7597 -0.1828 -0.3436
 3672SOL    HW122649   4.659   1.177  12.388  0.0909 -0.1123  0.9586
 3672SOL    HW222650   4.588   1.109  12.275 -2.4398  0.1962  0.4662
 3673SOL     OW22651   0.084   0.133   4.321 -0.2848  0.0675  0.1557
 3673SOL    HW122652   0.130   0.208   4.284  2.1925  0.3713  3.8153
 3673SOL    HW222653   0.152   0.072   4.350  1.3574  1.9115  0.1544
 3674SOL     OW22654   2.043   2.235   9.791  0.6334 -0.2644 -0.2889
 3674SOL    HW122655   2.103   2.274   9.728 -0.5037  1.4726 -0.2951
 3674SOL    HW222656   1.982   2.196   9.728  0.4042  0.5861 -0.5965
 3675SOL     OW22657   2.399   4.321  16.951 -0.0449  0.1978 -0.5792
 3675SOL    HW122658   2.364   4.303  17.038 -0.9341 -2.0097 -1.3948
 3675SOL    HW222659   2.369   4.252  16.892  1.1764 -1.9128  1.2847
 3676SOL     OW22660   0.493   4.158   5.428  0.3129  0.3630 -0.2954
 3676SOL    HW122661   0.411   4.112   5.447  0.9860 -0.8424 -0.2852
 3676SOL    HW222662   0.551   4.141   5.503 -2.3480  0.1744  1.7381
 3677SOL     OW22663   2.673   4.712  11.974  0.0194 -0.5121 -0.0393
 3677SOL    HW122664   2.645   4.702  11.883 -3.0589  2.4016  0.5773
 3677SOL    HW222665   2.767   4.698  11.975  0.0660 -0.2784 -0.8630
 3678SOL     OW22666   3.863   3.654  17.267 -0.3075 -0.6312  0.6065
 3678SOL    HW122667   3.911   3.694  17.340  1.5980 -2.0920  0.1752
 3678SOL    HW222668   3.851   3.731  17.211  0.3690 -0.2547  0.9745
 3679SOL     OW22669   2.301   0.759  10.841  0.3386 -0.2027  0.7090
 3679SOL    HW122670   2.387   0.789  10.871  0.5726  1.7824 -1.9333
 3679SOL    HW222671   2.314   0.755  10.746  1.3548  0.2067  0.8308
 3680SOL     OW22672   4.575   0.650   5.165  0.1319 -0.3737 -0.0441
 3680SOL    HW122673   4.642   0.598   5.122 -0.9257 -1.5816 -0.2474
 3680SOL    HW222674   4.603   0.624   5.252  1.0098  3.0895  0.7057
 3681SOL     OW22675   4.341   1.696   4.776 -0.6917 -0.1622  0.3749
 3681SOL    HW122676   4.387   1.761   4.723 -0.1206 -1.5005 -0.7895
 3681SOL    HW222677   4.408   1.627   4.781  0.4105  1.0218  2.1523
 3682SOL     OW22678   3.589   1.042   8.770 -0.5515 -0.6484 -0.0067
 3682SOL    HW122679   3.667   0.987   8.772 -0.4501 -0.5779 -1.8931
 3682SOL    HW222680   3.601   1.089   8.853 -1.3728  1.2654 -0.9722
 3683SOL     OW22681   2.860   1.787   5.633  0.4658  0.0207  0.0885
 3683SOL    HW122682   2.876   1.714   5.693 -1.5875  1.6127  2.5770
 3683SOL    HW222683   2.817   1.856   5.685  0.9902  0.7442 -0.4510
 3684SOL     OW22684   2.078   1.870   1.455  0.8011  0.3085  0.0405
 3684SOL    HW122685   2.134   1.934   1.410 -0.5656  3.4673  2.7691
 3684SOL    HW222686   2.140   1.800   1.436  1.2766  1.1151 -1.4196
 3685SOL     OW22687   4.085   3.475  14.746  0.8082 -1.1709 -0.1610
 3685SOL    HW122688   4.120   3.447  14.661 -0.0750  0.4147 -1.0436
 3685SOL    HW222689   3.998   3.502  14.715 -1.2568 -2.1912  4.8377
 3686SOL     OW22690   3.399   3.161   4.795  0.5332 -0.0407  0.4840
 3686SOL    HW122691   3.492   3.151   4.777  0.0183  0.9749 -2.6934
 3686SOL    HW222692   3.381   3.247   4.757  0.2263  0.1522  1.0640
 3687SOL     OW22693   4.285   4.225   7.592 -0.0391 -0.0377 -0.4702
 3687SOL    HW122694   4.372   4.231   7.551  0.6499 -2.2847  0.6752
 3687SOL    HW222695   4.294   4.274   7.673  0.7294 -1.5057  0.3353
 3688SOL     OW22696   2.961   0.529   5.482 -0.1762  0.1892  0.2468
 3688SOL    HW122697   2.907   0.452   5.464 -0.6739  0.7894 -0.8069
 3688SOL    HW222698   2.931   0.593   5.417 -1.9007 -0.5135  0.3473
 3689SOL     OW22699   0.753   0.757   1.521 -0.5334 -0.6215  0.6491
 3689SOL    HW122700   0.695   0.805   1.462 -2.3187 -1.6684  1.5326
 3689SOL    HW222701   0.829   0.737   1.467  0.3452  2.9091  0.6198
 3690SOL     OW22702   1.916   0.109  11.910 -0.0137  0.1548 -0.8707
 3690SOL    HW122703   1.897   0.021  11.877  0.6769 -0.5516  0.5990
 3690SOL    HW222704   2.010   0.099  11.924 -0.6080 -3.3318  0.4915
 3691SOL     OW22705   4.600   4.431   0.998 -0.1218 -0.5019 -0.9674
 3691SOL    HW122706   4.642   4.419   1.083  0.4965  0.2790 -1.1592
 3691SOL    HW222707   4.678   4.443   0.943  0.9586 -0.0955  0.6546
 3692SOL     OW22708   4.723   0.295   2.855  0.1151 -0.3999  0.1335
 3692SOL    HW122709   4.665   0.257   2.921 -0.1696 -1.3987 -0.6870
 3692SOL    HW222710   4.682   0.374   2.820 -0.1429 -0.2674  0.7251
 3693SOL     OW22711   1.874   1.421   7.385  0.6487 -0.3027  0.5624
 3693SOL    HW122712   1.873   1.412   7.480 -1.6497 -0.5174  0.5098
 3693SOL    HW222713   1.792   1.380   7.359  1.5268  0.0942 -2.8025
 3694SOL     OW22714   4.180   1.904   5.082  0.4857  0.5881 -0.6688
 3694SOL    HW122715   4.187   1.994   5.116 -0.3819  0.8388 -1.1527
 3694SOL    HW222716   4.265   1.867   5.106 -1.2213 -1.7497  1.7489
 3695SOL     OW22717   1.326   3.735  14.170 -0.5145  0.0640  0.4190
 3695SOL    HW122718   1.314   3.664  14.107 -0.3205 -0.5542  1.0819
 3695SOL    HW222719   1.233   3.750  14.188 -0.2543 -0.1862  1.9175
 3696SOL     OW22720   4.348   4.719   3.122  0.2447  0.3346  0.2636
 3696SOL    HW122721   4.295   0.025   3.054 -0.8861 -0.0680  0.8925
 3696SOL    HW222722   4.313   4.630   3.115 -1.0411  0.7229  1.5960
 3697SOL     OW22723   0.683   0.352   4.319 -0.6447 -0.1462 -0.6613
 3697SOL    HW122724   0.719   0.293   4.386  2.2750 -0.0676 -2.1292
 3697SOL    HW222725   0.734   0.326   4.243  1.6137 -0.5935  0.9923
 3698SOL     OW22726   1.908   0.719   3.112 -0.4145 -0.0773 -0.1363
 3698SOL    HW122727   1.924   0.773   3.035 -0.2747  0.2182  0.1012
 3698SOL    HW222728   1.998   0.687   3.117 -0.8637 -1.4757 -0.7050
 3699SOL     OW22729   2.522   3.678  17.550 -0.4857  0.5014 -0.0188
 3699SOL    HW122730   2.496   3.735  17.622 -0.0913  1.5095 -0.6788
 3699SOL    HW222731   2.440   3.632  17.531  0.3429 -0.6181 -0.8883
 3700SOL     OW22732   0.248   4.172   4.319 -0.0871 -0.4447  0.3157
 3700SOL    HW122733   0.274   4.263   4.338 -2.4808  0.0624  1.2304
 3700SOL    HW222734   0.326   4.131   4.283  1.2332  3.1586 -0.9069
 3701SOL     OW22735   3.161   4.443  12.905  0.5139  0.1604 -0.2957
 3701SOL    HW122736   3.146   4.471  12.995 -1.5663 -2.5605  0.2166
 3701SOL    HW222737   3.187   4.522  12.859  1.1594  0.7419  1.0767
 3702SOL     OW22738   3.749   2.444  13.585 -0.1399 -0.0105  0.0834
 3702SOL    HW122739   3.684   2.509  13.611  0.6530 -0.6304  3.5852
 3702SOL    HW222740   3.692   2.370  13.562 -0.6185  1.3582 -3.0842
 3703SOL     OW22741   1.192   0.917   3.533  0.3955 -0.2461  0.5600
 3703SOL    HW122742   1.226   0.854   3.470  0.2773 -1.0641  1.3185
 3703SOL    HW222743   1.123   0.960   3.483  1.2209  0.8373  0.3349
 3704SOL     OW22744   0.479   3.872   8.081 -0.5301 -0.0140 -0.4221
 3704SOL    HW122745   0.545   3.912   8.025 -1.6143  0.6506 -1.2084
 3704SOL    HW222746   0.468   3.788   8.037  0.6716 -0.1449 -0.4783
 3705SOL     OW22747   4.361   0.813  12.273  0.3263 -0.2245 -0.1927
 3705SOL    HW122748   4.342   0.867  12.349  0.1397 -2.5854  1.4398
 3705SOL    HW222749   4.455   0.821  12.256  0.2146 -0.1899 -0.8172
 3706SOL     OW22750   0.903   4.197   1.667 -0.0777  0.2198 -0.7483
 3706SOL    HW122751   0.975   4.140   1.639 -0.4646  0.0735 -1.4432
 3706SOL    HW222752   0.907   4.260   1.595 -0.3942  1.6642  0.4891
 3707SOL     OW22753   1.835   3.910   9.486  0.5251  0.0576 -0.0352
 3707SOL    HW122754   1.910   3.964   9.463  1.2568 -1.2543 -0.6927
 3707SOL    HW222755   1.821   3.951   9.571  1.0491  3.3743 -1.5731
 3708SOL     OW22756   0.784   2.639   8.283  0.2873 -0.6155  0.3334
 3708SOL    HW122757   0.705   2.585   8.277  1.9001 -2.9832  0.0603
 3708SOL    HW222758   0.747   2.708   8.338  2.1853  0.0031  0.8105
 3709SOL     OW22759   3.654   4.344  16.431 -0.2384 -0.0284 -0.2102
 3709SOL    HW122760   3.706   4.385  16.501 -0.1344 -2.4210  1.1019
 3709SOL    HW222761   3.570   4.334  16.474 -0.2277 -0.6394 -0.3265
 3710SOL     OW22762   4.610   3.067  16.970 -0.1952 -0.0235  0.1776
 3710SOL    HW122763   4.670   2.995  16.990  0.9292  0.6408 -0.7684
 3710SOL    HW222764   4.525   3.025  16.956  0.2144 -0.7664 -0.1007
 3711SOL     OW22765   4.286   1.127   2.834 -0.1294 -0.0629  0.6607
 3711SOL    HW122766   4.359   1.080   2.875  0.4335 -0.1425 -0.4330
 3711SOL    HW222767   4.216   1.078   2.877 -0.8360 -1.3992 -1.9806
 3712SOL     OW22768   0.853   2.739   5.704 -0.3286  0.0933  0.5005
 3712SOL    HW122769   0.829   2.660   5.751  0.0500 -0.1520  0.2821
 3712SOL    HW222770   0.946   2.749   5.725  0.0754 -0.1181 -1.1423
 3713SOL     OW22771   2.280   2.107  14.107 -0.3223 -0.6507 -0.1254
 3713SOL    HW122772   2.370   2.076  14.117  0.5557  2.4739  1.8545
 3713SOL    HW222773   2.300   2.170  14.038 -0.3727 -0.2712  0.2027
 3714SOL     OW22774   1.944   0.792  12.056  0.1386  0.0283 -0.1503
 3714SOL    HW122775   1.871   0.736  12.083  1.7004 -2.9172 -1.9781
 3714SOL    HW222776   1.955   0.748  11.972  1.1094  2.1053 -1.0965
 3715SOL     OW22777   3.994   0.342   2.263  0.3663  0.2008 -0.1493
 3715SOL    HW122778   3.983   0.421   2.316 -1.3081 -0.5085  0.5654
 3715SOL    HW222779   4.089   0.347   2.256  0.4345 -0.3439  0.4438
 3716SOL     OW22780   3.349   1.518  14.763  0.3994  0.8248 -0.1835
 3716SOL    HW122781   3.317   1.432  14.736  0.8817  1.2318 -2.0988
 3716SOL    HW222782   3.441   1.508  14.786  0.2003  1.1909  0.7765
 3717SOL     OW22783   2.785   1.112   4.444 -0.4053 -0.0724  0.4972
 3717SOL    HW122784   2.722   1.174   4.480 -1.5182 -0.0876 -1.4122
 3717SOL    HW222785   2.773   1.123   4.349  0.5255 -0.3139  0.3448
 3718SOL     OW22786   1.286   0.952   3.776 -0.1144 -0.3410 -0.1442
 3718SOL    HW122787   1.289   1.047   3.773  1.4727 -0.3979  0.0311
 3718SOL    HW222788   1.260   0.936   3.685 -0.5917 -1.5721  0.2041
 3719SOL     OW22789   4.579   3.077  13.606  0.0353  0.2634  0.2907
 3719SOL    HW122790   4.572   3.007  13.542 -0.2613  0.2333  0.3577
 3719SOL    HW222791   4.566   3.157  13.556 -0.5765  0.1377  0.2497
 3720SOL     OW22792   2.503   1.889  17.578 -0.3968 -0.0389  0.1455
 3720SOL    HW122793   2.590   1.926  17.568 -0.1355 -1.1576 -1.6414
 3720SOL    HW222794   2.488   1.863  17.487 -1.0564 -2.7861  1.0163
 3721SOL     OW22795   0.100   0.051   0.898 -0.6894  0.5359 -0.2626
 3721SOL    HW122796   0.089   0.138   0.935 -0.8910 -0.1619  1.3321
 3721SOL    HW222797   0.181   0.070   0.850 -0.1166 -0.5894  0.2268
 3722SOL     OW22798   1.127   2.946   8.074  0.1870 -0.8416  0.2234
 3722SOL    HW122799   1.129   3.024   8.130  2.1978 -1.9405  1.6764
 3722SOL    HW222800   1.196   2.900   8.121  0.1927 -1.2191 -0.1615
 3723SOL     OW22801   0.384   2.051   4.004  0.1729 -0.2371  0.2431
 3723SOL    HW122802   0.446   2.044   3.931 -1.1372 -1.3367 -0.7715
 3723SOL    HW222803   0.364   2.144   3.997 -0.4387 -0.4727 -1.2018
 3724SOL     OW22804   3.468   1.797  12.572  0.0920  0.4395  0.3949
 3724SOL    HW122805   3.534   1.864  12.589 -1.0234  1.8639 -0.9859
 3724SOL    HW222806   3.519   1.716  12.560 -1.6226 -0.4215 -1.0475
 3725SOL     OW22807   0.626   1.016   1.797  0.0315 -0.0733  0.5131
 3725SOL    HW122808   0.644   1.060   1.880 -0.3945 -2.1145  1.6914
 3725SOL    HW222809   0.531   1.006   1.806 -0.0563  1.0799  0.7727
 3726SOL     OW22810   3.568   2.718   1.260 -0.3251 -0.0095  0.3199
 3726SOL    HW122811   3.534   2.794   1.215  0.5161  0.4762  0.4919
 3726SOL    HW222812   3.581   2.655   1.189  1.8232  0.2254  0.4891
 3727SOL     OW22813   0.292   1.438  13.157 -0.2829 -0.4689  0.0264
 3727SOL    HW122814   0.277   1.493  13.234  0.1394 -0.0137 -0.2147
 3727SOL    HW222815   0.300   1.353  13.198  1.0746 -0.7432 -0.7960
 3728SOL     OW22816   1.664   2.436   2.159 -0.0594  0.8982 -0.0349
 3728SOL    HW122817   1.760   2.436   2.167 -0.1083 -0.9662  0.3949
 3728SOL    HW222818   1.657   2.393   2.074 -0.3550  0.6243  0.1274
 3729SOL     OW22819   3.524   4.690  13.974 -0.0674 -0.0598 -0.3537
 3729SOL    HW122820   3.497   0.015  13.906  1.2776 -0.5715 -1.3428
 3729SOL    HW222821   3.438   4.663  14.007 -0.2826 -1.5627 -2.1331
 3730SOL     OW22822   4.640   2.824   5.087 -0.1470 -0.3254  0.2493
 3730SOL    HW122823   4.715   2.814   5.027  1.2030  0.1506  1.8456
 3730SOL    HW222824   4.583   2.882   5.036 -0.3395 -0.5728  0.1847
 3731SOL     OW22825   4.465   0.954   8.708  0.5826 -0.3897  0.2542
 3731SOL    HW122826   4.454   1.046   8.683  1.3934 -0.2263  0.4873
 3731SOL    HW222827   4.446   0.898   8.633 -0.6626  3.0169 -1.9698
 3732SOL     OW22828   2.131   4.129   7.431 -0.2718 -0.6341 -0.2503
 3732SOL    HW122829   2.217   4.118   7.391  1.3731 -1.8018  3.6185
 3732SOL    HW222830   2.151   4.216   7.465 -2.6037  0.6936 -2.2470
 3733SOL     OW22831   2.496   3.610   8.428 -0.1461 -0.1285  0.8057
 3733SOL    HW122832   2.419   3.656   8.462  0.7417  1.6577  0.4038
 3733SOL    HW222833   2.458   3.527   8.400  0.9286  0.2846 -1.8395
 3734SOL     OW22834   0.107   2.577   9.375  0.2721 -0.1784  0.1889
 3734SOL    HW122835   0.135   2.523   9.449  0.0713  0.6225  0.8481
 3734SOL    HW222836   0.084   2.666   9.405  1.0626 -0.5444  1.8990
 3735SOL     OW22837   0.186   1.580   1.637  0.1274 -0.5643 -0.1525
 3735SOL    HW122838   0.258   1.620   1.686 -1.6066  2.0390  0.2774
 3735SOL    HW222839   0.220   1.575   1.548 -0.6316  2.4311 -0.6126
 3736SOL     OW22840   0.093   2.248   6.561  0.3991  0.4011 -0.1008
 3736SOL    HW122841   0.085   2.180   6.628 -1.6147  2.5879  1.8945
 3736SOL    HW222842   0.188   2.258   6.554  0.4340  0.5797  0.5938
 3737SOL     OW22843   3.947   0.983   8.023 -0.1639  0.4642  0.0549
 3737SOL    HW122844   3.887   0.938   7.964 -1.6841  1.5491  0.7647
 3737SOL    HW222845   4.028   0.963   7.977 -0.0753  0.2564  0.3047
 3738SOL     OW22846   2.349   1.858  14.776 -0.3350 -0.5149  0.4537
 3738SOL    HW122847   2.336   1.917  14.702  1.3288  1.0711  1.4364
 3738SOL    HW222848   2.315   1.776  14.739  1.1637 -0.3306 -1.3316
 3739SOL     OW22849   2.578   3.921   0.692  0.7380  0.5252  0.1942
 3739SOL    HW122850   2.586   3.851   0.626 -0.3303  0.0880  0.5318
 3739SOL    HW222851   2.503   3.971   0.661  1.0705  1.2733  0.6097
 3740SOL     OW22852   4.277   2.537   4.092  0.3393  0.3373 -0.4518
 3740SOL    HW122853   4.213   2.491   4.037 -0.5160  0.8498  0.1129
 3740SOL    HW222854   4.288   2.627   4.061  0.2154 -0.4432 -2.7462
 3741SOL     OW22855   4.384   0.281  13.432 -0.3696  0.2700  0.1309
 3741SOL    HW122856   4.451   0.214  13.444  0.9838  1.3678 -1.3040
 3741SOL    HW222857   4.392   0.286  13.337  0.5246 -0.9590  0.1433
 3742SOL     OW22858   2.500   1.600  16.869 -0.2271 -0.2849  0.3189
 3742SOL    HW122859   2.587   1.564  16.854  1.8309  3.6426  2.6873
 3742SOL    HW222860   2.443   1.562  16.802  1.2883  0.3343 -1.3367
 3743SOL     OW22861   2.433   3.977  13.040  0.6210 -0.1140 -0.3471
 3743SOL    HW122862   2.348   3.935  13.052  0.3676  0.9738  1.7584
 3743SOL    HW222863   2.480   3.897  13.015  0.8246 -0.7843  2.1310
 3744SOL     OW22864   0.649   1.542   3.884 -0.0979 -0.0285 -0.3109
 3744SOL    HW122865   0.612   1.595   3.813 -0.1914  0.2695 -0.0354
 3744SOL    HW222866   0.571   1.502   3.924  0.0267  2.8094  2.7575
 3745SOL     OW22867   2.321   2.381   5.091  0.1685  0.0057  1.1307
 3745SOL    HW122868   2.233   2.396   5.128  0.1581  0.4866  0.9161
 3745SOL    HW222869   2.318   2.290   5.119  1.5828 -0.6326 -0.7817
 3746SOL     OW22870   0.103   0.538   5.653 -0.1314  0.1301  0.1175
 3746SOL    HW122871   0.175   0.475   5.645 -0.3428  0.0289 -0.9872
 3746SOL    HW222872   0.129   0.589   5.729 -2.3176 -0.4360  1.2353
 3747SOL     OW22873   1.118   2.639   5.244  0.0102 -0.1274 -0.0306
 3747SOL    HW122874   1.148   2.682   5.163  0.2557  0.5274  0.4086
 3747SOL    HW222875   1.064   2.573   5.201 -0.6092  0.6250 -0.4188
 3748SOL     OW22876   2.028   0.155   8.623 -0.3074  0.5439 -0.0816
 3748SOL    HW122877   1.986   0.236   8.595 -1.2148 -0.1299 -0.6830
 3748SOL    HW222878   2.111   0.181   8.663 -0.2862 -1.2962  1.0852
 3749SOL     OW22879   1.338   1.262  15.677 -0.5820 -0.2409 -0.6914
 3749SOL    HW122880   1.347   1.349  15.638  0.7678 -1.5415 -3.2601
 3749SOL    HW222881   1.361   1.294  15.764 -1.4767 -0.6251 -0.3187
 3750SOL     OW22882   3.150   4.247   2.705 -0.2017  0.1577  0.0648
 3750SOL    HW122883   3.213   4.191   2.658 -1.2200  0.0918 -1.2073
 3750SOL    HW222884   3.105   4.276   2.626  0.3537  1.1851  0.1276
 3751SOL     OW22885   1.688   3.140   5.647  0.2695 -0.1317 -0.2884
 3751SOL    HW122886   1.667   3.081   5.720 -3.0464 -0.7505 -1.7272
 3751SOL    HW222887   1.772   3.176   5.675  1.1022 -0.5190 -2.3039
 3752SOL     OW22888   3.101   3.431   7.375  0.2142  0.0676  1.6276
 3752SOL    HW122889   3.109   3.344   7.336 -1.8125  1.3728 -1.6942
 3752SOL    HW222890   3.005   3.436   7.379  0.1614  1.8026 -2.1758
 3753SOL     OW22891   3.849   0.614   3.403 -0.0227  0.1898 -0.7159
 3753SOL    HW122892   3.864   0.684   3.466 -2.9495  0.9354 -0.8683
 3753SOL    HW222893   3.756   0.619   3.384  0.1962  0.1524 -1.7912
 3754SOL     OW22894   4.590   2.250   6.442  0.2559  0.5183 -0.1313
 3754SOL    HW122895   4.606   2.156   6.437  0.8444  0.6520 -0.6255
 3754SOL    HW222896   4.664   2.280   6.496  1.8506 -3.3645 -0.1897
 3755SOL     OW22897   1.696   1.731   5.512  0.4188  0.4271 -0.0192
 3755SOL    HW122898   1.649   1.811   5.535  1.4388  1.2271 -0.7417
 3755SOL    HW222899   1.746   1.762   5.436  0.5937 -0.0028 -0.0815
 3756SOL     OW22900   4.279   4.244  13.032  0.3402 -0.4122 -0.2461
 3756SOL    HW122901   4.370   4.271  13.020  1.3049 -2.6145  2.1322
 3756SOL    HW222902   4.274   4.235  13.127  0.4962 -1.0754 -0.3023
 3757SOL     OW22903   1.962   4.084   1.840 -0.4547  0.0179  0.8048
 3757SOL    HW122904   1.950   4.098   1.934 -0.6662  0.7778  0.6700
 3757SOL    HW222905   1.881   4.126   1.810  0.5903  1.6193  0.2202
 3758SOL     OW22906   4.014   3.300   1.583 -0.3941 -0.3842  0.2095
 3758SOL    HW122907   3.928   3.314   1.545  0.0030 -1.6247 -1.1188
 3758SOL    HW222908   4.003   3.209   1.610  2.6492 -0.5203  1.0071
 3759SOL     OW22909   1.031   3.323  10.743 -0.0349 -0.0625  0.0216
 3759SOL    HW122910   0.961   3.268  10.708 -0.4198 -0.9127  2.1028
 3759SOL    HW222911   1.092   3.330  10.669 -0.3094 -2.2528 -0.4221
 3760SOL     OW22912   1.849   3.555   5.793 -0.0854  0.2222 -0.1804
 3760SOL    HW122913   1.781   3.502   5.751 -0.8810  1.0676  0.0508
 3760SOL    HW222914   1.810   3.642   5.782 -1.4592 -0.5006 -0.9418
 3761SOL     OW22915   4.010   4.100   2.216 -0.2003 -0.4153 -0.2832
 3761SOL    HW122916   3.989   4.035   2.149  0.1441 -0.2142 -0.5804
 3761SOL    HW222917   3.941   4.086   2.281  0.3542  2.2229  0.8731
 3762SOL     OW22918   1.888   3.237  13.800  0.1848 -0.1607 -0.3749
 3762SOL    HW122919   1.921   3.220  13.888  1.9734  0.7086 -0.8778
 3762SOL    HW222920   1.900   3.331  13.790  1.2171 -0.1454  0.9644
 3763SOL     OW22921   0.308   2.965   7.573 -0.1699  0.6993 -0.0558
 3763SOL    HW122922   0.383   2.999   7.524  2.2586  0.1461  3.2890
 3763SOL    HW222923   0.359   2.896   7.615 -0.8501  0.8050  0.9519
 3764SOL     OW22924   2.730   1.959  12.474  0.3152 -0.0543  0.2340
 3764SOL    HW122925   2.710   2.029  12.413 -1.4882 -0.4615  0.3347
 3764SOL    HW222926   2.819   1.987  12.491  0.4578 -1.5028  2.0088
 3765SOL     OW22927   2.522   2.019   7.775  0.0098  0.1256 -0.6497
 3765SOL    HW122928   2.546   2.090   7.716  1.3738 -0.2915 -0.5929
 3765SOL    HW222929   2.532   1.947   7.712 -1.6178 -0.4132 -0.3065
 3766SOL     OW22930   0.125   0.678   5.895  0.4430  0.0330 -0.6145
 3766SOL    HW122931   0.212   0.694   5.930 -0.0393  0.6845  0.2940
 3766SOL    HW222932   0.065   0.707   5.964  0.0480 -0.4455 -0.7517
 3767SOL     OW22933   4.563   0.806   6.235  0.1774  0.0545  0.1438
 3767SOL    HW122934   4.492   0.835   6.292  0.4505  1.0395 -0.0311
 3767SOL    HW222935   4.537   0.843   6.151 -0.3602 -0.8763 -0.1076
 3768SOL     OW22936   1.327   2.326   8.532  0.1916  0.0883 -0.1581
 3768SOL    HW122937   1.250   2.323   8.476 -0.3541  0.0710  0.5888
 3768SOL    HW222938   1.279   2.357   8.609 -1.1715 -0.1927 -0.8970
 3769SOL     OW22939   3.918   2.121   9.643  0.3102 -0.2623  0.7925
 3769SOL    HW122940   3.848   2.164   9.693  1.9093  1.0394  1.8800
 3769SOL    HW222941   3.874   2.042   9.611  1.0830  0.4388 -1.9439
 3770SOL     OW22942   0.481   2.130  14.532 -0.0274 -0.5121  0.4481
 3770SOL    HW122943   0.533   2.054  14.506  1.2612  2.0410 -4.3669
 3770SOL    HW222944   0.399   2.090  14.559 -0.4613  1.0297  1.3783
 3771SOL     OW22945   2.426   2.056   5.537 -0.4698  0.1114 -0.7163
 3771SOL    HW122946   2.405   2.136   5.585 -2.2218  0.5255 -2.1668
 3771SOL    HW222947   2.347   2.042   5.485 -0.5416 -1.0930 -0.2590
 3772SOL     OW22948   4.180   0.028   4.265  0.0975 -0.0364  0.1743
 3772SOL    HW122949   4.255   0.086   4.254 -0.8700  0.9039 -1.3782
 3772SOL    HW222950   4.109   0.086   4.237 -0.3152 -0.6362 -0.0129
 3773SOL     OW22951   0.607   0.497  12.154 -0.5691 -0.5333 -0.0847
 3773SOL    HW122952   0.681   0.515  12.212  0.0116 -2.5895 -0.1876
 3773SOL    HW222953   0.627   0.407  12.127  0.3298  0.4019 -2.5542
 3774SOL     OW22954   4.138   0.134   3.877 -0.1132 -0.1728 -0.5941
 3774SOL    HW122955   4.136   0.193   3.953  0.2346 -0.8626 -0.0495
 3774SOL    HW222956   4.193   0.063   3.911 -0.0285 -1.1708 -2.8222
 3775SOL     OW22957   3.243   2.340   9.310 -0.4438 -0.5138  0.7732
 3775SOL    HW122958   3.202   2.300   9.387  1.4566 -1.0108  1.5456
 3775SOL    HW222959   3.231   2.433   9.331  1.3940 -0.6343  2.3937
 3776SOL     OW22960   2.496   2.585   4.690  0.0083  0.3559 -0.5001
 3776SOL    HW122961   2.497   2.517   4.623  1.2588  1.9237 -2.0722
 3776SOL    HW222962   2.500   2.524   4.763 -3.5300  0.7071 -0.0156
 3777SOL     OW22963   4.611   3.580  16.188 -0.0937 -0.2764 -0.4803
 3777SOL    HW122964   4.565   3.509  16.232  0.8312 -1.0659 -0.8033
 3777SOL    HW222965   4.696   3.589  16.229 -0.1634 -0.8274 -0.2252
 3778SOL     OW22966   4.263   0.115   7.538 -0.0252 -0.4948 -0.0905
 3778SOL    HW122967   4.218   0.121   7.622  2.0549  1.1994  0.8875
 3778SOL    HW222968   4.350   0.113   7.577 -0.6056  1.9356  1.3410
 3779SOL     OW22969   3.669   3.513   6.965  0.1381 -0.1320 -0.0524
 3779SOL    HW122970   3.679   3.589   6.907 -0.2537  1.1379  1.5209
 3779SOL    HW222971   3.761   3.488   6.974  0.0573 -0.2481  0.4372
 3780SOL     OW22972   3.701   0.674   7.766 -0.3988  0.2138 -0.2747
 3780SOL    HW122973   3.686   0.590   7.724  0.6623 -1.6918  3.1008
 3780SOL    HW222974   3.795   0.663   7.782 -0.8263 -3.9050 -0.6756
 3781SOL     OW22975   4.135   4.611   6.440 -0.5954 -0.3377  0.0094
 3781SOL    HW122976   4.107   4.680   6.380 -2.5367 -0.9825  0.1733
 3781SOL    HW222977   4.068   4.546   6.418 -1.6898  1.4203 -1.7848
 3782SOL     OW22978   2.054   4.064  16.660 -0.0020 -0.7880  0.2256
 3782SOL    HW122979   1.998   4.136  16.687  0.6016 -0.8581  1.6684
 3782SOL    HW222980   1.996   3.992  16.685 -1.7718  0.8289  0.6857
 3783SOL     OW22981   1.140   0.512  11.714  0.7410  0.8885 -0.1933
 3783SOL    HW122982   1.185   0.455  11.651 -1.0430 -0.3805 -0.3104
 3783SOL    HW222983   1.176   0.591  11.674 -0.6885  1.0681 -1.0911
 3784SOL     OW22984   2.233   2.025   5.845  0.6237  0.3388  0.2003
 3784SOL    HW122985   2.162   2.025   5.910  0.0751  1.4437 -0.4089
 3784SOL    HW222986   2.204   2.101   5.796 -1.3854 -0.2756  0.4274
 3785SOL     OW22987   2.346   0.396  15.707  0.2867 -0.4755 -0.0930
 3785SOL    HW122988   2.283   0.367  15.641  0.7271 -0.8868 -0.3345
 3785SOL    HW222989   2.340   0.491  15.717  0.7315 -0.4571  0.0099
 3786SOL     OW22990   1.072   0.181   5.535 -0.2293  0.3418  0.4136
 3786SOL    HW122991   0.979   0.179   5.514 -0.6181 -0.0123  2.1515
 3786SOL    HW222992   1.072   0.273   5.563 -1.5730 -0.0189  1.6071
 3787SOL     OW22993   3.164   0.789  12.033 -0.9274 -0.2278 -0.3869
 3787SOL    HW122994   3.094   0.774  12.098  0.9125  0.4761  1.7603
 3787SOL    HW222995   3.234   0.815  12.093  0.8519 -2.1947 -1.6475
 3788SOL     OW22996   2.392   4.585   7.593 -0.4008  0.1620 -0.6678
 3788SOL    HW122997   2.302   4.617   7.595  0.3987  2.2414  2.3615
 3788SOL    HW222998   2.428   4.632   7.518  0.3163  1.5411  0.5474
 3789SOL     OW22999   1.315   4.444   6.246  0.0300  0.6460  0.1830
 3789SOL    HW123000   1.231   4.439   6.292  1.4477 -0.5128  2.6953
 3789SOL    HW223001   1.340   4.351   6.238 -1.5495  0.3157 -0.9213
 3790SOL     OW23002   0.265   0.327   2.195 -0.4465  0.2011  0.0019
 3790SOL    HW123003   0.295   0.416   2.175 -1.4743  0.5047 -0.1629
 3790SOL    HW223004   0.182   0.348   2.237 -2.2574 -0.6304 -3.1737
 3791SOL     OW23005   0.718   3.753   7.816 -0.0721 -0.6719  0.1520
 3791SOL    HW123006   0.672   3.696   7.877 -0.5211 -0.5813 -0.1027
 3791SOL    HW223007   0.685   3.730   7.729 -3.6275  0.8859  1.0727
 3792SOL     OW23008   2.475   3.926  12.527  0.1176  0.0354 -0.8711
 3792SOL    HW123009   2.557   3.968  12.553 -0.9043  0.2648  2.0602
 3792SOL    HW223010   2.478   3.945  12.433  0.3230 -0.6924 -1.0072
 3793SOL     OW23011   1.256   1.588   3.724  0.0208  0.3213 -0.1085
 3793SOL    HW123012   1.331   1.597   3.665  0.8015  0.5610  0.9119
 3793SOL    HW223013   1.285   1.523   3.789 -0.9036 -3.1380 -3.2077
 3794SOL     OW23014   4.499   1.951   0.402 -0.1378 -0.0252 -0.0885
 3794SOL    HW123015   4.530   1.898   0.328 -0.2251 -0.1959 -0.0044
 3794SOL    HW223016   4.476   2.031   0.355 -3.4990 -0.7477  0.3874
 3795SOL     OW23017   4.337   2.809   2.304  0.2804  0.1659 -0.0522
 3795SOL    HW123018   4.404   2.877   2.304  0.0235  0.4284 -1.6178
 3795SOL    HW223019   4.277   2.853   2.364  1.7356  0.4533  1.1969
 3796SOL     OW23020   1.281   4.636   9.704 -0.0363 -0.5969  0.3197
 3796SOL    HW123021   1.355   4.608   9.650  0.3333  0.6831  0.1596
 3796SOL    HW223022   1.238   4.554   9.727  0.4387 -1.2559 -1.1913
 3797SOL     OW23023   0.045   1.657  13.569 -0.1202 -0.0042  0.1191
 3797SOL    HW123024   4.702   1.697  13.604 -0.4189 -1.1016  0.7022
 3797SOL    HW223025   0.025   1.566  13.590 -2.9994  0.9335  1.3612
 3798SOL     OW23026   4.495   4.408   9.096  0.2359 -0.2241  0.1053
 3798SOL    HW123027   4.472   4.449   9.179  2.8735 -0.6576  1.0572
 3798SOL    HW223028   4.431   4.443   9.033  1.5851  2.9459  0.4626
 3799SOL     OW23029   4.238   4.462   2.617  0.2023  0.2707 -0.8467
 3799SOL    HW123030   4.185   4.465   2.537  1.3434 -0.3589 -1.6224
 3799SOL    HW223031   4.197   4.388   2.662  1.2236 -0.5253 -1.2199
 3800SOL     OW23032   1.194   3.923   3.210 -0.2113 -0.2794 -0.3111
 3800SOL    HW123033   1.108   3.887   3.234  0.2527 -0.3272  1.2918
 3800SOL    HW223034   1.214   3.855   3.147  2.4135  1.7703 -1.6676
 3801SOL     OW23035   3.157   1.055   9.929 -0.1560 -0.4119  0.0376
 3801SOL    HW123036   3.186   1.061  10.020 -1.5990  2.7232  0.2985
 3801SOL    HW223037   3.180   0.964   9.910  0.9641  0.1645 -1.4325
 3802SOL     OW23038   4.233   1.511   8.900 -0.1681  0.5223 -0.0241
 3802SOL    HW123039   4.160   1.511   8.962 -1.0555 -1.2039 -1.0858
 3802SOL    HW223040   4.310   1.526   8.955 -0.1051  0.5733 -0.1259
 3803SOL     OW23041   2.550   0.883   3.557  0.0907  0.2932  0.0881
 3803SOL    HW123042   2.471   0.875   3.610  0.3705 -0.8279  0.3536
 3803SOL    HW223043   2.533   0.956   3.498 -1.5304  0.8661  1.2816
 3804SOL     OW23044   1.915   3.400   3.229 -0.0897  0.0382 -0.1224
 3804SOL    HW123045   1.865   3.338   3.281  0.1883 -0.3457 -0.3178
 3804SOL    HW223046   1.973   3.445   3.290 -0.2376  0.1223 -0.0426
 3805SOL     OW23047   4.618   2.439   7.183  0.0220  0.1353 -0.0079
 3805SOL    HW123048   4.659   2.517   7.147  0.2252  0.2672  0.5085
 3805SOL    HW223049   4.673   2.438   7.261 -2.3492 -1.5288  1.6519
 3806SOL     OW23050   1.740   0.118   2.318 -0.3768  0.0731 -0.3459
 3806SOL    HW123051   1.708   0.160   2.237  1.3465  0.2480 -0.9356
 3806SOL    HW223052   1.726   0.181   2.389 -1.3296 -0.8634  0.2937
 3807SOL     OW23053   3.368   1.183   1.122 -0.6173 -0.1055  0.0214
 3807SOL    HW123054   3.334   1.230   1.199  3.2873  1.9355  0.5256
 3807SOL    HW223055   3.341   1.092   1.129 -0.1065 -0.1685  1.3176
 3808SOL     OW23056   4.493   1.736   2.084 -0.1832  0.2676  0.1808
 3808SOL    HW123057   4.442   1.800   2.034 -0.3573  0.2467  0.3351
 3808SOL    HW223058   4.579   1.772   2.061  0.3439 -1.0574  0.0879
 3809SOL     OW23059   3.604   0.899  10.934 -0.2538  0.3429 -0.2859
 3809SOL    HW123060   3.599   0.893  10.839  1.8720 -0.8998 -0.3180
 3809SOL    HW223061   3.532   0.840  10.955  0.2468 -0.4140 -0.6949
 3810SOL     OW23062   2.533   4.703   6.096  0.0798 -0.3839 -0.1475
 3810SOL    HW123063   2.514   0.005   6.182 -2.4061  1.1543 -1.3898
 3810SOL    HW223064   2.474   0.014   6.038 -0.7370 -0.6471  0.4687
 3811SOL     OW23065   3.103   1.783  13.458  0.3292  0.0317  0.2716
 3811SOL    HW123066   3.121   1.694  13.428 -2.8096 -0.0515 -1.3635
 3811SOL    HW223067   3.087   1.830  13.377  0.0585  1.5432  1.2002
 3812SOL     OW23068   4.319   0.559   8.162  0.5025 -0.0151  0.1340
 3812SOL    HW123069   4.406   0.525   8.179  1.1641  1.0144 -1.1766
 3812SOL    HW223070   4.315   0.645   8.203  0.9310 -0.2128  0.5874
 3813SOL     OW23071   3.146   0.790   2.021 -0.5531  0.5214  0.6064
 3813SOL    HW123072   3.158   0.884   2.025 -1.1957  0.6641 -0.7938
 3813SOL    HW223073   3.227   0.762   2.064 -1.4191 -1.8942  0.6958
 3814SOL     OW23074   4.240   2.849  12.892  0.5088 -0.3732  0.0040
 3814SOL    HW123075   4.189   2.855  12.811 -0.4035 -3.0205  0.3686
 3814SOL    HW223076   4.254   2.756  12.911  1.8713 -0.4775 -1.4426
 3815SOL     OW23077   2.012   0.615   7.261 -0.2043  0.6275 -0.5472
 3815SOL    HW123078   1.933   0.666   7.280 -0.1843  0.8377 -1.0188
 3815SOL    HW223079   2.067   0.680   7.218  3.4471 -0.5228  2.3036
 3816SOL     OW23080   1.675   0.223   1.430 -0.1850  0.5539 -0.1896
 3816SOL    HW123081   1.712   0.202   1.516  0.0168  0.7021 -0.2404
 3816SOL    HW223082   1.617   0.297   1.442 -0.1249  0.5139  0.3655
 3817SOL     OW23083   3.689   4.279  14.780 -0.0724 -0.5489 -1.2011
 3817SOL    HW123084   3.686   4.287  14.875  1.8038 -0.5256 -1.1484
 3817SOL    HW223085   3.754   4.208  14.776  0.9378  0.3106  0.3886
 3818SOL     OW23086   0.664   3.718   2.450 -0.1599  0.0000  0.4526
 3818SOL    HW123087   0.618   3.708   2.366  0.5127 -0.2693  0.1140
 3818SOL    HW223088   0.717   3.798   2.451  2.1310 -1.5569  3.2596
 3819SOL     OW23089   2.694   1.746   1.820 -0.1803 -0.5139  0.3466
 3819SOL    HW123090   2.760   1.678   1.832 -0.0437 -0.2758  0.9445
 3819SOL    HW223091   2.607   1.712   1.842 -0.0083 -1.2110 -0.0550
 3820SOL     OW23092   3.970   2.765   1.564  0.0878  0.1012  0.9124
 3820SOL    HW123093   3.933   2.703   1.626  0.9010  0.4611  1.7593
 3820SOL    HW223094   3.909   2.755   1.491  0.8054 -2.7950  0.6776
 3821SOL     OW23095   4.705   3.038   6.281 -0.1305 -0.3031  0.5762
 3821SOL    HW123096   4.667   3.027   6.194  1.2802 -0.3258 -0.0353
 3821SOL    HW223097   0.060   3.028   6.252 -0.4605 -0.5096 -0.3928
 3822SOL     OW23098   2.885   0.867   7.391 -0.1393 -0.2788 -0.0956
 3822SOL    HW123099   2.830   0.809   7.444 -0.7512 -0.0284 -0.4600
 3822SOL    HW223100   2.953   0.893   7.453  1.0454 -2.2012 -0.5643
 3823SOL     OW23101   0.849   4.724   4.922  0.4200  0.3751  0.1757
 3823SOL    HW123102   0.773   0.036   4.953  0.2980  0.0374  0.4041
 3823SOL    HW223103   0.817   4.704   4.833  0.1689 -0.5869  0.4777
 3824SOL     OW23104   2.636   4.024   6.840 -0.3721  0.4608  0.1963
 3824SOL    HW123105   2.644   3.932   6.866 -3.9944  0.3105  0.7404
 3824SOL    HW223106   2.728   4.051   6.844 -1.5152  4.1244  1.7611
 3825SOL     OW23107   2.828   0.651   1.749 -0.1911  0.4708  0.3355
 3825SOL    HW123108   2.920   0.674   1.744  0.5464 -2.2740  1.0137
 3825SOL    HW223109   2.792   0.696   1.672  0.7749  1.0625  0.2400
 3826SOL     OW23110   1.731   2.918   8.289  0.3190 -0.5533  0.2564
 3826SOL    HW123111   1.811   2.937   8.240  0.4729  2.0998  1.5734
 3826SOL    HW223112   1.761   2.900   8.378  0.1950 -0.0105  0.4091
 3827SOL     OW23113   2.306   3.556  15.480  0.0581 -0.3285 -0.2167
 3827SOL    HW123114   2.352   3.526  15.558  2.3619  0.0973 -1.4188
 3827SOL    HW223115   2.383   3.566  15.424  1.1186 -0.4514  1.2197
 3828SOL     OW23116   4.241   3.969  14.481 -0.0944 -0.3120  0.1277
 3828SOL    HW123117   4.209   4.057  14.459 -1.2072 -1.4376 -2.6497
 3828SOL    HW223118   4.162   3.922  14.507  0.7262 -1.5419  0.3899
 3829SOL     OW23119   3.558   2.398   6.987  0.3457 -0.1742 -0.0886
 3829SOL    HW123120   3.549   2.341   7.063  0.9872 -2.2253 -1.5584
 3829SOL    HW223121   3.514   2.481   7.006  1.8997  0.7773 -0.6032
 3830SOL     OW23122   0.814   2.507   4.610  0.1894  0.4315 -0.2826
 3830SOL    HW123123   0.878   2.511   4.539  1.1581 -3.7709  0.3062
 3830SOL    HW223124   0.728   2.515   4.569 -1.0384  0.2690  2.2640
 3831SOL     OW23125   2.831   1.875   9.325 -0.0104  0.3844  0.3372
 3831SOL    HW123126   2.897   1.900   9.389 -1.3774 -0.9565  2.2921
 3831SOL    HW223127   2.879   1.826   9.259  1.6389  1.5550  0.6774
 3832SOL     OW23128   1.894   2.313   8.609  0.4264  0.2014 -0.3020
 3832SOL    HW123129   1.988   2.293   8.605 -0.0005 -1.7157 -0.7715
 3832SOL    HW223130   1.865   2.257   8.537 -0.2388  1.1444 -0.7630
 3833SOL     OW23131   2.844   2.356   1.997  0.2495  0.3567  0.4067
 3833SOL    HW123132   2.897   2.426   1.959 -1.0838  1.2961  0.2606
 3833SOL    HW223133   2.855   2.278   1.942  0.1235  1.4974 -1.2539
 3834SOL     OW23134   3.900   4.351   8.030 -0.2937 -0.4128 -0.4311
 3834SOL    HW123135   3.952   4.285   8.076  1.1386  0.0474 -1.4019
 3834SOL    HW223136   3.852   4.295   7.969 -2.0173  0.6891 -0.0881
 3835SOL     OW23137   2.020   3.494  15.465 -0.0801 -0.0391  0.1450
 3835SOL    HW123138   2.033   3.588  15.455  1.8371 -0.2495  0.5847
 3835SOL    HW223139   2.114   3.473  15.468 -0.2848 -1.1922 -1.6734
 3836SOL     OW23140   4.400   3.714  16.098  0.4539 -0.5904  0.1345
 3836SOL    HW123141   4.477   3.658  16.107  1.1750  0.4951  0.6939
 3836SOL    HW223142   4.346   3.672  16.032 -0.4618 -0.1726  0.6147
 3837SOL     OW23143   2.675   2.620   2.398 -0.0757  0.1694 -1.0352
 3837SOL    HW123144   2.594   2.646   2.353  1.3457  2.0838 -2.4718
 3837SOL    HW223145   2.693   2.704   2.441 -0.0900  0.2895 -1.2654
 3838SOL     OW23146   0.608   1.388   6.903  0.4572 -0.0504 -0.2517
 3838SOL    HW123147   0.684   1.330   6.900  2.1180  2.0923  1.0964
 3838SOL    HW223148   0.549   1.342   6.843 -1.1132  1.4298  0.1619
 3839SOL     OW23149   2.797   1.412  10.731 -0.4995 -0.1065 -0.2483
 3839SOL    HW123150   2.744   1.485  10.701  0.2590  0.8401  0.7582
 3839SOL    HW223151   2.724   1.369  10.776 -0.1860 -0.6888 -0.2836
 3840SOL     OW23152   3.639   4.569   2.893  0.1379  0.1531  0.2013
 3840SOL    HW123153   3.667   4.591   2.981 -0.7977 -0.8131  0.7414
 3840SOL    HW223154   3.628   4.654   2.849  1.4501 -0.0630 -0.5387
 3841SOL     OW23155   1.029   4.203   3.048 -0.0294  0.0709  0.1046
 3841SOL    HW123156   1.076   4.134   3.001  1.6667  1.6645 -0.5688
 3841SOL    HW223157   0.959   4.215   2.984  0.3969 -0.2629 -0.4198
 3842SOL     OW23158   0.798   4.538  12.469  0.1828 -0.4775  0.4361
 3842SOL    HW123159   0.863   4.532  12.400 -0.8670  0.0930 -0.6008
 3842SOL    HW223160   0.827   4.476  12.535 -2.0481  0.4548  2.3197
 3843SOL     OW23161   4.383   0.688   5.650 -0.3180 -0.0772  0.2949
 3843SOL    HW123162   4.426   0.657   5.730  0.5787 -0.3901 -0.3096
 3843SOL    HW223163   4.379   0.607   5.599 -2.9869 -0.4228  1.0671
 3844SOL     OW23164   0.501   2.852   2.224 -0.4986  0.1445  0.3474
 3844SOL    HW123165   0.440   2.910   2.179 -0.1950 -0.0158 -0.2833
 3844SOL    HW223166   0.573   2.910   2.248 -1.6484  1.7379 -0.0453
 3845SOL     OW23167   0.025   0.665  14.535 -0.0458  0.2819 -0.5329
 3845SOL    HW123168   4.709   0.676  14.614  0.5507  0.3510 -0.1548
 3845SOL    HW223169   0.031   0.571  14.515  2.4709  0.9816 -2.9848
 3846SOL     OW23170   1.592   2.569   6.767  0.0608  0.1254 -0.2524
 3846SOL    HW123171   1.687   2.557   6.760  0.0121  0.1613 -1.0219
 3846SOL    HW223172   1.571   2.622   6.690  0.8423  0.4465 -0.2527
 3847SOL     OW23173   3.849   3.756   7.901  0.3805  0.6824  0.0778
 3847SOL    HW123174   3.903   3.731   7.975 -0.2555 -0.6766  0.0825
 3847SOL    HW223175   3.867   3.849   7.883  0.0715  0.6805 -0.2483
 3848SOL     OW23176   3.967   4.207   3.343  1.3333 -0.1238  0.2486
 3848SOL    HW123177   3.948   4.252   3.261 -2.3112  0.3488  1.3655
 3848SOL    HW223178   4.062   4.218   3.336  0.9800  2.4790 -0.4488
 3849SOL     OW23179   3.446   3.355   3.415  0.3455  0.2323  0.5474
 3849SOL    HW123180   3.466   3.415   3.344  2.3355 -1.7143 -0.5419
 3849SOL    HW223181   3.360   3.383   3.446  0.7661  0.5541  1.4012
 3850SOL     OW23182   3.911   1.607   2.009  0.2471  0.0345  0.0467
 3850SOL    HW123183   3.847   1.592   1.939 -0.1633 -1.0641  0.6584
 3850SOL    HW223184   3.964   1.527   2.010  1.0165  0.5215 -1.2275
 3851SOL     OW23185   2.541   4.518  15.246 -0.5010  0.3036 -0.4656
 3851SOL    HW123186   2.583   4.546  15.328 -1.4317  1.3365 -0.3306
 3851SOL    HW223187   2.451   4.544  15.268 -0.3494 -0.2149  0.7821
 3852SOL     OW23188   2.703   2.911  11.963 -0.1057 -0.0481  0.2803
 3852SOL    HW123189   2.709   2.959  12.046 -2.3619  0.4532  0.1591
 3852SOL    HW223190   2.683   2.988  11.911  1.8726  1.6423  2.0113
 3853SOL     OW23191   2.001   2.976  13.869 -0.7710 -0.1745  0.4541
 3853SOL    HW123192   2.019   2.888  13.901  0.3523  0.8757  2.7457
 3853SOL    HW223193   2.083   3.024  13.861 -1.9618  1.5070 -1.8410
 3854SOL     OW23194   2.476   4.576   1.282 -0.3367  0.0280  0.7705
 3854SOL    HW123195   2.390   4.558   1.245  1.3328 -1.5377 -2.3314
 3854SOL    HW223196   2.477   4.580   1.378 -0.3283 -0.1502  0.7776
 3855SOL     OW23197   3.375   2.861  12.778  0.1543 -0.0594 -0.7009
 3855SOL    HW123198   3.338   2.920  12.844 -0.3396 -1.5212  0.3394
 3855SOL    HW223199   3.469   2.879  12.780  0.0481  0.5456 -1.1134
 3856SOL     OW23200   2.539   2.438   1.316 -0.2114 -0.0323 -0.2944
 3856SOL    HW123201   2.596   2.442   1.393 -1.2519  0.4732  0.4521
 3856SOL    HW223202   2.603   2.409   1.251  0.3866  0.5365  0.0374
 3857SOL     OW23203   4.374   4.642  10.115 -0.2549 -0.6110  0.1523
 3857SOL    HW123204   4.364   4.569  10.175  1.2729  1.3021  2.7440
 3857SOL    HW223205   4.454   4.621  10.067  0.3371  0.5786  0.6122
 3858SOL     OW23206   4.516   2.885   4.028  0.2956  0.9223  0.5247
 3858SOL    HW123207   4.493   2.969   3.988 -2.3915 -0.2861 -0.4500
 3858SOL    HW223208   4.432   2.855   4.064  1.1667  0.7912  2.4152
 3859SOL     OW23209   4.556   0.293   5.725 -0.0672 -0.0038  0.4216
 3859SOL    HW123210   4.626   0.272   5.787  0.1968 -0.9584 -0.1867
 3859SOL    HW223211   4.516   0.208   5.703  1.4446 -0.3809 -0.8338
 3860SOL     OW23212   1.247   3.389   9.964 -0.2528 -0.3285 -0.0774
 3860SOL    HW123213   1.181   3.320   9.959  1.1288 -1.6910  0.4362
 3860SOL    HW223214   1.298   3.354  10.037 -1.5419  1.4214  1.6559
 3861SOL     OW23215   4.280   1.740  11.957  0.4749  0.4031  0.7156
 3861SOL    HW123216   4.361   1.789  11.942 -0.1657  0.8493 -1.3665
 3861SOL    HW223217   4.220   1.808  11.988 -0.3418 -0.5212  1.1505
 3862SOL     OW23218   3.778   4.037   6.570  0.1457  0.0522  0.0033
 3862SOL    HW123219   3.794   4.123   6.531 -2.5010  0.0814 -1.0143
 3862SOL    HW223220   3.688   4.054   6.599  0.5581  2.4910 -0.1234
 3863SOL     OW23221   2.349   4.004   0.595 -0.0778 -0.1709  0.1016
 3863SOL    HW123222   2.261   4.037   0.580  0.1528  0.9648  1.1678
 3863SOL    HW223223   2.402   4.053   0.532 -1.0045  0.6988  0.0127
 3864SOL     OW23224   0.170   3.283  15.959 -0.0289 -0.0034 -0.2285
 3864SOL    HW123225   0.129   3.369  15.955  1.5401  0.6934 -1.5201
 3864SOL    HW223226   0.225   3.297  16.036 -0.3772 -1.2164  0.2376
 3865SOL     OW23227   3.764   0.263  17.728  0.1956  0.4564  0.4966
 3865SOL    HW123228   3.681   0.310  17.722  1.0654  2.0804  1.2374
 3865SOL    HW223229   3.831   0.313  17.680  0.3507 -0.1892  0.0317
 3866SOL     OW23230   1.928   4.555   5.644  0.3273 -0.2799 -0.5213
 3866SOL    HW123231   1.850   4.565   5.589 -0.9062 -2.0345  0.9112
 3866SOL    HW223232   1.924   4.633   5.699 -2.5001 -0.2776 -0.7179
 3867SOL     OW23233   3.154   1.900   4.269 -0.0076 -0.4272  0.3026
 3867SOL    HW123234   3.107   1.978   4.298  1.4774  0.0879  1.3184
 3867SOL    HW223235   3.091   1.831   4.245  0.1822 -0.3126 -0.5233
 3868SOL     OW23236   2.033   3.699  15.183 -0.0738  0.6485 -0.5377
 3868SOL    HW123237   2.062   3.720  15.272 -1.1703  0.0724 -0.0523
 3868SOL    HW223238   2.099   3.732  15.121  1.2753  2.3793  1.8053
 3869SOL     OW23239   4.322   3.911   5.278 -0.0688 -0.0255 -0.1202
 3869SOL    HW123240   4.284   3.997   5.258  0.8562  0.0237 -1.6128
 3869SOL    HW223241   4.415   3.933   5.283 -0.6250  2.6051 -1.0742
 3870SOL     OW23242   3.458   0.476   5.173  0.0319 -0.0219  0.1171
 3870SOL    HW123243   3.456   0.553   5.117 -1.2248  1.0888  1.6487
 3870SOL    HW223244   3.364   0.469   5.191  0.2212  1.1734  1.5369
 3871SOL     OW23245   0.778   1.008   0.711  0.1589 -0.3056  0.6867
 3871SOL    HW123246   0.705   1.023   0.650  1.3500  0.3835 -0.5489
 3871SOL    HW223247   0.767   0.913   0.709 -1.2686 -0.1675  1.9548
 3872SOL     OW23248   3.410   2.773   1.027 -0.0171 -0.3909  0.2942
 3872SOL    HW123249   3.417   2.742   0.937 -2.7510  1.0422 -0.3903
 3872SOL    HW223250   3.339   2.835   1.014 -1.2500 -2.2075 -1.6707
 3873SOL     OW23251   3.240   2.564   8.474  0.0855  0.0673  0.0166
 3873SOL    HW123252   3.173   2.598   8.534  0.2956  0.6945 -0.0968
 3873SOL    HW223253   3.237   2.469   8.485  0.9429 -0.1083 -1.3372
 3874SOL     OW23254   2.852   2.663  14.675 -0.1188  0.0871 -0.0310
 3874SOL    HW123255   2.806   2.579  14.676 -1.7387  1.0130  2.7944
 3874SOL    HW223256   2.859   2.689  14.583 -0.9556  1.7202  0.3698
 3875SOL     OW23257   2.645   3.036   3.236  0.0005 -0.0939  0.2270
 3875SOL    HW123258   2.672   2.984   3.311  1.9557  1.8641  0.8933
 3875SOL    HW223259   2.691   3.114   3.269 -0.2325  0.8332 -1.6351
 3876SOL     OW23260   2.435   4.470   5.432  0.2559 -0.2194 -0.3005
 3876SOL    HW123261   2.369   4.492   5.498 -1.0184 -0.1629 -1.6003
 3876SOL    HW223262   2.492   4.413   5.483 -2.5295 -0.3016  2.7308
 3877SOL     OW23263   4.482   0.256  14.154  0.5064 -0.4478  0.3640
 3877SOL    HW123264   4.555   0.213  14.109  0.7246  2.0694 -1.6851
 3877SOL    HW223265   4.420   0.256  14.081 -0.2816  0.4110  1.0433
 3878SOL     OW23266   1.475   2.376  15.356 -0.3582 -0.4170 -0.2782
 3878SOL    HW123267   1.401   2.391  15.415  1.0343 -0.6791  1.5251
 3878SOL    HW223268   1.543   2.393  15.421 -1.7929  0.8109  0.9076
 3879SOL     OW23269   1.595   1.174   7.110  0.4635 -0.0010 -0.8667
 3879SOL    HW123270   1.526   1.115   7.078  0.7325 -0.0091 -1.4470
 3879SOL    HW223271   1.658   1.176   7.037  0.7106 -1.8198 -0.7188
 3880SOL     OW23272   2.023   4.588   1.745  0.3883  0.0394  0.0720
 3880SOL    HW123273   1.936   4.556   1.720  0.8251 -2.3204  1.5941
 3880SOL    HW223274   2.028   4.654   1.675  0.4617 -0.5492 -0.4831
 3881SOL     OW23275   1.688   1.520   5.669  0.1362  0.1126  0.0416
 3881SOL    HW123276   1.701   1.604   5.625  0.1961  0.8618  1.4653
 3881SOL    HW223277   1.613   1.485   5.621 -0.7042  0.5495  1.0356
 3882SOL     OW23278   3.871   3.936   2.854 -0.4102  0.1930 -0.7569
 3882SOL    HW123279   3.902   3.916   2.942 -2.5127 -0.7586 -0.2383
 3882SOL    HW223280   3.942   3.909   2.795  0.4580 -1.5696  1.1064
 3883SOL     OW23281   4.644   2.250   1.280 -0.8157 -0.2160 -0.4115
 3883SOL    HW123282   4.723   2.232   1.229 -0.5722 -1.5140  0.4423
 3883SOL    HW223283   4.669   2.248   1.373 -2.2429 -0.7478 -0.0466
 3884SOL     OW23284   3.754   1.683   5.049  0.0109  0.1109 -0.2188
 3884SOL    HW123285   3.777   1.754   4.988 -1.6125 -1.5465 -2.7528
 3884SOL    HW223286   3.834   1.673   5.099 -2.1897 -2.3273  2.7771
 3885SOL     OW23287   0.350   2.132   7.985  0.1630  0.0421  0.1409
 3885SOL    HW123288   0.258   2.131   7.961 -0.1256 -1.0747  1.3500
 3885SOL    HW223289   0.389   2.054   7.945 -1.0705 -0.5396  0.0936
 3886SOL     OW23290   2.058   2.911   3.179 -0.3765  0.4223 -0.1527
 3886SOL    HW123291   2.047   2.816   3.177 -0.7528  0.4519  0.6641
 3886SOL    HW223292   2.153   2.911   3.166 -0.6450 -1.2291 -2.0342
 3887SOL     OW23293   1.964   0.203   5.079 -0.2889  0.1118  0.5087
 3887SOL    HW123294   1.888   0.172   5.031  1.6413 -2.3963 -0.9395
 3887SOL    HW223295   1.977   0.284   5.030 -0.3211 -0.0209  0.2793
 3888SOL     OW23296   0.924   0.809  14.622  0.1676 -0.0164  0.0480
 3888SOL    HW123297   0.940   0.863  14.545 -0.1851 -2.4814 -1.7915
 3888SOL    HW223298   0.980   0.733  14.607 -0.4704 -0.6522  0.8525
 3889SOL     OW23299   1.751   2.417   1.361 -0.3781 -0.3509 -0.3000
 3889SOL    HW123300   1.839   2.384   1.379  0.1042  0.1798 -1.7458
 3889SOL    HW223301   1.702   2.336   1.375 -0.4393 -0.3982 -0.7978
 3890SOL     OW23302   2.667   1.362  11.877  0.1621 -0.3695 -0.3481
 3890SOL    HW123303   2.617   1.392  11.801 -2.2481 -0.0877  1.3451
 3890SOL    HW223304   2.721   1.437  11.900 -0.2933 -0.2529  0.3351
 3891SOL     OW23305   4.697   2.616   9.726  0.3432 -0.1123  0.3621
 3891SOL    HW123306   4.706   2.679   9.655 -2.5984 -0.6357 -0.4402
 3891SOL    HW223307   4.668   2.674   9.796  0.3626  0.6055 -0.2248
 3892SOL     OW23308   0.677   1.326  16.813  0.0974  0.3408  0.1776
 3892SOL    HW123309   0.723   1.268  16.752 -0.4765 -0.3226  0.3699
 3892SOL    HW223310   0.723   1.307  16.895  1.5328 -3.0889 -1.4604
 3893SOL     OW23311   3.770   4.239  17.120  0.3470 -0.1273 -0.1274
 3893SOL    HW123312   3.756   4.250  17.026 -1.1008  2.0504  0.3508
 3893SOL    HW223313   3.805   4.323  17.148  0.3225  0.1597 -0.9430
 3894SOL     OW23314   0.502   4.178   4.653 -0.3288  0.3116 -0.8539
 3894SOL    HW123315   0.462   4.178   4.740  1.9698  1.5926  0.1911
 3894SOL    HW223316   0.479   4.091   4.620 -1.7068  0.6601 -0.8403
 3895SOL     OW23317   3.035   2.141   6.246  0.1524 -0.3973 -0.7817
 3895SOL    HW123318   3.102   2.077   6.224  1.5749 -0.0175  2.4103
 3895SOL    HW223319   2.981   2.124   6.169 -1.8750 -1.1276  0.7814
 3896SOL     OW23320   2.495   1.234   3.773 -0.5156  0.4557  0.3372
 3896SOL    HW123321   2.402   1.254   3.781 -0.6336  0.4919 -1.1820
 3896SOL    HW223322   2.508   1.152   3.821 -1.7526  1.7962  2.9286
 3897SOL     OW23323   0.806   1.229  12.247 -0.1307  0.4891  0.5128
 3897SOL    HW123324   0.759   1.305  12.210  0.2101  0.3751 -0.1541
 3897SOL    HW223325   0.893   1.249  12.212 -0.4259  1.2362  0.1987
 3898SOL     OW23326   3.959   2.422   4.862 -0.0732 -0.3987 -0.1930
 3898SOL    HW123327   3.945   2.395   4.772  0.1927 -1.6511  0.1475
 3898SOL    HW223328   3.958   2.339   4.909 -0.0463 -0.3831 -0.1641
 3899SOL     OW23329   3.040   4.108   9.673 -0.8998 -0.2310  0.5045
 3899SOL    HW123330   3.133   4.127   9.686 -1.0953  0.7497  0.4367
 3899SOL    HW223331   3.040   4.013   9.661  0.4691 -0.3536  1.4857
 3900SOL     OW23332   1.719   3.247   8.234  0.4888  0.1459 -0.3377
 3900SOL    HW123333   1.777   3.282   8.302 -0.2275  1.3558 -0.3488
 3900SOL    HW223334   1.735   3.310   8.164 -0.0938 -1.0382 -1.5308
 3901SOL     OW23335   0.979   3.995   3.671  0.5390  0.0949  0.2319
 3901SOL    HW123336   1.001   3.915   3.623  3.2125  0.5239  0.7555
 3901SOL    HW223337   0.918   3.955   3.733  1.2274 -2.6473 -0.8621
 3902SOL     OW23338   1.869   4.505   9.743  0.0816 -0.1602 -0.1190
 3902SOL    HW123339   1.926   4.455   9.802 -0.9420 -1.3572 -0.1720
 3902SOL    HW223340   1.895   4.596   9.760 -1.8605  0.1976  0.9837
 3903SOL     OW23341   4.670   1.279  10.096 -0.0360  0.0523 -0.4520
 3903SOL    HW123342   0.013   1.226  10.099 -0.4858 -0.6705 -1.0876
 3903SOL    HW223343   4.706   1.344  10.036 -2.2709  0.4524 -1.3770
 3904SOL     OW23344   3.871   3.522   4.433 -0.6650  0.1382 -0.5191
 3904SOL    HW123345   3.887   3.432   4.460 -2.6278  0.4261  1.6663
 3904SOL    HW223346   3.785   3.512   4.391 -0.5715  0.5360 -0.8135
 3905SOL     OW23347   1.693   1.526   7.993  0.5502 -0.4147 -0.1349
 3905SOL    HW123348   1.737   1.551   8.074  2.2666  0.8764 -1.4643
 3905SOL    HW223349   1.624   1.473   8.033  0.3131 -0.1225 -0.1565
 3906SOL     OW23350   1.188   0.341   6.289  0.0747  0.2768  0.3937
 3906SOL    HW123351   1.232   0.294   6.218  0.2227  2.2711 -0.8411
 3906SOL    HW223352   1.225   0.428   6.285 -0.7384  0.5587 -1.1600
 3907SOL     OW23353   4.298   1.961   7.662 -0.8472 -0.4665  0.4533
 3907SOL    HW123354   4.267   1.946   7.752  0.2581  0.4129  0.9921
 3907SOL    HW223355   4.218   1.945   7.612  0.3741  1.4976 -2.1071
 3908SOL     OW23356   3.280   3.205   9.513  0.0054 -0.5455 -0.0415
 3908SOL    HW123357   3.258   3.171   9.427 -0.3929 -0.8369  0.1723
 3908SOL    HW223358   3.205   3.178   9.567  0.8487  2.6199  2.7150
 3909SOL     OW23359   2.528   2.856   7.850 -0.0566 -0.7380  0.7773
 3909SOL    HW123360   2.460   2.922   7.833  0.1927 -0.6141  0.2361
 3909SOL    HW223361   2.541   2.832   7.758  0.5175  3.1472 -0.1705
 3910SOL     OW23362   4.400   2.716  17.067 -0.5387 -0.0841 -0.3225
 3910SOL    HW123363   4.368   2.676  16.986  1.9757 -0.4449 -1.1342
 3910SOL    HW223364   4.385   2.806  17.039 -1.0674 -0.5325 -1.4830
 3911SOL     OW23365   0.184   1.882   8.443  0.2829  0.2052 -0.0011
 3911SOL    HW123366   0.240   1.953   8.475  1.0362 -0.1392 -0.5330
 3911SOL    HW223367   0.095   1.904   8.467 -0.0216  0.5095 -1.3764
 3912SOL     OW23368   2.547   2.006   5.307 -0.4626  0.1025 -0.4058
 3912SOL    HW123369   2.606   1.931   5.309  2.0904  2.1489  1.0304
 3912SOL    HW223370   2.530   2.020   5.400 -0.2101 -1.8608 -0.0746
 3913SOL     OW23371   3.390   1.468   4.289 -0.3055 -0.1820  0.0162
 3913SOL    HW123372   3.381   1.544   4.346 -2.5059 -1.0075  0.7941
 3913SOL    HW223373   3.357   1.510   4.209  1.3957 -0.8573 -1.0514
 3914SOL     OW23374   1.058   2.627   0.117  0.2604 -0.1953 -0.7084
 3914SOL    HW123375   0.994   2.677   0.067  1.9171  1.3103 -1.3154
 3914SOL    HW223376   1.015   2.623   0.203  1.3626 -0.4341 -0.1645
 3915SOL     OW23377   2.744   0.476  12.685 -0.4574 -0.4024  0.1320
 3915SOL    HW123378   2.753   0.488  12.779 -1.5735  0.8645  0.0692
 3915SOL    HW223379   2.659   0.431  12.681 -1.4499  1.4742  0.3264
 3916SOL     OW23380   2.477   0.501   6.143  0.1825  0.2026  0.3568
 3916SOL    HW123381   2.391   0.541   6.154  0.7271  1.5866 -0.2884
 3916SOL    HW223382   2.448   0.421   6.099  1.5223  0.1396 -0.4261
 3917SOL     OW23383   1.256   2.381   0.878  0.2780 -0.9929  0.9044
 3917SOL    HW123384   1.237   2.456   0.934  4.0619  1.2360 -0.7821
 3917SOL    HW223385   1.189   2.321   0.909 -2.8079  1.9301 -0.1070
 3918SOL     OW23386   4.505   1.762   4.506  0.3581 -0.3101 -0.6721
 3918SOL    HW123387   4.433   1.701   4.489 -2.1630  1.3811  4.3119
 3918SOL    HW223388   4.546   1.748   4.420  0.6095  0.3705 -0.6618
 3919SOL     OW23389   4.058   0.594   5.948  0.0201 -0.6972  0.2037
 3919SOL    HW123390   4.006   0.654   5.894 -1.2829 -2.1920 -0.1981
 3919SOL    HW223391   4.081   0.656   6.017 -1.4501 -2.9632  2.7001
 3920SOL     OW23392   3.626   3.813   3.858 -0.0828 -0.2010  0.3841
 3920SOL    HW123393   3.682   3.850   3.927 -0.4330 -0.2396  0.6868
 3920SOL    HW223394   3.651   3.868   3.784 -1.4638 -0.8347 -0.5464
 3921SOL     OW23395   2.191   4.377   7.545 -0.4292 -0.0118 -0.5098
 3921SOL    HW123396   2.225   4.378   7.635 -1.0376 -4.3475 -0.2067
 3921SOL    HW223397   2.255   4.430   7.498 -0.4705  1.3177  0.9454
 3922SOL     OW23398   3.611   4.529   1.447  0.1353 -0.2436  0.2045
 3922SOL    HW123399   3.523   4.566   1.435 -0.6205 -1.7346  1.1248
 3922SOL    HW223400   3.625   4.485   1.363  0.6876 -0.5536  0.4610
 3923SOL     OW23401   1.170   4.016  12.360 -0.1423 -0.3373 -0.4841
 3923SOL    HW123402   1.204   3.978  12.279 -0.8398 -1.3814 -0.2933
 3923SOL    HW223403   1.092   4.054  12.319 -1.2171 -0.4819  1.4007
 3924SOL     OW23404   4.584   1.202   7.689  0.0417  0.3948  0.2836
 3924SOL    HW123405   4.491   1.177   7.688  0.0464  0.3487  1.0856
 3924SOL    HW223406   4.613   1.180   7.601 -1.2867  0.6993 -0.2241
 3925SOL     OW23407   3.400   0.484   7.266  0.1281  0.1598 -0.0280
 3925SOL    HW123408   3.358   0.568   7.286 -3.0199 -1.1932 -0.8264
 3925SOL    HW223409   3.448   0.512   7.188 -0.7860  0.3212 -0.5301
 3926SOL     OW23410   3.910   4.730   4.483 -0.3029 -0.2865 -0.5026
 3926SOL    HW123411   3.880   0.076   4.445  1.3605  0.9521  0.8646
 3926SOL    HW223412   4.005   0.003   4.478 -0.2654 -0.6943 -0.5659
 3927SOL     OW23413   1.260   0.974  16.228 -0.0079 -0.4022 -0.3082
 3927SOL    HW123414   1.208   1.016  16.160  0.1092 -0.1346 -0.2308
 3927SOL    HW223415   1.200   0.902  16.250  1.1512 -0.9933  0.9163
 3928SOL     OW23416   1.355   3.133   7.586 -0.0938 -0.3504 -0.1266
 3928SOL    HW123417   1.385   3.221   7.563  0.7430 -0.3570  0.9813
 3928SOL    HW223418   1.400   3.126   7.670  1.1139  0.0007 -0.7448
 3929SOL     OW23419   4.643   0.837   2.663 -0.1659  0.2926  0.4883
 3929SOL    HW123420   4.629   0.900   2.593 -0.6551  1.2130  1.4146
 3929SOL    HW223421   4.632   0.767   2.599 -0.4816  0.1105  0.7452
 3930SOL     OW23422   3.061   0.584   8.841 -0.4400 -0.0599  0.1079
 3930SOL    HW123423   2.981   0.543   8.808  0.2958  0.6817 -2.5588
 3930SOL    HW223424   3.109   0.589   8.759 -0.7128 -2.0952 -0.1558
 3931SOL     OW23425   2.722   3.640  16.888 -0.1041 -0.6712  0.5562
 3931SOL    HW123426   2.748   3.691  16.964  0.4556  1.0700 -0.8110
 3931SOL    HW223427   2.729   3.551  16.923  0.1379 -1.3925 -1.2979
 3932SOL     OW23428   2.879   2.952   7.910  1.0368 -0.4670  0.5704
 3932SOL    HW123429   2.969   2.982   7.895  0.8347  0.3482  1.0013
 3932SOL    HW223430   2.885   2.913   7.998 -0.4301 -0.3782  0.7127
 3933SOL     OW23431   1.762   1.221  12.345  0.2139 -0.7640 -0.5243
 3933SOL    HW123432   1.814   1.256  12.418  1.6760 -0.0368 -1.9021
 3933SOL    HW223433   1.814   1.141  12.339  0.2845 -0.8154  0.9740
 3934SOL     OW23434   3.925   3.837   5.723  0.4317 -0.1579 -0.3438
 3934SOL    HW123435   3.845   3.842   5.776  0.7912  1.7769  0.0372
 3934SOL    HW223436   3.946   3.744   5.733  0.1093 -0.1062  0.8979
 3935SOL     OW23437   1.256   1.190   4.831  0.4066  0.3430 -0.1887
 3935SOL    HW123438   1.287   1.195   4.741 -2.7133  1.0708 -1.2189
 3935SOL    HW223439   1.265   1.281   4.861 -1.3170  0.4983 -0.1499
 3936SOL     OW23440   2.477   0.213   9.774  0.8732  0.0944  0.2294
 3936SOL    HW123441   2.567   0.243   9.759  0.9258 -0.9453 -1.4637
 3936SOL    HW223442   2.432   0.285   9.818 -0.4430 -0.1616 -0.7036
 3937SOL     OW23443   3.459   2.117   1.753 -0.0289 -0.2599 -0.3056
 3937SOL    HW123444   3.519   2.179   1.793 -0.1548 -0.6396  0.4663
 3937SOL    HW223445   3.405   2.172   1.696 -0.6798  0.2733  0.8473
 3938SOL     OW23446   0.437   2.227  16.055  0.2009 -0.0482  0.2344
 3938SOL    HW123447   0.354   2.205  16.014 -0.7423 -0.5013  2.4080
 3938SOL    HW223448   0.504   2.173  16.014  2.3086  1.2361  1.9670
 3939SOL     OW23449   1.325   4.015  17.504 -0.0197  0.3567 -0.2002
 3939SOL    HW123450   1.236   4.051  17.509  0.2188  1.3262 -2.4329
 3939SOL    HW223451   1.327   3.936  17.557 -0.9323 -0.3443 -1.2109
 3940SOL     OW23452   0.956   3.037   5.877 -0.4510  0.0740 -0.3650
 3940SOL    HW123453   1.010   3.060   5.953  1.0660 -2.1255 -0.7879
 3940SOL    HW223454   0.986   3.105   5.816  0.5473 -0.4757 -0.4941
 3941SOL     OW23455   2.900   0.433   4.985  0.0704  0.3379 -0.0948
 3941SOL    HW123456   2.945   0.387   4.915  0.4664  2.0052 -0.9478
 3941SOL    HW223457   2.929   0.524   4.972  1.5577 -0.5082 -2.6723
 3942SOL     OW23458   0.439   1.613  13.661 -0.5240  0.0599  0.1181
 3942SOL    HW123459   0.415   1.542  13.720 -0.2654 -0.9893 -1.0155
 3942SOL    HW223460   0.391   1.689  13.693 -0.4319  0.0055  0.3847
 3943SOL     OW23461   3.759   3.518  10.137  0.3462  0.4138  0.1704
 3943SOL    HW123462   3.670   3.518  10.102 -0.1228 -1.5389  1.3804
 3943SOL    HW223463   3.749   3.454  10.207  0.9067 -0.7496 -0.8333
 3944SOL     OW23464   0.577   1.996   4.594  0.3794  0.2354 -0.5230
 3944SOL    HW123465   0.512   2.066   4.589  1.3929  1.2326  0.2240
 3944SOL    HW223466   0.531   1.922   4.632  0.9577  0.7431  1.1976
 3945SOL     OW23467   2.198   1.304   5.512  0.1956 -0.5692  0.5950
 3945SOL    HW123468   2.106   1.296   5.537  0.0434 -0.5395  0.0293
 3945SOL    HW223469   2.231   1.320   5.600  1.1877 -0.9265  0.2898
 3946SOL     OW23470   4.569   1.747   8.974  0.2958  0.5111 -0.4099
 3946SOL    HW123471   4.607   1.810   9.035 -1.0563  1.4446 -0.5534
 3946SOL    HW223472   4.506   1.696   9.026  0.6158  1.1435  0.5905
 3947SOL     OW23473   2.242   4.203   2.409  0.2191  0.6193  0.5281
 3947SOL    HW123474   2.170   4.264   2.422  0.1826  1.0400 -1.6284
 3947SOL    HW223475   2.292   4.241   2.336 -0.1686 -1.6067 -0.9067
 3948SOL     OW23476   0.571   1.550   9.838  0.0106  0.1082 -0.6264
 3948SOL    HW123477   0.651   1.596   9.811 -0.3507  0.2768 -1.4047
 3948SOL    HW223478   0.551   1.597   9.919  1.6662  0.5799 -0.4913
 3949SOL     OW23479   1.727   2.892   5.846 -0.0604  0.1752 -0.0331
 3949SOL    HW123480   1.721   2.819   5.784  0.9161  0.0724 -0.0138
 3949SOL    HW223481   1.821   2.882   5.862  0.6127  0.8376 -3.7076
 3950SOL     OW23482   4.230   1.925   7.061  0.8561 -0.6958  0.2188
 3950SOL    HW123483   4.147   1.964   7.031  2.3624  2.0352 -0.3624
 3950SOL    HW223484   4.251   1.868   6.987  2.5041  1.6500 -1.1331
 3951SOL     OW23485   2.657   4.341   5.068 -0.1562 -0.1123  0.1690
 3951SOL    HW123486   2.676   4.253   5.100  0.8354 -0.2774 -0.8807
 3951SOL    HW223487   2.726   4.390   5.113  0.1225 -0.2673 -0.0921
 3952SOL     OW23488   2.833   2.744   6.241  0.8210 -0.1181  0.4609
 3952SOL    HW123489   2.919   2.702   6.255  0.5219 -0.9733 -0.2888
 3952SOL    HW223490   2.858   2.803   6.170  0.8370  0.7386  1.1775
 3953SOL     OW23491   1.711   2.607   2.649  0.5279  0.3734 -0.0083
 3953SOL    HW123492   1.669   2.554   2.716  2.6015 -1.3281 -0.0669
 3953SOL    HW223493   1.652   2.683   2.650 -0.5178 -0.4129 -1.7956
 3954SOL     OW23494   1.735   1.570   2.215  0.5182  0.5098 -0.5072
 3954SOL    HW123495   1.785   1.623   2.277  0.0371  0.7061 -0.2909
 3954SOL    HW223496   1.650   1.611   2.208 -0.3797 -1.1994  0.3358
 3955SOL     OW23497   2.087   3.971   0.685  0.6017 -0.3793 -0.0766
 3955SOL    HW123498   2.018   3.942   0.625 -0.3404  2.3779 -0.3600
 3955SOL    HW223499   2.104   3.888   0.728  1.1746  0.1814  0.7900
 3956SOL     OW23500   1.132   2.462   4.976 -0.3078 -0.3781  0.7926
 3956SOL    HW123501   1.103   2.407   4.903 -1.6972  0.1695  0.9419
 3956SOL    HW223502   1.102   2.408   5.049  0.9868  0.1562  1.7125
 3957SOL     OW23503   4.506   0.335  16.027 -0.3930  0.0824 -0.1557
 3957SOL    HW123504   4.458   0.355  16.108 -2.1671 -1.6895 -0.7754
 3957SOL    HW223505   4.438   0.316  15.962  1.6934  0.3963 -2.4158
 3958SOL     OW23506   1.109   1.440   8.355 -0.0072 -0.5747 -0.2112
 3958SOL    HW123507   1.154   1.376   8.299  2.5649 -0.5123  1.7953
 3958SOL    HW223508   1.180   1.481   8.405 -1.5253  0.6099  0.9771
 3959SOL     OW23509   3.712   3.696   6.082 -0.2824 -0.0672  0.2898
 3959SOL    HW123510   3.710   3.735   6.169 -1.1195 -1.4622  0.8985
 3959SOL    HW223511   3.719   3.601   6.088  0.6632  0.0349  0.6989
 3960SOL     OW23512   3.703   0.087   2.775 -0.1047 -0.3364 -0.1962
 3960SOL    HW123513   3.746   0.079   2.690  2.0296  1.7777  0.6885
 3960SOL    HW223514   3.699   0.182   2.769 -1.2390 -0.4093 -0.6934
 3961SOL     OW23515   2.585   3.116  14.744  0.1114 -0.3089 -0.4239
 3961SOL    HW123516   2.620   3.134  14.831 -5.4705  2.8093  1.1508
 3961SOL    HW223517   2.510   3.058  14.757  0.6727 -1.5034 -2.5704
 3962SOL     OW23518   3.042   1.528  13.344  0.6722  0.2322  0.1207
 3962SOL    HW123519   3.000   1.504  13.426  1.7402 -0.3358  0.5062
 3962SOL    HW223520   3.103   1.457  13.323 -0.3913 -1.0237  1.2704
 3963SOL     OW23521   2.023   2.765   5.528  0.2853 -0.0773 -0.2741
 3963SOL    HW123522   2.083   2.813   5.585 -0.6530  0.5257  0.1922
 3963SOL    HW223523   2.076   2.691   5.498  2.8625  1.6403 -0.0407
 3964SOL     OW23524   3.243   2.254   8.866 -0.4251 -0.3602  0.7884
 3964SOL    HW123525   3.158   2.272   8.906 -1.2073 -2.7833  0.1896
 3964SOL    HW223526   3.287   2.339   8.863 -0.7634 -0.2650 -1.4377
 3965SOL     OW23527   2.912   2.554  15.810  0.2610  0.4458 -0.5351
 3965SOL    HW123528   2.919   2.467  15.770  2.1013 -0.4126  1.6496
 3965SOL    HW223529   2.816   2.544  15.811  0.3253  0.0784  1.3223
 3966SOL     OW23530   1.042   1.625   8.148 -0.4369  0.2252  0.2777
 3966SOL    HW123531   1.127   1.656   8.116  0.2560 -1.0597  0.9060
 3966SOL    HW223532   1.067   1.577   8.227 -1.4001  2.7487  2.0949
 3967SOL     OW23533   2.581   2.416   2.784 -0.4843 -0.4854 -0.6169
 3967SOL    HW123534   2.530   2.381   2.857  0.4011 -0.8995 -0.1819
 3967SOL    HW223535   2.547   2.505   2.789  0.1801 -0.3116  0.9920
 3968SOL     OW23536   1.246   2.822   3.094 -0.3262  0.1118 -0.2352
 3968SOL    HW123537   1.182   2.883   3.057 -1.5098 -0.4547  0.8719
 3968SOL    HW223538   1.267   2.851   3.183 -0.4220 -0.0212 -0.1677
 3969SOL     OW23539   3.388   3.176   0.993  0.0292  0.0344  0.0561
 3969SOL    HW123540   3.305   3.166   0.945  0.7664  0.8435 -1.4012
 3969SOL    HW223541   3.437   3.108   0.947 -1.0340 -1.1455  0.6628
 3970SOL     OW23542   2.345   4.527   6.924 -0.1777 -0.0274 -0.6599
 3970SOL    HW123543   2.388   4.607   6.896 -0.6798  1.0484  1.6810
 3970SOL    HW223544   2.409   4.457   6.911 -1.2343 -0.5393 -3.0712
 3971SOL     OW23545   3.779   1.542   4.466  0.1155 -0.1516  0.2135
 3971SOL    HW123546   3.854   1.522   4.522  0.6513 -1.3447 -0.9210
 3971SOL    HW223547   3.712   1.493   4.514  1.8568 -1.0344  1.7332
 3972SOL     OW23548   4.502   0.041  13.526 -0.0371 -0.3042 -0.2164
 3972SOL    HW123549   4.584   0.003  13.494  1.0207 -0.5572  2.7952
 3972SOL    HW223550   4.499   0.016  13.619  1.7436 -0.0226 -0.0743
 3973SOL     OW23551   1.742   0.970   4.105 -0.2842  0.3059  0.2182
 3973SOL    HW123552   1.680   1.028   4.060 -0.4545  2.8901  3.8001
 3973SOL    HW223553   1.699   0.949   4.187 -1.0784  0.4802 -0.1516
 3974SOL     OW23554   4.523   3.229   6.396 -0.4315  0.0836 -0.0029
 3974SOL    HW123555   4.580   3.305   6.408  0.3639 -0.7098  1.2653
 3974SOL    HW223556   4.584   3.162   6.365 -0.6024 -0.1319  0.1268
 3975SOL     OW23557   0.474   4.572   9.401  1.1720 -0.0373 -0.3512
 3975SOL    HW123558   0.487   4.576   9.496 -1.9974  3.8993 -0.1139
 3975SOL    HW223559   0.563   4.591   9.371  0.3888  0.3007 -2.4713
 3976SOL     OW23560   1.417   1.393   6.219  0.0947 -0.0670 -0.3364
 3976SOL    HW123561   1.402   1.477   6.262 -0.5124  0.3952 -1.4758
 3976SOL    HW223562   1.497   1.396   6.166  0.1553  0.3056 -0.2223
 3977SOL     OW23563   2.006   1.552   0.189  0.2722  0.5957 -0.4590
 3977SOL    HW123564   1.997   1.462   0.218 -3.3212  1.0626 -0.1532
 3977SOL    HW223565   2.080   1.545   0.129  1.0806  1.3882  0.4390
 3978SOL     OW23566   3.631   4.601   8.539 -0.1131 -0.4117 -0.7917
 3978SOL    HW123567   3.660   4.510   8.547 -3.6068 -1.6112 -1.9113
 3978SOL    HW223568   3.709   4.642   8.501  0.6571 -0.2776  0.9106
 3979SOL     OW23569   3.830   2.555   1.701 -0.1021 -0.2744  0.4697
 3979SOL    HW123570   3.848   2.630   1.759  1.7167 -1.2669  1.1647
 3979SOL    HW223571   3.758   2.520   1.754 -1.1574  1.6915  0.3460
 3980SOL     OW23572   3.865   3.101  12.935  0.1504 -0.9304 -0.7820
 3980SOL    HW123573   3.875   3.178  12.879  1.7252 -0.5599  0.0356
 3980SOL    HW223574   3.941   3.119  12.990 -0.6752  2.1107 -0.6210
 3981SOL     OW23575   0.121   3.304  10.930  0.1282 -0.0470 -0.0460
 3981SOL    HW123576   0.176   3.235  10.966 -0.5480 -0.4281  0.2740
 3981SOL    HW223577   0.055   3.315  10.999 -0.0098  0.6573 -0.2874
 3982SOL     OW23578   2.055   3.941   9.736  0.0894 -0.7804  0.3587
 3982SOL    HW123579   2.023   4.021   9.694 -1.1316 -0.9263  0.9959
 3982SOL    HW223580   2.092   3.891   9.663 -0.9161 -0.4554 -0.3879
 3983SOL     OW23581   1.108   3.480   9.233 -0.5440 -0.1142  0.0964
 3983SOL    HW123582   1.128   3.403   9.180  1.5336  0.4851  0.0017
 3983SOL    HW223583   1.099   3.555   9.174  3.0270 -1.4651 -2.1632
 3984SOL     OW23584   0.155   1.875   4.100  0.0327 -0.6713  0.4109
 3984SOL    HW123585   0.224   1.914   4.046 -1.2298  0.8654 -0.0798
 3984SOL    HW223586   0.107   1.953   4.127  1.3321  1.5169 -3.5556
 3985SOL     OW23587   0.628   2.044   3.070  0.0892  0.6047 -0.6122
 3985SOL    HW123588   0.546   2.087   3.094  0.5167 -1.0005  3.6676
 3985SOL    HW223589   0.683   2.122   3.080 -1.0620  1.0639  1.9877
 3986SOL     OW23590   4.416   3.631   6.355 -0.2238 -0.2009 -0.1754
 3986SOL    HW123591   4.439   3.638   6.263 -0.9517  0.6365 -0.2987
 3986SOL    HW223592   4.488   3.664   6.409 -1.8115  1.4794  0.9047
 3987SOL     OW23593   1.014   1.691  15.785 -0.3113 -0.3268  0.1014
 3987SOL    HW123594   1.015   1.744  15.706  1.5967  0.6558  0.7910
 3987SOL    HW223595   1.039   1.605  15.751 -1.5241 -0.9061  0.6479
 3988SOL     OW23596   0.064   4.053   5.157  0.1230 -0.0432 -0.5074
 3988SOL    HW123597   0.064   4.149   5.154  2.9337 -0.0078  0.4956
 3988SOL    HW223598   0.139   4.035   5.100 -0.9919 -0.1884 -1.9144
 3989SOL     OW23599   2.979   2.726  11.403 -0.3214 -0.5422  0.2589
 3989SOL    HW123600   3.066   2.731  11.363 -0.6032 -0.0212 -0.2741
 3989SOL    HW223601   2.943   2.651  11.356  1.0869 -0.3658 -1.0744
 3990SOL     OW23602   3.333   3.599   5.569  0.3348  0.0100  0.6724
 3990SOL    HW123603   3.243   3.616   5.597  0.1554 -2.4549  1.6636
 3990SOL    HW223604   3.324   3.504   5.556 -0.8728  0.4996 -2.0847
 3991SOL     OW23605   3.214   1.115  13.686 -0.0701 -0.1943  0.2365
 3991SOL    HW123606   3.244   1.206  13.691  1.3008 -0.6629  0.4005
 3991SOL    HW223607   3.144   1.122  13.621  1.2281  0.6115 -1.0690
 3992SOL     OW23608   2.495   2.854  10.508  0.0282  0.4974  0.6401
 3992SOL    HW123609   2.478   2.913  10.435  0.8536 -0.9980 -0.7802
 3992SOL    HW223610   2.408   2.843  10.546 -0.4074  1.1896 -0.1599
 3993SOL     OW23611   2.226   1.246   3.074  0.3411  0.2764  0.0133
 3993SOL    HW123612   2.229   1.326   3.126 -2.7408  0.6093 -0.3180
 3993SOL    HW223613   2.194   1.186   3.141 -1.7022 -1.1375 -2.2354
 3994SOL     OW23614   3.628   2.885   3.195  0.2353 -0.1321  0.9827
 3994SOL    HW123615   3.575   2.952   3.239 -0.3696 -1.7916  2.8151
 3994SOL    HW223616   3.562   2.833   3.149 -0.5582  1.7652  0.0157
 3995SOL     OW23617   3.710   1.298  14.603  0.0078 -0.2458  0.1225
 3995SOL    HW123618   3.662   1.222  14.637 -2.0589  0.4035 -1.3694
 3995SOL    HW223619   3.682   1.303  14.512 -1.1647 -0.6945  0.4574
 3996SOL     OW23620   2.403   3.155   2.649 -0.1443 -0.1704  0.1372
 3996SOL    HW123621   2.491   3.124   2.670 -0.7942 -2.7257 -0.9947
 3996SOL    HW223622   2.408   3.247   2.675  0.0449  0.4093 -2.0093
 3997SOL     OW23623   4.376   0.458   2.067  0.1334 -0.9580 -0.0864
 3997SOL    HW123624   4.439   0.386   2.060  0.9838 -0.1092 -1.1878
 3997SOL    HW223625   4.400   0.513   1.993  0.7560 -1.6584 -0.4026
 3998SOL     OW23626   0.829   0.919   7.625  0.1124 -0.4243 -0.0522
 3998SOL    HW123627   0.751   0.888   7.579  1.1735 -1.9139 -0.8596
 3998SOL    HW223628   0.827   0.851   7.692  2.8333  0.8946  1.3472
 3999SOL     OW23629   1.528   1.163   8.247 -0.0052 -0.5763 -0.7631
 3999SOL    HW123630   1.459   1.098   8.263  1.0711 -1.9247 -1.5704
 3999SOL    HW223631   1.583   1.129   8.317 -1.1879  1.1579  0.9940
 4000SOL     OW23632   2.391   0.273   6.022  0.3937  0.6329 -0.5382
 4000SOL    HW123633   2.297   0.262   6.004  0.4190 -1.2806  0.3980
 4000SOL    HW223634   2.414   0.326   5.946  1.1949  1.2827  0.1705
 4001SOL     OW23635   1.837   3.318   3.650  0.2644 -0.0567  0.1603
 4001SOL    HW123636   1.800   3.406   3.637  0.7405 -0.1511 -1.8307
 4001SOL    HW223637   1.843   3.316   3.745 -1.0152  0.8867  0.2660
 4002SOL     OW23638   3.296   3.412   6.742  0.0145  0.0154 -0.3418
 4002SOL    HW123639   3.362   3.427   6.675 -1.0821 -1.7220 -1.7993
 4002SOL    HW223640   3.313   3.318   6.747 -1.5523 -0.2608 -0.2259
 4003SOL     OW23641   3.588   0.766   6.769 -1.0093 -0.1404  0.2299
 4003SOL    HW123642   3.598   0.769   6.674  0.8403  2.9641  0.5180
 4003SOL    HW223643   3.500   0.730   6.779 -0.1355 -1.9568  1.4196
 4004SOL     OW23644   1.057   2.614   3.839 -0.0049 -0.0940  0.3128
 4004SOL    HW123645   1.118   2.611   3.766 -0.9604  0.3668 -0.5145
 4004SOL    HW223646   0.978   2.568   3.809 -0.8660  1.7080 -0.2068
 4005SOL     OW23647   4.089   0.858   3.896 -0.4274 -0.7014  0.4412
 4005SOL    HW123648   4.036   0.867   3.816  1.9942 -0.1409 -1.1187
 4005SOL    HW223649   4.113   0.948   3.915 -0.0408 -0.4087 -1.3522
 4006SOL     OW23650   3.961   0.988   1.968  0.4790 -0.2425  0.2716
 4006SOL    HW123651   3.963   0.917   2.032  3.3950  1.1294  1.6745
 4006SOL    HW223652   4.033   1.047   1.990  0.6352  0.8724 -3.2907
 4007SOL     OW23653   4.628   0.609   2.898  0.1054  0.0684 -0.1210
 4007SOL    HW123654   4.598   0.699   2.888 -1.6561 -0.1518  3.4596
 4007SOL    HW223655   4.555   0.571   2.849 -0.3295  1.4052 -0.5177
 4008SOL     OW23656   1.284   1.195   0.973  0.0523  0.3225 -0.4166
 4008SOL    HW123657   1.324   1.214   0.888  0.5185 -1.0236 -0.4903
 4008SOL    HW223658   1.244   1.281   0.991 -0.2255 -0.3406  2.2477
 4009SOL     OW23659   1.377   3.189   2.406 -0.1211 -0.7696 -0.4156
 4009SOL    HW123660   1.319   3.116   2.387 -0.2505 -0.5722 -0.7887
 4009SOL    HW223661   1.426   3.196   2.324  1.8452  0.2884  0.8449
 4010SOL     OW23662   2.000   2.630  10.419  0.3787  0.1103 -0.3342
 4010SOL    HW123663   1.968   2.542  10.434 -1.0045 -0.0800 -4.4522
 4010SOL    HW223664   2.074   2.643  10.478  1.5704 -1.5173 -1.4686
 4011SOL     OW23665   1.457   4.358   7.944 -0.5322  0.8603 -0.4483
 4011SOL    HW123666   1.373   4.317   7.965 -0.5124  2.1765  2.1241
 4011SOL    HW223667   1.477   4.378   8.035 -4.0671 -0.7824  0.7128
 4012SOL     OW23668   0.192   4.307   2.104 -0.6638 -0.5415  0.0437
 4012SOL    HW123669   0.245   4.230   2.122 -0.5317 -0.2876  0.7466
 4012SOL    HW223670   0.183   4.289   2.011  0.8275  1.6362 -0.5137
 4013SOL     OW23671   3.669   3.256  12.090 -0.2204  0.4312  0.7017
 4013SOL    HW123672   3.614   3.223  12.019  0.9815 -2.6188  1.2188
 4013SOL    HW223673   3.742   3.195  12.103 -1.7897 -1.8376 -1.2260
 4014SOL     OW23674   3.468   2.525   8.187  0.3407 -0.3743  0.2502
 4014SOL    HW123675   3.402   2.456   8.180 -0.6993  0.5761  0.7318
 4014SOL    HW223676   3.540   2.472   8.220  1.0656  0.3807 -0.1177
 4015SOL     OW23677   1.291   0.835   6.413 -0.7271 -0.0096  0.1956
 4015SOL    HW123678   1.238   0.887   6.473 -0.1026  0.0269  0.7235
 4015SOL    HW223679   1.324   0.769   6.475 -1.2634  0.0908  0.5847
 4016SOL     OW23680   3.644   4.729   7.242  0.2296  0.3542 -0.2375
 4016SOL    HW123681   3.718   4.733   7.181 -0.5589  1.2315 -1.1274
 4016SOL    HW223682   3.593   0.071   7.224  1.5807  1.1605 -0.5074
 4017SOL     OW23683   2.657   1.629   6.151 -0.3761  0.0795  0.1707
 4017SOL    HW123684   2.619   1.567   6.213  1.8195 -0.9566  0.4620
 4017SOL    HW223685   2.579   1.670   6.113  0.6839  0.0623 -1.9882
 4018SOL     OW23686   1.942   2.542   9.699 -0.2458  0.5648  0.4350
 4018SOL    HW123687   1.918   2.634   9.692  0.2195  0.5060 -2.0160
 4018SOL    HW223688   2.035   2.547   9.723 -0.1541 -1.2342  0.4727
 4019SOL     OW23689   2.972   1.162   4.650  0.8457 -0.3518 -0.3609
 4019SOL    HW123690   2.926   1.131   4.572  0.5925  1.1241 -0.7984
 4019SOL    HW223691   3.048   1.198   4.603  0.2533 -0.1759 -1.1739
 4020SOL     OW23692   0.144   0.309  12.127 -0.8989  0.0494 -0.0997
 4020SOL    HW123693   0.053   0.278  12.129 -1.4651  1.5626 -2.2674
 4020SOL    HW223694   0.139   0.389  12.074 -1.0268  1.0599  1.4206
 4021SOL     OW23695   1.752   1.414   1.380  0.0015  0.1387  0.5416
 4021SOL    HW123696   1.789   1.372   1.458  2.4719 -0.6213 -1.0478
 4021SOL    HW223697   1.673   1.366   1.355 -1.1123  1.1869  1.9695
 4022SOL     OW23698   0.558   3.600   2.656 -0.0056 -0.0304 -0.2500
 4022SOL    HW123699   0.608   3.626   2.579  1.0166 -1.1007  0.0547
 4022SOL    HW223700   0.628   3.608   2.720  0.0495 -1.9159 -0.0735
 4023SOL     OW23701   0.138   2.394   4.306  0.1541 -0.0198 -0.3127
 4023SOL    HW123702   0.120   2.305   4.338 -2.1110  0.4932 -0.1521
 4023SOL    HW223703   0.147   2.438   4.390  3.1165 -0.3446 -0.4490
 4024SOL     OW23704   4.126   2.040   1.925  0.3087 -0.1005  0.1661
 4024SOL    HW123705   4.070   2.049   1.848 -0.2982 -0.5457  0.5515
 4024SOL    HW223706   4.071   1.978   1.973  2.8476  0.0614  3.3064
 4025SOL     OW23707   0.216   1.785   9.180 -0.3976 -0.4654 -0.6620
 4025SOL    HW123708   0.263   1.781   9.263 -1.2124 -1.0211 -0.2224
 4025SOL    HW223709   0.195   1.693   9.164  1.1081 -0.7399 -0.9997
 4026SOL     OW23710   4.387   4.703   3.977  0.1139 -0.0796 -0.0635
 4026SOL    HW123711   4.402   0.027   4.049  3.8488  0.2908 -1.1685
 4026SOL    HW223712   4.407   4.621   4.021  0.2792  0.1180  0.2229
 4027SOL     OW23713   3.569   2.467   6.315 -0.6059 -0.0923 -0.6763
 4027SOL    HW123714   3.607   2.548   6.350 -2.5327 -0.1129  1.4774
 4027SOL    HW223715   3.549   2.419   6.395  2.4296 -2.1722 -1.1934
 4028SOL     OW23716   3.470   1.149   5.643 -0.7085 -0.1649 -0.7306
 4028SOL    HW123717   3.565   1.145   5.633 -0.7677  1.7678 -2.0226
 4028SOL    HW223718   3.456   1.199   5.724 -2.2350 -0.5600 -0.7641
 4029SOL     OW23719   1.960   2.166   2.174 -0.0828 -0.2636  0.6447
 4029SOL    HW123720   1.978   2.260   2.175 -2.4898  0.2096 -1.1872
 4029SOL    HW223721   2.020   2.135   2.241  1.3733  1.0529 -0.0334
 4030SOL     OW23722   0.838   3.308   3.846 -0.4831 -0.4042 -0.1759
 4030SOL    HW123723   0.782   3.386   3.849  0.4355  0.1951  1.0512
 4030SOL    HW223724   0.798   3.250   3.781 -1.2412  0.6879 -0.6826
 4031SOL     OW23725   0.283   4.274  11.559  0.5157 -0.2568  0.0719
 4031SOL    HW123726   0.227   4.326  11.617  0.3265 -0.9613  0.5210
 4031SOL    HW223727   0.243   4.290  11.473 -0.0600  0.0170  0.3831
 4032SOL     OW23728   4.489   3.246   8.644  0.3005 -0.7161  0.4904
 4032SOL    HW123729   4.503   3.158   8.609  0.9865 -1.4169  2.5236
 4032SOL    HW223730   4.573   3.292   8.635  1.0875 -2.1016  0.7774
 4033SOL     OW23731   3.051   0.341   3.817  0.0624  0.0003 -0.2015
 4033SOL    HW123732   2.992   0.292   3.875  2.3142 -2.1277  0.3492
 4033SOL    HW223733   3.097   0.265   3.780  0.1728  0.2475 -0.5638
 4034SOL     OW23734   3.554   3.269   7.577  0.4353  0.3673  0.6262
 4034SOL    HW123735   3.540   3.329   7.504  1.8346  0.5054  0.4711
 4034SOL    HW223736   3.617   3.210   7.536 -0.1621  0.9641 -1.1387
 4035SOL     OW23737   4.134   0.956   8.416 -0.0712  0.5756  0.4090
 4035SOL    HW123738   4.078   1.015   8.366 -0.2261  0.4663  0.4539
 4035SOL    HW223739   4.171   1.018   8.479 -0.0827  0.8914  0.1063
 4036SOL     OW23740   0.166   2.508   3.133 -0.3793  0.1202 -0.4134
 4036SOL    HW123741   0.243   2.514   3.189 -1.7409  3.0354  1.1682
 4036SOL    HW223742   0.183   2.449   3.060 -1.6675 -0.9780  0.1861
 4037SOL     OW23743   1.362   2.673  13.568 -0.2544  0.7758 -0.0233
 4037SOL    HW123744   1.271   2.702  13.582 -0.6242  0.0455 -0.9399
 4037SOL    HW223745   1.359   2.649  13.475 -1.0328  1.1300 -0.0966
 4038SOL     OW23746   4.537   4.524   2.066 -0.4895 -0.3030  0.2228
 4038SOL    HW123747   4.468   4.569   2.115  0.0829  0.5332  0.2470
 4038SOL    HW223748   4.612   4.582   2.080 -0.3105 -0.8828  1.6158
 4039SOL     OW23749   4.574   4.188   7.091  0.8198  0.5139 -0.2871
 4039SOL    HW123750   4.659   4.168   7.130 -0.5712  1.5690  3.2367
 4039SOL    HW223751   4.557   4.115   7.031  1.9310 -0.4428  0.5689
 4040SOL     OW23752   0.912   4.620   7.231  0.4475 -0.2023 -0.6924
 4040SOL    HW123753   0.869   4.646   7.150  1.2237 -0.6679 -1.2526
 4040SOL    HW223754   0.852   4.669   7.288  0.8380 -0.7672  0.2030
 4041SOL     OW23755   0.815   2.945  11.179 -0.5828 -0.1686  0.7670
 4041SOL    HW123756   0.896   2.932  11.130 -0.9464  2.4231 -0.5164
 4041SOL    HW223757   0.769   3.011  11.128  1.8603 -0.3116 -1.6170
 4042SOL     OW23758   0.613   0.570   7.842 -0.2443 -0.1637 -0.5932
 4042SOL    HW123759   0.678   0.621   7.794 -0.4654 -1.5498 -2.3613
 4042SOL    HW223760   0.547   0.630   7.876  0.0404 -0.6656  0.8549
 4043SOL     OW23761   1.158   2.550   1.103 -0.1698 -0.2489 -0.2620
 4043SOL    HW123762   1.085   2.519   1.157 -1.5003  1.6864 -0.9236
 4043SOL    HW223763   1.215   2.591   1.168  2.5409 -0.7320 -2.3571
 4044SOL     OW23764   3.944   2.694  13.111 -0.5314 -0.3065  0.0180
 4044SOL    HW123765   3.962   2.659  13.023  0.6741  2.5010 -0.8621
 4044SOL    HW223766   4.010   2.653  13.167 -0.2942  0.7156  0.4888
 4045SOL     OW23767   3.224   4.551  11.845 -0.3104  0.2090  0.1267
 4045SOL    HW123768   3.298   4.586  11.796 -0.2952  1.4216  1.0046
 4045SOL    HW223769   3.153   4.586  11.792  0.5093  0.9792 -0.4573
 4046SOL     OW23770   3.600   4.576   4.323 -0.2215 -0.2957  0.8786
 4046SOL    HW123771   3.659   4.609   4.391  0.6822  2.2924 -1.1504
 4046SOL    HW223772   3.526   4.553   4.379 -0.4260 -0.9467  0.3372
 4047SOL     OW23773   2.536   2.912   8.608  0.2106 -0.2837 -0.2027
 4047SOL    HW123774   2.455   2.956   8.582  0.8165  0.6892 -0.4586
 4047SOL    HW223775   2.502   2.862   8.681  0.8291 -1.5758 -0.7938
 4048SOL     OW23776   0.811   3.458   3.362 -0.2392 -0.4096  0.1426
 4048SOL    HW123777   0.820   3.386   3.300 -0.0131  3.0751 -3.9162
 4048SOL    HW223778   0.888   3.433   3.412 -0.3235  1.8725  1.4216
 4049SOL     OW23779   3.448   3.506   5.247  0.3248  0.6860 -0.9794
 4049SOL    HW123780   3.396   3.542   5.176 -0.4814  0.3870 -0.5402
 4049SOL    HW223781   3.523   3.565   5.239  1.4423 -0.6534 -0.3003
 4050SOL     OW23782   4.384   0.090   3.522 -0.1606 -0.2644 -0.2056
 4050SOL    HW123783   4.300   0.080   3.566  0.6578 -2.5211  0.8319
 4050SOL    HW223784   4.432   0.007   3.525  0.4956  0.1848  1.9831
 4051SOL     OW23785   4.641   3.480   1.775  0.4195  0.2659  0.0120
 4051SOL    HW123786   4.646   3.479   1.871  2.0303 -3.2502 -0.1020
 4051SOL    HW223787   4.658   3.387   1.759  2.2353  0.5821  0.1072
 4052SOL     OW23788   3.068   1.474   2.735  0.4816 -0.0327 -0.0545
 4052SOL    HW123789   3.121   1.456   2.657  0.8348  0.2332  0.1204
 4052SOL    HW223790   3.005   1.534   2.695  0.1029 -1.0798 -1.0252
 4053SOL     OW23791   1.866   4.374   4.584  0.4560  0.5024  0.5381
 4053SOL    HW123792   1.893   4.320   4.659  2.4920 -1.8270 -1.8848
 4053SOL    HW223793   1.796   4.322   4.546  2.3673 -1.2492 -0.5908
 4054SOL     OW23794   2.806   3.365   3.220  0.6540 -0.6448  0.3626
 4054SOL    HW123795   2.728   3.405   3.258 -0.0892  0.8566 -2.7490
 4054SOL    HW223796   2.874   3.400   3.278 -0.1293  0.3403  0.6820
 4055SOL     OW23797   2.314   0.075  10.042 -0.0758  0.2947 -0.3552
 4055SOL    HW123798   2.238   0.117  10.082  0.5296  0.7705  0.2955
 4055SOL    HW223799   2.306   4.725  10.083 -1.2352  0.5723  0.0080
 4056SOL     OW23800   1.345   3.485   3.597  0.3907 -0.1919 -0.5927
 4056SOL    HW123801   1.337   3.496   3.502  0.2371 -0.2700 -0.5883
 4056SOL    HW223802   1.422   3.539   3.613  0.4706 -1.2251  2.5257
 4057SOL     OW23803   3.402   0.133   8.388  0.1414  0.2139 -0.4834
 4057SOL    HW123804   3.466   0.176   8.444 -2.3590  1.9321  1.0601
 4057SOL    HW223805   3.451   0.110   8.309  1.6036 -0.6524  0.6821
 4058SOL     OW23806   1.415   1.231   0.735  0.2930  0.1662 -0.4992
 4058SOL    HW123807   1.459   1.316   0.734  1.8319 -0.6419 -2.7754
 4058SOL    HW223808   1.459   1.187   0.662  0.8902 -0.0004 -0.0406
 4059SOL     OW23809   4.502   1.249   8.970  0.1136 -0.1195 -0.9762
 4059SOL    HW123810   4.576   1.205   8.928  0.9943  0.9549 -0.5370
 4059SOL    HW223811   4.510   1.195   9.049 -1.8245  1.0712  0.0306
 4060SOL     OW23812   0.329   2.507  15.850 -0.1355 -0.2568 -0.4382
 4060SOL    HW123813   0.347   2.595  15.882 -0.1869  0.0858 -1.3721
 4060SOL    HW223814   0.413   2.489  15.809 -0.4020 -0.9325 -0.6963
 4061SOL     OW23815   2.531   2.937   7.148  0.3969 -0.2555 -0.4594
 4061SOL    HW123816   2.616   2.975   7.126  1.1865 -2.4150 -1.0764
 4061SOL    HW223817   2.512   2.984   7.230  1.5643  2.2005 -1.5890
 4062SOL     OW23818   2.301   0.611   1.807 -0.2609 -0.0936  0.3882
 4062SOL    HW123819   2.314   0.581   1.717  0.0959  2.0335 -0.2644
 4062SOL    HW223820   2.205   0.606   1.810 -0.2893 -0.8970 -2.1202
 4063SOL     OW23821   2.694   4.715   4.843  0.1138 -0.5349  0.2812
 4063SOL    HW123822   2.784   4.704   4.873  0.8970  0.1733 -1.7965
 4063SOL    HW223823   2.667   0.060   4.885  1.5559 -1.0447  2.1823
 4064SOL     OW23824   4.150   1.359   8.683  0.2372 -0.0647 -0.3405
 4064SOL    HW123825   4.063   1.395   8.665  0.1348 -1.0483 -1.7873
 4064SOL    HW223826   4.170   1.398   8.768  1.0795 -0.3560 -0.4028
 4065SOL     OW23827   2.393   4.186  16.089 -0.0715  0.0871 -0.2238
 4065SOL    HW123828   2.341   4.261  16.120  0.0863  0.7740 -1.6205
 4065SOL    HW223829   2.474   4.230  16.064 -0.8691  0.4141 -2.2907
 4066SOL     OW23830   1.258   2.133   2.583 -0.2848  0.0645 -0.1044
 4066SOL    HW123831   1.248   2.123   2.488  0.6131  0.0389 -0.1950
 4066SOL    HW223832   1.232   2.225   2.593 -0.2607  0.0435  0.1412
 4067SOL     OW23833   1.750   0.965   9.029 -0.1391  0.2946  0.5742
 4067SOL    HW123834   1.814   0.936   9.094 -0.8998  0.7665  1.5338
 4067SOL    HW223835   1.702   1.034   9.075  5.0931  3.6132  1.1552
 4068SOL     OW23836   2.326   4.420   3.582 -0.3707 -0.4002  0.9050
 4068SOL    HW123837   2.304   4.347   3.640  2.6735 -0.1746  2.3451
 4068SOL    HW223838   2.355   4.359   3.515  3.6847  1.5165  0.9050
 4069SOL     OW23839   1.645   2.031   5.925 -0.4646  0.0642 -0.4471
 4069SOL    HW123840   1.693   1.961   5.969  0.1438 -0.1752 -1.5010
 4069SOL    HW223841   1.680   2.107   5.972 -0.2822 -0.1266 -0.2708
 4070SOL     OW23842   1.955   4.075   3.363  0.2228  0.1490 -0.4349
 4070SOL    HW123843   1.891   4.004   3.355  2.9208 -2.5352  1.3957
 4070SOL    HW223844   1.935   4.110   3.450  0.7975  1.2420 -0.7562
 4071SOL     OW23845   2.621   0.992   6.811  0.3619 -0.4329  0.0680
 4071SOL    HW123846   2.526   0.983   6.803  0.3356 -0.5735  0.5248
 4071SOL    HW223847   2.653   0.985   6.721  0.7637 -1.3661  0.2763
 4072SOL     OW23848   1.488   2.637   5.756  0.0927 -0.1744 -0.2706
 4072SOL    HW123849   1.462   2.546   5.746  0.6055 -0.6751  2.7946
 4072SOL    HW223850   1.578   2.621   5.727  0.6311 -0.0675  1.3222
 4073SOL     OW23851   1.969   1.734   0.388 -0.3761 -0.3711 -0.0802
 4073SOL    HW123852   2.055   1.724   0.428 -1.6361 -0.1421  2.6755
 4073SOL    HW223853   1.974   1.679   0.310  1.1635  0.2341 -0.4118
 4074SOL     OW23854   3.184   4.006  15.870 -0.0266  0.4254 -0.1494
 4074SOL    HW123855   3.108   3.951  15.855 -0.7213  1.8563 -1.9206
 4074SOL    HW223856   3.223   3.943  15.931 -2.3599 -0.9854 -0.1238
 4075SOL     OW23857   0.961   0.565   1.677 -0.7517  0.1878  0.2582
 4075SOL    HW123858   0.966   0.545   1.583 -1.0510 -2.6815  0.8343
 4075SOL    HW223859   1.005   0.650   1.679 -0.4164  0.0190  0.2224
 4076SOL     OW23860   4.454   0.303  14.413  0.3151  0.3740 -0.6541
 4076SOL    HW123861   4.501   0.237  14.464 -0.4298 -0.6334 -1.2786
 4076SOL    HW223862   4.464   0.268  14.324  2.2792  2.4588 -1.2632
 4077SOL     OW23863   0.647   0.621  13.751  0.3229 -0.8077  0.3565
 4077SOL    HW123864   0.560   0.636  13.713  1.6951  1.5247 -1.8948
 4077SOL    HW223865   0.706   0.675  13.697 -1.3569 -0.1446 -0.8177
 4078SOL     OW23866   3.961   0.394   6.867 -0.2192 -0.5166  0.4210
 4078SOL    HW123867   3.940   0.423   6.778  0.3159  0.9688  0.7782
 4078SOL    HW223868   4.034   0.336   6.846 -1.3157 -2.3142  1.6137
 4079SOL     OW23869   1.295   3.132   4.273 -0.0477 -0.5527 -0.5553
 4079SOL    HW123870   1.384   3.115   4.241  1.0728 -2.0337  3.4130
 4079SOL    HW223871   1.277   3.212   4.223 -2.2515 -1.1324 -0.6863
 4080SOL     OW23872   2.629   1.254   6.133 -0.8133  0.0053  0.3644
 4080SOL    HW123873   2.575   1.326   6.166 -1.0261 -0.3810  0.8572
 4080SOL    HW223874   2.701   1.295   6.085 -0.6667 -1.0378 -0.2974
 4081SOL     OW23875   2.376   3.090   8.232 -0.9633 -0.4828 -0.0246
 4081SOL    HW123876   2.423   3.011   8.256 -0.7767 -0.1825  0.6151
 4081SOL    HW223877   2.287   3.054   8.236 -1.1966  0.0550 -0.2428
 4082SOL     OW23878   4.245   2.137   4.172 -0.3547 -0.1753 -0.1636
 4082SOL    HW123879   4.227   2.148   4.266  0.1748 -0.0943 -0.0715
 4082SOL    HW223880   4.312   2.069   4.180 -1.3906 -1.1305  0.3650
 4083SOL     OW23881   0.170   4.036   5.962  0.1309  0.2401  0.3597
 4083SOL    HW123882   0.223   4.008   5.887  0.9739  0.6261  0.8196
 4083SOL    HW223883   0.101   3.970   5.956 -0.6954  0.9680  2.0102
 4084SOL     OW23884   4.071   2.024  12.228  0.0988  0.0794  0.2758
 4084SOL    HW123885   4.109   2.013  12.140  0.7725 -0.0887  0.5903
 4084SOL    HW223886   4.011   1.951  12.240 -1.6343  1.7213  1.5403
 4085SOL     OW23887   1.606   4.690   3.750 -0.1529 -0.0917 -0.7401
 4085SOL    HW123888   1.640   4.716   3.836  0.5476 -4.6820  0.3858
 4085SOL    HW223889   1.588   4.599   3.772  0.3207 -0.1622 -0.6329
 4086SOL     OW23890   1.313   1.594   1.943  0.0143 -0.1442  0.1133
 4086SOL    HW123891   1.387   1.654   1.929  0.4033 -1.5292 -3.6250
 4086SOL    HW223892   1.251   1.662   1.969  0.0943  0.8420 -2.3174
 4087SOL     OW23893   3.548   3.906   3.552  0.4774 -0.0261 -0.1507
 4087SOL    HW123894   3.470   3.932   3.602 -0.8810 -1.3110 -1.5861
 4087SOL    HW223895   3.503   3.879   3.472  3.0113  0.5275 -1.7581
 4088SOL     OW23896   1.906   3.302   0.904  0.0457  0.2142  0.8107
 4088SOL    HW123897   1.896   3.228   0.965  0.8786  1.0103  1.9032
 4088SOL    HW223898   1.994   3.295   0.867 -0.5720  0.5361 -0.7215
 4089SOL     OW23899   0.625   3.936   2.229 -0.1968 -0.6183  0.1027
 4089SOL    HW123900   0.635   4.031   2.227  2.6719 -0.8660  2.0228
 4089SOL    HW223901   0.677   3.905   2.155 -2.9002  1.2893 -2.6190
 4090SOL     OW23902   1.721   3.116   7.981 -0.2324 -0.3866  0.1496
 4090SOL    HW123903   1.777   3.193   7.968  0.4022 -0.6772  1.1138
 4090SOL    HW223904   1.679   3.121   8.067 -0.4967 -0.7742  0.0422
 4091SOL     OW23905   1.864   4.073   6.583 -0.0153 -0.1986 -0.1837
 4091SOL    HW123906   1.873   3.989   6.629 -0.9891  0.1247  0.5864
 4091SOL    HW223907   1.905   4.130   6.648  1.3953  0.9141 -2.0309
 4092SOL     OW23908   4.305   1.812  10.113 -0.1702 -0.2614  0.1222
 4092SOL    HW123909   4.384   1.798  10.062 -1.0701  2.0514 -1.8874
 4092SOL    HW223910   4.325   1.746  10.180 -0.7734 -0.1424  0.4252
 4093SOL     OW23911   1.640   3.002   3.520 -0.8740 -0.1237  0.1615
 4093SOL    HW123912   1.708   3.018   3.455 -2.6784  2.3865 -1.1268
 4093SOL    HW223913   1.607   2.919   3.485 -1.0020  0.1775 -0.4286
 4094SOL     OW23914   4.666   2.014   2.781  0.7286 -0.1558 -0.2611
 4094SOL    HW123915   4.666   2.045   2.691 -0.7522  0.0252 -0.2062
 4094SOL    HW223916   4.662   2.095   2.832  1.5179 -0.0486 -0.3758
 4095SOL     OW23917   2.839   3.966   7.911 -0.7033 -0.2071  0.0344
 4095SOL    HW123918   2.883   4.019   7.845 -1.3377 -0.3495 -0.5061
 4095SOL    HW223919   2.755   4.011   7.918 -1.3957 -1.6676  1.2374
 4096SOL     OW23920   0.310   4.283   3.158  0.0940  0.4668  0.1115
 4096SOL    HW123921   0.337   4.270   3.248  1.5854  0.5443 -0.3287
 4096SOL    HW223922   0.262   4.365   3.172 -0.6404 -0.0970  0.9361
 4097SOL     OW23923   4.363   0.327   9.221  0.0577  0.0320  0.2568
 4097SOL    HW123924   4.341   0.414   9.187  0.4290 -0.2088 -0.6163
 4097SOL    HW223925   4.283   0.276   9.228  1.0583 -1.9351 -2.4948
 4098SOL     OW23926   2.479   0.941  16.445 -0.3562 -0.1012  0.2845
 4098SOL    HW123927   2.495   0.929  16.538  2.8012  0.4854 -0.2008
 4098SOL    HW223928   2.499   1.034  16.439  0.8239 -0.4658 -1.2690
 4099SOL     OW23929   0.843   4.469   4.116 -0.0525 -0.3297 -0.1297
 4099SOL    HW123930   0.823   4.448   4.207 -0.4510  1.2085  0.1379
 4099SOL    HW223931   0.870   4.383   4.083 -2.4236 -0.9179 -0.5477
 4100SOL     OW23932   3.157   3.663   3.229 -0.0001 -0.3141  0.0743
 4100SOL    HW123933   3.069   3.693   3.250 -0.1018  1.1891 -2.5033
 4100SOL    HW223934   3.136   3.600   3.160 -0.5084 -0.1867  0.1167
 4101SOL     OW23935   3.314   3.471  16.528 -0.0931 -0.0401 -0.0972
 4101SOL    HW123936   3.386   3.534  16.531 -0.6587  0.5228  1.7706
 4101SOL    HW223937   3.255   3.507  16.462 -0.7492 -1.7284 -0.4430
 4102SOL     OW23938   0.143   2.294   6.978  0.2713  0.4268 -0.6053
 4102SOL    HW123939   0.126   2.376   7.024 -0.7905  0.1721 -0.5499
 4102SOL    HW223940   0.120   2.233   7.047 -1.6846 -0.0964 -1.7309
 4103SOL     OW23941   1.591   4.659  15.961  0.2597  0.0264 -0.0494
 4103SOL    HW123942   1.609   4.714  15.885 -1.1374 -0.0480 -0.4454
 4103SOL    HW223943   1.519   4.711  15.996 -0.2035 -2.4080  2.6330
 4104SOL     OW23944   3.748   2.559  11.004 -0.4573 -0.4086  0.2127
 4104SOL    HW123945   3.658   2.587  10.993 -0.3053 -0.4515 -1.1396
 4104SOL    HW223946   3.790   2.619  10.941 -1.7730  0.3962  0.1167
 4105SOL     OW23947   2.136   1.085   1.541 -0.1769 -0.0371  0.1652
 4105SOL    HW123948   2.142   1.001   1.496 -1.3361 -0.5477  0.9651
 4105SOL    HW223949   2.165   1.041   1.621  2.4871 -0.1079 -0.8638
 4106SOL     OW23950   3.331   2.803   7.671  0.6682  0.6019  0.0666
 4106SOL    HW123951   3.351   2.871   7.607 -0.8090  1.3146  0.3592
 4106SOL    HW223952   3.236   2.801   7.684  0.5452 -1.2167 -1.1932
 4107SOL     OW23953   1.134   2.366   2.660  0.1107 -0.0398 -0.1685
 4107SOL    HW123954   1.142   2.459   2.636 -1.8489 -0.2615 -1.6871
 4107SOL    HW223955   1.047   2.356   2.698 -1.4841  3.4614 -2.8033
 4108SOL     OW23956   1.017   1.233  14.501  0.3575  0.1764  0.0007
 4108SOL    HW123957   0.960   1.159  14.521  1.1754 -0.7571 -1.1355
 4108SOL    HW223958   1.032   1.220  14.407  1.9938 -0.1119  0.3084
 4109SOL     OW23959   3.275   0.279   3.157  0.5081 -0.8199  0.5335
 4109SOL    HW123960   3.326   0.232   3.223  1.8270 -0.8835 -0.5389
 4109SOL    HW223961   3.342   0.291   3.089  0.0585  0.1897  0.2773
 4110SOL     OW23962   1.989   4.080   7.840  0.9329 -0.0749 -0.5507
 4110SOL    HW123963   2.021   4.152   7.894  0.8913  0.5767 -1.4114
 4110SOL    HW223964   2.019   4.010   7.899  0.7087 -0.0087 -0.3564
 4111SOL     OW23965   2.464   4.472   6.315 -0.4316  0.2169  0.3237
 4111SOL    HW123966   2.381   4.505   6.282 -0.6802 -0.5236  0.2165
 4111SOL    HW223967   2.461   4.386   6.273  0.9778 -0.5275  1.7280
 4112SOL     OW23968   4.421   1.670   6.415  0.1001 -0.1260  0.1667
 4112SOL    HW123969   4.397   1.621   6.493 -1.8522 -0.3767 -0.6075
 4112SOL    HW223970   4.375   1.753   6.424  1.0765  0.3897  0.4402
 4113SOL     OW23971   1.953   1.608   3.885 -0.4612  0.4022  0.0805
 4113SOL    HW123972   1.899   1.542   3.841 -1.0174 -0.3952  1.9479
 4113SOL    HW223973   1.948   1.569   3.972  1.3495 -1.0274 -0.4515
 4114SOL     OW23974   4.701   2.943   2.895 -0.2998 -0.1413  0.4697
 4114SOL    HW123975   4.729   2.911   2.809 -2.6687  1.5696 -0.9399
 4114SOL    HW223976   4.616   2.900   2.907 -0.6051 -0.1502 -1.7700
 4115SOL     OW23977   2.365   2.672   1.237  0.0602  0.3227  0.1716
 4115SOL    HW123978   2.402   2.723   1.164 -0.3982 -0.7965 -0.8316
 4115SOL    HW223979   2.434   2.607   1.249  1.2136  1.7153  1.1812
 4116SOL     OW23980   1.477   4.120   5.195 -0.6139 -0.2126  0.1150
 4116SOL    HW123981   1.497   4.182   5.266 -0.0705 -0.0219 -0.1964
 4116SOL    HW223982   1.420   4.053   5.232 -1.2802  1.4584  2.1212
 4117SOL     OW23983   4.559   3.393   2.399  0.0612 -0.1268 -0.1319
 4117SOL    HW123984   4.576   3.460   2.465  0.0179 -0.0678 -0.1807
 4117SOL    HW223985   4.517   3.457   2.341  0.7612 -0.2141 -0.7428
 4118SOL     OW23986   3.681   3.085  17.741 -0.7588 -0.3049 -0.1690
 4118SOL    HW123987   3.731   3.166  17.741 -0.6057 -0.4069 -1.5458
 4118SOL    HW223988   3.745   3.025  17.705 -1.6711 -0.5693 -1.3597
 4119SOL     OW23989   2.199   0.031  10.876 -1.0688  0.1573 -0.5991
 4119SOL    HW123990   2.205   4.673  10.884 -3.7587  0.1860  1.5781
 4119SOL    HW223991   2.138   0.049  10.947  0.6288 -0.9988  1.1414
 4120SOL     OW23992   0.022   1.223  10.447  0.4989 -0.2705 -0.4058
 4120SOL    HW123993   0.005   1.174  10.366  1.1422 -1.5827  0.2449
 4120SOL    HW223994   0.010   1.162  10.520  1.4788  2.6064  2.1251
 4121SOL     OW23995   4.669   2.701   2.496  0.3652 -0.0604  0.2634
 4121SOL    HW123996   4.583   2.700   2.537 -0.2057  0.0726 -0.9427
 4121SOL    HW223997   4.647   2.727   2.406 -2.9856 -0.4262  0.9995
 4122SOL     OW23998   3.225   2.941  10.328 -0.1383  0.8017  0.2436
 4122SOL    HW123999   3.212   2.908  10.239  0.4259 -2.0847  1.2608
 4122SOL    HW224000   3.133   2.957  10.350  0.3157 -0.8419  3.2952
 4123SOL     OW24001   2.964   2.305  12.398  0.2653  0.2629  0.2124
 4123SOL    HW124002   2.941   2.389  12.437 -0.2794  0.3867 -0.3733
 4123SOL    HW224003   3.053   2.321  12.366 -0.1180  2.6063  0.3685
 4124SOL     OW24004   3.464   0.348   6.563  0.3975 -0.5097  0.4359
 4124SOL    HW124005   3.409   0.415   6.604  3.3751  0.9979  1.9195
 4124SOL    HW224006   3.419   0.335   6.479 -0.2389  2.8577  0.2342
 4125SOL     OW24007   2.013   2.474   8.354  0.1077 -0.0771  0.5420
 4125SOL    HW124008   1.978   2.465   8.442  1.3836  0.6454  1.1165
 4125SOL    HW224009   2.096   2.427   8.357 -0.2989 -0.6718  2.0763
 4126SOL     OW24010   3.974   1.650   8.244 -0.0144 -0.0492 -0.3184
 4126SOL    HW124011   4.009   1.568   8.207 -0.5503 -0.9553  1.2162
 4126SOL    HW224012   4.040   1.715   8.220  0.8169 -0.2072  1.5207
 4127SOL     OW24013   2.639   2.726  16.116  0.0882  0.8016  0.5217
 4127SOL    HW124014   2.646   2.754  16.207  1.7787  3.8563 -0.5251
 4127SOL    HW224015   2.731   2.728  16.087 -0.3327 -0.2441 -0.8653
 4128SOL     OW24016   4.251   0.387   5.912  0.1507 -0.0514 -0.3028
 4128SOL    HW124017   4.176   0.446   5.916  0.3533 -0.0134  3.6073
 4128SOL    HW224018   4.323   0.445   5.937 -0.1925  0.7619 -1.2339
 4129SOL     OW24019   3.835   0.878   7.271 -0.1420 -0.4266 -0.6069
 4129SOL    HW124020   3.912   0.833   7.237  0.0760 -1.7795  1.6709
 4129SOL    HW224021   3.806   0.926   7.193 -1.0387 -0.5127 -0.3290
 4130SOL     OW24022   2.391   2.352   6.805  0.1456  0.2529 -0.3604
 4130SOL    HW124023   2.300   2.323   6.815 -0.4602  1.5885 -1.9330
 4130SOL    HW224024   2.440   2.281   6.847 -0.9449  0.4149  1.1924
 4131SOL     OW24025   2.767   1.952   2.372 -0.0197 -0.1172  0.3386
 4131SOL    HW124026   2.799   2.034   2.334 -0.7235  0.2439  0.5194
 4131SOL    HW224027   2.853   1.912   2.384  1.0145  1.9175 -0.3435
 4132SOL     OW24028   0.095   0.368   3.447  0.3082 -0.3362 -0.7558
 4132SOL    HW124029   0.070   0.277   3.432 -2.3340 -0.1096  2.3000
 4132SOL    HW224030   0.037   0.407   3.381 -1.0011 -0.7446  0.1582
 4133SOL     OW24031   3.890   4.023   8.997  0.2412 -0.1843  0.0125
 4133SOL    HW124032   3.811   4.077   8.992  0.2912 -0.0666  0.4934
 4133SOL    HW224033   3.957   4.088   9.018 -0.8256  0.1294  2.4222
 4134SOL     OW24034   0.486   2.467   8.593 -0.3460 -0.0746 -0.1755
 4134SOL    HW124035   0.390   2.463   8.598 -0.4765  2.5108 -0.6010
 4134SOL    HW224036   0.508   2.427   8.678 -0.1239  0.3296 -0.0429
 4135SOL     OW24037   3.184   1.435   9.624 -0.0078  0.0882 -0.0699
 4135SOL    HW124038   3.137   1.372   9.679  0.0939  1.2159  1.3126
 4135SOL    HW224039   3.122   1.507   9.634 -2.5187 -2.1209  0.1934
 4136SOL     OW24040   3.254   4.577   1.853 -0.0344  0.3494 -0.0187
 4136SOL    HW124041   3.285   4.638   1.920  1.3572 -1.5077  1.0263
 4136SOL    HW224042   3.336   4.551   1.810  0.5252 -0.4774  1.5613
 4137SOL     OW24043   2.419   0.089   8.122 -0.5364  0.1272 -0.0046
 4137SOL    HW124044   2.384   0.080   8.211 -2.3288 -1.9699 -0.9265
 4137SOL    HW224045   2.350   0.129   8.069  0.0520  0.1642 -0.7359
 4138SOL     OW24046   3.244   1.311   9.009  0.0527 -0.3269  0.2992
 4138SOL    HW124047   3.220   1.366   9.084 -0.0814  0.0455 -0.0166
 4138SOL    HW224048   3.289   1.374   8.953 -1.3152 -1.6963 -2.3318
 4139SOL     OW24049   2.574   3.307   0.700  0.0545 -0.1724  0.7269
 4139SOL    HW124050   2.535   3.345   0.622 -1.5840 -3.0889  0.1455
 4139SOL    HW224051   2.502   3.316   0.762  0.0558  2.2690  0.3589
 4140SOL     OW24052   0.988   4.149  11.033  0.2425 -0.6223  0.0794
 4140SOL    HW124053   0.951   4.204  11.103 -0.9815 -0.2809 -0.8310
 4140SOL    HW224054   0.907   4.135  10.984  0.4830 -1.0265 -0.2049
 4141SOL     OW24055   3.861   0.547   4.556 -0.3631 -0.0856 -0.2647
 4141SOL    HW124056   3.776   0.510   4.531 -0.7852 -0.2618  1.4575
 4141SOL    HW224057   3.921   0.494   4.503 -0.7156  0.0107 -0.7691
 4142SOL     OW24058   4.236   2.260   1.516  0.0977  0.0634  0.2701
 4142SOL    HW124059   4.183   2.294   1.589  0.3835  0.6881  0.1859
 4142SOL    HW224060   4.314   2.313   1.529  0.6695 -1.1401  1.8452
 4143SOL     OW24061   1.269   0.546  15.821 -0.3583 -0.2453 -0.0394
 4143SOL    HW124062   1.262   0.451  15.828  1.9386 -0.3025  1.4575
 4143SOL    HW224063   1.225   0.576  15.901 -2.7542 -3.0919 -0.3198
 4144SOL     OW24064   0.308   3.451   8.874 -0.2147 -0.5720 -0.5605
 4144SOL    HW124065   0.383   3.503   8.902 -0.2939 -0.2385 -0.9649
 4144SOL    HW224066   0.237   3.514   8.862 -0.4508 -0.5665  0.7623
 4145SOL     OW24067   2.137   3.145   6.777  0.3710 -0.3106 -0.2693
 4145SOL    HW124068   2.081   3.211   6.817  2.4724  0.9277  0.6112
 4145SOL    HW224069   2.200   3.187   6.719  0.2604 -0.5644 -0.5743
 4146SOL     OW24070   2.418   2.090   2.131  0.2122  0.0068 -0.7032
 4146SOL    HW124071   2.480   2.033   2.176  0.1958  0.3717 -0.2179
 4146SOL    HW224072   2.398   2.028   2.061  0.1404  0.1406 -0.8018
 4147SOL     OW24073   3.352   2.175   1.076 -0.4559  0.2357  0.1842
 4147SOL    HW124074   3.355   2.209   0.986 -0.6807 -0.3314 -0.0335
 4147SOL    HW224075   3.437   2.206   1.108 -0.5259 -0.3502  0.9256
 4148SOL     OW24076   3.786   2.543   8.307  0.0779 -0.4267  0.4024
 4148SOL    HW124077   3.799   2.567   8.215 -0.7114  0.6284  0.5600
 4148SOL    HW224078   3.728   2.468   8.301  1.2741 -1.1932 -1.4960
 4149SOL     OW24079   3.610   3.531   4.312 -0.1015  0.4140  0.2744
 4149SOL    HW124080   3.611   3.582   4.231  0.9889  0.8110  0.5425
 4149SOL    HW224081   3.535   3.573   4.354 -0.9620 -0.2313 -0.6010
 4150SOL     OW24082   0.266   1.177   2.911 -0.5781 -0.0994  0.3585
 4150SOL    HW124083   0.250   1.104   2.852 -0.6464  2.2446 -2.5270
 4150SOL    HW224084   0.189   1.172   2.967 -1.2077 -0.1226 -0.5051
 4151SOL     OW24085   2.998   4.568   3.617 -0.0683  0.6618  0.0885
 4151SOL    HW124086   2.924   4.629   3.618 -0.2460  0.4498 -0.3514
 4151SOL    HW224087   3.037   4.571   3.705 -1.7886 -1.1397  0.9244
 4152SOL     OW24088   4.641   1.465  10.300 -0.4143  0.2108 -0.0590
 4152SOL    HW124089   4.686   1.480  10.383  2.2765 -0.3695 -1.4444
 4152SOL    HW224090   4.687   1.390  10.264  0.1603  0.4318  0.2085
 4153SOL     OW24091   3.858   2.541   2.293  0.2203 -0.2670 -0.0062
 4153SOL    HW124092   3.924   2.608   2.310  0.6659 -0.3396 -1.4474
 4153SOL    HW224093   3.850   2.488   2.372  1.2780 -1.6634 -0.8555
 4154SOL     OW24094   2.950   0.545   9.557 -0.4423 -0.3291 -0.1639
 4154SOL    HW124095   3.009   0.541   9.633  0.9525 -0.8581 -1.2733
 4154SOL    HW224096   3.011   0.522   9.488 -1.6681 -0.9651 -1.0346
 4155SOL     OW24097   3.611   4.667   2.474  0.3230  0.2054  0.1329
 4155SOL    HW124098   3.663   4.636   2.399  2.0723  0.7754  1.1136
 4155SOL    HW224099   3.681   4.722   2.509  1.3481 -1.1812  0.2728
 4156SOL     OW24100   2.638   2.741  17.709  0.2284 -0.1531 -0.1198
 4156SOL    HW124101   2.556   2.725   0.010 -1.3806  1.6400 -2.4253
 4156SOL    HW224102   2.666   2.655  17.677  0.1598 -0.5802  0.9876
 4157SOL     OW24103   4.381   3.143   4.050 -0.2779  0.2261  0.6532
 4157SOL    HW124104   4.330   3.209   4.096 -0.5802 -0.7257  1.6960
 4157SOL    HW224105   4.320   3.124   3.979  1.9678 -3.0619 -0.4249
 4158SOL     OW24106   1.385   0.679   3.821  0.4796  0.2183 -0.1700
 4158SOL    HW124107   1.418   0.644   3.739 -0.6530  1.0937 -1.0095
 4158SOL    HW224108   1.363   0.769   3.797 -2.6499  0.1403  2.3599
 4159SOL     OW24109   4.443   3.042   7.906  0.5018  0.0514 -0.4095
 4159SOL    HW124110   4.400   3.087   7.834  0.0692 -1.8209 -1.3408
 4159SOL    HW224111   4.532   3.045   7.873  0.3601  0.6244 -0.7257
 4160SOL     OW24112   4.405   2.173   3.118  0.1124 -0.6202 -0.0704
 4160SOL    HW124113   4.335   2.200   3.178 -0.3670  0.4290 -1.0934
 4160SOL    HW224114   4.447   2.101   3.165 -0.4458  0.0977  1.5506
 4161SOL     OW24115   3.997   2.571   4.431 -0.2131 -0.1944 -0.2043
 4161SOL    HW124116   3.972   2.481   4.410  1.7164 -0.9715  0.8124
 4161SOL    HW224117   3.974   2.623   4.354  2.7879 -1.4707 -1.9731
 4162SOL     OW24118   2.643   0.193   0.903 -0.3398  0.4865  0.4777
 4162SOL    HW124119   2.637   0.288   0.918 -2.8087  0.7693 -2.3053
 4162SOL    HW224120   2.733   0.197   0.871 -0.9965  0.8056 -1.3206
 4163SOL     OW24121   2.173   3.453   0.739  0.1088  0.1455  0.7534
 4163SOL    HW124122   2.193   3.545   0.725  0.7808  0.2941  2.7331
 4163SOL    HW224123   2.092   3.453   0.687 -0.2996 -0.6345  1.3832
 4164SOL     OW24124   2.796   3.133   1.480 -0.2060 -0.2798  0.1164
 4164SOL    HW124125   2.791   3.116   1.386  0.9321  0.4611 -0.0750
 4164SOL    HW224126   2.890   3.151   1.480 -0.1939 -0.3414  0.3057
 4165SOL     OW24127   3.960   0.463  14.045 -0.0396  0.3610  0.2086
 4165SOL    HW124128   4.048   0.447  14.013 -0.5763  0.3991 -1.3125
 4165SOL    HW224129   3.922   0.378  14.023 -1.0300  1.3221 -1.8350
 4166SOL     OW24130   1.702   2.516   8.613 -0.0093 -0.0648 -0.0753
 4166SOL    HW124131   1.669   2.444   8.559 -0.0381 -0.8200  0.9462
 4166SOL    HW224132   1.789   2.483   8.635  0.3178  0.3332 -0.7500
 4167SOL     OW24133   1.374   1.686   7.794 -0.5585  0.5485 -0.1844
 4167SOL    HW124134   1.381   1.591   7.787 -0.4651  0.4946  0.5913
 4167SOL    HW224135   1.341   1.701   7.706 -2.5277  0.9049  0.5979
 4168SOL     OW24136   0.047   0.084   4.055 -0.3406  0.6552  0.2162
 4168SOL    HW124137   0.059   4.728   4.032 -0.1708  0.8611 -0.5147
 4168SOL    HW224138   0.073   0.087   4.148 -0.4662  0.4361  0.2583
 4169SOL     OW24139   4.593   1.102   1.964  0.0749  0.5035 -0.6471
 4169SOL    HW124140   4.681   1.127   1.991  0.2853 -0.8245 -0.1369
 4169SOL    HW224141   4.537   1.178   1.980 -0.5830  0.1524 -1.2906
 4170SOL     OW24142   2.802   2.942  14.239 -0.7376 -0.0824  0.3595
 4170SOL    HW124143   2.829   3.028  14.270  2.3153 -0.6183 -0.8912
 4170SOL    HW224144   2.781   2.961  14.148  1.1552 -0.5680 -0.1726
 4171SOL     OW24145   2.527   3.959   3.594 -0.2156  0.7197 -0.0449
 4171SOL    HW124146   2.454   3.904   3.621  1.2121 -2.0175 -1.6794
 4171SOL    HW224147   2.482   3.976   3.511 -0.7236  0.7393  0.2349
 4172SOL     OW24148   0.945   2.764   9.602 -0.4593 -0.0795  0.1747
 4172SOL    HW124149   0.929   2.848   9.559 -0.1351  0.2973  0.7872
 4172SOL    HW224150   0.857   2.738   9.627 -0.1734 -0.9043  0.3406
 4173SOL     OW24151   0.811   1.454   2.301 -0.0077 -0.9469  0.4738
 4173SOL    HW124152   0.754   1.455   2.223 -0.3862  0.0791  0.7727
 4173SOL    HW224153   0.777   1.532   2.345  2.6024  0.9665 -0.9430
 4174SOL     OW24154   4.664   0.977  12.593 -0.2595  0.5401 -0.0439
 4174SOL    HW124155   0.023   0.985  12.583 -0.0161 -0.7882  1.3677
 4174SOL    HW224156   4.634   1.014  12.510 -0.1722 -0.6064 -0.5858
 4175SOL     OW24157   4.394   0.136   7.168  0.1181  1.2017  0.1358
 4175SOL    HW124158   4.306   0.169   7.153  0.2730  1.2225 -0.7205
 4175SOL    HW224159   4.416   0.079   7.094  1.2011  0.2690  1.1656
 4176SOL     OW24160   0.126   1.627   3.964  0.4606 -0.5346 -0.0839
 4176SOL    HW124161   0.139   1.722   3.971 -1.2454 -0.2094 -1.3466
 4176SOL    HW224162   0.084   1.604   4.047  1.3254 -0.3982  0.3935
 4177SOL     OW24163   0.350   0.782   4.172 -0.1270  0.0151 -0.0931
 4177SOL    HW124164   0.349   0.710   4.235  3.9522  0.2298  0.1871
 4177SOL    HW224165   0.393   0.733   4.102  2.0013  1.3173  0.3256
 4178SOL     OW24166   4.075   2.452  11.250 -0.4914 -0.4013 -0.7736
 4178SOL    HW124167   4.036   2.488  11.330  0.8175 -1.8278  0.5105
 4178SOL    HW224168   4.010   2.385  11.231 -0.4747 -1.2308  2.0749
 4179SOL     OW24169   3.219   1.923   1.906 -0.3464  0.1560  0.3822
 4179SOL    HW124170   3.283   1.993   1.920 -0.4251  0.1798  0.6170
 4179SOL    HW224171   3.186   1.942   1.819  2.0588  1.1639 -0.3084
 4180SOL     OW24172   1.136   2.552   5.496  0.0489  0.2184 -0.3400
 4180SOL    HW124173   1.121   2.599   5.414  1.6275  0.4839 -0.4862
 4180SOL    HW224174   1.152   2.464   5.462 -0.6233 -0.7883  1.9714
 4181SOL     OW24175   3.871   3.083  14.507  0.1512  1.3363 -0.0217
 4181SOL    HW124176   3.959   3.057  14.480 -0.7940 -3.6960  1.8580
 4181SOL    HW224177   3.883   3.177  14.518 -1.4613  1.2959  2.0465
 4182SOL     OW24178   2.525   3.613   1.078 -0.4202  0.2176  0.5267
 4182SOL    HW124179   2.615   3.626   1.049 -0.3233 -0.8368  0.3787
 4182SOL    HW224180   2.472   3.674   1.026 -0.6942 -0.0312  0.5166
 4183SOL     OW24181   1.781   2.026   2.335 -0.2521  0.3141 -0.2166
 4183SOL    HW124182   1.824   2.100   2.292  0.5257  0.7112  1.2436
 4183SOL    HW224183   1.859   1.971   2.334 -1.3877 -1.2956  0.7323
 4184SOL     OW24184   4.532   3.087   5.448  0.5768 -0.1962  0.3567
 4184SOL    HW124185   4.467   3.071   5.516  0.2578 -0.0483  0.0885
 4184SOL    HW224186   4.553   3.179   5.462  0.4482  0.1826 -1.8582
 4185SOL     OW24187   0.576   1.392   4.610 -0.1208  0.0746  0.5827
 4185SOL    HW124188   0.511   1.437   4.555  0.2799  0.5048  0.4651
 4185SOL    HW224189   0.602   1.314   4.559  0.5502  0.0073  1.0331
 4186SOL     OW24190   3.706   1.751   3.858  0.1216 -0.4970  0.2843
 4186SOL    HW124191   3.660   1.682   3.809 -1.5049  0.3534  0.6320
 4186SOL    HW224192   3.749   1.704   3.929  0.8589  1.6339  1.2511
 4187SOL     OW24193   0.775   3.178   1.349  0.0532  0.4993 -0.3733
 4187SOL    HW124194   0.852   3.160   1.295  0.2280  0.2034 -0.0249
 4187SOL    HW224195   0.779   3.272   1.368  0.2251  0.7900 -1.8644
 4188SOL     OW24196   2.999   4.695   1.910  0.3322  0.3383  0.0828
 4188SOL    HW124197   3.082   4.650   1.892 -0.2464 -0.7250  0.0940
 4188SOL    HW224198   2.934   4.625   1.914 -0.0471  0.8131  2.0070
 4189SOL     OW24199   0.362   1.921  17.505 -0.1520  0.6899  0.2105
 4189SOL    HW124200   0.287   1.866  17.481 -2.2352  2.6094  2.2367
 4189SOL    HW224201   0.348   1.992  17.443  0.2422 -0.6861 -1.4634
 4190SOL     OW24202   1.831   4.395   6.612  0.1032  0.4001  0.5894
 4190SOL    HW124203   1.921   4.423   6.632  1.2681 -2.8139 -0.0738
 4190SOL    HW224204   1.838   4.368   6.521 -1.0361  0.6560  0.4309
 4191SOL     OW24205   1.763   0.131  12.347  0.0535 -0.7423  0.1947
 4191SOL    HW124206   1.804   0.052  12.310  0.0946  0.4525 -2.2978
 4191SOL    HW224207   1.776   0.185  12.269  0.4875  2.6502  2.5996
 4192SOL     OW24208   1.556   2.507  15.108 -0.2387  0.1275 -0.2329
 4192SOL    HW124209   1.503   2.476  15.182 -0.8154  0.9641 -0.3042
 4192SOL    HW224210   1.598   2.584  15.145 -0.6451 -1.2662  3.2072
 4193SOL     OW24211   3.978   2.596   5.565 -0.4370 -0.5312 -0.2454
 4193SOL    HW124212   4.033   2.675   5.571  1.4772 -1.9739  1.4503
 4193SOL    HW224213   4.006   2.553   5.646  0.3422  0.7392  0.1667
 4194SOL     OW24214   1.331   0.803   5.254  0.6958  0.2931  0.1255
 4194SOL    HW124215   1.276   0.783   5.330 -0.7100 -2.5036 -1.6319
 4194SOL    HW224216   1.279   0.771   5.181  3.2386  1.7261 -2.3076
 4195SOL     OW24217   2.816   1.482   7.634  0.5118 -0.3343  0.0391
 4195SOL    HW124218   2.839   1.568   7.670 -1.4007  0.1486  0.1033
 4195SOL    HW224219   2.872   1.428   7.690 -0.8321 -1.2041  0.5327
 4196SOL     OW24220   3.110   2.745   3.724  0.6869  0.1206  0.0835
 4196SOL    HW124221   3.021   2.709   3.730  1.0977 -0.9651 -0.4504
 4196SOL    HW224222   3.094   2.838   3.735 -0.6000 -0.1247  0.3071
 4197SOL     OW24223   3.337   3.638  15.874 -0.3373  0.2928  0.5398
 4197SOL    HW124224   3.307   3.618  15.785 -0.2570  2.6633 -0.0184
 4197SOL    HW224225   3.368   3.553  15.905 -1.7145 -0.3915  0.0365
 4198SOL     OW24226   4.033   4.114   1.712  0.4924 -0.2685  0.2254
 4198SOL    HW124227   4.098   4.137   1.645 -0.1071 -2.5977 -1.1467
 4198SOL    HW224228   4.088   4.076   1.780 -0.7763 -1.1751  0.7384
 4199SOL     OW24229   1.998   2.211  15.387 -0.4398  0.1667  0.4864
 4199SOL    HW124230   2.017   2.229  15.295 -3.3263  0.6334 -0.0203
 4199SOL    HW224231   1.911   2.170  15.380  1.1023 -3.0918  0.2829
 4200SOL     OW24232   4.457   1.302   6.283  0.6246  0.1366 -0.0921
 4200SOL    HW124233   4.417   1.389   6.293 -0.7653 -0.3699 -1.2374
 4200SOL    HW224234   4.517   1.290   6.357  1.3810 -1.8035 -1.0048
 4201SOL     OW24235   0.177   0.339   1.286 -0.0127  0.7527 -0.6393
 4201SOL    HW124236   0.140   0.333   1.199 -2.5183 -0.6402  0.5380
 4201SOL    HW224237   0.115   0.385   1.343 -1.3273 -0.9319 -0.7306
 4202SOL     OW24238   2.177   4.031  10.980  0.0239  0.1016  0.0087
 4202SOL    HW124239   2.189   4.125  10.963 -0.0749  0.2904  0.9576
 4202SOL    HW224240   2.225   4.008  11.059  0.4888  2.4778  0.4195
 4203SOL     OW24241   4.319   0.316  15.424 -0.4230  0.1023 -0.1674
 4203SOL    HW124242   4.359   0.255  15.485 -0.0984  0.7033  0.2251
 4203SOL    HW224243   4.239   0.274  15.394 -0.3960 -0.4643  0.5696
 4204SOL     OW24244   1.632   0.821   1.802 -0.3328 -0.1704  0.1196
 4204SOL    HW124245   1.671   0.785   1.881  1.2547 -1.1945 -1.1275
 4204SOL    HW224246   1.692   0.886   1.767 -2.0235  1.6375  0.5315
 4205SOL     OW24247   4.609   4.286   5.326 -0.2061  0.2770  0.4204
 4205SOL    HW124248   4.601   4.380   5.316  1.4716  0.8097  3.9143
 4205SOL    HW224249   4.599   4.278   5.421  0.5203  1.6633  0.6007
 4206SOL     OW24250   4.480   3.572   5.361  0.5235  0.1263 -0.2283
 4206SOL    HW124251   4.534   3.600   5.435  1.7922 -1.7361 -0.4390
 4206SOL    HW224252   4.487   3.477   5.372 -0.3491  0.2630  1.5279
 4207SOL     OW24253   3.786   2.278   3.323 -0.0662  0.0299 -0.3713
 4207SOL    HW124254   3.738   2.242   3.248 -1.6541  1.4466 -0.0356
 4207SOL    HW224255   3.743   2.363   3.317  1.1094  0.7266  1.1548
 4208SOL     OW24256   2.329   2.593  12.162 -0.1021 -0.7779  0.4654
 4208SOL    HW124257   2.252   2.647  12.147 -0.2306 -1.2662 -0.6380
 4208SOL    HW224258   2.400   2.649  12.191  0.3169 -0.7659 -0.5799
 4209SOL     OW24259   0.280   3.775   8.909  0.2835  0.2702 -0.1031
 4209SOL    HW124260   0.365   3.789   8.866  0.5172 -1.2271 -0.1256
 4209SOL    HW224261   0.287   3.817   8.995  0.5309 -1.7154  0.8363
 4210SOL     OW24262   4.235   3.496   4.537 -0.4480  0.4432 -0.4294
 4210SOL    HW124263   4.312   3.531   4.583  0.0596  0.2210 -1.1155
 4210SOL    HW224264   4.262   3.404   4.535 -2.0946 -0.0452  0.1061
 4211SOL     OW24265   4.511   2.878  12.550  0.0704  0.1866 -0.3871
 4211SOL    HW124266   4.422   2.852  12.528 -0.5602  1.6998  0.4269
 4211SOL    HW224267   4.524   2.927  12.469 -0.4057  1.4869  0.3222
 4212SOL     OW24268   0.437   4.269   8.259 -0.3553 -0.0987 -0.0785
 4212SOL    HW124269   0.469   4.313   8.339  0.6474 -0.2859 -0.3730
 4212SOL    HW224270   0.357   4.320   8.248  1.1243  1.9158 -1.7222
 4213SOL     OW24271   0.576   0.322   6.610  0.0617 -0.2360  0.0425
 4213SOL    HW124272   0.589   0.396   6.669  0.4528 -0.9123  0.8111
 4213SOL    HW224273   0.482   0.304   6.623  0.2875 -0.4596  1.3711
 4214SOL     OW24274   2.507   2.542   8.303  0.4771 -0.3913 -0.2263
 4214SOL    HW124275   2.556   2.593   8.367 -1.1233  0.1237  0.6004
 4214SOL    HW224276   2.496   2.604   8.231  2.5613  0.1385 -0.0871
 4215SOL     OW24277   0.202   3.527   3.407 -0.1750 -0.2040  0.3934
 4215SOL    HW124278   0.242   3.461   3.464 -0.9608 -0.7070  0.3614
 4215SOL    HW224279   0.274   3.543   3.346 -0.4262  0.1806  0.1975
 4216SOL     OW24280   3.810   3.315   4.782 -0.1835 -0.3016 -0.1424
 4216SOL    HW124281   3.730   3.367   4.787  0.5518  0.5243  3.0266
 4216SOL    HW224282   3.869   3.365   4.839  1.6971  0.3178 -2.6103
 4217SOL     OW24283   4.464   4.393   7.332 -0.9499 -0.1769  0.5726
 4217SOL    HW124284   4.541   4.385   7.389  0.6421 -0.7337 -1.6699
 4217SOL    HW224285   4.475   4.485   7.308  1.5089 -0.8162 -0.8076
 4218SOL     OW24286   0.403   3.177   4.747 -0.4052  0.3691  0.5230
 4218SOL    HW124287   0.446   3.262   4.742 -1.2162  0.8846  2.4625
 4218SOL    HW224288   0.310   3.202   4.749 -0.8701 -1.4131  0.9917
 4219SOL     OW24289   3.998   1.517  16.253 -0.5356  0.1940 -0.4023
 4219SOL    HW124290   3.974   1.592  16.307 -0.2994  0.5569 -0.8075
 4219SOL    HW224291   4.059   1.559  16.193  2.1116 -2.0886  0.7074
 4220SOL     OW24292   4.487   1.451  10.684  0.3713  0.0436 -0.5095
 4220SOL    HW124293   4.459   1.364  10.711 -0.5877  0.7427  0.6982
 4220SOL    HW224294   4.488   1.498  10.767  1.2582  0.0991 -0.5445
 4221SOL     OW24295   0.553   0.956   1.459  0.4834  0.1864  0.4746
 4221SOL    HW124296   0.585   1.035   1.503 -4.1239  0.6309  2.9643
 4221SOL    HW224297   0.479   0.935   1.516 -1.0614 -0.8876 -1.9475
 4222SOL     OW24298   2.428   3.697   1.338  0.6938 -0.0321  0.1896
 4222SOL    HW124299   2.446   3.781   1.296 -1.3214 -0.0075 -0.5948
 4222SOL    HW224300   2.463   3.630   1.280 -0.2103 -1.3627  1.1856
 4223SOL     OW24301   3.236   0.936  13.112  0.0279  0.1477 -0.0183
 4223SOL    HW124302   3.229   1.006  13.177 -1.3376  1.4431 -1.5425
 4223SOL    HW224303   3.255   0.998  13.042  2.1909  0.1931  0.6188
 4224SOL     OW24304   2.240   1.558   3.874  0.2968 -0.8440  0.0697
 4224SOL    HW124305   2.149   1.580   3.895  0.8392 -0.6265  2.2168
 4224SOL    HW224306   2.214   1.500   3.802  3.0808 -1.6842 -0.2332
 4225SOL     OW24307   3.526   3.432  15.064  0.2137  0.0655 -0.2287
 4225SOL    HW124308   3.457   3.498  15.062  0.1207 -0.0465 -0.6391
 4225SOL    HW224309   3.574   3.446  15.145 -0.8638  2.4521 -0.0057
 4226SOL     OW24310   2.469   1.578   6.978 -0.0763  0.0326 -0.1229
 4226SOL    HW124311   2.404   1.648   6.976 -0.3303 -0.1386  1.8297
 4226SOL    HW224312   2.554   1.621   6.991  0.2491 -1.2120  1.8728
 4227SOL     OW24313   4.116   0.040   2.442  0.3594 -0.0198  0.1653
 4227SOL    HW124314   4.094   0.044   2.349 -0.1678  1.5643  0.3507
 4227SOL    HW224315   4.211   0.032   2.453  0.1694 -1.3816  0.8361
 4228SOL     OW24316   1.134   4.656   5.867  0.7107  0.1465  0.5546
 4228SOL    HW124317   1.154   4.568   5.900  0.6091  0.2181  0.8016
 4228SOL    HW224318   1.078   4.699   5.931 -1.6805 -1.4702 -0.4416
 4229SOL     OW24319   4.488   3.649   6.085 -0.0660  0.1633 -0.0690
 4229SOL    HW124320   4.569   3.625   6.040  0.3094 -0.1820  0.7985
 4229SOL    HW224321   4.428   3.652   6.010  0.9040  1.1983 -0.8022
 4230SOL     OW24322   2.119   3.357   5.569  0.0511  0.1267 -0.2816
 4230SOL    HW124323   2.189   3.417   5.596  0.0627 -0.4644  1.0310
 4230SOL    HW224324   2.049   3.419   5.548  1.1824  1.5395  0.1061
 4231SOL     OW24325   0.381   4.583  15.387  0.3163  0.3944 -0.1956
 4231SOL    HW124326   0.332   4.581  15.468  0.1145  3.1134 -0.2427
 4231SOL    HW224327   0.318   4.634  15.335  0.5352 -0.5437 -1.3958
 4232SOL     OW24328   2.875   2.188   7.549  0.1547  0.3762  0.2672
 4232SOL    HW124329   2.788   2.156   7.523  0.0993  0.6403  0.1209
 4232SOL    HW224330   2.858   2.225   7.636 -0.4027 -1.3072  0.8691
 4233SOL     OW24331   1.869   4.566   8.908  0.6211 -0.1875 -0.0023
 4233SOL    HW124332   1.912   4.480   8.910 -1.6163 -1.2986  1.9038
 4233SOL    HW224333   1.859   4.575   8.813 -0.8905  2.0569  0.3606
 4234SOL     OW24334   2.022   1.661   5.610 -0.4310 -0.3226 -0.2962
 4234SOL    HW124335   2.071   1.606   5.672 -0.1145  0.1380 -0.1359
 4234SOL    HW224336   1.960   1.599   5.573 -0.7477  0.9413 -1.8903
 4235SOL     OW24337   0.361   2.575   1.256  0.0858  0.0163 -0.6660
 4235SOL    HW124338   0.356   2.649   1.318  0.4127  1.0678 -1.9022
 4235SOL    HW224339   0.393   2.510   1.318  0.5881  1.4211  0.5542
 4236SOL     OW24340   3.776   1.638   7.904 -0.0470 -0.0798  0.1523
 4236SOL    HW124341   3.684   1.664   7.906 -0.1165 -0.4819  1.9754
 4236SOL    HW224342   3.818   1.723   7.923 -0.1680 -0.1100  0.5650
 4237SOL     OW24343   3.616   4.102   7.262 -0.1210  0.3631  0.8909
 4237SOL    HW124344   3.535   4.057   7.284  0.4427 -1.2193 -0.2798
 4237SOL    HW224345   3.593   4.172   7.201  0.8099  0.6003  0.8000
 4238SOL     OW24346   1.078   4.736  16.591  0.0716 -0.1189  0.3318
 4238SOL    HW124347   1.103   4.704  16.505  2.5556 -0.2840  1.1215
 4238SOL    HW224348   1.136   4.686  16.648 -1.1345 -2.6563 -0.6587
 4239SOL     OW24349   0.600   1.602   6.737 -0.2860  0.0568 -0.2126
 4239SOL    HW124350   0.540   1.653   6.791 -0.0807 -1.1971  1.2205
 4239SOL    HW224351   0.606   1.520   6.786 -0.1095  0.9492  1.2855
 4240SOL     OW24352   0.699   2.038   5.869  0.0190  0.7062  0.0900
 4240SOL    HW124353   0.651   2.048   5.787  3.1195 -1.7526 -2.0274
 4240SOL    HW224354   0.775   2.097   5.869  0.4501  0.1463  0.8493
 4241SOL     OW24355   3.566   1.309   0.373  0.1472  0.0206  0.3341
 4241SOL    HW124356   3.497   1.271   0.318 -1.0602  0.6278  1.4427
 4241SOL    HW224357   3.639   1.303   0.312  0.1396  0.1926  0.3082
 4242SOL     OW24358   1.837   0.768   4.317 -0.0707 -0.3829  0.4541
 4242SOL    HW124359   1.851   0.844   4.373  1.2389 -1.2864  1.3493
 4242SOL    HW224360   1.742   0.775   4.309 -0.0054  0.0058  0.0713
 4243SOL     OW24361   0.957   0.169   6.797 -0.4854 -0.0365 -0.2903
 4243SOL    HW124362   1.042   0.155   6.838  0.1350  1.5448 -1.0515
 4243SOL    HW224363   0.970   0.254   6.755  2.3389 -1.4584 -2.3030
 4244SOL     OW24364   1.892   0.897   1.320  0.5764 -0.5286  0.2408
 4244SOL    HW124365   1.900   0.990   1.341 -0.3291 -0.0713 -1.5465
 4244SOL    HW224366   1.797   0.887   1.316  0.7680 -3.1917  1.9848
 4245SOL     OW24367   1.141   4.232  14.931 -0.0065 -0.0868 -1.1835
 4245SOL    HW124368   1.198   4.266  15.000 -1.7672 -0.1689  0.3093
 4245SOL    HW224369   1.052   4.239  14.966  1.4555 -0.7282  2.5413
 4246SOL     OW24370   0.738   0.015   7.397 -0.3609 -0.7059 -0.3256
 4246SOL    HW124371   0.798   0.068   7.449  1.0290 -2.4179 -0.1728
 4246SOL    HW224372   0.657   0.052   7.433 -1.0179 -1.9367 -0.5549
 4247SOL     OW24373   0.826   2.219   7.441  0.3988 -0.3103  0.3176
 4247SOL    HW124374   0.888   2.176   7.499 -0.9309  2.6841  3.9999
 4247SOL    HW224375   0.839   2.169   7.360  0.1592 -0.6953  0.5188
 4248SOL     OW24376   3.520   4.118   6.595 -0.0887 -0.1203  0.3393
 4248SOL    HW124377   3.432   4.088   6.621 -0.7976  2.6341  1.1680
 4248SOL    HW224378   3.511   4.125   6.500  0.0621 -0.4174  0.3043
 4249SOL     OW24379   4.500   3.581   7.258 -0.3956 -0.4671 -0.1457
 4249SOL    HW124380   4.466   3.665   7.288  1.8322 -1.2149  4.3612
 4249SOL    HW224381   4.446   3.526   7.314  1.5973  0.2363  2.4302
 4250SOL     OW24382   2.985   3.319  16.100 -0.5263 -0.1174  0.1774
 4250SOL    HW124383   3.067   3.340  16.146 -0.6687 -0.9423  0.8116
 4250SOL    HW224384   2.961   3.409  16.080  0.8662  0.8745  2.9340
 4251SOL     OW24385   0.745   3.168   9.834  0.3799  0.3041  0.4653
 4251SOL    HW124386   0.769   3.195   9.745  0.3177  0.1902  0.4146
 4251SOL    HW224387   0.697   3.249   9.852 -2.0284 -0.5404 -2.0733
 4252SOL     OW24388   3.649   4.122   6.949 -0.0615  0.9672 -0.5579
 4252SOL    HW124389   3.664   4.032   6.978  0.9129  1.4370  0.3591
 4252SOL    HW224390   3.737   4.155   6.934 -0.5922  1.2891 -3.0678
 4253SOL     OW24391   1.421   4.386   9.603 -0.4486 -0.4922 -0.7814
 4253SOL    HW124392   1.466   4.436   9.671 -0.7226  1.2342 -1.8976
 4253SOL    HW224393   1.450   4.433   9.525  0.8347  0.8866  0.5365
 4254SOL     OW24394   4.376   0.981   6.789 -0.2986 -0.4037 -0.1101
 4254SOL    HW124395   4.302   0.923   6.774  0.6420 -0.7107 -3.5247
 4254SOL    HW224396   4.443   0.917   6.815 -0.6163 -0.6169  0.1757
 4255SOL     OW24397   3.704   4.643   4.068 -0.5642  0.0657  0.5264
 4255SOL    HW124398   3.663   4.640   4.154  0.2668  1.1603  0.9603
 4255SOL    HW224399   3.656   4.574   4.023  1.4419 -0.9952 -0.0150
 4256SOL     OW24400   4.279   0.500   9.601  0.0038  0.3462  0.1758
 4256SOL    HW124401   4.241   0.568   9.657  1.6471  1.3315  0.1003
 4256SOL    HW224402   4.239   0.419   9.633 -1.3906  0.8114 -0.3931
 4257SOL     OW24403   0.843   3.699   6.328 -0.3314 -0.0626 -0.3840
 4257SOL    HW124404   0.847   3.657   6.414 -0.6713 -0.1318 -0.3997
 4257SOL    HW224405   0.812   3.622   6.279 -1.3851 -0.5173  1.0101
 4258SOL     OW24406   2.173   4.126   5.910  0.2096  0.0412 -0.3373
 4258SOL    HW124407   2.113   4.063   5.869  0.7402  1.3645 -3.1067
 4258SOL    HW224408   2.208   4.164   5.830 -0.8558  0.5022 -0.5844
 4259SOL     OW24409   2.709   0.990   6.533  0.0635  0.3844 -0.3884
 4259SOL    HW124410   2.777   0.980   6.467 -0.1014  1.4987 -0.7231
 4259SOL    HW224411   2.640   0.981   6.467 -0.3077 -0.9015  0.1768
 4260SOL     OW24412   3.250   2.406   4.618 -0.4559 -0.2904  0.3151
 4260SOL    HW124413   3.182   2.435   4.678 -0.6762  0.6904 -0.4145
 4260SOL    HW224414   3.247   2.473   4.550  0.2583  0.1695  0.7337
 4261SOL     OW24415   4.561   0.547   3.506  0.1296 -0.3281  0.4497
 4261SOL    HW124416   4.516   0.470   3.471 -1.4071  1.0527 -0.6145
 4261SOL    HW224417   4.570   0.511   3.594 -0.6377 -0.5898  0.4245
 4262SOL     OW24418   0.588   1.961   7.235  0.0118  0.3458 -0.0143
 4262SOL    HW124419   0.550   1.976   7.148 -2.0513  0.6440  0.9610
 4262SOL    HW224420   0.675   2.002   7.230  0.0790  0.1662 -0.3700
 4263SOL     OW24421   0.016   2.510   1.920 -0.4693  0.2478  0.2073
 4263SOL    HW124422   0.083   2.521   1.988  0.4956 -0.6266 -0.6023
 4263SOL    HW224423   4.681   2.462   1.960  0.0870 -0.4451  0.3603
 4264SOL     OW24424   3.543   0.146  14.199 -0.5213  0.2111 -0.0275
 4264SOL    HW124425   3.482   0.117  14.267 -0.8912  0.8063 -0.1023
 4264SOL    HW224426   3.548   0.062  14.154 -0.6160 -1.5731  3.2579
 4265SOL     OW24427   4.702   3.373   6.739  0.1578 -0.3783 -0.1619
 4265SOL    HW124428   4.622   3.426   6.740 -0.0229 -0.6982  2.0829
 4265SOL    HW224429   0.032   3.440   6.721  0.1528 -0.4555 -0.4675
 4266SOL     OW24430   4.372   1.886   5.657 -0.7578  0.3734 -0.2858
 4266SOL    HW124431   4.281   1.916   5.657 -1.0824 -0.6451  4.0500
 4266SOL    HW224432   4.384   1.855   5.567 -1.0416  0.3959 -0.3329
 4267SOL     OW24433   4.616   1.583   6.972  0.6195  0.3315 -0.0327
 4267SOL    HW124434   4.708   1.557   6.981  0.3159 -0.5685  0.5098
 4267SOL    HW224435   4.589   1.554   6.885  0.4932 -1.8609  0.7181
 4268SOL     OW24436   1.950   2.690   7.623 -0.2476 -0.0919  0.3645
 4268SOL    HW124437   1.881   2.624   7.627 -0.9722  0.7474  1.5307
 4268SOL    HW224438   1.933   2.728   7.537 -2.1995 -1.2358  0.2572
 4269SOL     OW24439   3.459   2.850  11.644 -0.2644  0.0975 -0.1114
 4269SOL    HW124440   3.404   2.774  11.662 -0.0062 -0.0434  0.0728
 4269SOL    HW224441   3.402   2.906  11.590 -1.6336 -0.1206  1.1046
 4270SOL     OW24442   1.116   0.584   4.352  0.2483 -0.1823 -0.3395
 4270SOL    HW124443   1.096   0.567   4.444 -0.8022 -4.2475 -1.3128
 4270SOL    HW224444   1.179   0.653   4.374  0.9772 -0.4799 -1.4867
 4271SOL     OW24445   3.485   2.622   7.565  0.0675 -0.3278 -0.0324
 4271SOL    HW124446   3.430   2.695   7.595 -0.9897 -0.7911 -0.8521
 4271SOL    HW224447   3.442   2.559   7.623 -1.3226  0.6086 -0.0518
 4272SOL     OW24448   3.645   1.248   9.434 -0.5688 -0.4693  0.0177
 4272SOL    HW124449   3.554   1.258   9.404 -0.8314 -2.4031  0.1774
 4272SOL    HW224450   3.650   1.153   9.424  1.2677 -0.6802  3.0766
 4273SOL     OW24451   0.560   2.778   5.438 -0.0795 -0.1132 -0.1292
 4273SOL    HW124452   0.499   2.709   5.462  0.3010 -0.7496 -0.9740
 4273SOL    HW224453   0.540   2.854   5.493 -0.8459  1.8319 -3.0733
 4274SOL     OW24454   4.448   1.605   8.510  0.1726  0.8445  0.5733
 4274SOL    HW124455   4.381   1.598   8.579 -0.8576  1.1367 -0.3984
 4274SOL    HW224456   4.394   1.648   8.443  1.2143 -0.0875 -0.8768
 4275SOL     OW24457   0.163   0.975   0.613 -0.0306 -0.1416  0.0512
 4275SOL    HW124458   0.182   0.896   0.563 -1.2129  0.6914 -1.6776
 4275SOL    HW224459   0.083   1.000   0.568 -0.9303 -2.9114  0.1001
 4276SOL     OW24460   4.518   2.380   0.287  0.7329 -0.0714  0.0684
 4276SOL    HW124461   4.596   2.367   0.340 -0.0695  0.2915  1.3422
 4276SOL    HW224462   4.480   2.462   0.319 -1.4355 -0.5054 -1.3656
 4277SOL     OW24463   3.387   0.106  14.757 -0.1802  0.3188  0.2017
 4277SOL    HW124464   3.406   0.013  14.765  0.6214  0.3450 -1.3058
 4277SOL    HW224465   3.466   0.133  14.710 -0.4817  1.0693  0.1248
 4278SOL     OW24466   3.687   3.429  13.002 -0.0985  0.4653  0.1956
 4278SOL    HW124467   3.676   3.423  13.097 -1.4802  0.4618  0.0420
 4278SOL    HW224468   3.641   3.347  12.988  1.2094 -0.5280  1.7063
 4279SOL     OW24469   3.643   1.192   6.388  0.7414  0.3685 -0.2834
 4279SOL    HW124470   3.596   1.118   6.426  0.1888  1.2571  0.7631
 4279SOL    HW224471   3.600   1.189   6.303 -2.5547 -0.2799  1.3992
 4280SOL     OW24472   1.606   3.265   6.739 -0.3366  0.4514  0.2197
 4280SOL    HW124473   1.551   3.314   6.800 -1.2342 -3.4160  2.5795
 4280SOL    HW224474   1.593   3.300   6.651  0.4266  0.9758  0.3161
 4281SOL     OW24475   0.870   3.368   2.621  0.3541  0.4969  0.0043
 4281SOL    HW124476   0.803   3.305   2.593 -0.9562  2.5872 -1.5701
 4281SOL    HW224477   0.929   3.368   2.545  0.3972 -2.1685  0.0360
 4282SOL     OW24478   3.385   3.381   1.192 -0.4542  0.3210 -0.0300
 4282SOL    HW124479   3.407   3.321   1.121  0.6625  0.0393  0.5458
 4282SOL    HW224480   3.310   3.431   1.162 -0.8068  0.9235  1.8765
 4283SOL     OW24481   3.474   4.424   2.520  0.2784  0.0601 -0.3506
 4283SOL    HW124482   3.528   4.493   2.481  2.7127 -1.9258 -0.4888
 4283SOL    HW224483   3.385   4.458   2.511  0.1654 -0.8057 -2.4517
 4284SOL     OW24484   3.036   3.319   4.689  0.5734  0.1499 -0.6343
 4284SOL    HW124485   2.949   3.359   4.685 -0.0597 -1.1939 -0.3342
 4284SOL    HW224486   3.024   3.226   4.707  1.8162 -0.4265 -2.8031
 4285SOL     OW24487   0.878   1.443  14.597 -0.0469 -0.0523  0.2053
 4285SOL    HW124488   0.813   1.429  14.529  1.6681 -0.3091 -1.3742
 4285SOL    HW224489   0.933   1.369  14.573 -0.1083  0.3955 -1.3269
 4286SOL     OW24490   3.747   1.640  15.098  0.0053  0.3965 -0.8456
 4286SOL    HW124491   3.799   1.705  15.144 -0.4106 -0.4655  0.8490
 4286SOL    HW224492   3.812   1.605  15.036 -1.3396  1.9694 -3.1217
 4287SOL     OW24493   1.376   0.802  10.277 -0.2361 -0.1391 -0.3606
 4287SOL    HW124494   1.444   0.843  10.224  1.5383 -2.7250 -0.0777
 4287SOL    HW224495   1.415   0.807  10.363  1.1058  1.9527 -1.0958
 4288SOL     OW24496   0.732   3.827   3.602  0.3971  0.0039 -0.1692
 4288SOL    HW124497   0.816   3.786   3.578 -0.9150 -2.1256 -1.1399
 4288SOL    HW224498   0.666   3.764   3.574  1.9877 -0.8063 -2.1528
 4289SOL     OW24499   1.784   3.803   8.979  0.0482  0.0144  0.0474
 4289SOL    HW124500   1.827   3.832   9.060 -1.0763  0.3682  0.5262
 4289SOL    HW224501   1.856   3.764   8.931 -2.5370 -1.9174 -2.2340
 4290SOL     OW24502   0.481   0.963   6.513 -0.1045 -0.3648 -0.0434
 4290SOL    HW124503   0.560   0.921   6.547  1.5558  3.4258  0.7912
 4290SOL    HW224504   0.410   0.900   6.525 -1.5412  1.4110  0.7729
 4291SOL     OW24505   2.769   3.798   5.476  0.5186 -0.6846 -0.3245
 4291SOL    HW124506   2.746   3.720   5.526 -0.1219 -1.0360 -1.1487
 4291SOL    HW224507   2.679   3.809   5.445  0.4252  1.0141  0.5650
 4292SOL     OW24508   2.206   2.122   9.467  0.1565  0.1095  0.1940
 4292SOL    HW124509   2.132   2.116   9.406 -0.1457 -0.3165  0.6065
 4292SOL    HW224510   2.196   2.036   9.506  2.9918  0.3558  1.5204
 4293SOL     OW24511   1.908   2.472   4.400  0.2090 -1.0330  0.4804
 4293SOL    HW124512   1.933   2.524   4.324  0.3083 -2.5990 -0.5611
 4293SOL    HW224513   1.989   2.453   4.447  1.9409  0.7181 -1.8266
 4294SOL     OW24514   4.321   3.141  12.308  0.3646 -0.2954 -0.1639
 4294SOL    HW124515   4.399   3.104  12.348 -0.8723  1.0829  3.5414
 4294SOL    HW224516   4.349   3.229  12.281 -0.0088  0.4968  2.0529
 4295SOL     OW24517   0.268   0.050   5.923  0.2079  0.2066  0.7464
 4295SOL    HW124518   0.249   0.019   5.834  0.1158  0.5565  0.6433
 4295SOL    HW224519   0.320   4.712   5.954 -0.0402 -0.5778 -0.7368
 4296SOL     OW24520   2.689   3.707   4.670  1.2236 -0.1224  0.5711
 4296SOL    HW124521   2.625   3.771   4.639  1.6684  0.3571  0.6402
 4296SOL    HW224522   2.695   3.653   4.590  3.3060  3.4471 -1.6790
 4297SOL     OW24523   0.988   1.172   8.008  0.1418 -0.5535 -0.1335
 4297SOL    HW124524   0.908   1.153   8.058  0.3528  0.1630  0.4851
 4297SOL    HW224525   0.949   1.166   7.921  1.3522 -0.3759 -0.6844
 4298SOL     OW24526   3.723   2.812   5.499  0.1838  0.7546  0.0103
 4298SOL    HW124527   3.782   2.832   5.426  0.9652 -1.0813  0.1379
 4298SOL    HW224528   3.675   2.894   5.510 -0.6958  0.3918 -1.1959
 4299SOL     OW24529   3.984   1.724   3.108 -0.4863 -0.2765  0.5943
 4299SOL    HW124530   4.000   1.631   3.092  3.1972  0.0332  2.4461
 4299SOL    HW224531   4.021   1.734   3.195 -2.1146  4.9097  0.6406
 4300SOL     OW24532   0.852   3.172   7.878  0.3052  0.4084 -0.1142
 4300SOL    HW124533   0.781   3.141   7.935  1.8232 -2.4202  0.2379
 4300SOL    HW224534   0.835   3.264   7.860 -0.7217 -0.0402 -1.4174
 4301SOL     OW24535   3.988   0.597   5.626 -0.3387 -0.0013  0.5248
 4301SOL    HW124536   4.007   0.666   5.690 -1.7010 -1.5852  2.6500
 4301SOL    HW224537   3.897   0.586   5.653 -0.9894  0.7704 -1.4260
 4302SOL     OW24538   2.169   1.216   5.802  0.1604  0.3073  0.3261
 4302SOL    HW124539   2.100   1.278   5.780 -1.0834 -1.0658  0.3551
 4302SOL    HW224540   2.126   1.134   5.779  0.7923  0.2395 -0.6142
 4303SOL     OW24541   0.333   0.180  12.530  0.1640  0.8859  0.0823
 4303SOL    HW124542   0.338   0.092  12.492  2.9568  0.3396  1.7010
 4303SOL    HW224543   0.311   0.230  12.451  0.8828 -0.7454 -1.1636
 4304SOL     OW24544   1.976   0.042   4.767  0.1336  0.2750 -0.7846
 4304SOL    HW124545   2.067   0.054   4.740  0.0374 -0.4935 -1.4378
 4304SOL    HW224546   1.953   0.131   4.794  1.1004 -0.9373  4.1762
 4305SOL     OW24547   1.362   4.458  14.971  0.0220  0.5678  0.0229
 4305SOL    HW124548   1.424   4.494  14.908 -1.4109 -1.4079 -2.5131
 4305SOL    HW224549   1.383   4.366  14.954  3.1047  0.9439  1.7208
 4306SOL     OW24550   2.917   1.377   5.700 -0.0391  0.2325  0.0858
 4306SOL    HW124551   2.919   1.359   5.606  0.8026 -1.8171  0.4929
 4306SOL    HW224552   3.006   1.356   5.729  0.4369 -0.8318 -2.1400
 4307SOL     OW24553   0.459   1.024   5.992 -0.2379  0.3167 -0.4682
 4307SOL    HW124554   0.534   1.062   5.946 -1.0473  2.3431 -0.1229
 4307SOL    HW224555   0.469   1.051   6.084 -0.5939 -1.1436 -0.0022
 4308SOL     OW24556   1.808   3.171   1.295  0.2735 -0.5387  0.2963
 4308SOL    HW124557   1.760   3.240   1.340  1.3081  0.2236  0.2397
 4308SOL    HW224558   1.888   3.168   1.349 -0.4812  1.1976  1.5055
 4309SOL     OW24559   2.275   1.655   2.270 -0.0398 -0.2135  0.1457
 4309SOL    HW124560   2.309   1.743   2.250  0.8013  0.2647  3.7192
 4309SOL    HW224561   2.357   1.609   2.287  1.1448  1.3202 -1.3804
 4310SOL     OW24562   1.338   1.123  17.211 -0.1098 -0.2323 -0.4788
 4310SOL    HW124563   1.411   1.067  17.186  0.1116 -0.7382  1.2813
 4310SOL    HW224564   1.268   1.077  17.164 -1.2998  1.1999 -0.1184
 4311SOL     OW24565   3.671   2.965  13.480  0.6482  0.0418 -0.1750
 4311SOL    HW124566   3.576   2.978  13.485  0.4776 -1.2858  0.0763
 4311SOL    HW224567   3.686   2.961  13.385  2.2105  2.1624 -0.0162
 4312SOL     OW24568   1.101   2.072  16.850 -0.2403  0.0735  0.2699
 4312SOL    HW124569   1.051   2.090  16.770  0.0008  1.0335  0.3391
 4312SOL    HW224570   1.039   2.076  16.922 -0.3081 -2.0077  0.3401
 4313SOL     OW24571   3.209   0.038   8.018  0.3838  0.2744 -0.1455
 4313SOL    HW124572   3.160   4.713   7.963 -2.3242  3.2269 -1.0442
 4313SOL    HW224573   3.259   4.713   8.072  0.0238 -1.0892 -1.3747
 4314SOL     OW24574   3.000   2.504   9.709 -0.0127 -0.3149 -0.2329
 4314SOL    HW124575   2.953   2.423   9.728 -0.7287  0.2577  0.3917
 4314SOL    HW224576   2.944   2.573   9.742  0.0884  0.3630 -1.4587
 4315SOL     OW24577   2.911   0.556   6.136  0.2210 -0.2081 -0.3120
 4315SOL    HW124578   2.830   0.596   6.168 -0.7291 -2.5176  0.2250
 4315SOL    HW224579   2.902   0.476   6.188 -0.2214 -2.2851 -3.5695
 4316SOL     OW24580   1.271   3.154   2.016  0.5050 -0.3170  0.1129
 4316SOL    HW124581   1.359   3.131   2.047  1.5110  0.6133 -2.0947
 4316SOL    HW224582   1.255   3.228   2.075  3.5351  0.9022 -0.5929
 4317SOL     OW24583   2.031   3.329  17.438 -1.4118 -0.1559 -0.3673
 4317SOL    HW124584   2.065   3.307  17.351  0.4511  1.3150 -0.0042
 4317SOL    HW224585   1.961   3.264  17.437 -0.7072 -0.8866 -1.0616
 4318SOL     OW24586   3.943   1.559  13.985 -0.0726 -0.5751  0.3009
 4318SOL    HW124587   4.006   1.500  13.943 -0.1966  0.2767 -1.0637
 4318SOL    HW224588   3.936   1.525  14.074  1.0058  0.1511  0.6684
 4319SOL     OW24589   1.791   2.628   4.020 -0.1231 -0.5000 -0.5337
 4319SOL    HW124590   1.765   2.555   3.964  0.3031  1.3001 -3.0897
 4319SOL    HW224591   1.830   2.686   3.953 -3.2712  1.1100 -0.9540
 4320SOL     OW24592   2.962   3.335   5.704 -0.1102  0.0322 -0.4920
 4320SOL    HW124593   2.937   3.273   5.773 -0.0981  2.1662  1.4448
 4320SOL    HW224594   2.992   3.409   5.757 -0.5277 -0.9491  1.1425
 4321SOL     OW24595   0.800   1.633   6.278  0.0465  0.4050 -0.1172
 4321SOL    HW124596   0.734   1.613   6.345 -0.0105 -2.1373 -0.9123
 4321SOL    HW224597   0.756   1.585   6.208  0.8944  0.3413 -0.6055
 4322SOL     OW24598   4.237   4.443   6.670  0.8569  0.1257  0.5437
 4322SOL    HW124599   4.191   4.502   6.611  0.1826 -0.5870  0.3623
 4322SOL    HW224600   4.190   4.449   6.754  0.6340  0.8089  0.3683
 4323SOL     OW24601   1.217   0.405  11.161 -0.8499 -0.2283  0.0981
 4323SOL    HW124602   1.208   0.490  11.118  0.1199 -0.3803 -0.4067
 4323SOL    HW224603   1.129   0.375  11.139 -1.2122  0.3822  0.7011
 4324SOL     OW24604   4.712   4.435   8.924  0.7236 -0.1025  0.2780
 4324SOL    HW124605   0.031   4.476   8.989  0.8560 -0.7207  0.5594
 4324SOL    HW224606   4.640   4.425   8.986  0.2870 -2.7410 -0.6441
 4325SOL     OW24607   4.425   4.722   0.404 -0.6914 -0.2416 -0.3785
 4325SOL    HW124608   4.466   4.636   0.418 -0.8244 -0.2178  0.1660
 4325SOL    HW224609   4.452   0.032   0.483 -2.2517  1.6750 -1.0009
 4326SOL     OW24610   3.768   3.941   8.171  0.2163 -0.0201  0.0895
 4326SOL    HW124611   3.785   3.876   8.239  2.5043  1.1233  0.6245
 4326SOL    HW224612   3.850   3.939   8.121 -0.8665  0.8717 -1.7107
 4327SOL     OW24613   2.784   3.429  12.020 -0.1167 -0.1186 -0.0946
 4327SOL    HW124614   2.745   3.513  12.045  0.8966  0.3514 -0.0647
 4327SOL    HW224615   2.745   3.427  11.933  0.0402  0.2583 -0.1773
 4328SOL     OW24616   3.335   3.261   8.654  0.0330 -0.6243 -0.0626
 4328SOL    HW124617   3.383   3.315   8.592 -2.5209  2.4972  0.7058
 4328SOL    HW224618   3.255   3.306   8.680 -1.5914 -3.1786 -0.5772
 4329SOL     OW24619   3.595   2.295   3.069  0.6937 -0.3187 -0.0634
 4329SOL    HW124620   3.598   2.313   2.975  1.2488  2.3185  0.4604
 4329SOL    HW224621   3.578   2.201   3.079  0.4195 -0.4205 -1.4541
 4330SOL     OW24622   4.231   1.909   7.328  0.1855  0.0108  0.8165
 4330SOL    HW124623   4.236   1.910   7.233 -1.6391  2.2281  0.7595
 4330SOL    HW224624   4.261   1.998   7.346  0.1990 -0.1719  1.7080
 4331SOL     OW24625   1.555   3.020   4.221 -0.1505 -0.1232  0.0288
 4331SOL    HW124626   1.635   3.066   4.248  1.1322 -1.7934 -0.9036
 4331SOL    HW224627   1.599   2.937   4.201  1.0482  0.5941 -0.3288
 4332SOL     OW24628   0.427   1.853   4.781  0.6138 -0.3118 -0.5063
 4332SOL    HW124629   0.355   1.823   4.725  0.4059 -0.1651 -0.3193
 4332SOL    HW224630   0.392   1.867   4.869  2.8524 -0.6615  0.4334
 4333SOL     OW24631   2.212   3.286   6.146 -0.4917 -0.0512 -0.0070
 4333SOL    HW124632   2.223   3.381   6.146  1.6689 -0.3030 -0.0639
 4333SOL    HW224633   2.280   3.256   6.206 -1.7155 -2.0769  0.3714
 4334SOL     OW24634   2.014   0.533   1.477  0.2998 -0.2667 -0.4657
 4334SOL    HW124635   1.944   0.583   1.519 -0.8185 -2.1921 -0.0309
 4334SOL    HW224636   2.024   0.458   1.536  1.2790 -0.9834 -1.5235
 4335SOL     OW24637   1.464   2.519   7.337  0.0061 -0.6207  0.2842
 4335SOL    HW124638   1.406   2.587   7.370  0.8401  1.1181 -1.7710
 4335SOL    HW224639   1.545   2.568   7.323  0.8100 -2.0308  0.0216
 4336SOL     OW24640   1.555   3.545  10.458 -0.4075 -0.2052  0.4498
 4336SOL    HW124641   1.618   3.612  10.483  1.3874 -1.6251 -0.2599
 4336SOL    HW224642   1.612   3.490  10.403 -1.3339 -1.3951  0.6818
 4337SOL     OW24643   4.076   2.273   5.989 -0.2842 -0.3258 -0.2090
 4337SOL    HW124644   4.127   2.328   6.048  0.2172  2.0508 -2.8734
 4337SOL    HW224645   4.039   2.211   6.052  1.7734  1.6664  2.9084
 4338SOL     OW24646   0.889   0.498   0.474  0.7049 -1.0053 -0.3305
 4338SOL    HW124647   0.855   0.478   0.387  0.6543 -0.3583 -0.4631
 4338SOL    HW224648   0.979   0.473   0.454  0.9232  0.6042 -1.4440
 4339SOL     OW24649   1.565   3.047  11.856  0.0681  0.1222  0.2103
 4339SOL    HW124650   1.544   3.003  11.938 -0.5996 -1.2369 -0.6957
 4339SOL    HW224651   1.477   3.044  11.820 -0.7056 -0.1426  2.1131
 4340SOL     OW24652   0.398   3.939   2.381  0.0905  0.4369 -0.1038
 4340SOL    HW124653   0.334   3.892   2.326  0.3082 -1.2269  1.0926
 4340SOL    HW224654   0.480   3.936   2.332 -1.2978  1.8973 -2.5847
 4341SOL     OW24655   4.523   2.418   4.028  1.1291  0.6245  0.8553
 4341SOL    HW124656   4.438   2.456   4.051  0.3108 -0.3905 -0.5366
 4341SOL    HW224657   4.528   2.360   4.103  1.5635 -0.5417 -0.0861
 4342SOL     OW24658   0.055   0.875   9.379  0.2350 -0.6202  0.3809
 4342SOL    HW124659   0.123   0.815   9.347  0.8941  0.7282 -0.7335
 4342SOL    HW224660   0.032   0.836   9.463 -2.3414 -1.3817 -0.6763
 4343SOL     OW24661   0.349   1.526   6.214  0.2385 -0.0908  0.1927
 4343SOL    HW124662   0.356   1.619   6.237 -2.4559  0.1785  0.0006
 4343SOL    HW224663   0.415   1.500   6.277 -1.1460 -1.0650  1.2432
 4344SOL     OW24664   3.175   1.373   5.790 -0.1609 -0.4504 -0.2745
 4344SOL    HW124665   3.266   1.359   5.816  0.1224 -0.8197 -1.4707
 4344SOL    HW224666   3.191   1.457   5.747  2.7082 -0.1179  1.4338
 4345SOL     OW24667   4.471   2.964  15.515 -0.8652  0.2578  0.5777
 4345SOL    HW124668   4.474   2.869  15.525 -0.8931  0.1126 -0.7970
 4345SOL    HW224669   4.376   2.973  15.510 -0.7730  1.0961  0.3380
 4346SOL     OW24670   1.346   1.468   5.878  0.1765 -0.0083  0.0741
 4346SOL    HW124671   1.343   1.507   5.791 -0.2380 -0.6112 -0.1822
 4346SOL    HW224672   1.381   1.539   5.930  1.3524  0.2744 -1.1019
 4347SOL     OW24673   3.214   2.022   2.839  0.0900 -0.8157  0.4881
 4347SOL    HW124674   3.142   2.065   2.794 -0.1073 -2.2687 -0.5873
 4347SOL    HW224675   3.164   2.005   2.919 -1.6697  0.9734 -0.2591
 4348SOL     OW24676   3.662   4.270  16.858  0.0824 -0.0543 -0.4239
 4348SOL    HW124677   3.633   4.192  16.811  1.1486  1.0482 -2.9446
 4348SOL    HW224678   3.691   4.322  16.782  1.2382 -2.9673 -1.9860
 4349SOL     OW24679   2.523   3.693  10.620  0.1613  0.4466 -0.1522
 4349SOL    HW124680   2.504   3.786  10.631  2.4887  0.8043  0.9655
 4349SOL    HW224681   2.616   3.694  10.598  0.7969  0.8615  2.4896
 4350SOL     OW24682   4.697   0.176  14.018  0.0766  0.7772 -0.3283
 4350SOL    HW124683   0.005   0.243  13.967 -1.0464  0.6411 -1.4882
 4350SOL    HW224684   0.030   0.131  14.065  1.7039  1.7729 -1.7823
 4351SOL     OW24685   4.443   2.659   7.330 -0.2376  0.6683  0.5557
 4351SOL    HW124686   4.381   2.599   7.289  1.0115  1.2951 -2.2624
 4351SOL    HW224687   4.403   2.662   7.417 -0.6258  0.7017  0.3759
 4352SOL     OW24688   3.032   2.565   4.706 -0.0235  0.1672 -0.3885
 4352SOL    HW124689   2.976   2.527   4.773  0.3580  0.9638  0.3814
 4352SOL    HW224690   2.991   2.542   4.622  0.7456 -0.2881 -0.6416
 4353SOL     OW24691   2.876   4.509  17.149  0.0631 -0.3102 -0.4701
 4353SOL    HW124692   2.942   4.443  17.128  0.1430 -0.6035  0.7414
 4353SOL    HW224693   2.799   4.452  17.138 -0.8587  0.4797  1.9011
 4354SOL     OW24694   2.856   4.677   7.669 -0.1669 -0.3589  0.3085
 4354SOL    HW124695   2.918   4.668   7.742 -1.5388 -0.7886  1.4113
 4354SOL    HW224696   2.771   4.684   7.711 -0.4730  1.0509 -0.5443
 4355SOL     OW24697   3.219   3.439   3.526  0.1103  0.1016  0.1064
 4355SOL    HW124698   3.239   3.413   3.616  0.8152  0.3873  0.0366
 4355SOL    HW224699   3.236   3.531   3.547 -1.0720  0.4232 -0.3295
 4356SOL     OW24700   3.243   1.947  10.336  0.4803  0.2752 -0.2643
 4356SOL    HW124701   3.334   1.955  10.364 -0.2332 -0.8331  2.3418
 4356SOL    HW224702   3.206   1.906  10.414  0.3298  1.5639  0.3502
 4357SOL     OW24703   3.596   4.071  17.209  0.4234 -0.3896  0.5031
 4357SOL    HW124704   3.660   4.007  17.178 -1.0303 -2.2519  1.3806
 4357SOL    HW224705   3.650   4.145  17.180  0.4414 -0.9987 -1.0352
 4358SOL     OW24706   1.558   0.511   8.032 -0.5986  0.2116 -0.1301
 4358SOL    HW124707   1.615   0.472   7.966  1.0192 -1.2512  2.1081
 4358SOL    HW224708   1.599   0.598   8.030 -0.4866  0.2226  2.1432
 4359SOL     OW24709   1.187   2.861  10.584 -0.4659 -0.0772  0.0988
 4359SOL    HW124710   1.158   2.821  10.502  0.4365  1.9749 -1.2206
 4359SOL    HW224711   1.212   2.778  10.624 -1.8972 -0.0418  1.0655
 4360SOL     OW24712   4.659   1.184   3.949  0.5873  0.3084 -0.2872
 4360SOL    HW124713   4.635   1.103   3.994  0.8028 -0.3564 -1.3718
 4360SOL    HW224714   4.620   1.254   4.001  0.6524  1.0469 -1.2325
 4361SOL     OW24715   0.966   0.513   6.396 -0.1478  0.7971 -0.3109
 4361SOL    HW124716   0.907   0.588   6.398 -1.5006 -0.2638 -0.1013
 4361SOL    HW224717   0.977   0.488   6.305 -0.1712  1.6610 -0.5519
 4362SOL     OW24718   4.018   1.923   5.368 -0.1381 -0.2319 -0.3703
 4362SOL    HW124719   3.940   1.932   5.313 -1.4713 -0.6722  1.4047
 4362SOL    HW224720   4.090   1.902   5.309  1.0729 -0.4564  1.1927
 4363SOL     OW24721   1.534   1.591   2.930 -0.0104 -0.3255 -0.0833
 4363SOL    HW124722   1.629   1.581   2.940 -0.1319 -0.6081  0.7855
 4363SOL    HW224723   1.527   1.636   2.846  1.9086  0.6087  0.2517
 4364SOL     OW24724   1.572   0.832   4.271 -0.3620 -0.3006 -0.1946
 4364SOL    HW124725   1.494   0.849   4.218 -0.1765  0.2396 -0.2953
 4364SOL    HW224726   1.521   0.779   4.333  1.0783 -1.3543  0.0818
 4365SOL     OW24727   2.342   4.611   5.082 -0.3184  0.0863  0.5134
 4365SOL    HW124728   2.264   4.642   5.129  0.2448 -1.6919  2.6234
 4365SOL    HW224729   2.410   4.596   5.148  1.5265  0.9876 -1.2039
 4366SOL     OW24730   0.040   1.642  10.838  0.5681 -0.0144 -0.0220
 4366SOL    HW124731   4.722   1.649  10.917  2.9620 -0.9872  1.7287
 4366SOL    HW224732   0.115   1.693  10.867  1.6853 -2.3637  1.2438
 4367SOL     OW24733   2.262   2.576   5.534 -0.0361 -0.2006 -0.4340
 4367SOL    HW124734   2.348   2.600   5.500  0.9393 -0.9276  1.5439
 4367SOL    HW224735   2.278   2.573   5.628 -2.1648  0.4174 -0.0591
 4368SOL     OW24736   2.738   4.244   4.803  0.1126  0.0000  0.5359
 4368SOL    HW124737   2.804   4.197   4.853  0.0289 -0.4556  0.2121
 4368SOL    HW224738   2.694   4.297   4.870 -2.0558  1.0932 -1.7784
 4369SOL     OW24739   2.512   4.009   1.851 -0.6027 -0.1450 -0.6715
 4369SOL    HW124740   2.449   4.012   1.778 -0.3272  1.9658 -0.8391
 4369SOL    HW224741   2.464   4.039   1.928  0.3877 -0.5505  0.1034
 4370SOL     OW24742   2.797   3.449   7.416  0.0061 -0.1907  0.0032
 4370SOL    HW124743   2.767   3.452   7.507 -0.2055  1.9036 -0.1578
 4370SOL    HW224744   2.723   3.475   7.361 -1.5615  0.0309  2.2244
 4371SOL     OW24745   4.575   3.790   4.558  0.0591  0.0636 -0.6214
 4371SOL    HW124746   4.526   3.831   4.487 -0.1391 -0.4914 -0.8052
 4371SOL    HW224747   4.513   3.722   4.585 -0.6020  1.1396  0.5486
 4372SOL     OW24748   4.490   1.056   9.155  0.0733  0.3703  0.1177
 4372SOL    HW124749   4.412   1.062   9.210  0.6403  0.4096  0.9162
 4372SOL    HW224750   4.462   0.985   9.098  0.0105  0.1026  0.4812
 4373SOL     OW24751   0.607   3.617   5.515  0.3367  0.1548  0.1127
 4373SOL    HW124752   0.671   3.558   5.475  0.0379  1.0311 -1.6645
 4373SOL    HW224753   0.639   3.616   5.605  1.3456 -1.0855 -0.2556
 4374SOL     OW24754   2.411   2.097   9.267  0.3999  0.2240  0.3317
 4374SOL    HW124755   2.352   2.112   9.341 -0.4514 -2.3098  0.1566
 4374SOL    HW224756   2.388   2.009   9.237 -0.9332  0.7575 -0.1960
 4375SOL     OW24757   2.328   0.477   4.204  0.7041 -0.0074  0.4604
 4375SOL    HW124758   2.386   0.465   4.279 -2.5834  1.4925  3.2414
 4375SOL    HW224759   2.366   0.555   4.164 -0.3821  0.7189  0.8510
 4376SOL     OW24760   2.375   3.084   7.731 -0.7886 -0.2249  0.1106
 4376SOL    HW124761   2.415   3.169   7.714  1.1533 -0.8772  1.4829
 4376SOL    HW224762   2.318   3.084   7.653  0.0926 -2.2911 -0.5379
 4377SOL     OW24763   1.555   3.336   0.033  0.3956  0.3577 -0.3654
 4377SOL    HW124764   1.567   3.241   0.019 -0.2645  0.3593 -0.9268
 4377SOL    HW224765   1.635   3.360   0.080 -0.6407  0.5386  1.2899
 4378SOL     OW24766   1.838   4.604  13.646  0.3558 -0.1422 -0.4574
 4378SOL    HW124767   1.806   4.691  13.672  1.0467  0.2792 -1.0202
 4378SOL    HW224768   1.815   4.601  13.553 -2.5251  1.3538  0.2066
 4379SOL     OW24769   3.068   1.636   8.307  0.3690 -0.0676 -0.3732
 4379SOL    HW124770   3.034   1.715   8.350  4.1394  1.5345 -0.2960
 4379SOL    HW224771   3.155   1.626   8.347 -0.0031 -0.0558  0.4337
 4380SOL     OW24772   1.497   3.730   7.651 -0.1972  0.8185 -0.4209
 4380SOL    HW124773   1.410   3.717   7.687 -0.1105  0.3118 -0.3864
 4380SOL    HW224774   1.514   3.819   7.679  2.6214  0.0173  0.4342
 4381SOL     OW24775   1.129   0.734   7.100  0.1093  0.2512  0.3151
 4381SOL    HW124776   1.199   0.696   7.154 -2.2541 -1.3532  2.2476
 4381SOL    HW224777   1.093   0.651   7.068  0.6077 -0.6801  2.1807
 4382SOL     OW24778   3.073   1.135   7.256 -0.6627  0.9363 -0.0898
 4382SOL    HW124779   3.162   1.166   7.276 -0.5308 -0.6552  1.7748
 4382SOL    HW224780   3.067   1.079   7.333  2.6007 -1.3675 -1.5079
 4383SOL     OW24781   2.868   1.720   7.758 -0.3642 -0.0993  0.4132
 4383SOL    HW124782   2.817   1.721   7.839 -0.3255 -0.2769  0.4399
 4383SOL    HW224783   2.950   1.754   7.793 -1.4102  0.8279  1.9522
 4384SOL     OW24784   2.464   1.870   7.126  0.1205  0.2565  0.1535
 4384SOL    HW124785   2.378   1.868   7.083  0.7243  1.0972 -1.1053
 4384SOL    HW224786   2.512   1.849   7.046  0.0186 -1.9491  0.6673
 4385SOL     OW24787   1.097   1.166   7.015  0.0436 -0.3876 -0.2177
 4385SOL    HW124788   1.027   1.105   6.990 -0.4606  0.3769 -0.7036
 4385SOL    HW224789   1.163   1.100   7.035  0.6974  0.0808 -0.8276
 4386SOL     OW24790   1.798   4.277   8.193  0.0690  0.1550 -0.4344
 4386SOL    HW124791   1.797   4.343   8.262 -0.5761 -0.3748  0.0691
 4386SOL    HW224792   1.714   4.234   8.207  0.3903 -0.6197 -0.8964
 4387SOL     OW24793   4.712   1.498   3.562  0.1586  0.0476  0.1953
 4387SOL    HW124794   4.682   1.412   3.593 -0.3390 -0.2442 -1.0875
 4387SOL    HW224795   4.651   1.506   3.489 -1.4421 -1.1349  1.4040
 4388SOL     OW24796   2.462   0.906  13.212 -0.1636  0.1385  0.2619
 4388SOL    HW124797   2.524   0.849  13.165 -0.0968  0.0636  0.4409
 4388SOL    HW224798   2.523   0.926  13.283 -0.0012 -0.0448  0.1757
 4389SOL     OW24799   3.693   3.021  17.031 -0.1846 -0.3222 -0.1039
 4389SOL    HW124800   3.713   3.085  17.099  0.3159 -0.8827  0.2748
 4389SOL    HW224801   3.649   3.079  16.970 -0.7450  1.5185  2.0780
 4390SOL     OW24802   3.562   3.948   5.956  0.2816  0.3784 -0.3215
 4390SOL    HW124803   3.564   3.920   6.048 -0.4449  0.6643 -0.2180
 4390SOL    HW224804   3.576   3.861   5.918 -1.3435  0.7459 -1.7794
 4391SOL     OW24805   2.491   3.266   8.594  0.0761  0.1776  0.2503
 4391SOL    HW124806   2.431   3.307   8.532  0.1838 -0.0762 -0.0205
 4391SOL    HW224807   2.580   3.292   8.568 -0.0157  0.0822 -0.1504
 4392SOL     OW24808   0.172   4.513   5.505 -0.2838 -1.0543 -0.0842
 4392SOL    HW124809   0.212   4.430   5.532  1.6788  0.4869  1.6878
 4392SOL    HW224810   0.080   4.499   5.530  0.3484 -2.0881  1.6763
 4393SOL     OW24811   1.109   3.270   1.264  0.0387  0.1000  0.4192
 4393SOL    HW124812   1.079   3.180   1.264  2.1195 -0.5840 -1.0387
 4393SOL    HW224813   1.039   3.308   1.211  1.1162  0.1620 -0.9488
 4394SOL     OW24814   1.544   2.614   7.640  0.2917 -0.5730  0.3439
 4394SOL    HW124815   1.522   2.666   7.717  2.0851  0.3222  0.2270
 4394SOL    HW224816   1.471   2.552   7.629  0.0569 -0.1883 -0.3195
 4395SOL     OW24817   3.875   0.241   7.418 -0.1497  0.1636 -0.2613
 4395SOL    HW124818   3.847   0.311   7.360 -0.5868 -0.1160 -0.3852
 4395SOL    HW224819   3.817   0.256   7.492  2.0680  1.0089  1.3176
 4396SOL     OW24820   0.401   2.445   0.636  0.3628  0.0618  0.1620
 4396SOL    HW124821   0.385   2.509   0.705  1.7770 -0.5890  1.0949
 4396SOL    HW224822   0.375   2.496   0.560  1.0677  2.1879  1.3556
 4397SOL     OW24823   3.698   2.686   4.401  0.2942 -0.8544  0.7053
 4397SOL    HW124824   3.613   2.711   4.436  0.0964  0.0622 -0.4130
 4397SOL    HW224825   3.747   2.671   4.482 -0.7710  1.8305  1.8353
 4398SOL     OW24826   1.803   2.661   5.658 -0.8661 -0.5204 -0.1819
 4398SOL    HW124827   1.759   2.652   5.573  2.8050 -0.3162 -2.1228
 4398SOL    HW224828   1.885   2.707   5.634 -1.7860  2.1556  1.7600
 4399SOL     OW24829   1.718   4.384   1.137 -0.0960  0.0399 -0.0022
 4399SOL    HW124830   1.666   4.439   1.196 -2.6658 -1.2994 -1.0630
 4399SOL    HW224831   1.795   4.365   1.191 -1.5530 -1.4089  1.5584
 4400SOL     OW24832   1.966   0.565   4.035  0.1766 -0.3066 -0.6350
 4400SOL    HW124833   1.881   0.530   4.009  0.4167  0.1052 -1.9743
 4400SOL    HW224834   1.949   0.658   4.048  0.6522 -0.6154  2.0838
 4401SOL     OW24835   2.524   3.792   8.860 -0.3681 -0.2869 -0.4551
 4401SOL    HW124836   2.562   3.742   8.788 -0.3843  0.2846 -0.8646
 4401SOL    HW224837   2.521   3.718   8.921  0.3928  0.6689  0.7321
 4402SOL     OW24838   1.303   0.678   7.970  0.6773 -0.3862  0.2401
 4402SOL    HW124839   1.379   0.638   8.012  0.4742 -1.1190 -0.0872
 4402SOL    HW224840   1.232   0.619   7.998  0.5957 -0.1558  0.5245
 4403SOL     OW24841   3.047   2.504   5.164 -0.4664  0.3710 -0.3375
 4403SOL    HW124842   3.051   2.420   5.210  2.9635  0.5175 -0.3493
 4403SOL    HW224843   2.991   2.478   5.091  0.4674 -2.7073  0.0438
 4404SOL     OW24844   2.457   4.481   4.864  0.4313 -0.5046 -0.3294
 4404SOL    HW124845   2.548   4.468   4.889  0.6926 -0.6283 -1.3478
 4404SOL    HW224846   2.413   4.506   4.945  1.8612  3.3620 -0.7907
 4405SOL     OW24847   2.363   3.808  11.466  0.2484  0.6767  0.3006
 4405SOL    HW124848   2.365   3.781  11.558  4.1477 -2.9445 -0.8489
 4405SOL    HW224849   2.431   3.875  11.452  1.8189 -1.0502 -0.3546
 4406SOL     OW24850   1.594   2.282  16.453  0.4323 -0.2682  0.3827
 4406SOL    HW124851   1.605   2.234  16.535 -1.0594 -3.5741 -1.3442
 4406SOL    HW224852   1.535   2.228  16.401 -0.1957  1.5657 -0.8255
 4407SOL     OW24853   0.046   1.081  15.977  0.6253 -0.7683  0.7401
 4407SOL    HW124854   0.084   1.156  15.931 -1.6600  0.4283  0.7784
 4407SOL    HW224855   0.073   1.101  16.067  0.7135  0.6746  0.3974
 4408SOL     OW24856   4.201   0.038   8.855 -0.1343  0.8889 -0.1597
 4408SOL    HW124857   4.136   4.730   8.799 -0.6689  2.5755 -0.8926
 4408SOL    HW224858   4.162   0.120   8.884 -0.2163  1.4502 -1.8366
 4409SOL     OW24859   1.962   1.140   3.763 -0.3357 -0.0715 -0.2366
 4409SOL    HW124860   2.023   1.160   3.833  0.0821 -0.9595 -0.3571
 4409SOL    HW224861   1.985   1.048   3.753  0.0102  0.2395 -2.3723
 4410SOL     OW24862   3.796   4.326   1.519  0.0983  0.1504  0.0678
 4410SOL    HW124863   3.763   4.342   1.607 -0.5508  1.2584 -0.3814
 4410SOL    HW224864   3.760   4.405   1.479  0.2123  0.8662  1.3801
 4411SOL     OW24865   4.675   3.101  11.145 -0.3386  0.0040  0.1933
 4411SOL    HW124866   4.610   3.128  11.081 -0.7031  1.4685  1.1967
 4411SOL    HW224867   4.614   3.080  11.216 -0.3932  0.8066  0.3825
 4412SOL     OW24868   2.244   2.866   8.032 -0.1271 -0.2233  0.3769
 4412SOL    HW124869   2.238   2.800   7.962 -0.2000 -0.1199  0.2860
 4412SOL    HW224870   2.220   2.816   8.110  1.4539 -0.9743  0.3720
 4413SOL     OW24871   2.077   2.137   2.907  0.7781 -0.1789  0.0675
 4413SOL    HW124872   2.038   2.135   2.995  1.8719 -1.9191  0.5295
 4413SOL    HW224873   2.107   2.227   2.902 -1.0012  0.6342  3.6508
 4414SOL     OW24874   3.272   3.161   1.683  0.5667  0.5233 -0.0940
 4414SOL    HW124875   3.239   3.143   1.772 -0.5534 -0.9687 -0.8131
 4414SOL    HW224876   3.347   3.104   1.666 -0.5395 -0.4527 -1.7220
 4415SOL     OW24877   2.594   3.807  12.888 -0.2477 -0.2114 -0.7845
 4415SOL    HW124878   2.679   3.766  12.906  0.0766  0.5323 -0.6130
 4415SOL    HW224879   2.620   3.883  12.835 -0.9760  0.5482 -0.0546
 4416SOL     OW24880   1.761   1.538   5.203 -0.0027  0.0981  0.1140
 4416SOL    HW124881   1.758   1.630   5.230  2.1667  0.2972 -0.3150
 4416SOL    HW224882   1.844   1.537   5.156  0.4173  1.3906  0.8123
 4417SOL     OW24883   2.018   1.490   5.082 -0.0697  0.0378 -0.0037
 4417SOL    HW124884   2.098   1.442   5.062  0.9365  1.4374  0.6205
 4417SOL    HW224885   2.051   1.580   5.088 -1.0423  0.3316  0.9845
 4418SOL     OW24886   0.411   1.360   9.488  0.2972 -0.0928  0.1466
 4418SOL    HW124887   0.387   1.300   9.418 -1.0002 -0.8445  1.2387
 4418SOL    HW224888   0.469   1.423   9.444  1.7547 -1.1109  0.6138
 4419SOL     OW24889   3.849   4.424   2.785 -0.2310 -0.2160  0.1358
 4419SOL    HW124890   3.773   4.456   2.834 -0.1553  1.5055 -0.8419
 4419SOL    HW224891   3.919   4.444   2.847  1.2564  0.7127 -1.8391
 4420SOL     OW24892   0.992   0.445   1.962 -0.3226 -0.1448  0.1604
 4420SOL    HW124893   1.059   0.465   2.027  0.7387 -1.5176 -0.4955
 4420SOL    HW224894   1.024   0.484   1.881  1.2333 -1.5183  0.1149
 4421SOL     OW24895   0.176   3.226  13.282 -0.4160 -0.0257  0.2661
 4421SOL    HW124896   0.250   3.169  13.262 -0.5419 -0.0281 -0.1899
 4421SOL    HW224897   0.107   3.166  13.309 -2.6110  1.7446 -1.3779
 4422SOL     OW24898   3.025   3.195   0.946  0.4494 -0.2783  0.2987
 4422SOL    HW124899   2.936   3.173   0.918 -0.5026  0.1134  3.0022
 4422SOL    HW224900   3.048   3.229   0.859  1.4484  0.1928  0.7506
 4423SOL     OW24901   0.549   2.471   7.382 -0.3447 -0.5199 -1.0668
 4423SOL    HW124902   0.457   2.456   7.404 -0.8652  0.0740 -2.8518
 4423SOL    HW224903   0.550   2.429   7.296 -0.0194 -0.2343 -1.2052
 4424SOL     OW24904   2.458   4.293   2.251  0.0262  0.4638 -0.8775
 4424SOL    HW124905   2.497   4.234   2.316 -0.3595  1.2214  0.0329
 4424SOL    HW224906   2.485   4.379   2.283 -0.3832  0.2128  0.1409
 4425SOL     OW24907   4.142   3.861  10.438  0.1293 -0.2498  0.5605
 4425SOL    HW124908   4.058   3.868  10.482  0.0062  0.1102  0.2712
 4425SOL    HW224909   4.154   3.767  10.445 -1.8123 -0.3700  2.1022
 4426SOL     OW24910   3.716   2.837  13.055  0.2899 -0.4586 -0.2368
 4426SOL    HW124911   3.783   2.893  13.093  0.7883 -0.9894 -0.3420
 4426SOL    HW224912   3.765   2.755  13.065  0.9432  0.1360  1.5160
 4427SOL     OW24913   4.721   4.724   3.043  0.5696 -0.0820 -0.0828
 4427SOL    HW124914   4.664   4.682   3.107  4.1085  1.9650  4.3280
 4427SOL    HW224915   4.682   0.075   3.045  1.8605  0.5296 -1.6049
 4428SOL     OW24916   0.907   4.480  17.603 -0.1468 -0.2695 -0.0803
 4428SOL    HW124917   0.958   4.496  17.683  1.2000 -0.3627 -0.9134
 4428SOL    HW224918   0.890   4.570  17.574 -1.0577 -1.0866 -2.0355
 4429SOL     OW24919   2.930   3.137  15.242  0.5107 -0.0938 -0.1749
 4429SOL    HW124920   2.913   3.192  15.165  0.5705 -1.2399 -1.0027
 4429SOL    HW224921   2.997   3.073  15.221 -0.1017 -0.2588 -1.6497
 4430SOL     OW24922   3.612   2.628   3.507  0.3656 -0.1815 -0.2843
 4430SOL    HW124923   3.609   2.612   3.601 -1.0333 -2.8986 -0.7799
 4430SOL    HW224924   3.596   2.542   3.467 -0.6049 -0.1181 -0.0370
 4431SOL     OW24925   2.740   1.097  17.360  0.1847 -0.0048 -0.1435
 4431SOL    HW124926   2.693   1.034  17.415  1.9788  0.7254  2.2630
 4431SOL    HW224927   2.809   1.054  17.311 -0.2735 -1.6894  0.6943
 4432SOL     OW24928   3.599   2.043   5.610 -0.4040 -0.0977  0.3552
 4432SOL    HW124929   3.536   2.087   5.554 -1.8871  0.1774  2.2414
 4432SOL    HW224930   3.564   2.066   5.696  1.3092  1.0347  0.7524
 4433SOL     OW24931   3.635   0.020  12.841 -0.2933  0.6908  0.3475
 4433SOL    HW124932   3.601   0.081  12.776  0.5728  0.6024 -0.1801
 4433SOL    HW224933   3.705   0.076  12.873  0.4147 -0.3360  0.5728
 4434SOL     OW24934   4.380   0.259  12.386  0.3900 -0.5496  0.2296
 4434SOL    HW124935   4.316   0.219  12.445 -0.6572 -1.3455 -1.4449
 4434SOL    HW224936   4.363   0.351  12.404  0.6601 -0.3640 -0.4823
 4435SOL     OW24937   2.891   2.668   4.460 -0.1819  0.2388 -0.1783
 4435SOL    HW124938   2.875   2.721   4.538 -0.1792  0.5518 -0.3919
 4435SOL    HW224939   2.962   2.719   4.420 -1.6761  0.5610 -2.4340
 4436SOL     OW24940   0.445   4.118  11.329 -0.1369 -0.5940 -0.5238
 4436SOL    HW124941   0.412   4.185  11.389  2.2060  3.4465 -3.7107
 4436SOL    HW224942   0.467   4.052  11.395 -1.3449  2.6326  3.0638
 4437SOL     OW24943   3.869   0.316   3.350 -0.1444 -0.8299  0.2781
 4437SOL    HW124944   3.964   0.302   3.349 -0.1507 -0.8480 -1.8521
 4437SOL    HW224945   3.861   0.411   3.359  0.9727 -0.5835 -1.1175
 4438SOL     OW24946   3.835   0.535   6.331  0.5559 -0.1662 -0.3159
 4438SOL    HW124947   3.892   0.503   6.261  0.1084 -0.9531 -0.3126
 4438SOL    HW224948   3.789   0.605   6.285 -0.3750 -2.3511 -2.6915
 4439SOL     OW24949   1.915   3.993  11.347 -0.8043 -0.0497  0.8074
 4439SOL    HW124950   1.919   3.987  11.252 -1.3939 -1.0660  0.8382
 4439SOL    HW224951   1.833   3.945  11.365  0.1499 -2.4766 -1.3758
 4440SOL     OW24952   1.117   1.393   4.295  0.1222  0.4297  0.2229
 4440SOL    HW124953   1.022   1.399   4.305  0.4320  2.1673  1.9814
 4440SOL    HW224954   1.155   1.459   4.352  0.4986  2.0098 -1.8599
 4441SOL     OW24955   2.530   0.279   7.836 -0.0652  0.4714  0.1549
 4441SOL    HW124956   2.518   0.333   7.914 -0.6839  2.4455 -1.3135
 4441SOL    HW224957   2.614   0.322   7.817 -1.1159  1.3514 -2.4350
 4442SOL     OW24958   3.400   0.570   1.753  0.1811 -0.3228 -0.4852
 4442SOL    HW124959   3.489   0.570   1.718  0.1177  0.3867 -0.6471
 4442SOL    HW224960   3.371   0.495   1.701  3.9205 -2.1581  0.0864
 4443SOL     OW24961   3.898   4.706   7.419 -0.6146  0.3539  0.5675
 4443SOL    HW124962   3.920   0.061   7.404 -1.1615  0.2227 -1.1157
 4443SOL    HW224963   3.833   4.688   7.351 -1.8570  1.5203  1.4657
 4444SOL     OW24964   3.347   1.084   6.748 -0.0834 -0.1317  0.2611
 4444SOL    HW124965   3.275   1.057   6.691  0.0305 -0.5698  0.3252
 4444SOL    HW224966   3.310   1.120   6.828  0.5066  0.5200  0.2459
 4445SOL     OW24967   3.009   3.773  12.267  0.0571  0.1478 -0.0086
 4445SOL    HW124968   3.069   3.725  12.324 -1.1999 -0.6403  0.6548
 4445SOL    HW224969   3.051   3.760  12.182  1.1766 -0.9237  0.7033
 4446SOL     OW24970   3.912   3.726  14.314  0.3936 -0.0732  0.1089
 4446SOL    HW124971   3.847   3.656  14.318 -0.0405  0.3305  0.0625
 4446SOL    HW224972   3.946   3.735  14.403 -2.1830 -0.6557  1.1425
 4447SOL     OW24973   2.276   2.381   8.361  0.0242 -0.4541 -0.6392
 4447SOL    HW124974   2.265   2.416   8.449 -2.5767 -2.2187 -0.2435
 4447SOL    HW224975   2.342   2.432   8.314 -0.0773  0.5457  0.3021
 4448SOL     OW24976   2.584   2.571  14.346 -0.0131  0.1353 -0.1628
 4448SOL    HW124977   2.604   2.483  14.313 -1.7802 -0.4728  0.3670
 4448SOL    HW224978   2.512   2.594  14.288  0.4360  0.8696 -0.4272
 4449SOL     OW24979   2.670   0.641   6.244  0.1095  0.1469 -0.1344
 4449SOL    HW124980   2.596   0.584   6.223  0.7218  0.2740 -2.6407
 4449SOL    HW224981   2.648   0.664   6.335 -1.5226  2.8503 -1.1992
 4450SOL     OW24982   3.684   1.469   6.910  0.9321  0.4440 -0.2304
 4450SOL    HW124983   3.672   1.542   6.850 -0.5712  0.5577  0.2143
 4450SOL    HW224984   3.736   1.412   6.854  1.3273  1.6926 -1.1231
 4451SOL     OW24985   0.168   3.477   5.502  0.1310  0.3943  0.6073
 4451SOL    HW124986   0.248   3.426   5.488 -0.6573 -0.0709 -2.2078
 4451SOL    HW224987   0.172   3.525   5.419 -0.3743 -0.5927  0.0138
 4452SOL     OW24988   3.577   1.725  12.284  0.0035  0.5071 -0.4354
 4452SOL    HW124989   3.490   1.755  12.311  0.2972  0.2723  0.8120
 4452SOL    HW224990   3.591   1.662  12.355 -1.8004 -0.8930 -1.3231
 4453SOL     OW24991   4.391   0.970   4.515 -0.8042 -0.3786  0.4556
 4453SOL    HW124992   4.413   0.886   4.553  0.8522 -0.2333 -0.1760
 4453SOL    HW224993   4.455   1.040   4.528  0.6950 -1.5132 -0.8183
 4454SOL     OW24994   4.481   0.146   0.969  0.5933  0.1149  0.7719
 4454SOL    HW124995   4.391   0.113   0.969 -0.2397  2.4180 -0.2540
 4454SOL    HW224996   4.525   0.075   0.922  0.4605 -1.2100  2.6400
 4455SOL     OW24997   2.825   0.158   2.167 -0.8154 -0.0837  0.0219
 4455SOL    HW124998   2.850   0.230   2.225  0.0770 -1.0716  0.8475
 4455SOL    HW224999   2.783   0.105   2.234 -0.1972  0.2703  0.6922
 4456SOL     OW25000   0.921   1.470  12.433 -0.0912  0.1333 -0.1133
 4456SOL    HW125001   0.946   1.504  12.518  0.3899  0.7492 -0.5047
 4456SOL    HW225002   0.978   1.393  12.439 -0.9577 -0.5350 -0.3678
 4457SOL     OW25003   3.508   0.384   8.954  0.2264  0.2779 -0.3454
 4457SOL    HW125004   3.453   0.451   8.914 -1.8983 -0.6400  1.0996
 4457SOL    HW225005   3.471   0.303   8.920  0.6567 -0.3952  0.7879
 4458SOL     OW25006   0.977   0.686   1.395 -0.6579  0.8891 -0.0800
 4458SOL    HW125007   1.028   0.618   1.350 -0.3191  0.3250  1.1416
 4458SOL    HW225008   0.997   0.758   1.336  1.2874 -0.0841 -0.6380
 4459SOL     OW25009   3.829   2.767   3.580  0.0983 -0.0018  0.1639
 4459SOL    HW125010   3.748   2.736   3.541 -0.4438  2.4370 -0.6701
 4459SOL    HW225011   3.818   2.862   3.586  0.4040  0.0197  0.4172
 4460SOL     OW25012   3.984   3.216   5.731 -0.0530  0.4738 -0.1098
 4460SOL    HW125013   3.946   3.140   5.775  1.1307 -0.4885 -0.7478
 4460SOL    HW225014   3.914   3.280   5.721 -1.9744 -2.1575 -3.6005
 4461SOL     OW25015   3.137   0.062   8.490 -0.0965 -0.4978  0.2663
 4461SOL    HW125016   3.225   0.075   8.455 -0.7636 -0.7453 -1.4881
 4461SOL    HW225017   3.159   0.012   8.568 -0.9332 -0.7180  0.3643
 4462SOL     OW25018   3.252   3.656   7.180  0.5103  0.1852 -0.0045
 4462SOL    HW125019   3.174   3.601   7.175  0.9678 -0.5562  1.0400
 4462SOL    HW225020   3.313   3.610   7.122 -0.9218 -1.8239  0.0728
 4463SOL     OW25021   0.122   4.107   6.256 -0.1700  0.0138 -0.0520
 4463SOL    HW125022   0.163   4.116   6.170 -0.7290  0.4143 -0.2739
 4463SOL    HW225023   0.178   4.150   6.322  2.2760  0.0914 -2.1831
 4464SOL     OW25024   0.674   4.668   4.080 -0.4345  0.0433  0.4700
 4464SOL    HW125025   0.714   4.588   4.048 -1.1599 -0.1717  0.0957
 4464SOL    HW225026   0.625   4.699   4.004 -0.7479  0.0643  0.6790
 4465SOL     OW25027   2.405   2.090   6.158 -0.1494 -0.4417 -0.0644
 4465SOL    HW125028   2.481   2.060   6.107 -0.6195  0.0284 -1.0501
 4465SOL    HW225029   2.452   2.125   6.234 -3.2029 -1.6915  2.3570
 4466SOL     OW25030   2.384   3.423   2.690  0.0686  0.2196 -0.0023
 4466SOL    HW125031   2.410   3.480   2.618  0.1067 -2.0542 -1.7724
 4466SOL    HW225032   2.452   3.447   2.754  2.5852 -3.2725 -1.3564
 4467SOL     OW25033   2.685   4.476  16.674  0.3065 -0.2517  0.2041
 4467SOL    HW125034   2.632   4.553  16.693  3.2682  1.0739  3.0749
 4467SOL    HW225035   2.697   4.440  16.762 -2.7786 -1.7047  0.0140
 4468SOL     OW25036   3.410   0.096  14.416 -0.0574 -0.2230 -0.4559
 4468SOL    HW125037   3.488   0.096  14.471  0.2076  2.1380 -0.8546
 4468SOL    HW225038   3.352   0.031  14.455 -1.4427  1.8533  0.9383
 4469SOL     OW25039   2.157   3.800   6.695  0.1141 -0.1623 -0.4255
 4469SOL    HW125040   2.071   3.760   6.679  0.4918 -0.9846 -0.4146
 4469SOL    HW225041   2.150   3.822   6.788  0.6211 -2.9461  0.2938
 4470SOL     OW25042   1.894   2.143   6.572  0.7107 -0.0240 -0.2705
 4470SOL    HW125043   1.956   2.151   6.500 -0.8307  1.8258 -1.4034
 4470SOL    HW225044   1.909   2.230   6.610  1.5264 -0.1774 -0.2438
 4471SOL     OW25045   4.298   4.458   3.064  0.1992 -0.2863 -0.3690
 4471SOL    HW125046   4.318   4.372   3.101 -0.0368  0.0315  0.4967
 4471SOL    HW225047   4.224   4.443   3.004 -0.0509  0.3440 -0.2252
 4472SOL     OW25048   4.635   0.918   4.031 -0.0755  0.4044  0.1526
 4472SOL    HW125049   4.640   0.879   3.944  0.8211 -1.8979  1.2611
 4472SOL    HW225050   4.728   0.916   4.054 -0.3662 -0.1081  1.3155
 4473SOL     OW25051   3.332   4.534   7.857  0.0196  0.0934  0.3378
 4473SOL    HW125052   3.399   4.586   7.900 -0.9069  0.6053  1.1826
 4473SOL    HW225053   3.373   4.494   7.780  1.0742 -0.2136  1.0531
 4474SOL     OW25054   1.235   4.252   2.729  0.0479  0.2120  0.0324
 4474SOL    HW125055   1.287   4.297   2.796  1.1751 -2.9599  1.2674
 4474SOL    HW225056   1.161   4.312   2.723 -1.0697 -1.0116  1.4353
 4475SOL     OW25057   4.489   1.515   3.376  0.5325 -0.4410 -0.0004
 4475SOL    HW125058   4.464   1.427   3.403 -0.9784 -0.4742 -1.5026
 4475SOL    HW225059   4.506   1.495   3.284  0.4631 -3.1541  0.5804
 4476SOL     OW25060   0.898   4.355   4.942 -0.0422 -0.0101  0.2529
 4476SOL    HW125061   0.933   4.426   4.890  0.9189 -0.8086 -0.1893
 4476SOL    HW225062   0.840   4.308   4.881 -0.5761  0.3235  0.5005
 4477SOL     OW25063   1.462   3.050  15.079  0.2421 -0.2486  0.4639
 4477SOL    HW125064   1.465   3.029  14.986 -0.4071  0.5619  0.2571
 4477SOL    HW225065   1.533   2.995  15.112  1.6711  0.6332 -1.1574
 4478SOL     OW25066   1.315   4.720  16.035 -0.6167  0.4883  0.4851
 4478SOL    HW125067   1.300   4.684  16.122 -0.3865 -3.1044 -0.9432
 4478SOL    HW225068   1.226   4.710  16.001  0.3930 -0.9520 -1.7391
 4479SOL     OW25069   2.079   1.213   9.348 -0.3409 -0.2688  0.1008
 4479SOL    HW125070   2.130   1.221   9.268  0.8693 -3.1849  0.6008
 4479SOL    HW225071   2.088   1.122   9.377  1.2412  0.2466  1.2180
 4480SOL     OW25072   3.121   3.047   3.638  0.2090 -0.3266 -0.1959
 4480SOL    HW125073   3.060   3.120   3.624 -0.6456 -0.7274  1.4776
 4480SOL    HW225074   3.152   3.016   3.553 -0.6895  0.7020 -0.9127
 4481SOL     OW25075   4.447   1.505   9.081 -0.0360  0.1124 -0.5220
 4481SOL    HW125076   4.411   1.493   9.169  2.6901  2.8405  0.9843
 4481SOL    HW225077   4.463   1.416   9.051  0.7085 -0.9158  2.9853
 4482SOL     OW25078   2.536   1.903  14.998  1.0046  0.3195  0.0177
 4482SOL    HW125079   2.608   1.877  14.940  0.0407 -0.5631 -0.7644
 4482SOL    HW225080   2.463   1.913  14.937 -0.1365 -0.7045  1.2215
 4483SOL     OW25081   2.851   0.166   6.592 -0.2311  0.5393 -0.1383
 4483SOL    HW125082   2.779   0.183   6.653 -1.2218 -1.6096 -0.7049
 4483SOL    HW225083   2.816   0.208   6.513  1.2872  0.5677 -0.7941
 4484SOL     OW25084   0.920   2.539   6.584 -0.3816 -0.2433 -0.7378
 4484SOL    HW125085   0.954   2.541   6.495  0.4576 -0.7022 -0.4243
 4484SOL    HW225086   0.859   2.613   6.589 -0.7820 -0.7829  2.5064
 4485SOL     OW25087   3.658   0.054   1.677 -0.1356 -0.2366  0.0708
 4485SOL    HW125088   3.743   0.012   1.665 -0.0522  0.5562 -2.0697
 4485SOL    HW225089   3.606   4.710   1.677 -0.7239  0.1545 -1.6324
 4486SOL     OW25090   0.435   3.653  16.552 -0.3823  0.6448 -0.1985
 4486SOL    HW125091   0.363   3.601  16.515  0.4683 -2.0695  1.9815
 4486SOL    HW225092   0.429   3.627  16.644 -2.4612 -0.8425 -0.7499
 4487SOL     OW25093   1.835   3.612   3.716 -0.2691 -0.2706 -0.2232
 4487SOL    HW125094   1.825   3.598   3.811 -0.1450 -1.0436 -0.3237
 4487SOL    HW225095   1.765   3.674   3.695 -0.1276 -0.7010 -1.9154
 4488SOL     OW25096   1.683   1.818  12.177  0.0020  0.0922  0.3149
 4488SOL    HW125097   1.613   1.875  12.146 -1.6925 -1.5042  1.2008
 4488SOL    HW225098   1.754   1.847  12.120  1.0244  1.0996  2.1000
 4489SOL     OW25099   4.073   4.514   5.142  0.2923 -0.0101 -0.0183
 4489SOL    HW125100   4.111   4.542   5.225  1.1349  1.6156 -0.9548
 4489SOL    HW225101   4.089   4.593   5.090  1.7365  0.1742  0.7170
 4490SOL     OW25102   2.560   4.019  11.707 -0.1701 -0.2767 -0.1939
 4490SOL    HW125103   2.520   3.943  11.749 -1.7604  0.4578 -0.3973
 4490SOL    HW225104   2.491   4.056  11.652 -0.2582  0.5489  0.4750
 4491SOL     OW25105   0.725   3.064   4.360  0.1307  0.5357  0.0630
 4491SOL    HW125106   0.653   3.061   4.297  1.2239  0.9148 -1.2004
 4491SOL    HW225107   0.677   3.043   4.440 -1.1852  2.1168 -0.3076
 4492SOL     OW25108   0.003   0.105   7.946 -0.2252  0.2496  0.0726
 4492SOL    HW125109   0.073   0.101   8.011  0.6453 -2.3786 -1.0301
 4492SOL    HW225110   0.043   0.055   7.875 -0.6026  0.7488 -0.4954
 4493SOL     OW25111   3.870   0.999  10.882  0.2989 -0.0679  0.0224
 4493SOL    HW125112   3.775   0.999  10.885  0.1718 -1.2078 -3.1232
 4493SOL    HW225113   3.883   0.915  10.837  0.5934  0.9969 -1.9120
 4494SOL     OW25114   4.665   0.270  12.365 -0.2829 -0.5784  0.1074
 4494SOL    HW125115   4.692   0.357  12.393 -0.0073 -1.0166  1.1979
 4494SOL    HW225116   4.571   0.288  12.366 -0.0926  0.4388 -0.3890
 4495SOL     OW25117   2.075   2.703   4.587 -0.0272 -0.1163  0.0951
 4495SOL    HW125118   2.118   2.777   4.546 -0.5650 -0.1511 -0.5303
 4495SOL    HW225119   2.098   2.635   4.525 -0.0770 -0.0566  0.0115
 4496SOL     OW25120   4.313   3.122   7.616 -0.0772  0.2827 -0.4677
 4496SOL    HW125121   4.380   3.078   7.563  2.1309  0.8876  1.8092
 4496SOL    HW225122   4.273   3.046   7.658  1.0778 -0.1080 -0.0810
 4497SOL     OW25123   2.337   3.329   5.273  0.5312  0.1496  0.1987
 4497SOL    HW125124   2.342   3.421   5.300 -1.4958  0.8483 -1.7563
 4497SOL    HW225125   2.360   3.291   5.358 -1.4105 -2.2797 -0.3498
 4498SOL     OW25126   4.304   4.211   9.380 -0.1993 -0.3379 -0.3509
 4498SOL    HW125127   4.256   4.276   9.431 -0.8697 -0.6654 -0.5630
 4498SOL    HW225128   4.393   4.222   9.414 -0.4236  0.1829  0.0772
 4499SOL     OW25129   0.328   3.318  15.738 -0.2339  0.2439  0.4117
 4499SOL    HW125130   0.401   3.280  15.787  0.1139  0.4941  0.0868
 4499SOL    HW225131   0.264   3.332  15.808 -1.1096 -0.5400 -0.2368
 4500SOL     OW25132   0.450   3.379   3.789  0.2706 -0.6374  0.1888
 4500SOL    HW125133   0.525   3.438   3.784 -2.5488  3.1957  2.6596
 4500SOL    HW225134   0.488   3.291   3.795  4.4052  1.0333 -2.0062
 4501SOL     OW25135   0.839   3.528   6.674  0.0025  0.4576 -0.0890
 4501SOL    HW125136   0.853   3.574   6.757  1.2694 -1.0385  0.5457
 4501SOL    HW225137   0.775   3.460   6.697 -0.7381  0.9881 -0.6300
 4502SOL     OW25138   2.007   2.455   7.868 -0.1495  0.3408 -0.1151
 4502SOL    HW125139   1.939   2.399   7.831 -0.6479  1.2637 -0.5870
 4502SOL    HW225140   1.959   2.494   7.941 -0.1338 -0.0652  0.1080
 4503SOL     OW25141   3.482   3.085  15.730  0.5023 -0.0117 -0.2234
 4503SOL    HW125142   3.439   2.999  15.725 -1.6077  0.9930  0.8733
 4503SOL    HW225143   3.441   3.119  15.809  0.3017 -0.2313 -0.2303
 4504SOL     OW25144   2.705   0.752   1.537  0.5882 -0.1365 -0.2107
 4504SOL    HW125145   2.757   0.751   1.456  1.3660 -1.1880  0.3031
 4504SOL    HW225146   2.666   0.839   1.537  0.0550 -0.3683  0.7753
 4505SOL     OW25147   4.215   4.559   7.106 -0.1859  0.0755  0.0229
 4505SOL    HW125148   4.148   4.511   7.058  1.4108  0.8087 -2.9063
 4505SOL    HW225149   4.254   4.506   7.176 -0.5775  0.7239  0.7355
 4506SOL     OW25150   0.532   2.602   5.964  0.4348 -0.1088  0.0747
 4506SOL    HW125151   0.463   2.536   5.964  1.6982 -1.4406  2.1505
 4506SOL    HW225152   0.559   2.611   6.056  0.7231  0.6447 -0.0813
 4507SOL     OW25153   3.140   3.545  11.971  0.5454  0.1993 -0.1433
 4507SOL    HW125154   3.189   3.608  12.024 -0.8943  1.0621  0.1546
 4507SOL    HW225155   3.199   3.543  11.896 -1.0331  1.2538 -1.4070
 4508SOL     OW25156   0.264   0.520  11.675  0.1074 -0.1988  0.1150
 4508SOL    HW125157   0.248   0.608  11.640  2.0769  0.7355  1.5202
 4508SOL    HW225158   0.179   0.477  11.674 -1.6847  3.2562  1.0576
 4509SOL     OW25159   0.968   3.639   1.219 -0.0866 -0.0059 -0.3228
 4509SOL    HW125160   0.959   3.582   1.142  0.8281  0.3277 -0.6754
 4509SOL    HW225161   0.917   3.588   1.282 -0.9497  1.4191  0.1457
 4510SOL     OW25162   0.006   1.342   8.338  0.4276  0.9322 -0.1110
 4510SOL    HW125163   0.090   1.298   8.352  0.5002  1.8858  2.5590
 4510SOL    HW225164   4.714   1.291   8.262  1.2106 -2.0596  1.6102
 4511SOL     OW25165   0.996   4.143  12.198 -0.5233  0.8035 -0.5189
 4511SOL    HW125166   0.957   4.176  12.117 -0.0043  2.8539  0.0812
 4511SOL    HW225167   1.080   4.124  12.157 -1.0086 -1.3942 -0.4962
 4512SOL     OW25168   0.595   0.405  16.085  0.5412 -0.3712 -0.1537
 4512SOL    HW125169   0.639   0.425  16.167 -0.0418 -0.6302  0.2239
 4512SOL    HW225170   0.577   0.496  16.063  1.0084 -0.7703 -2.1862
 4513SOL     OW25171   4.679   2.688   7.029  0.0908  0.4888  0.6967
 4513SOL    HW125172   0.023   2.637   7.026  0.0473  0.4826 -0.4027
 4513SOL    HW225173   4.705   2.768   6.983  1.9069  0.6290  1.9734
 4514SOL     OW25174   4.631   4.121   6.484  0.6769  0.2153 -0.1974
 4514SOL    HW125175   4.546   4.079   6.497 -0.7992  2.0618 -4.1737
 4514SOL    HW225176   4.618   4.136   6.391  1.5471  1.2051 -0.1529
 4515SOL     OW25177   1.297   4.600   7.427 -0.5149  0.3199 -0.0769
 4515SOL    HW125178   1.268   4.526   7.480 -1.8835  0.9261  0.0282
 4515SOL    HW225179   1.250   4.576   7.347  1.1424 -0.3377 -0.8571
 4516SOL     OW25180   1.541   3.345   0.650 -0.2510 -0.0719 -0.0215
 4516SOL    HW125181   1.531   3.257   0.687 -0.8261  0.2632  0.6183
 4516SOL    HW225182   1.609   3.385   0.705 -0.0025  0.6496 -0.8556
 4517SOL     OW25183   3.268   1.216   6.995  0.5072 -0.0586 -0.1815
 4517SOL    HW125184   3.325   1.190   7.068  0.0342  1.7070  0.8174
 4517SOL    HW225185   3.271   1.311   6.992 -1.2059 -0.0463 -2.0280
 4518SOL     OW25186   1.015   3.849   7.160  0.4160  0.2786 -0.0731
 4518SOL    HW125187   1.013   3.936   7.201 -1.1213  0.2310 -0.0272
 4518SOL    HW225188   1.105   3.820   7.152  0.2910 -0.3995  1.0442
 4519SOL     OW25189   0.841   2.474   7.223  0.2178 -0.4387  0.6175
 4519SOL    HW125190   0.841   2.391   7.270 -0.1323 -0.9371 -0.2528
 4519SOL    HW225191   0.801   2.454   7.138 -0.7610  0.5944  0.8249
 4520SOL     OW25192   3.075   0.851   3.586  0.0125  0.5602 -0.0347
 4520SOL    HW125193   3.008   0.806   3.534 -0.1667  0.1277  0.5752
 4520SOL    HW225194   3.047   0.819   3.671 -0.3721 -0.4533 -0.5448
 4521SOL     OW25195   2.790   2.816   4.680  0.3333 -0.1406 -0.2611
 4521SOL    HW125196   2.704   2.857   4.690 -0.3693 -1.0888 -2.4549
 4521SOL    HW225197   2.786   2.742   4.741  0.3684 -0.2949 -0.4451
 4522SOL     OW25198   2.241   3.397  10.280 -0.2146 -0.2753 -0.5621
 4522SOL    HW125199   2.193   3.334  10.225 -0.5495  0.3065 -0.9355
 4522SOL    HW225200   2.314   3.418  10.221  1.0646  0.2913  1.2314
 4523SOL     OW25201   1.199   0.646  12.162  0.4237  0.0102  0.4180
 4523SOL    HW125202   1.166   0.710  12.226 -1.7409 -1.0236  0.3519
 4523SOL    HW225203   1.150   0.567  12.184 -0.9070  0.7778  0.2242
 4524SOL     OW25204   0.950   2.912   8.783 -0.3441  0.0548 -0.2191
 4524SOL    HW125205   0.884   2.971   8.820 -0.8189 -0.7815  0.2636
 4524SOL    HW225206   0.990   2.970   8.718 -1.6205 -0.6935 -1.6470
 4525SOL     OW25207   2.012   4.422   6.366 -0.3031  0.5580 -0.1709
 4525SOL    HW125208   2.073   4.495   6.380  0.6721 -0.3968  0.5328
 4525SOL    HW225209   2.066   4.348   6.391  0.2873  0.3731 -2.0240
 4526SOL     OW25210   2.725   2.197  12.322  0.3489  0.0386 -0.1967
 4526SOL    HW125211   2.814   2.231  12.334  0.1676 -0.2441  2.0603
 4526SOL    HW225212   2.670   2.273  12.304 -1.1081 -1.1348 -0.6969
 4527SOL     OW25213   2.502   2.032  11.800  0.2417  0.1472  0.2399
 4527SOL    HW125214   2.452   2.111  11.778 -1.5607 -1.5430 -1.6973
 4527SOL    HW225215   2.560   2.081  11.859 -0.9196  0.7231  0.9050
 4528SOL     OW25216   4.005   4.489   0.126 -0.0717  0.6647 -0.2224
 4528SOL    HW125217   4.047   4.505   0.211  0.8870  1.1746 -0.7995
 4528SOL    HW225218   3.945   4.562   0.109  2.0748  2.3349 -0.5730
 4529SOL     OW25219   0.598   2.488   5.684 -1.1640 -0.2988 -0.0258
 4529SOL    HW125220   0.655   2.412   5.688 -0.2165  0.4419  0.5701
 4529SOL    HW225221   0.597   2.521   5.774  0.9976 -0.1491 -0.0684
 4530SOL     OW25222   4.246   2.704   4.827 -0.0508 -0.9279 -0.0443
 4530SOL    HW125223   4.302   2.738   4.757 -0.4086  1.5799  0.8843
 4530SOL    HW225224   4.186   2.653   4.772  1.2800 -1.7756 -0.7126
 4531SOL     OW25225   4.608   1.580  11.304 -0.6068  0.2357 -0.1744
 4531SOL    HW125226   4.653   1.584  11.388  0.9890  1.0077 -1.0782
 4531SOL    HW225227   4.652   1.650  11.256  2.9592 -2.0018 -0.1590
 4532SOL     OW25228   4.528   2.617   0.689  0.1130  0.3593  0.1265
 4532SOL    HW125229   4.487   2.652   0.768  0.9907 -0.2750  0.8715
 4532SOL    HW225230   4.622   2.636   0.697  0.5119 -0.7844 -1.8759
 4533SOL     OW25231   3.638   2.403   5.244  0.5382  0.2714  0.1409
 4533SOL    HW125232   3.689   2.440   5.316 -0.7596  0.8818  0.7476
 4533SOL    HW225233   3.621   2.485   5.197  0.8341 -0.1896 -0.7502
 4534SOL     OW25234   0.658   1.688   2.336  0.4828 -0.3236  0.7399
 4534SOL    HW125235   0.634   1.766   2.287  2.6800 -0.2148 -0.1611
 4534SOL    HW225236   0.741   1.719   2.371  0.9463 -1.0200  0.2556
 4535SOL     OW25237   2.194   3.540   2.284 -0.2519  0.2771  0.2107
 4535SOL    HW125238   2.207   3.485   2.207 -0.7923 -0.0557  0.3544
 4535SOL    HW225239   2.235   3.483   2.349 -1.5951 -1.2829 -0.3100
 4536SOL     OW25240   2.465   0.347   2.158 -0.2728  0.0643  0.0040
 4536SOL    HW125241   2.507   0.338   2.073  0.8764  2.0352  0.3743
 4536SOL    HW225242   2.467   0.256   2.188  0.0538 -0.3331 -1.2022
 4537SOL     OW25243   2.171   3.862   9.359  0.2628  0.1380 -0.4465
 4537SOL    HW125244   2.205   3.951   9.369  0.9061 -0.1947  0.2382
 4537SOL    HW225245   2.194   3.819   9.441 -1.5415 -2.0511 -1.0953
 4538SOL     OW25246   4.151   0.733   5.376  0.0133  0.4511 -0.3145
 4538SOL    HW125247   4.142   0.657   5.434 -0.8853  0.9639  0.2208
 4538SOL    HW225248   4.092   0.714   5.304  0.6785 -2.5907 -0.0511
 4539SOL     OW25249   3.721   1.124   4.857 -0.0631  0.1077  0.3851
 4539SOL    HW125250   3.745   1.096   4.768 -0.4298 -2.1213  0.9933
 4539SOL    HW225251   3.762   1.210   4.868  0.1198  0.4567 -3.0188
 4540SOL     OW25252   4.616   2.076   7.828 -0.3621  0.1155 -0.4098
 4540SOL    HW125253   4.564   1.997   7.845 -0.3436  0.0850 -0.4924
 4540SOL    HW225254   4.552   2.120   7.773  0.6007 -1.1688 -2.6049
 4541SOL     OW25255   1.182   4.713   3.302  0.1489  0.0971  0.1495
 4541SOL    HW125256   1.153   4.662   3.226  0.5685 -1.3623  0.9840
 4541SOL    HW225257   1.271   4.735   3.273 -1.3218  2.2266 -2.8014
 4542SOL     OW25258   0.193   1.427   4.405 -0.0659 -0.1481  0.5972
 4542SOL    HW125259   0.150   1.372   4.471 -0.2590 -0.5754  0.1215
 4542SOL    HW225260   0.255   1.365   4.366 -0.8536  0.3327 -1.4215
 4543SOL     OW25261   3.820   0.211  17.400 -0.2381 -0.3795  1.0014
 4543SOL    HW125262   3.782   0.150  17.463 -3.2421 -1.3136 -1.6959
 4543SOL    HW225263   3.841   0.288  17.454 -2.4632  1.9678 -1.4295
 4544SOL     OW25264   3.467   2.969  13.060 -0.0840  0.6777  0.8386
 4544SOL    HW125265   3.435   3.005  13.143 -0.1277  2.5542  0.0036
 4544SOL    HW225266   3.540   2.910  13.077 -1.2624 -1.6562 -2.0559
 4545SOL     OW25267   0.084   4.061   6.914 -0.5268  0.2456  0.4555
 4545SOL    HW125268   0.017   4.050   6.981 -0.7267  1.3219  0.4371
 4545SOL    HW225269   0.047   4.125   6.854 -0.4354 -0.5338 -0.4311
 4546SOL     OW25270   2.442   4.712  10.345 -0.5267 -0.7742  0.6100
 4546SOL    HW125271   2.403   4.632  10.379  0.0780 -0.7765  1.3007
 4546SOL    HW225272   2.489   4.685  10.266  1.5750  4.2746  0.1471
 4547SOL     OW25273   3.780   0.981  10.428  0.1338  0.3657 -0.1703
 4547SOL    HW125274   3.798   0.887  10.425 -0.9023  0.1380  0.5282
 4547SOL    HW225275   3.768   1.004  10.336 -2.6513  1.9567  0.5887
 4548SOL     OW25276   4.655   3.218   2.875  0.6516  0.7872 -0.1260
 4548SOL    HW125277   4.736   3.254   2.838  0.1685  0.5657 -1.3866
 4548SOL    HW225278   4.677   3.125   2.887 -1.4788  0.1396 -1.4592
 4549SOL     OW25279   2.311   1.273   6.183  0.5368 -0.3437 -0.0025
 4549SOL    HW125280   2.249   1.297   6.252  0.5821 -1.3478  0.3857
 4549SOL    HW225281   2.350   1.188   6.204  2.2610  0.4812  0.0623
 4550SOL     OW25282   1.944   2.951   6.735  0.3447  0.2584 -0.7062
 4550SOL    HW125283   1.913   2.962   6.825 -0.6873 -2.2523 -0.7853
 4550SOL    HW225284   2.001   3.028   6.731  1.6165 -0.6930 -0.6384
 4551SOL     OW25285   3.811   3.858   3.578 -0.0071 -0.1197  0.6133
 4551SOL    HW125286   3.837   3.947   3.601 -3.6267  1.2983 -0.7508
 4551SOL    HW225287   3.715   3.864   3.569 -0.0623  1.0740  2.0177
 4552SOL     OW25288   4.350   0.485   5.083  0.1587  0.3153  0.2650
 4552SOL    HW125289   4.315   0.558   5.033 -0.8390  0.7382  1.5673
 4552SOL    HW225290   4.410   0.525   5.146  1.0256 -0.6874  0.0809
 4553SOL     OW25291   3.135   0.033  11.433  0.7233  0.3924  0.3554
 4553SOL    HW125292   3.208   0.092  11.412 -0.2889  2.7118  3.3065
 4553SOL    HW225293   3.102   0.022  11.344  0.4256  0.3192  0.4734
 4554SOL     OW25294   2.235   0.845  16.346  0.0154  0.0704  0.0201
 4554SOL    HW125295   2.243   0.880  16.435 -0.0433  1.9006 -0.7127
 4554SOL    HW225296   2.319   0.870  16.308 -0.1078 -1.5120 -1.2943
 4555SOL     OW25297   2.902   0.511   7.524 -0.0323 -0.2322  0.3348
 4555SOL    HW125298   2.953   0.432   7.505 -0.9305 -0.5209 -0.9226
 4555SOL    HW225299   2.963   0.568   7.571 -0.0333  0.8801 -1.0152
 4556SOL     OW25300   4.705   2.481  11.200 -0.1976 -0.1682  0.2801
 4556SOL    HW125301   4.647   2.486  11.124 -0.1258  1.0379  0.3074
 4556SOL    HW225302   4.653   2.426  11.258  0.1442  1.4842  2.1424
 4557SOL     OW25303   0.389   4.386   7.890  0.4376 -0.3862  0.2084
 4557SOL    HW125304   0.410   4.365   7.799 -2.5313 -0.5138 -0.4303
 4557SOL    HW225305   0.308   4.435   7.879  0.0066 -0.8012  1.5845
 4558SOL     OW25306   2.517   0.242  10.131  0.6385 -0.0556 -0.2864
 4558SOL    HW125307   2.427   0.223  10.102  0.3402 -1.1162  1.3321
 4558SOL    HW225308   2.564   0.179  10.077  0.2321 -0.6854  0.0862
 4559SOL     OW25309   3.086   4.718   2.972 -0.0407 -0.1173  0.1250
 4559SOL    HW125310   3.175   4.685   2.967  0.6833  1.6885  1.1350
 4559SOL    HW225311   3.048   4.684   2.891 -0.5687 -0.5855  0.5610
 4560SOL     OW25312   0.685   0.764   6.582  0.1223 -0.8152 -0.1787
 4560SOL    HW125313   0.772   0.792   6.610 -1.0618  0.2252  2.3958
 4560SOL    HW225314   0.657   0.698   6.645  2.0884 -1.8048 -0.3231
 4561SOL     OW25315   1.481   1.366   8.092  0.1712 -0.5059 -0.9907
 4561SOL    HW125316   1.395   1.351   8.053 -2.0944  1.6091  3.1460
 4561SOL    HW225317   1.499   1.278   8.124 -3.5221 -0.7238  0.5518
 4562SOL     OW25318   2.455   4.732  15.475  0.5828 -0.2612 -0.0163
 4562SOL    HW125319   2.382   0.052  15.453 -0.5055 -0.6190  2.7112
 4562SOL    HW225320   2.527   0.056  15.457 -0.8761  1.1781 -1.0083
 4563SOL     OW25321   4.315   1.705   9.654 -0.5342  0.3089  0.4384
 4563SOL    HW125322   4.404   1.685   9.684 -0.7411 -1.0760  0.1339
 4563SOL    HW225323   4.330   1.765   9.580  0.9151 -1.3943 -0.6746
 4564SOL     OW25324   0.245   0.718   5.034  0.1687 -0.3620 -0.6829
 4564SOL    HW125325   0.311   0.788   5.039  0.3632 -0.6563  0.6568
 4564SOL    HW225326   0.226   0.706   4.941 -0.3065  0.1442 -0.6539
 4565SOL     OW25327   0.905   2.988   3.325 -0.2350  0.7700  0.6916
 4565SOL    HW125328   0.991   3.004   3.285 -0.2786  1.6931  0.9696
 4565SOL    HW225329   0.933   2.956   3.410 -0.6479  1.6002  1.1367
 4566SOL     OW25330   0.185   3.966   7.804  0.0727 -0.3928  0.2680
 4566SOL    HW125331   0.181   3.872   7.787 -1.0425 -0.5456  1.3575
 4566SOL    HW225332   0.151   3.976   7.893  0.6490 -1.5735  0.6279
 4567SOL     OW25333   4.706   0.019   6.606  0.5402 -0.1655  0.1033
 4567SOL    HW125334   4.680   4.735   6.696 -1.0097  0.7987 -0.1144
 4567SOL    HW225335   4.630   4.725   6.556  0.3430  0.5664 -0.0477
 4568SOL     OW25336   2.939   0.906  11.860 -0.0029  0.0013 -0.2217
 4568SOL    HW125337   2.885   0.985  11.871  2.7100  1.4997  2.4369
 4568SOL    HW225338   3.026   0.944  11.849  0.6894 -1.3539  0.6559
 4569SOL     OW25339   1.481   1.963   4.406  0.2992 -0.3813  0.1862
 4569SOL    HW125340   1.477   2.056   4.385 -0.2800 -0.6781 -1.0129
 4569SOL    HW225341   1.483   1.968   4.501  2.3524  0.2347  0.0961
 4570SOL     OW25342   0.220   4.523  10.635 -0.3569  0.1629  0.1947
 4570SOL    HW125343   0.202   4.610  10.600 -3.4213  0.5482  2.7029
 4570SOL    HW225344   0.312   4.510  10.613 -0.6061 -1.1228 -0.1409
 4571SOL     OW25345   0.500   3.288   5.739  0.1928  0.0941  0.0847
 4571SOL    HW125346   0.469   3.231   5.810 -0.2546 -1.1023 -1.0578
 4571SOL    HW225347   0.581   3.241   5.716  0.7971  1.3658 -0.3604
 4572SOL     OW25348   2.972   0.343  16.499 -0.3525  0.4702 -0.4195
 4572SOL    HW125349   2.959   0.436  16.520 -0.6327  0.1034  0.9913
 4572SOL    HW225350   3.051   0.327  16.550  0.0353 -0.6933 -1.3912
 4573SOL     OW25351   4.099   1.733   3.355  0.2653 -0.1425  0.0523
 4573SOL    HW125352   4.187   1.769   3.341  0.0652  1.5892  3.3312
 4573SOL    HW225353   4.096   1.704   3.446  0.2936  1.2247  0.4808
 4574SOL     OW25354   3.810   3.370   4.029 -0.0403 -0.6866 -0.1291
 4574SOL    HW125355   3.746   3.405   3.967 -0.1789 -0.1932  0.2847
 4574SOL    HW225356   3.758   3.330   4.099  0.6335  0.5234  1.0812
 4575SOL     OW25357   1.637   1.307   7.340  0.3360  0.1327  0.7567
 4575SOL    HW125358   1.589   1.236   7.383 -0.8561 -0.4703 -1.5415
 4575SOL    HW225359   1.609   1.268   7.257 -0.2253 -0.8380  1.3986
 4576SOL     OW25360   2.381   1.719   6.098  0.3689 -0.3851 -0.3141
 4576SOL    HW125361   2.375   1.736   6.192  2.7597 -1.0679 -0.0294
 4576SOL    HW225362   2.304   1.662   6.096  0.2670 -0.1845 -1.6220
 4577SOL     OW25363   0.810   3.130  13.421  0.3782 -0.0843  0.2701
 4577SOL    HW125364   0.862   3.094  13.349 -1.5131  1.1659 -1.7388
 4577SOL    HW225365   0.725   3.087  13.417  0.1106  0.4255  0.3811
 4578SOL     OW25366   1.191   2.459   9.038 -0.3926  0.6369  0.3203
 4578SOL    HW125367   1.246   2.418   9.104 -1.6917  0.1341  1.0905
 4578SOL    HW225368   1.215   2.547   9.066 -1.4422  0.8942  0.4348
 4579SOL     OW25369   0.023   2.519  17.284  0.3644 -0.6784  0.4037
 4579SOL    HW125370   0.057   2.606  17.304  0.1805 -0.4427 -0.3208
 4579SOL    HW225371   0.004   2.513  17.191  0.4572  0.4070  0.3212
 4580SOL     OW25372   0.899   4.629   0.283 -0.0001 -0.4281 -0.0850
 4580SOL    HW125373   0.907   4.579   0.364 -0.9405  0.5755  0.6278
 4580SOL    HW225374   0.923   4.720   0.302  0.1010 -0.3998 -0.3453
 4581SOL     OW25375   4.295   3.594   3.862  0.2037  0.4024  0.1962
 4581SOL    HW125376   4.342   3.645   3.796  0.8103  0.2664  0.5225
 4581SOL    HW225377   4.272   3.520   3.806  1.0516  0.6778 -0.5076
 4582SOL     OW25378   4.149   2.659   7.351 -0.9828  0.0401  0.4140
 4582SOL    HW125379   4.114   2.747   7.333  0.9604  0.4470 -1.2666
 4582SOL    HW225380   4.159   2.655   7.446 -0.0623  3.8154  0.4859
 4583SOL     OW25381   3.248   1.287  14.703 -0.1554  0.3910 -0.2131
 4583SOL    HW125382   3.208   1.228  14.767  2.7659 -0.7772  0.5314
 4583SOL    HW225383   3.271   1.224  14.634  0.2258 -1.6094  1.7477
 4584SOL     OW25384   3.832   4.042   5.348 -0.7106  0.3499  0.0319
 4584SOL    HW125385   3.785   4.077   5.423 -4.4142 -0.4891 -1.9218
 4584SOL    HW225386   3.874   4.124   5.320 -1.1854 -0.1142 -2.0470
 4585SOL     OW25387   4.342   2.448   8.938 -1.0182  0.4536 -0.5105
 4585SOL    HW125388   4.357   2.407   9.023  1.1606  1.5805 -0.3339
 4585SOL    HW225389   4.278   2.387   8.901  0.2461 -1.0236 -0.2261
 4586SOL     OW25390   0.056   0.807   5.533  0.1396 -0.3759  0.0553
 4586SOL    HW125391   0.012   0.724   5.550  1.3382 -0.9615  0.3232
 4586SOL    HW225392   0.057   0.810   5.438 -0.3822  0.1130  0.0659
 4587SOL     OW25393   1.571   2.723   3.529  0.1246  0.7030 -0.3582
 4587SOL    HW125394   1.613   2.638   3.544  2.4270  1.9740  0.3739
 4587SOL    HW225395   1.552   2.748   3.620 -2.3504  3.0029 -1.5001
 4588SOL     OW25396   4.577   3.400   7.964  0.2615 -0.5649  0.4389
 4588SOL    HW125397   4.641   3.333   7.942 -0.7912 -0.8621 -1.6554
 4588SOL    HW225398   4.528   3.366   8.039  2.4336 -2.0168  1.1850
 4589SOL     OW25399   2.408   3.057  15.439  0.1697  0.6715 -0.0462
 4589SOL    HW125400   2.467   3.132  15.436 -1.8636  2.2332 -1.0000
 4589SOL    HW225401   2.431   3.024  15.526  3.4367  0.7201 -0.9031
 4590SOL     OW25402   2.766   0.770   5.700 -0.5035 -0.0403 -0.5867
 4590SOL    HW125403   2.849   0.813   5.679 -0.3115  0.6229  1.5129
 4590SOL    HW225404   2.710   0.775   5.623 -2.5728 -2.6573  0.7418
 4591SOL     OW25405   3.363   0.959  16.924 -0.2008  0.1259 -0.4667
 4591SOL    HW125406   3.289   0.904  16.899  0.8438 -1.9212  0.9323
 4591SOL    HW225407   3.338   1.009  17.002 -0.1975 -1.5885  0.6376
 4592SOL     OW25408   4.621   4.261   5.896  0.7381 -0.1902 -0.3532
 4592SOL    HW125409   4.663   4.251   5.811 -0.0416 -0.4904 -0.7027
 4592SOL    HW225410   4.698   4.293   5.943  0.6014 -2.5285  1.4544
 4593SOL     OW25411   0.866   0.738  15.199 -0.1623  0.4931  0.1246
 4593SOL    HW125412   0.926   0.812  15.189 -0.5208  0.9419  1.3721
 4593SOL    HW225413   0.912   0.673  15.253  1.9313  0.8960 -1.1521
 4594SOL     OW25414   2.570   1.859   3.772  0.3101  0.2249  0.0237
 4594SOL    HW125415   2.578   1.908   3.690 -0.8098 -0.5305 -0.5259
 4594SOL    HW225416   2.656   1.869   3.814  1.0886 -0.8524 -1.2845
 4595SOL     OW25417   0.522   1.729   3.731 -0.1362  0.3062  0.6139
 4595SOL    HW125418   0.440   1.698   3.693 -0.8593  1.7294  1.0424
 4595SOL    HW225419   0.546   1.807   3.680 -1.1622  0.0980 -0.1858
 4596SOL     OW25420   2.845   1.393  15.704 -0.1804 -0.2738 -0.1965
 4596SOL    HW125421   2.927   1.412  15.749 -1.0569  0.2539  1.1546
 4596SOL    HW225422   2.865   1.406  15.611 -0.0742 -0.1608 -0.1585
 4597SOL     OW25423   0.839   4.243   3.894  0.5280 -0.2091 -0.0648
 4597SOL    HW125424   0.747   4.222   3.911  0.7705 -1.7805 -0.7602
 4597SOL    HW225425   0.858   4.177   3.828 -0.7219  0.5240 -1.1552
 4598SOL     OW25426   0.851   0.481  14.451  0.1762 -0.3985  0.2524
 4598SOL    HW125427   0.794   0.515  14.381  0.6336  0.4217  0.2759
 4598SOL    HW225428   0.806   0.507  14.531  1.2643 -3.0414  1.7104
 4599SOL     OW25429   1.746   4.216   1.769  0.6286 -0.3523 -0.7317
 4599SOL    HW125430   1.738   4.311   1.771  0.1314 -0.4127 -0.0967
 4599SOL    HW225431   1.734   4.189   1.678  2.2202 -2.5245 -0.2909
 4600SOL     OW25432   1.350   4.166   7.480  0.0161  0.1369  0.3624
 4600SOL    HW125433   1.382   4.116   7.555 -1.6688 -0.1879  0.8720
 4600SOL    HW225434   1.301   4.225   7.538  1.0363  1.4172 -0.0771
 4601SOL     OW25435   0.399   4.596   5.092 -0.0271  0.2649 -0.1213
 4601SOL    HW125436   0.442   4.597   5.177  0.5799  0.8500 -0.4392
 4601SOL    HW225437   0.307   4.613   5.115  0.4257  1.1806  0.9872
 4602SOL     OW25438   3.336   1.764  13.044  0.8085  0.0500 -0.2513
 4602SOL    HW125439   3.386   1.820  12.985  0.7574 -0.1374 -0.4728
 4602SOL    HW225440   3.251   1.803  13.021  0.8573  0.1737 -0.2204
 4603SOL     OW25441   1.700   2.656   5.058  0.7160  0.1585  0.1856
 4603SOL    HW125442   1.771   2.686   5.002  0.7133 -0.8841 -0.3723
 4603SOL    HW225443   1.684   2.742   5.098 -0.3039  0.1164 -0.1247
 4604SOL     OW25444   2.611   1.246   5.504  0.9923 -1.1473 -0.7758
 4604SOL    HW125445   2.616   1.151   5.519  0.0597 -1.3368 -1.7032
 4604SOL    HW225446   2.574   1.269   5.589  0.8657 -0.1090 -1.1196
 4605SOL     OW25447   3.486   4.181   6.348  0.1099 -0.2397 -0.2551
 4605SOL    HW125448   3.494   4.277   6.347  0.9430 -0.2937  1.2404
 4605SOL    HW225449   3.400   4.186   6.306 -1.2502  2.4729  2.8128
 4606SOL     OW25450   1.896   1.449   5.508 -0.0472  0.6101  0.8463
 4606SOL    HW125451   1.868   1.414   5.423  0.8762 -0.1771  0.8673
 4606SOL    HW225452   1.814   1.483   5.544 -1.8023 -1.4375 -1.1971
 4607SOL     OW25453   1.989   2.898   4.234 -0.5711 -0.5597 -0.3878
 4607SOL    HW125454   2.016   2.815   4.194  4.0485  0.4619  0.5677
 4607SOL    HW225455   1.899   2.884   4.262 -0.1905  1.3767  1.8206
 4608SOL     OW25456   2.478   1.156   2.950 -0.1273  0.0596 -0.1584
 4608SOL    HW125457   2.386   1.173   2.972  0.3194 -0.0310  1.8056
 4608SOL    HW225458   2.486   1.070   2.991  2.1159  0.4824  0.2672
 4609SOL     OW25459   1.455   2.835   6.167 -0.1155 -0.0117  0.1482
 4609SOL    HW125460   1.549   2.815   6.171 -0.5385 -1.9693  0.6794
 4609SOL    HW225461   1.457   2.908   6.106 -2.3179  0.6322  0.8308
 4610SOL     OW25462   3.615   3.986   7.954  0.3620 -0.4136  0.4581
 4610SOL    HW125463   3.535   3.973   8.004 -0.0193 -0.6915 -0.2222
 4610SOL    HW225464   3.672   3.973   8.030  0.1691  3.4797  1.2900
 4611SOL     OW25465   1.999   1.200   7.604  0.0482  0.1954 -0.1276
 4611SOL    HW125466   2.058   1.253   7.551  0.8065  0.1059  0.6161
 4611SOL    HW225467   1.952   1.272   7.646  1.4306  1.1205 -0.1729
 4612SOL     OW25468   3.822   4.130   6.018 -0.2576 -0.2584  0.7371
 4612SOL    HW125469   3.752   4.064   6.016  0.3095 -0.7759 -1.2731
 4612SOL    HW225470   3.792   4.187   5.947 -1.1357  0.2562  1.5049
 4613SOL     OW25471   3.720   1.383   4.912 -0.4275  0.0766 -0.8372
 4613SOL    HW125472   3.784   1.450   4.888  0.2630 -0.8244 -1.5352
 4613SOL    HW225473   3.668   1.433   4.974 -1.2293 -0.9133 -0.7144
 4614SOL     OW25474   3.331   3.105   6.370  0.3494  0.2426 -0.5519
 4614SOL    HW125475   3.276   3.118   6.446  3.0018  2.1056  1.0401
 4614SOL    HW225476   3.272   3.046   6.323  0.6980 -0.2681 -0.3615
 4615SOL     OW25477   1.500   0.230  14.202  0.1881 -0.0471  0.1584
 4615SOL    HW125478   1.469   0.247  14.290 -0.9011  0.2841 -0.2921
 4615SOL    HW225479   1.504   0.135  14.204 -0.6751 -0.1266 -1.7602
 4616SOL     OW25480   2.233   2.998   6.358 -0.1963  0.3903 -0.5564
 4616SOL    HW125481   2.259   2.942   6.431 -2.1390 -1.1582 -1.0305
 4616SOL    HW225482   2.162   3.054   6.392 -0.0646 -1.0050  2.0219
 4617SOL     OW25483   1.995   1.131   2.454  0.1650 -0.3268  0.6101
 4617SOL    HW125484   2.022   1.048   2.493 -2.3961 -2.3034 -1.8555
 4617SOL    HW225485   1.911   1.148   2.498 -0.1128  1.3142 -0.5146
 4618SOL     OW25486   2.352   0.263  17.069  0.0168 -0.7500 -0.3569
 4618SOL    HW125487   2.395   0.334  17.117 -1.3959  0.5124 -0.9544
 4618SOL    HW225488   2.299   0.328  17.023  0.6155  1.3794  1.9652
 4619SOL     OW25489   1.815   1.435  10.569 -0.2263 -0.0011 -0.2601
 4619SOL    HW125490   1.757   1.359  10.574  1.9174 -1.5080  1.6135
 4619SOL    HW225491   1.768   1.486  10.503  2.3565 -0.7613 -2.6812
 4620SOL     OW25492   4.061   4.090   6.173  0.0050 -0.3183  0.3026
 4620SOL    HW125493   4.066   3.997   6.195  0.1514 -0.3189  0.2705
 4620SOL    HW225494   3.978   4.101   6.127  0.5444  2.7419  0.0219
 4621SOL     OW25495   1.178   3.351  10.518  0.3666  0.0126 -0.0250
 4621SOL    HW125496   1.098   3.375  10.472  0.5825 -0.8591 -0.8347
 4621SOL    HW225497   1.217   3.436  10.542 -3.6147  1.3618  1.6868
 4622SOL     OW25498   2.699   1.060   8.430 -0.5393  0.3357 -0.0250
 4622SOL    HW125499   2.747   1.143   8.428  0.8598 -0.4449  1.4341
 4622SOL    HW225500   2.765   1.006   8.384 -0.2665  0.0397  0.7222
 4623SOL     OW25501   0.709   4.653   9.291  0.1396  0.4295 -0.2801
 4623SOL    HW125502   0.699   0.012   9.298 -0.1261  0.3321  0.6639
 4623SOL    HW225503   0.770   4.640   9.218  0.2925  1.4595 -0.3345
 4624SOL     OW25504   4.039   1.365   7.865 -0.1811  0.0166 -0.0636
 4624SOL    HW125505   4.085   1.420   7.802 -0.9719  0.1841 -0.4998
 4624SOL    HW225506   4.040   1.281   7.819 -0.4965 -0.3878  0.6718
 4625SOL     OW25507   1.671   2.355   6.240 -0.1274  0.8135 -0.0895
 4625SOL    HW125508   1.719   2.321   6.165  0.6738 -0.3324  0.9617
 4625SOL    HW225509   1.651   2.274   6.286 -1.2882  2.1980  1.8622
 4626SOL     OW25510   0.048   1.201  15.588  0.0167 -0.0384 -0.1628
 4626SOL    HW125511   0.080   1.183  15.499 -0.4105 -1.3423 -0.0591
 4626SOL    HW225512   0.067   1.120  15.635  0.3986  0.5879  0.7443
 4627SOL     OW25513   0.918   4.151   5.471 -0.0413  0.0374  0.2119
 4627SOL    HW125514   0.886   4.061   5.466  0.8877 -0.1995 -1.3257
 4627SOL    HW225515   0.866   4.186   5.399 -0.9458 -1.9141 -0.0948
 4628SOL     OW25516   3.927   3.688  10.030  0.0981  0.2306  0.3314
 4628SOL    HW125517   3.881   3.630  10.091  0.0122  2.5935  2.5225
 4628SOL    HW225518   3.914   3.636   9.951 -0.2696  0.6756  0.1050
 4629SOL     OW25519   4.076   0.271   0.591  0.5982 -0.0547  0.7300
 4629SOL    HW125520   4.091   0.177   0.591 -0.4512 -0.2196 -0.3108
 4629SOL    HW225521   3.982   0.275   0.574  0.5392  1.4122  1.4159
 4630SOL     OW25522   1.534   3.819   5.543  0.0749 -0.8716 -0.0117
 4630SOL    HW125523   1.516   3.874   5.467  2.0320  0.7959  0.7206
 4630SOL    HW225524   1.444   3.800   5.571 -0.7540 -1.8476 -3.3435
 4631SOL     OW25525   2.141   4.006  17.675 -0.6962  0.0362 -0.3659
 4631SOL    HW125526   2.081   4.057  17.622  0.0468  2.0761  0.7661
 4631SOL    HW225527   2.138   4.062   0.009  1.4317 -2.3901  1.4754
 4632SOL     OW25528   4.670   3.448   4.807  0.1472 -0.4729  0.7725
 4632SOL    HW125529   4.664   3.399   4.889 -0.8070  0.4876  1.2677
 4632SOL    HW225530   4.677   3.380   4.739  1.7125  1.1203 -0.6533
 4633SOL     OW25531   4.403   2.540   5.294  0.4434  0.5409 -0.2558
 4633SOL    HW125532   4.411   2.634   5.310  0.5765  0.8564 -2.1709
 4633SOL    HW225533   4.396   2.514   5.386  0.2159 -1.6977 -0.8937
 4634SOL     OW25534   2.580   2.500   7.090 -0.3390  0.3850 -0.0081
 4634SOL    HW125535   2.668   2.513   7.053 -1.6765  2.4193 -2.5476
 4634SOL    HW225536   2.518   2.536   7.026 -2.3081 -0.0162  1.6956
 4635SOL     OW25537   1.118   0.318   3.717  0.5265 -0.0992 -0.0675
 4635SOL    HW125538   1.142   0.273   3.636 -1.8990  0.3604 -1.0573
 4635SOL    HW225539   1.146   0.408   3.700 -1.1398  0.6826  1.2317
 4636SOL     OW25540   2.267   0.760   6.619  0.5196 -0.4505  0.2586
 4636SOL    HW125541   2.269   0.773   6.524 -0.1017 -1.9177  0.0415
 4636SOL    HW225542   2.318   0.679   6.625  1.7445  0.2294 -0.7319
 4637SOL     OW25543   0.170   4.275   8.045 -0.6961  0.0753 -0.2227
 4637SOL    HW125544   0.161   4.180   8.056  1.1904 -0.0849 -0.0380
 4637SOL    HW225545   0.257   4.272   8.007  0.0277 -1.2066  1.5396
 4638SOL     OW25546   3.946   2.137   9.230 -0.0046 -0.0444  0.6239
 4638SOL    HW125547   4.004   2.101   9.297  0.5427  0.1501  0.2528
 4638SOL    HW225548   3.895   2.195   9.286  1.6471  1.7412  0.2509
 4639SOL     OW25549   4.073   0.032  13.915  0.0159  0.0650  0.0258
 4639SOL    HW125550   3.984   4.732  13.914 -1.2264  3.0117  2.3500
 4639SOL    HW225551   4.124   4.689  13.933  0.5995  0.6431  0.9097
 4640SOL     OW25552   3.119   0.271   5.782 -0.1679 -0.5346 -0.3833
 4640SOL    HW125553   3.128   0.292   5.875  0.3918  0.5916 -0.6841
 4640SOL    HW225554   3.040   0.324   5.768  0.3544  0.0949 -0.9207
 4641SOL     OW25555   0.910   1.435   8.638 -0.1896 -0.4198 -0.1863
 4641SOL    HW125556   0.964   1.383   8.579 -0.5738 -1.2568  0.1959
 4641SOL    HW225557   0.979   1.497   8.662 -1.7018  1.2712 -0.2433
 4642SOL     OW25558   0.847   3.226   9.216  0.3339  0.2210 -0.2144
 4642SOL    HW125559   0.842   3.291   9.146  1.6075 -0.4004 -0.8715
 4642SOL    HW225560   0.870   3.281   9.291 -1.5739 -0.4066  0.8450
 4643SOL     OW25561   4.702   1.378   9.741 -0.0099  0.0475  0.4605
 4643SOL    HW125562   0.029   1.397   9.810  0.6339 -0.4966  0.0218
 4643SOL    HW225563   0.020   1.356   9.665  1.9235 -0.1159  1.9137
 4644SOL     OW25564   3.932   4.271   6.710 -0.2589  0.3433 -0.2442
 4644SOL    HW125565   3.862   4.325   6.674 -0.5109  1.1386  1.4506
 4644SOL    HW225566   3.982   4.259   6.629 -1.6995  0.1141 -1.0906
 4645SOL     OW25567   2.167   2.113   3.833  0.3750  0.0638  0.8588
 4645SOL    HW125568   2.135   2.023   3.826  2.5426 -0.4777 -1.9464
 4645SOL    HW225569   2.215   2.127   3.752  1.7938  1.3102  1.9221
 4646SOL     OW25570   2.785   2.997   8.681 -0.2286 -0.0343  0.1343
 4646SOL    HW125571   2.708   2.956   8.641  0.8529 -1.5955 -0.3333
 4646SOL    HW225572   2.820   2.927   8.735 -0.3695 -0.8608 -0.8517
 4647SOL     OW25573   2.738   1.517  16.757  0.1945  0.0950 -0.3062
 4647SOL    HW125574   2.710   1.438  16.710 -1.4411  0.4366  0.0838
 4647SOL    HW225575   2.806   1.477  16.811 -0.3238  2.2413  1.9005
 4648SOL     OW25576   1.069   3.596  12.051 -0.5198 -0.4205 -0.0356
 4648SOL    HW125577   1.095   3.629  11.964 -1.1986  0.2302  0.0122
 4648SOL    HW225578   1.033   3.682  12.072  1.3374  0.0355  1.3034
 4649SOL     OW25579   2.440   3.335   9.913 -0.0679  0.4266 -0.3822
 4649SOL    HW125580   2.349   3.324   9.941 -0.2793 -0.6171 -1.4772
 4649SOL    HW225581   2.481   3.375   9.989  2.1176  0.1102 -1.3881
 4650SOL     OW25582   0.526   0.203   8.856  0.1054  0.4094  0.9742
 4650SOL    HW125583   0.454   0.192   8.794 -0.2264  1.4627  1.1755
 4650SOL    HW225584   0.593   0.239   8.798 -1.2229 -0.9923 -1.3882
 4651SOL     OW25585   0.015   1.963   5.060  0.0436  0.2500 -0.1479
 4651SOL    HW125586   4.724   1.983   5.149 -0.9237  1.5019 -0.7265
 4651SOL    HW225587   0.100   2.006   5.061 -0.8352  1.8620  2.5532
 4652SOL     OW25588   0.643   0.931   7.040  0.3923 -0.7102  0.2839
 4652SOL    HW125589   0.708   0.861   7.026  0.8796  0.4817 -3.4632
 4652SOL    HW225590   0.687   1.002   7.086  0.9842  1.0942 -3.1164
 4653SOL     OW25591   3.454   3.915   9.019 -0.4093  0.3079 -0.0005
 4653SOL    HW125592   3.479   3.827   8.989  0.5522  0.7918 -0.6177
 4653SOL    HW225593   3.373   3.925   8.969  0.5994 -1.3101 -1.9955
 4654SOL     OW25594   1.251   1.261   7.976 -0.3820 -0.8138 -0.2752
 4654SOL    HW125595   1.280   1.190   7.918 -0.5762  0.5482 -2.0616
 4654SOL    HW225596   1.157   1.246   7.985 -0.4388  0.5548  1.3036
 4655SOL     OW25597   1.964   3.103   1.743 -0.1407  0.2692  0.1447
 4655SOL    HW125598   1.982   3.009   1.749 -0.3706  0.3040  1.4578
 4655SOL    HW225599   1.907   3.112   1.819  0.9626  2.9273  0.6468
 4656SOL     OW25600   4.199   0.775   7.491 -0.0048  0.5699 -0.3536
 4656SOL    HW125601   4.159   0.794   7.576  1.6667  2.1903  0.0544
 4656SOL    HW225602   4.127   0.733   7.443 -0.2695  0.2128  0.3400
 4657SOL     OW25603   1.051   3.626  16.589 -0.7056 -0.2167 -1.0159
 4657SOL    HW125604   1.128   3.587  16.632 -0.5157  1.3765  0.0863
 4657SOL    HW225605   1.089   3.665  16.511  0.2693  0.4670 -0.2023
 4658SOL     OW25606   0.849   1.037  14.385  0.1588  0.2112  0.1301
 4658SOL    HW125607   0.857   1.124  14.347 -0.0904  1.0356  1.9693
 4658SOL    HW225608   0.769   1.004  14.344  0.4403  0.8163 -0.9250
 4659SOL     OW25609   0.967   2.877  15.077  0.1008 -0.4662 -0.3506
 4659SOL    HW125610   1.061   2.863  15.083  0.2018  0.8886  1.1031
 4659SOL    HW225611   0.951   2.805  15.016  0.2650 -0.3113 -0.5753
 4660SOL     OW25612   1.480   3.089   0.718 -0.4546 -0.6252  0.0769
 4660SOL    HW125613   1.556   3.035   0.739  0.5802  0.8865  0.2154
 4660SOL    HW225614   1.458   3.038   0.640  0.2313  0.0052 -0.5223
 4661SOL     OW25615   0.805   1.092   1.617  0.0057  0.2501  0.0748
 4661SOL    HW125616   0.742   1.043   1.670  0.4879  1.0858  1.4251
 4661SOL    HW225617   0.770   1.181   1.626 -0.1748 -0.0493  2.2514
 4662SOL     OW25618   2.014   4.497   5.328  0.1716  1.0053 -0.0228
 4662SOL    HW125619   2.063   4.570   5.292 -1.0377  1.9021  0.1189
 4662SOL    HW225620   2.043   4.491   5.419 -2.6864  2.6001  1.0197
 4663SOL     OW25621   0.448   3.869  10.803  0.1239  0.4983  0.6942
 4663SOL    HW125622   0.509   3.844  10.733 -1.2865 -0.0783 -0.3302
 4663SOL    HW225623   0.438   3.963  10.788 -0.5434  0.1972 -0.7078
 4664SOL     OW25624   0.001   0.125   3.397  0.1821 -0.6553 -0.2585
 4664SOL    HW125625   4.654   0.092   3.364  0.9759 -3.6812  0.7191
 4664SOL    HW225626   0.062   0.053   3.378  2.1188  0.4006  1.8792
 4665SOL     OW25627   0.692   1.365   5.361 -0.3637  0.2153 -0.1862
 4665SOL    HW125628   0.711   1.271   5.360  0.6981  0.4352  0.6122
 4665SOL    HW225629   0.597   1.364   5.375 -0.1696  0.1095  1.0965
 4666SOL     OW25630   2.204   1.532  11.602  0.6592 -0.5589 -0.1526
 4666SOL    HW125631   2.209   1.626  11.620 -1.1279 -0.3259 -0.8888
 4666SOL    HW225632   2.238   1.518  11.514 -0.1099 -0.7314 -0.4212
 4667SOL     OW25633   4.314   2.452  11.409  0.5137  0.2056  0.3167
 4667SOL    HW125634   4.257   2.468  11.334  1.2862  0.9812 -0.0996
 4667SOL    HW225635   4.263   2.489  11.481  0.9902 -1.5407  1.5450
 4668SOL     OW25636   2.311   0.969   5.661  0.5073 -0.2223 -0.2519
 4668SOL    HW125637   2.221   0.980   5.691  0.0692 -1.5603 -1.0770
 4668SOL    HW225638   2.297   0.951   5.568  1.7870 -3.7958  0.2381
 4669SOL     OW25639   3.963   3.518  12.372 -0.2079 -0.0786  0.1410
 4669SOL    HW125640   3.896   3.544  12.308 -0.9848 -2.0556  0.1438
 4669SOL    HW225641   4.016   3.457  12.320 -0.0337  1.1977 -1.2019
 4670SOL     OW25642   1.052   2.112   7.585 -0.2296 -0.0261 -0.1512
 4670SOL    HW125643   1.098   2.146   7.661 -0.6503 -2.1566  1.0632
 4670SOL    HW225644   1.113   2.115   7.510  1.3287  1.5172  1.1977
 4671SOL     OW25645   4.199   3.389   8.928 -0.5303  0.8487 -0.7597
 4671SOL    HW125646   4.164   3.464   8.880 -2.2756  0.2621 -0.4161
 4671SOL    HW225647   4.290   3.415   8.917 -0.1508 -0.1744  0.0006
 4672SOL     OW25648   3.716   3.320  10.323 -0.2435  0.1139  0.0406
 4672SOL    HW125649   3.747   3.230  10.322 -1.6120 -0.3346 -0.6902
 4672SOL    HW225650   3.780   3.357  10.385 -0.5891 -0.1574  0.5606
 4673SOL     OW25651   1.292   0.541   5.017 -0.2489 -0.5896  0.3292
 4673SOL    HW125652   1.313   0.455   5.051 -0.5965 -1.1695 -0.9271
 4673SOL    HW225653   1.351   0.559   4.944 -2.9572 -0.0627 -1.7440
 4674SOL     OW25654   3.334   0.679   6.743  0.1865  0.0140 -0.2739
 4674SOL    HW125655   3.292   0.712   6.664 -1.5161  0.0904  0.6616
 4674SOL    HW225656   3.273   0.692   6.816  1.2730  1.1021  0.4360
 4675SOL     OW25657   2.387   0.745   6.971 -0.0136 -0.2324  0.2180
 4675SOL    HW125658   2.358   0.831   6.939 -1.9802 -1.5989 -1.6512
 4675SOL    HW225659   2.431   0.719   6.890  0.4678  0.3494  0.2881
 4676SOL     OW25660   0.505   2.093   2.404  0.7474 -0.3317 -0.7632
 4676SOL    HW125661   0.509   2.188   2.398  1.4997 -0.2858  0.3658
 4676SOL    HW225662   0.564   2.077   2.478 -1.2874  0.7281  1.0713
 4677SOL     OW25663   2.855   1.961  17.254  0.4636  0.2063 -0.2658
 4677SOL    HW125664   2.811   1.913  17.183 -1.5557  0.5485  0.7540
 4677SOL    HW225665   2.945   1.958  17.223  0.4027 -1.5332 -0.2442
 4678SOL     OW25666   3.915   3.410   5.458  0.5577  0.3577  0.7628
 4678SOL    HW125667   3.931   3.481   5.395  3.3461 -0.8952  0.0675
 4678SOL    HW225668   3.886   3.340   5.399 -0.9977 -0.2489  2.2575
 4679SOL     OW25669   3.482   0.894   8.009  0.2259  0.0469 -0.2261
 4679SOL    HW125670   3.573   0.925   8.009 -0.6522  2.6274  2.4485
 4679SOL    HW225671   3.447   0.969   8.057  0.0020 -0.3415  0.2198
 4680SOL     OW25672   1.386   2.338   8.128  0.7176 -0.0181  0.1887
 4680SOL    HW125673   1.404   2.268   8.065 -1.3470  0.8037 -1.3149
 4680SOL    HW225674   1.291   2.342   8.140  0.5041 -0.2529 -1.3812
 4681SOL     OW25675   2.954   1.762  15.410 -0.4536  0.4004  0.3306
 4681SOL    HW125676   2.935   1.668  15.420  2.2187 -0.1249  0.2981
 4681SOL    HW225677   3.041   1.760  15.372 -0.7074 -0.9256 -0.1981
 4682SOL     OW25678   0.582   1.179  13.628  0.2790 -0.3894 -0.0824
 4682SOL    HW125679   0.638   1.226  13.690  0.2977  2.3848 -2.1603
 4682SOL    HW225680   0.516   1.245  13.607 -0.0863 -1.2471 -1.6323
 4683SOL     OW25681   3.835   1.010  10.155 -0.4921 -0.2710  0.0646
 4683SOL    HW125682   3.849   1.104  10.146 -2.0967 -0.3142 -2.9916
 4683SOL    HW225683   3.772   1.000  10.084 -1.3097 -0.8845  0.8725
 4684SOL     OW25684   0.660   3.222   6.929 -0.3112  0.1998  0.3843
 4684SOL    HW125685   0.751   3.240   6.909  0.0111 -0.1012  1.5487
 4684SOL    HW225686   0.665   3.181   7.016 -2.0885 -1.7811 -0.4523
 4685SOL     OW25687   1.458   2.189   6.885 -0.0760  0.0411 -0.4701
 4685SOL    HW125688   1.425   2.149   6.966 -1.6056  1.5021 -0.3637
 4685SOL    HW225689   1.408   2.270   6.881 -0.3756 -0.1334 -0.3141
 4686SOL     OW25690   1.312   0.361   6.524 -0.3651  0.2533  0.1051
 4686SOL    HW125691   1.355   0.276   6.536 -0.4882  0.2085  0.2370
 4686SOL    HW225692   1.248   0.345   6.455 -0.4795  0.9326  0.0558
 4687SOL     OW25693   2.944   1.708  10.263  0.6191 -0.3079 -0.1831
 4687SOL    HW125694   2.954   1.664  10.348  2.3649  0.8599  0.2156
 4687SOL    HW225695   2.859   1.751  10.259  0.5902 -0.2723  0.7388
 4688SOL     OW25696   2.632   4.586   3.467 -0.4616  0.5558 -0.5765
 4688SOL    HW125697   2.706   4.643   3.488  1.0747 -1.0869 -1.6463
 4688SOL    HW225698   2.598   4.623   3.386 -1.7987  2.5701  0.8964
 4689SOL     OW25699   0.846   4.150   8.345  0.7070 -0.2504  0.3626
 4689SOL    HW125700   0.769   4.098   8.367  0.2019  0.5245  0.4112
 4689SOL    HW225701   0.804   4.233   8.321 -0.0378 -0.7769 -0.1382
 4690SOL     OW25702   0.274   3.974   9.114  0.0981 -0.8762  0.2939
 4690SOL    HW125703   0.242   4.059   9.084 -0.5568 -1.2047  0.0668
 4690SOL    HW225704   0.245   3.966   9.204 -0.2296 -1.6475  0.1138
 4691SOL     OW25705   2.684   1.364   2.175  0.2572  0.1720 -0.6564
 4691SOL    HW125706   2.780   1.360   2.178  0.2158  0.3405  0.9486
 4691SOL    HW225707   2.660   1.271   2.178 -1.2680  0.6402  1.7300
 4692SOL     OW25708   3.616   2.589   4.159  0.1093 -0.5631  0.0097
 4692SOL    HW125709   3.643   2.632   4.078  0.0321  1.3523  0.9915
 4692SOL    HW225710   3.637   2.661   4.218  0.6575 -0.2577 -0.5623
 4693SOL     OW25711   1.239   3.676   7.416 -0.1752  0.1865  0.0887
 4693SOL    HW125712   1.287   3.664   7.498 -1.2732  2.2565  1.0240
 4693SOL    HW225713   1.296   3.719   7.354  0.2792 -1.8343 -0.9085
 4694SOL     OW25714   0.148   2.656   2.638  0.1946  0.2497 -0.1319
 4694SOL    HW125715   0.080   2.697   2.585 -0.4664  0.6900  1.0583
 4694SOL    HW225716   0.099   2.596   2.694  0.0865 -0.4951 -1.0268
 4695SOL     OW25717   0.091   2.016   3.417  1.0200 -0.3250  0.1578
 4695SOL    HW125718   0.048   1.954   3.475  1.9079 -0.2651  0.8901
 4695SOL    HW225719   0.116   1.950   3.352 -0.3601  0.4854 -1.1944
 4696SOL     OW25720   3.585   3.208  16.849 -0.2910  0.3920  0.5812
 4696SOL    HW125721   3.658   3.220  16.788 -1.1046  0.2320 -0.4229
 4696SOL    HW225722   3.540   3.292  16.838 -0.8442 -0.2467 -2.0572
 4697SOL     OW25723   3.545   2.691   0.785  0.1703  0.4434 -0.8341
 4697SOL    HW125724   3.633   2.693   0.823 -1.4678 -2.2682  3.0308
 4697SOL    HW225725   3.571   2.741   0.707 -1.0379  0.0381 -1.4936
 4698SOL     OW25726   1.206   4.246  11.405  0.1066  0.1896  0.2910
 4698SOL    HW125727   1.244   4.282  11.325  0.1359  1.0281  0.6894
 4698SOL    HW225728   1.163   4.317  11.452  0.7474  0.4439  0.4921
 4699SOL     OW25729   4.155   1.536  11.751  0.0950  0.3110 -0.0330
 4699SOL    HW125730   4.192   1.472  11.812  1.8370  0.4911 -0.9222
 4699SOL    HW225731   4.138   1.613  11.804 -1.0817  0.3829 -0.4987
 4700SOL     OW25732   2.155   1.387   4.852  0.2640  0.3785  0.6035
 4700SOL    HW125733   2.088   1.322   4.874 -0.5143  0.4738 -1.4401
 4700SOL    HW225734   2.210   1.381   4.930  1.3941 -0.1244 -0.2300
 4701SOL     OW25735   0.232   0.560  11.959 -0.0874  0.7593  0.3942
 4701SOL    HW125736   0.317   0.582  11.995  1.0698  0.5462 -2.2164
 4701SOL    HW225737   0.260   0.524  11.875  2.5443  0.4637  1.4241
 4702SOL     OW25738   4.554   0.136   4.405  0.1594 -0.1279  0.5164
 4702SOL    HW125739   4.534   0.047   4.376  1.8901 -0.0163 -1.0527
 4702SOL    HW225740   4.649   0.129   4.389  0.2124 -1.4450  1.3700
 4703SOL     OW25741   3.241   3.587   5.035  0.0342 -0.3507 -0.4977
 4703SOL    HW125742   3.188   3.508   5.025 -0.9937  0.4162 -1.1214
 4703SOL    HW225743   3.198   3.643   4.970 -0.0468 -1.5815 -1.5189
 4704SOL     OW25744   2.405   2.199  10.498  0.1433  0.2530 -0.1061
 4704SOL    HW125745   2.387   2.114  10.539  1.4813  0.3315  0.6259
 4704SOL    HW225746   2.477   2.179  10.438  0.3245  0.3945  0.0656
 4705SOL     OW25747   2.667   3.019   7.442  0.0796 -0.3555  0.0083
 4705SOL    HW125748   2.717   3.026   7.524 -0.5340 -0.9440  0.4370
 4705SOL    HW225749   2.666   2.926   7.421  0.7010  0.0166 -1.6490
 4706SOL     OW25750   1.437   0.506   7.487  0.0842  0.4114 -0.5613
 4706SOL    HW125751   1.524   0.484   7.523 -0.0511  2.4337  0.9583
 4706SOL    HW225752   1.381   0.441   7.530 -0.6662  0.5335 -1.3543
 4707SOL     OW25753   0.461   2.908   3.570  0.4782 -0.0077  0.3403
 4707SOL    HW125754   0.510   2.892   3.489  3.0804  1.8773  1.5430
 4707SOL    HW225755   0.484   2.829   3.618 -1.7845 -1.0793 -0.3416
 4708SOL     OW25756   4.136   0.734   6.182  0.2101  0.1968  0.1880
 4708SOL    HW125757   4.150   0.650   6.225  0.3108 -0.1590 -0.5365
 4708SOL    HW225758   4.094   0.780   6.254 -1.6078 -0.8152 -0.2365
 4709SOL     OW25759   1.518   0.616   1.617 -0.1941 -0.0307  0.5723
 4709SOL    HW125760   1.474   0.681   1.563 -1.2325 -1.0190  0.2231
 4709SOL    HW225761   1.548   0.668   1.691  1.2185 -1.0903  0.7596
 4710SOL     OW25762   2.714   1.774   5.372 -0.0700 -0.2253 -0.5832
 4710SOL    HW125763   2.764   1.788   5.452 -0.5440  1.4257 -0.5699
 4710SOL    HW225764   2.720   1.681   5.353 -1.7686 -0.1451 -1.4824
 4711SOL     OW25765   3.087   1.544   2.048  0.7931  0.3282 -0.0410
 4711SOL    HW125766   3.032   1.473   2.014 -1.3228  1.9161  0.0435
 4711SOL    HW225767   3.040   1.580   2.123 -1.0816 -0.5095 -0.7813
 4712SOL     OW25768   3.953   1.175  10.473  0.0490  0.0685  0.0956
 4712SOL    HW125769   3.903   1.099  10.445 -1.6834  0.8150  1.1387
 4712SOL    HW225770   3.893   1.205  10.541  1.0265 -1.2428  1.5176
 4713SOL     OW25771   4.147   1.608   2.804  1.2829  0.2675  0.4572
 4713SOL    HW125772   4.116   1.607   2.713  0.1771 -0.7751  0.8558
 4713SOL    HW225773   4.203   1.685   2.809  0.5454  0.7926  0.5890
 4714SOL     OW25774   1.695   4.159   4.426 -0.4903  0.2321 -0.4781
 4714SOL    HW125775   1.684   4.192   4.337 -1.4547 -0.2639 -0.5320
 4714SOL    HW225776   1.604   4.133   4.434 -1.0813  2.5553  0.4758
 4715SOL     OW25777   3.207   2.705  11.263 -0.4737 -0.2813  0.3374
 4715SOL    HW125778   3.279   2.642  11.272  1.4001  1.6317 -1.3048
 4715SOL    HW225779   3.175   2.686  11.174  1.9836  0.8440 -0.7865
 4716SOL     OW25780   0.119   4.190   9.590 -0.2496  0.1007  0.4109
 4716SOL    HW125781   0.154   4.279   9.590  2.4279 -0.9326  1.7400
 4716SOL    HW225782   0.196   4.146   9.626  0.6526  2.0510  0.8586
 4717SOL     OW25783   1.598   4.327   5.780 -0.0316  0.3920 -0.0886
 4717SOL    HW125784   1.522   4.291   5.736  0.3247 -0.8175  0.2749
 4717SOL    HW225785   1.597   4.280   5.864  0.8845  0.8501  0.1860
 4718SOL     OW25786   3.798   3.052   3.593 -0.1244 -0.1059  0.4716
 4718SOL    HW125787   3.746   3.109   3.536 -2.7514 -1.8243  1.1890
 4718SOL    HW225788   3.789   3.104   3.673  0.8744  0.1151  0.4473
 4719SOL     OW25789   1.182   4.026   1.232 -0.0479 -0.3225 -0.6262
 4719SOL    HW125790   1.101   3.975   1.229  1.0205 -1.9159 -2.2311
 4719SOL    HW225791   1.163   4.103   1.178 -0.6936  0.4582  0.7126
 4720SOL     OW25792   0.586   3.182  14.556 -0.8979  0.1908 -0.1742
 4720SOL    HW125793   0.582   3.273  14.528  1.3951  0.7627  1.3478
 4720SOL    HW225794   0.572   3.192  14.650  1.0509  0.9650  0.0443
 4721SOL     OW25795   2.922   4.297   0.724 -0.0862 -0.2050  0.2462
 4721SOL    HW125796   2.903   4.215   0.769  0.8450 -0.3313  0.4172
 4721SOL    HW225797   2.926   4.369   0.788  0.3019 -1.6671  1.8473
 4722SOL     OW25798   1.849   3.337   3.925 -0.0053 -0.1238  0.0920
 4722SOL    HW125799   1.840   3.375   4.012  1.1898  2.7381 -1.0320
 4722SOL    HW225800   1.944   3.327   3.927 -0.1194 -1.4815 -0.8527
 4723SOL     OW25801   2.628   2.542  15.838  0.1350 -0.0203 -0.2414
 4723SOL    HW125802   2.599   2.451  15.849 -0.4784  0.3899  1.4364
 4723SOL    HW225803   2.571   2.595  15.893 -0.8434 -0.3251 -0.9567
 4724SOL     OW25804   2.400   3.637   0.386  0.4518 -0.2266 -0.2073
 4724SOL    HW125805   2.370   3.599   0.303 -0.5527 -1.1020  0.5630
 4724SOL    HW225806   2.461   3.699   0.346  0.2652 -0.3279 -0.6475
 4725SOL     OW25807   4.254   1.759   4.102  0.5870 -0.0653 -0.8100
 4725SOL    HW125808   4.281   1.841   4.145 -0.8257 -1.2267  2.2231
 4725SOL    HW225809   4.179   1.791   4.052  0.2864  2.2963  1.1550
 4726SOL     OW25810   3.000   3.725   2.521  0.5497  0.6346  0.6964
 4726SOL    HW125811   3.051   3.784   2.465  0.0784 -0.0107 -0.4260
 4726SOL    HW225812   2.944   3.784   2.570 -0.4597  1.5984 -1.5899
 4727SOL     OW25813   2.444   3.234  17.336  0.3975 -0.8324 -0.4596
 4727SOL    HW125814   2.400   3.150  17.324 -0.5286 -0.6461  1.5933
 4727SOL    HW225815   2.499   3.216  17.413  0.4702  0.5349 -0.1917
 4728SOL     OW25816   0.206   2.276   2.340 -0.1412  0.3835 -0.0927
 4728SOL    HW125817   0.221   2.184   2.319 -2.8353 -0.4163  1.5205
 4728SOL    HW225818   0.241   2.325   2.266  0.7528 -0.1788 -0.0417
 4729SOL     OW25819   2.241   1.017  14.752 -0.2350  0.7038 -0.2406
 4729SOL    HW125820   2.300   0.994  14.824  0.1480  1.7336 -0.2160
 4729SOL    HW225821   2.260   1.111  14.744 -4.5492  1.6331  0.5589
 4730SOL     OW25822   0.999   2.652   9.331  0.2245  0.0171  0.1021
 4730SOL    HW125823   0.981   2.558   9.336  0.3060 -0.0987 -1.5828
 4730SOL    HW225824   0.960   2.685   9.412  0.9269  0.7951  0.1170
 4731SOL     OW25825   2.144   3.756   7.714 -0.1989  0.0026 -0.2263
 4731SOL    HW125826   2.175   3.683   7.768 -1.4771 -1.8416 -1.9546
 4731SOL    HW225827   2.126   3.808   7.792 -1.2283  0.8918 -1.0607
 4732SOL     OW25828   2.110   1.883   7.430 -0.3965 -0.1392 -0.0287
 4732SOL    HW125829   2.180   1.911   7.372  1.4953 -0.1298  2.2323
 4732SOL    HW225830   2.036   1.889   7.370 -0.8346  0.5710  0.5870
 4733SOL     OW25831   4.256   0.470   6.935  0.3742 -0.1827  0.2482
 4733SOL    HW125832   4.249   0.384   6.895 -2.2570 -0.3458  1.0551
 4733SOL    HW225833   4.165   0.487   6.960  0.0120 -0.6377 -0.8058
 4734SOL     OW25834   3.655   3.804   1.558  0.4238  0.1929  0.0208
 4734SOL    HW125835   3.735   3.852   1.580  1.7506 -2.3627  0.7983
 4734SOL    HW225836   3.646   3.723   1.609 -2.2681  1.0360  0.8574
 4735SOL     OW25837   3.425   0.278  10.039 -0.1083  0.6211  0.1146
 4735SOL    HW125838   3.483   0.236   9.975 -1.9084 -1.1633 -0.3433
 4735SOL    HW225839   3.469   0.358  10.068 -1.6446  2.0441 -1.4620
 4736SOL     OW25840   2.908   3.768   3.293 -0.6701 -0.2479  0.3333
 4736SOL    HW125841   2.890   3.854   3.254 -0.6043 -0.8645 -1.0367
 4736SOL    HW225842   2.884   3.784   3.384  1.7339 -0.3079  0.9650
 4737SOL     OW25843   1.231   3.710   6.144  0.3701  0.0877  0.0660
 4737SOL    HW125844   1.317   3.735   6.180 -0.3124  0.3360  1.5045
 4737SOL    HW225845   1.254   3.723   6.052  0.4300  0.2201  0.0997
 4738SOL     OW25846   1.431   0.031   3.166 -0.0724 -0.3149  0.0590
 4738SOL    HW125847   1.500   0.097   3.174  0.0330 -0.4341  0.1265
 4738SOL    HW225848   1.440   0.010   3.073  0.1445 -2.3842  0.5357
 4739SOL     OW25849   0.772   3.167   6.136 -0.4586  0.0309  0.3410
 4739SOL    HW125850   0.828   3.191   6.062 -1.8847 -2.7389 -1.6261
 4739SOL    HW225851   0.825   3.116   6.197 -1.4064 -1.1934  0.1374
 4740SOL     OW25852   2.099   0.776  15.804  0.6851 -0.3524  0.1979
 4740SOL    HW125853   2.171   0.811  15.855 -0.6724  2.0888  0.4490
 4740SOL    HW225854   2.025   0.819  15.848  0.0652  0.6491 -1.7926
 4741SOL     OW25855   3.495   2.859  10.421  0.3324  0.0531 -0.0144
 4741SOL    HW125856   3.540   2.912  10.355  0.1641 -0.2468 -0.3740
 4741SOL    HW225857   3.404   2.874  10.396 -0.2270 -1.5425  1.0439
 4742SOL     OW25858   3.609   4.176   8.208 -0.1253  0.0056  0.1597
 4742SOL    HW125859   3.540   4.135   8.260  0.9245  1.2790  2.5454
 4742SOL    HW225860   3.665   4.099   8.197 -2.1349 -1.4172 -0.0513
 4743SOL     OW25861   3.368   1.232   2.652 -0.4037  0.2942  0.5639
 4743SOL    HW125862   3.445   1.282   2.626  0.2505 -1.6537 -1.3142
 4743SOL    HW225863   3.298   1.294   2.634 -0.7114  0.2353  1.5843
 4744SOL     OW25864   2.474   4.228   6.203 -0.2157  0.2354  0.1531
 4744SOL    HW125865   2.384   4.202   6.184 -1.3170  4.0183  0.1869
 4744SOL    HW225866   2.501   4.238   6.112  0.5837 -2.0165  0.1461
 4745SOL     OW25867   1.474   2.950   7.413 -0.1979  0.2332 -0.0056
 4745SOL    HW125868   1.524   2.895   7.474 -1.3107 -1.2681 -0.4290
 4745SOL    HW225869   1.439   3.013   7.476 -2.7667  0.8212 -2.0277
 4746SOL     OW25870   0.012   2.493   8.136 -0.2952  0.0778 -0.1311
 4746SOL    HW125871   0.012   2.421   8.073 -0.4217  0.8371 -0.9982
 4746SOL    HW225872   4.658   2.520   8.146  0.4328  2.2637  0.4458
 4747SOL     OW25873   0.458   4.315   1.701  0.0941 -0.4746 -0.3817
 4747SOL    HW125874   0.500   4.238   1.739 -1.0368 -1.4770 -1.1530
 4747SOL    HW225875   0.396   4.279   1.638  0.7145 -0.2702 -1.1062
 4748SOL     OW25876   0.031   1.538   4.213  0.1253 -0.0684 -0.1141
 4748SOL    HW125877   0.013   1.451   4.178 -0.3211 -0.3222  0.7516
 4748SOL    HW225878   0.099   1.521   4.277  0.1427  1.0561  0.1611
 4749SOL     OW25879   3.555   2.503   1.714  0.7132  0.1865 -0.6402
 4749SOL    HW125880   3.516   2.551   1.640 -0.7819  2.0980  1.4064
 4749SOL    HW225881   3.530   2.411   1.705 -0.0404  0.1955  1.4900
 4750SOL     OW25882   3.362   3.740   2.424 -0.5255  0.1657 -0.3939
 4750SOL    HW125883   3.295   3.765   2.360  1.3576 -2.0560 -3.1961
 4750SOL    HW225884   3.324   3.785   2.500  2.0023 -0.2807  1.1130
 4751SOL     OW25885   1.431   2.905   2.916  0.0456 -0.6901 -0.3740
 4751SOL    HW125886   1.516   2.912   2.960 -1.5706  2.0981  2.2146
 4751SOL    HW225887   1.381   2.862   2.985 -0.8701  1.2741  0.1561
 4752SOL     OW25888   0.784   3.454   5.377  0.2042  0.5214  0.2162
 4752SOL    HW125889   0.843   3.473   5.304  1.4011 -0.6272  0.8935
 4752SOL    HW225890   0.801   3.360   5.380 -2.8907 -0.0347 -0.3625
 4753SOL     OW25891   3.570   2.832  14.829 -0.3638 -0.1553 -0.2465
 4753SOL    HW125892   3.493   2.888  14.838  1.4750  2.4769 -1.2595
 4753SOL    HW225893   3.531   2.767  14.770 -0.8838 -0.7865  0.7943
 4754SOL     OW25894   0.896   4.544   6.204 -0.4380 -0.2043 -0.0506
 4754SOL    HW125895   0.959   4.477   6.231  0.6712  0.9482  0.2086
 4754SOL    HW225896   0.817   4.500   6.237 -0.0680  1.7000  3.4250
 4755SOL     OW25897   3.333   0.420   8.706  0.0241 -0.1002  0.6559
 4755SOL    HW125898   3.260   0.459   8.658  0.7434  0.3841 -0.0385
 4755SOL    HW225899   3.277   0.347   8.733 -1.7653  0.9761 -0.0855
 4756SOL     OW25900   1.376   2.028   5.843 -0.3121 -0.0327  0.6852
 4756SOL    HW125901   1.317   2.019   5.918  0.1660 -0.9784  0.9435
 4756SOL    HW225902   1.460   2.031   5.888  0.5873  0.0223 -1.0048
 4757SOL     OW25903   2.784   4.043   1.038  0.1966  0.1510  0.0227
 4757SOL    HW125904   2.801   4.053   0.944  1.3000 -1.5515  0.0392
 4757SOL    HW225905   2.856   4.093   1.076 -1.5704  3.8259 -1.4818
 4758SOL     OW25906   1.725   3.474   1.698  0.5778 -0.0623  0.1203
 4758SOL    HW125907   1.634   3.489   1.723  0.4463 -2.1226  0.9245
 4758SOL    HW225908   1.763   3.477   1.786 -1.4573  0.3706  1.0038
 4759SOL     OW25909   3.997   4.124   3.052 -0.3252  0.1858 -1.0971
 4759SOL    HW125910   3.922   4.140   2.994 -1.0757 -2.6555 -0.8965
 4759SOL    HW225911   3.961   4.148   3.137  0.1943  1.6985 -1.3096
 4760SOL     OW25912   0.932   0.877   8.278 -0.1251  0.5817 -0.4123
 4760SOL    HW125913   0.882   0.958   8.269 -0.1595  0.3165 -2.4707
 4760SOL    HW225914   0.982   0.875   8.197  1.1668  3.7998  0.3218
 4761SOL     OW25915   3.789   3.045   4.061  0.2879 -0.3184  0.5721
 4761SOL    HW125916   3.750   3.128   4.089 -2.2657 -1.7615  1.3377
 4761SOL    HW225917   3.882   3.064   4.071  0.2723 -1.0553  2.1844
 4762SOL     OW25918   3.761   2.237   8.614  0.1172  0.3124 -0.0607
 4762SOL    HW125919   3.807   2.249   8.697  0.6830  1.5208 -0.5497
 4762SOL    HW225920   3.724   2.325   8.604  1.5114  0.8405 -0.6006
 4763SOL     OW25921   0.100   1.020   2.296 -0.1437 -0.4276  0.3069
 4763SOL    HW125922   0.178   1.060   2.334 -1.0626  1.4075  0.2471
 4763SOL    HW225923   0.101   1.061   2.209 -0.5400 -2.7442 -0.7968
 4764SOL     OW25924   1.376   1.346   1.431 -0.0782  0.5011  0.6878
 4764SOL    HW125925   1.424   1.405   1.489  1.9053  0.7164 -1.1459
 4764SOL    HW225926   1.376   1.407   1.357  1.0031  0.4740  0.6566
 4765SOL     OW25927   2.211   0.009   2.312 -0.5613 -0.3478 -0.7275
 4765SOL    HW125928   2.166   0.017   2.396  0.8690 -3.0307  0.2714
 4765SOL    HW225929   2.186   4.655   2.295  1.7592 -0.8960 -1.2312
 4766SOL     OW25930   3.646   4.584   6.124  0.8229  0.5124 -0.1387
 4766SOL    HW125931   3.575   4.592   6.060  0.6607  1.8920  0.2134
 4766SOL    HW225932   3.707   4.654   6.099  3.2982 -1.2240  1.0384
 4767SOL     OW25933   1.507   3.112   0.302  0.1972  0.3852  0.3657
 4767SOL    HW125934   1.510   3.204   0.329 -0.0662  0.7660 -0.8990
 4767SOL    HW225935   1.548   3.115   0.216  0.1457  1.1650  0.3659
 4768SOL     OW25936   1.206   1.244   6.178 -0.1917 -0.2462  0.5595
 4768SOL    HW125937   1.206   1.253   6.083  1.9975 -0.0408  0.5726
 4768SOL    HW225938   1.288   1.292   6.184  1.1770 -2.5790  0.5153
 4769SOL     OW25939   1.042   2.997   9.186  0.0374 -0.7653  0.7865
 4769SOL    HW125940   0.975   3.064   9.199  1.4474  1.4492 -3.3712
 4769SOL    HW225941   1.116   3.053   9.163  0.6840 -1.6765  0.6391
 4770SOL     OW25942   4.693   1.062   6.949 -0.4157 -0.6233 -0.3715
 4770SOL    HW125943   4.719   1.082   6.860 -0.3730  1.1027  0.0289
 4770SOL    HW225944   4.602   1.033   6.943 -0.8563 -0.0585  3.4292
 4771SOL     OW25945   0.187   3.193   7.206 -0.0153  0.1260 -0.1298
 4771SOL    HW125946   0.121   3.124   7.206 -0.6948  0.7784 -1.7125
 4771SOL    HW225947   0.150   3.253   7.270  0.1779 -0.9084  0.9536
 4772SOL     OW25948   2.236   2.402  17.453 -0.0487  0.7795 -0.1514
 4772SOL    HW125949   2.309   2.426  17.397 -0.1724  1.5159  0.0111
 4772SOL    HW225950   2.159   2.437  17.409  0.4971  3.2133  0.8392
 4773SOL     OW25951   0.915   0.708   3.715  0.1511 -1.0088  0.5479
 4773SOL    HW125952   0.883   0.629   3.758  1.7279 -1.1171  1.5053
 4773SOL    HW225953   0.842   0.727   3.656  0.3131 -0.1317  0.6270
 4774SOL     OW25954   3.193   0.823   9.812 -0.3101 -0.5231  0.5298
 4774SOL    HW125955   3.223   0.821   9.721 -0.2787  2.3690  0.4752
 4774SOL    HW225956   3.136   0.746   9.817  0.4958 -1.0989  0.7837
 4775SOL     OW25957   4.627   1.639   5.138  0.0769 -0.2531  1.0943
 4775SOL    HW125958   4.703   1.643   5.080  0.2573 -2.7694  1.1657
 4775SOL    HW225959   4.642   1.555   5.181 -0.5668 -0.5926  0.6459
 4776SOL     OW25960   1.407   1.455   8.721 -0.5064  0.2207  0.9641
 4776SOL    HW125961   1.405   1.523   8.653  0.5133  1.1102  1.8174
 4776SOL    HW225962   1.470   1.393   8.683  0.4469  1.4538  0.4961
 4777SOL     OW25963   4.041   4.389   1.749  0.2233  0.3817 -0.1825
 4777SOL    HW125964   4.103   4.371   1.820 -2.0246  3.5499  2.5381
 4777SOL    HW225965   3.999   4.304   1.736  0.0901  0.5606 -0.9432
 4778SOL     OW25966   4.307   0.998   2.469 -0.3233 -0.0507  0.1321
 4778SOL    HW125967   4.288   1.068   2.532  0.2785  0.6322 -0.4544
 4778SOL    HW225968   4.401   1.006   2.459 -0.3920  1.1143  0.4717
 4779SOL     OW25969   1.195   0.476   5.353 -0.7750 -0.1472  0.0216
 4779SOL    HW125970   1.167   0.561   5.320  0.4587  0.0917 -0.4370
 4779SOL    HW225971   1.133   0.464   5.424 -0.5659 -0.2735  0.1849
 4780SOL     OW25972   0.796   3.433   6.286 -0.0157 -0.8785 -0.0923
 4780SOL    HW125973   0.890   3.439   6.271  0.3515 -2.3261  1.6720
 4780SOL    HW225974   0.773   3.344   6.259  0.1013 -0.2858 -2.1942
 4781SOL     OW25975   0.635   2.726   4.010  0.1494  0.2733 -0.1752
 4781SOL    HW125976   0.566   2.690   4.066  2.7777 -3.9494  0.3376
 4781SOL    HW225977   0.705   2.666   4.036  0.4102  0.4528 -0.4592
 4782SOL     OW25978   0.215   1.269   5.201 -0.0156 -0.1382 -0.4512
 4782SOL    HW125979   0.198   1.248   5.293  0.8225  0.7582 -0.0943
 4782SOL    HW225980   0.189   1.185   5.164 -0.7807  0.4048 -1.1352
 4783SOL     OW25981   1.183   3.071   7.298  0.3734  0.1720 -0.1707
 4783SOL    HW125982   1.271   3.068   7.335  1.0635 -1.8145 -1.9694
 4783SOL    HW225983   1.144   3.054   7.383 -0.3986 -0.2897 -0.6202
 4784SOL     OW25984   3.876   2.791   1.833 -0.2086 -0.0593 -0.4098
 4784SOL    HW125985   3.956   2.786   1.886 -1.0086  2.5428  1.0600
 4784SOL    HW225986   3.820   2.773   1.908  0.9266 -0.2550  0.3856
 4785SOL     OW25987   3.128   0.633   1.769  0.1210  0.0218 -0.1216
 4785SOL    HW125988   3.205   0.579   1.755 -0.1527 -0.0326 -1.3676
 4785SOL    HW225989   3.141   0.649   1.863  0.2355  1.0851 -0.3128
 4786SOL     OW25990   1.190   2.915   9.414  0.1313 -0.4217  0.0961
 4786SOL    HW125991   1.106   2.944   9.451 -0.0225  2.3260 -2.4223
 4786SOL    HW225992   1.160   2.884   9.328  1.2991  1.8505 -1.1137
 4787SOL     OW25993   3.817   1.059   7.021 -0.2314  0.0507  0.1604
 4787SOL    HW125994   3.753   1.054   6.950 -1.5112 -1.8733  1.4802
 4787SOL    HW225995   3.869   0.981   6.999 -0.4895  0.0449 -0.4502
 4788SOL     OW25996   3.327   2.986  14.844  0.3701  0.0950 -0.4221
 4788SOL    HW125997   3.300   3.078  14.840 -1.1082 -0.3354 -0.3979
 4788SOL    HW225998   3.268   2.947  14.908 -0.1020  0.5548 -0.5746
 4789SOL     OW25999   1.576   1.706   1.069 -0.5930 -0.1992 -0.2783
 4789SOL    HW126000   1.546   1.623   1.033 -0.2533 -0.9350  1.1226
 4789SOL    HW226001   1.659   1.682   1.110 -2.3391 -0.9043  2.8873
 4790SOL     OW26002   0.082   0.226  13.007 -0.2743 -0.5108 -0.2246
 4790SOL    HW126003   0.007   0.276  12.975 -1.5461 -3.1387 -1.3325
 4790SOL    HW226004   0.138   0.228  12.930 -0.3677  0.0993 -0.2755
 4791SOL     OW26005   1.923   3.098  13.586 -0.3390 -0.6415 -0.7056
 4791SOL    HW126006   1.927   3.007  13.615  1.2441 -0.4481 -0.3334
 4791SOL    HW226007   1.904   3.140  13.670  0.7204 -0.0488 -0.7641
 4792SOL     OW26008   2.470   2.969   1.297 -0.1761 -1.1893 -0.1541
 4792SOL    HW126009   2.561   2.978   1.269 -0.1079  0.3281  0.5223
 4792SOL    HW226010   2.431   3.041   1.245  2.2999  0.2904  0.0634
 4793SOL     OW26011   4.704   4.640  13.406 -0.2858  0.1252 -0.4324
 4793SOL    HW126012   0.029   4.673  13.341 -1.1609  0.1908 -1.2165
 4793SOL    HW226013   4.698   4.548  13.383  1.1457 -0.0293 -0.2071
 4794SOL     OW26014   0.748   3.043   1.719  0.2466 -0.1825  0.3151
 4794SOL    HW126015   0.708   3.129   1.730  2.9479  1.4897 -2.8359
 4794SOL    HW226016   0.775   3.026   1.809  0.4923  0.1065  0.2977
 4795SOL     OW26017   1.221   0.628  10.996 -0.6792 -0.3243  0.9684
 4795SOL    HW126018   1.243   0.720  10.984  2.9818 -1.6340 -2.4019
 4795SOL    HW226019   1.301   0.591  10.958 -0.1485  2.7285 -0.9149
 4796SOL     OW26020   0.240   0.177  14.546  0.1599  0.4585  0.1619
 4796SOL    HW126021   0.305   0.236  14.508 -0.6973  1.9313  0.9536
 4796SOL    HW226022   0.290   0.142  14.619  0.4405  0.8580  0.1638
 4797SOL     OW26023   3.819   2.380   6.885  0.1822 -0.1114 -0.3565
 4797SOL    HW126024   3.849   2.289   6.876  0.0112 -0.3335  1.1770
 4797SOL    HW226025   3.728   2.373   6.912 -0.3513  0.3916 -2.0870
 4798SOL     OW26026   1.170   3.237  12.706 -0.3797 -0.2410  0.0706
 4798SOL    HW126027   1.102   3.173  12.728  1.4214 -1.8822  0.8993
 4798SOL    HW226028   1.134   3.289  12.635  1.2571  1.7660  0.7222
 4799SOL     OW26029   3.746   1.505   9.394 -0.0758  0.7120 -0.3588
 4799SOL    HW126030   3.706   1.419   9.399  0.0747  0.7396  1.0935
 4799SOL    HW226031   3.669   1.560   9.381  0.8820  1.7650 -1.7337
 4800SOL     OW26032   0.713   0.403   2.865  0.0776  0.2805 -0.9141
 4800SOL    HW126033   0.650   0.331   2.872 -0.5300  0.9832  0.7857
 4800SOL    HW226034   0.773   0.376   2.936 -0.7886  2.2745  0.5635
 4801SOL     OW26035   2.237   0.981   8.978 -0.5097 -0.0757 -0.1149
 4801SOL    HW126036   2.322   0.949   9.008 -0.3890  1.1359  0.7839
 4801SOL    HW226037   2.272   1.056   8.931 -2.2178  0.3420 -0.7385
 4802SOL     OW26038   4.443   3.775  10.642 -0.4877  0.3211 -0.4291
 4802SOL    HW126039   4.480   3.799  10.557  0.4259 -2.7239 -0.8920
 4802SOL    HW226040   4.480   3.842  10.699 -0.0636 -0.3930  0.1290
 4803SOL     OW26041   1.690   3.901   7.179 -0.1207 -0.0463  0.4123
 4803SOL    HW126042   1.683   3.970   7.245  0.9901 -0.1410  0.6258
 4803SOL    HW226043   1.695   3.949   7.097 -2.1066 -1.6002 -0.6306
 4804SOL     OW26044   4.081   4.386  10.152  0.4167 -0.0188  0.7608
 4804SOL    HW126045   4.050   4.335  10.227  0.5018 -0.8140  0.2552
 4804SOL    HW226046   4.173   4.395  10.176  1.3197 -2.5954 -1.8471
 4805SOL     OW26047   2.202   2.816   5.765 -0.0156  0.4694  0.1371
 4805SOL    HW126048   2.286   2.771   5.760 -0.2714  0.1595 -1.3332
 4805SOL    HW226049   2.236   2.906   5.764  3.0466 -0.7215 -1.1397
 4806SOL     OW26050   2.178   3.255  11.528 -0.4848 -0.4252  0.3768
 4806SOL    HW126051   2.185   3.303  11.446  0.3836 -0.7002  0.2937
 4806SOL    HW226052   2.085   3.236  11.515 -0.6218  0.6119 -0.1654
 4807SOL     OW26053   2.097   3.756  15.441 -0.4063 -0.0367 -0.1174
 4807SOL    HW126054   2.177   3.706  15.450 -0.6832 -0.3511  0.5727
 4807SOL    HW226055   2.101   3.822  15.510  1.3223  0.5431 -0.7757
 4808SOL     OW26056   0.760   4.214  12.323 -0.2807 -0.1789  0.1928
 4808SOL    HW126057   0.845   4.178  12.298  0.8052  1.0694  2.1246
 4808SOL    HW226058   0.780   4.294  12.372  0.7397 -0.3705  0.0804
 4809SOL     OW26059   1.728   0.575   6.795 -0.1265 -0.2137  0.2105
 4809SOL    HW126060   1.822   0.580   6.810 -0.1776 -1.4622  0.9824
 4809SOL    HW226061   1.708   0.650   6.740  1.3823  0.6338  0.8137
 4810SOL     OW26062   3.407   2.709  14.657  0.5543  0.2216  0.2328
 4810SOL    HW126063   3.324   2.754  14.670  1.6955  1.9845  1.2448
 4810SOL    HW226064   3.387   2.672  14.570 -3.0615  0.9728  0.7253
 4811SOL     OW26065   4.721   0.153  14.446 -0.2640  0.1167  0.5401
 4811SOL    HW126066   4.707   0.244  14.418  0.1004  0.3486  1.1262
 4811SOL    HW226067   0.077   0.152  14.470 -0.5808 -0.1322  1.7069
 4812SOL     OW26068   0.390   2.391   1.505 -0.3848  0.1071  0.6360
 4812SOL    HW126069   0.338   2.336   1.445  1.1169  1.3661 -1.8215
 4812SOL    HW226070   0.347   2.357   1.583  0.3895  1.1830  1.5271
 4813SOL     OW26071   0.075   1.442   7.397 -0.8516 -0.0646  0.0129
 4813SOL    HW126072   0.028   1.362   7.370  0.0716  0.1291 -2.1823
 4813SOL    HW226073   0.009   1.504   7.368 -0.3228 -0.0666 -1.1986
 4814SOL     OW26074   4.572   1.592   2.557 -0.1249 -0.4401 -0.4052
 4814SOL    HW126075   4.535   1.594   2.645  2.2547 -1.1480  0.6109
 4814SOL    HW226076   4.546   1.509   2.517 -2.7253 -0.3527  1.0983
 4815SOL     OW26077   4.125   4.123   5.253 -0.2362  0.3888 -0.3137
 4815SOL    HW126078   4.050   4.172   5.219 -0.4451 -0.2525 -0.7633
 4815SOL    HW226079   4.180   4.191   5.293  0.6181 -0.9246  0.7225
 4816SOL     OW26080   0.696   3.403   4.949  0.0580  0.3596  0.2624
 4816SOL    HW126081   0.692   3.309   4.967 -0.3766  0.1522 -0.9525
 4816SOL    HW226082   0.707   3.394   4.855  2.1642 -0.4269  0.5849
 4817SOL     OW26083   1.574   0.892  10.127  0.0745 -0.4239  0.0067
 4817SOL    HW126084   1.644   0.855  10.073 -0.4027 -0.3128 -0.6882
 4817SOL    HW226085   1.548   0.961  10.065 -0.5585 -1.9082 -1.3886
 4818SOL     OW26086   2.770   4.315  16.295  0.2118  0.3042 -0.2978
 4818SOL    HW126087   2.865   4.315  16.284  0.6054 -1.2499  3.1271
 4818SOL    HW226088   2.742   4.227  16.269  0.8137 -0.0869  0.3524
 4819SOL     OW26089   4.168   1.512  11.025  0.4861  0.0763 -0.0009
 4819SOL    HW126090   4.229   1.509  11.099  0.8518 -0.6459 -0.3227
 4819SOL    HW226091   4.158   1.603  11.001  1.0441  0.0358 -0.3974
 4820SOL     OW26092   4.531   2.613   6.612 -0.1771 -0.4155  0.4186
 4820SOL    HW126093   4.594   2.555   6.654  0.5409 -0.4139 -0.6598
 4820SOL    HW226094   4.476   2.634   6.687 -0.9271  0.5473 -0.3912
 4821SOL     OW26095   4.484   4.296   2.619 -0.0586  0.1555 -0.7441
 4821SOL    HW126096   4.461   4.266   2.530  1.2847  2.2696 -1.8048
 4821SOL    HW226097   4.425   4.372   2.622 -2.7878 -1.9102 -1.8788
 4822SOL     OW26098   2.398   3.407   3.813  0.3541 -0.0590  0.0424
 4822SOL    HW126099   2.326   3.388   3.752 -0.1936 -0.0146  0.6659
 4822SOL    HW226100   2.347   3.404   3.894 -0.5078  0.6725 -0.4666
 4823SOL     OW26101   3.144   4.046   3.199  0.7388  0.2297 -0.1064
 4823SOL    HW126102   3.055   4.038   3.165  1.5207 -0.2742 -2.0566
 4823SOL    HW226103   3.136   4.090   3.283 -1.4297 -1.9969  0.8480
 4824SOL     OW26104   1.884   0.346   0.524 -0.0802  0.1300 -0.0646
 4824SOL    HW126105   1.867   0.395   0.443 -3.2759 -0.7356  0.0683
 4824SOL    HW226106   1.885   0.415   0.590  1.0686 -0.2815  0.3432
 4825SOL     OW26107   2.284   2.854   9.088  0.2184 -0.9687  0.0988
 4825SOL    HW126108   2.273   2.775   9.141  1.7558 -1.0031  0.3589
 4825SOL    HW226109   2.207   2.907   9.105  0.3416 -1.1337  1.1797
 4826SOL     OW26110   1.070   4.636  10.994  0.2453  0.3341  0.2041
 4826SOL    HW126111   1.021   4.679  11.064 -0.0030  0.7180 -0.2086
 4826SOL    HW226112   1.033   4.548  11.004 -0.6813  0.8941  1.8137
 4827SOL     OW26113   2.185   0.529  13.831 -0.0578 -0.5765  0.2659
 4827SOL    HW126114   2.202   0.574  13.914  4.5799 -0.9452 -0.4522
 4827SOL    HW226115   2.109   0.580  13.803  1.0933 -0.1264 -2.0486
 4828SOL     OW26116   2.818   0.249   5.195  0.4222 -0.0468  0.1140
 4828SOL    HW126117   2.855   0.290   5.117  1.1323 -0.0077  0.4696
 4828SOL    HW226118   2.725   0.258   5.177  0.4252 -0.5435 -0.1512
 4829SOL     OW26119   0.641   3.556   3.165 -0.2448  0.3031 -0.4842
 4829SOL    HW126120   0.661   3.557   3.258  1.8382  0.3983 -0.9455
 4829SOL    HW226121   0.673   3.471   3.135  1.6427  0.9104 -0.1989
 4830SOL     OW26122   1.552   2.374   7.130  0.6270 -0.5630  0.1420
 4830SOL    HW126123   1.514   2.428   7.200 -1.7259 -0.3964 -1.2635
 4830SOL    HW226124   1.530   2.418   7.048 -0.5882 -0.4608  0.5249
 4831SOL     OW26125   2.708   2.670   1.692  0.0797  0.3151  0.0031
 4831SOL    HW126126   2.709   2.720   1.774  0.0760  0.1461  0.1086
 4831SOL    HW226127   2.702   2.733   1.621 -1.6390 -0.8928 -0.9108
 4832SOL     OW26128   4.078   3.239   7.448  0.4547 -0.1171  0.3804
 4832SOL    HW126129   4.030   3.297   7.507 -0.8821  0.5216 -1.3245
 4832SOL    HW226130   4.147   3.208   7.507  0.5058 -1.5565 -0.4199
 4833SOL     OW26131   2.441   0.234  10.992 -0.1735  0.0459  0.2597
 4833SOL    HW126132   2.534   0.230  10.969 -0.2044  2.2505 -0.2059
 4833SOL    HW226133   2.396   0.262  10.912  1.2311  0.7947 -0.2617
 4834SOL     OW26134   4.039   1.399  13.434  0.0578 -0.2570  0.4773
 4834SOL    HW126135   4.110   1.404  13.498  1.7223  0.0424 -1.4240
 4834SOL    HW226136   4.035   1.487  13.397  1.5715 -0.4137 -0.0270
 4835SOL     OW26137   3.918   1.525   2.325  0.0244  0.3306 -0.2307
 4835SOL    HW126138   3.878   1.530   2.239 -0.4350  0.9495  0.0142
 4835SOL    HW226139   3.995   1.579   2.311  0.7352 -1.4325 -2.9362
 4836SOL     OW26140   0.352   4.193  10.585  0.1535  0.2905 -0.1269
 4836SOL    HW126141   0.370   4.202  10.678  1.0943  0.9359 -0.3642
 4836SOL    HW226142   0.373   4.280  10.551 -1.1143  0.7098  0.1820
 4837SOL     OW26143   1.201   3.138   8.443 -0.0747 -0.7505  0.0927
 4837SOL    HW126144   1.292   3.111   8.444  0.5610  1.3889 -0.8334
 4837SOL    HW226145   1.195   3.191   8.364  2.1872 -0.2791  0.2509
 4838SOL     OW26146   0.054   2.879   7.579  0.7901 -0.3664 -0.7870
 4838SOL    HW126147   0.039   2.789   7.607 -1.2499  0.1050 -0.3596
 4838SOL    HW226148   0.146   2.901   7.589  0.2185  1.4295  0.5391
 4839SOL     OW26149   0.931   3.580  10.821  0.2005  0.3098  0.0055
 4839SOL    HW126150   1.004   3.627  10.860  0.7198 -0.7537  0.3286
 4839SOL    HW226151   0.961   3.488  10.822  0.5435  0.4284  0.9176
 4840SOL     OW26152   3.812   2.462   2.029  0.3172  0.4401 -0.0888
 4840SOL    HW126153   3.814   2.496   2.118  0.7012 -0.7656  0.3611
 4840SOL    HW226154   3.906   2.465   2.010  0.2613 -1.4627 -0.6617
 4841SOL     OW26155   3.706   1.650   8.206  0.5604 -0.4846  0.6089
 4841SOL    HW126156   3.661   1.568   8.186 -2.2884  0.7335  2.0172
 4841SOL    HW226157   3.797   1.620   8.206  0.8196  0.2909  0.5298
 4842SOL     OW26158   3.478   2.221   5.792  0.3084  0.1096  0.3825
 4842SOL    HW126159   3.536   2.265   5.730  3.2673 -0.8059  2.4926
 4842SOL    HW226160   3.468   2.298   5.848  0.4131  0.3855  0.0253
 4843SOL     OW26161   0.029   3.759   4.884  0.0018 -1.2073  0.7636
 4843SOL    HW126162   4.700   3.809   4.932 -0.4285 -0.0888 -0.9893
 4843SOL    HW226163   4.718   3.677   4.868 -3.1830  1.2948 -2.5046
 4844SOL     OW26164   3.479   0.676  15.027 -0.2661 -0.0556 -0.6065
 4844SOL    HW126165   3.414   0.678  15.097  1.1689 -0.2470  0.7254
 4844SOL    HW226166   3.442   0.602  14.978  0.3190  0.1118 -1.3098
 4845SOL     OW26167   0.791   1.206   2.720 -0.0172 -0.3489 -0.0840
 4845SOL    HW126168   0.713   1.262   2.719 -0.8016 -1.4308  0.5164
 4845SOL    HW226169   0.763   1.138   2.782 -0.2671 -0.1684  0.0014
 4846SOL     OW26170   1.558   2.176  10.387  0.2722 -0.0588 -0.0117
 4846SOL    HW126171   1.584   2.103  10.444  2.2172  1.4017  0.9845
 4846SOL    HW226172   1.565   2.138  10.299  0.3623  0.2987 -0.1577
 4847SOL     OW26173   3.220   0.708   4.549  0.2654 -0.2005 -0.4112
 4847SOL    HW126174   3.284   0.719   4.479  0.9461 -0.6482  0.1288
 4847SOL    HW226175   3.208   0.796   4.584  1.5649 -0.7335  1.4119
 4848SOL     OW26176   0.852   2.404   0.730 -0.2064  0.2652 -0.3980
 4848SOL    HW126177   0.904   2.364   0.799 -0.3668  0.1028 -0.3703
 4848SOL    HW226178   0.797   2.462   0.783  1.7469  2.0689 -0.3659
 4849SOL     OW26179   1.976   3.446   7.297  0.2434 -0.7521  0.1358
 4849SOL    HW126180   1.984   3.541   7.306  0.4267 -0.6963 -0.6231
 4849SOL    HW226181   2.066   3.414   7.303  0.2933 -0.3844  1.2675
 4850SOL     OW26182   3.690   3.162   6.703 -0.8986 -0.0022  0.0967
 4850SOL    HW126183   3.704   3.248   6.663  2.5813 -0.8928 -0.5628
 4850SOL    HW226184   3.762   3.111   6.665  0.1869 -0.0784  2.2984
 4851SOL     OW26185   1.078   4.312   5.613  0.0418 -0.3534 -0.1959
 4851SOL    HW126186   1.127   4.346   5.538  3.0013  0.0913  1.9071
 4851SOL    HW226187   1.012   4.252   5.581  0.4442 -0.4351 -0.8705
 4852SOL     OW26188   2.816   1.026   2.885  0.2106  0.4208 -0.0116
 4852SOL    HW126189   2.840   1.013   2.977 -0.4786 -3.7091 -0.3989
 4852SOL    HW226190   2.900   1.001   2.847 -0.5137 -1.3225 -0.4549
 4853SOL     OW26191   3.632   4.468   2.020 -0.7403  0.0078  0.0641
 4853SOL    HW126192   3.565   4.447   2.084  2.2850 -0.8080  2.9602
 4853SOL    HW226193   3.622   4.562   2.004  0.8380  0.3725  1.1783
 4854SOL     OW26194   2.674   3.418  17.436 -0.6319 -0.0284  0.2979
 4854SOL    HW126195   2.687   3.460  17.351  2.6046 -1.7322 -0.0344
 4854SOL    HW226196   2.624   3.484  17.485 -0.6800 -0.6119  1.0305
 4855SOL     OW26197   2.220   4.532   4.327 -0.1545 -0.1163 -0.5405
 4855SOL    HW126198   2.289   4.504   4.388  0.0391 -0.2129 -0.8045
 4855SOL    HW226199   2.145   4.541   4.386 -1.2827 -0.9271 -1.8564
 4856SOL     OW26200   3.158   4.022   6.168  0.0658  0.2705 -0.1442
 4856SOL    HW126201   3.223   4.067   6.115 -0.9159  0.0743 -1.4993
 4856SOL    HW226202   3.151   4.087   6.239 -0.2610 -0.6450  0.6678
 4857SOL     OW26203   3.139   2.049   8.147 -0.0616 -0.5716 -0.1692
 4857SOL    HW126204   3.152   2.013   8.059  1.9711  1.9507 -0.9009
 4857SOL    HW226205   3.048   2.028   8.166 -0.6322 -0.7463 -3.0232
 4858SOL     OW26206   4.470   0.968   9.716 -0.8905 -0.2545  0.5928
 4858SOL    HW126207   4.529   0.902   9.680 -0.0556  1.3872 -1.0195
 4858SOL    HW226208   4.536   1.026   9.754 -0.4945  0.2263 -0.8389
 4859SOL     OW26209   0.067   0.545  16.701  0.1536  0.4477  0.3346
 4859SOL    HW126210   0.055   0.597  16.621  2.3481  0.4124 -0.0089
 4859SOL    HW226211   0.086   0.617  16.762  1.9451 -0.3402  0.6902
 4860SOL     OW26212   0.770   4.645   5.891  0.5257 -0.3255  0.7143
 4860SOL    HW126213   0.824   4.677   5.963 -1.3017 -1.1315  2.4506
 4860SOL    HW226214   0.839   4.629   5.826  0.7893 -1.2028  1.2153
 4861SOL     OW26215   4.396   1.197  10.739  0.2131  0.0154  0.0659
 4861SOL    HW126216   4.342   1.132  10.694  0.3354  1.8910 -2.8160
 4861SOL    HW226217   4.419   1.147  10.817 -0.2119 -1.3941 -0.7117
 4862SOL     OW26218   0.916   2.675  13.332  0.3865 -0.3001 -0.5610
 4862SOL    HW126219   0.974   2.751  13.322  0.4792 -0.1010  1.4225
 4862SOL    HW226220   0.920   2.634  13.246 -2.0968  0.5880 -1.0962
 4863SOL     OW26221   3.148   1.711   7.673 -0.2931 -0.4986  0.1547
 4863SOL    HW126222   3.211   1.647   7.640  1.3984  0.9217  0.5756
 4863SOL    HW226223   3.093   1.723   7.596  1.7965  0.1218 -1.2584
 4864SOL     OW26224   4.458   0.554   6.180  0.4608  0.6047 -0.8485
 4864SOL    HW126225   4.526   0.615   6.210  0.2823  1.1678 -1.5641
 4864SOL    HW226226   4.505   0.478   6.145 -1.2256 -0.0824 -1.6391
 4865SOL     OW26227   0.961   2.971   7.151  0.1364 -0.5148  0.3616
 4865SOL    HW126228   1.052   2.995   7.169 -0.6077  3.0447 -0.7569
 4865SOL    HW226229   0.917   3.007   7.229  0.5472 -1.0039  0.8205
 4866SOL     OW26230   2.012   2.708  10.721 -0.0152 -0.2630  0.1663
 4866SOL    HW126231   1.969   2.783  10.761 -1.4470  0.1066 -2.0409
 4866SOL    HW226232   1.940   2.676  10.667  1.6966 -0.8184 -1.7947
 4867SOL     OW26233   2.336   3.868  11.182 -0.3146  0.8040  0.2092
 4867SOL    HW126234   2.385   3.949  11.182  0.4817  0.3225 -0.9994
 4867SOL    HW226235   2.346   3.842  11.274 -4.9684 -0.4124  0.4024
 4868SOL     OW26236   0.023   2.766  17.403  0.3311 -0.2135 -0.8206
 4868SOL    HW126237   4.665   2.784  17.406  0.8716  2.1799  1.9197
 4868SOL    HW226238   0.042   2.767  17.497 -0.9793 -1.8615 -0.5291
 4869SOL     OW26239   2.834   3.492   8.256  0.2027 -0.1975 -0.4348
 4869SOL    HW126240   2.863   3.554   8.323 -1.6524 -1.9865  2.0236
 4869SOL    HW226241   2.874   3.525   8.175  1.0976  4.1076  1.7386
 4870SOL     OW26242   4.280   1.609   5.795  0.5287  0.1290 -0.2436
 4870SOL    HW126243   4.316   1.693   5.766  0.0709 -0.3337 -2.1484
 4870SOL    HW226244   4.217   1.642   5.858  0.4154  1.3713 -1.0046
 4871SOL     OW26245   1.147   4.198   5.016 -0.1736 -0.2214  0.2866
 4871SOL    HW126246   1.195   4.259   4.962  2.2132 -1.6104  0.8429
 4871SOL    HW226247   1.056   4.227   5.005  0.4196  1.0559 -1.0749
 4872SOL     OW26248   2.690   3.747   8.026 -0.1637  0.4565 -0.2681
 4872SOL    HW126249   2.733   3.828   7.999 -1.0182  1.0564  0.1700
 4872SOL    HW226250   2.703   3.745   8.120  1.3050 -1.5124 -0.5022
 4873SOL     OW26251   3.394   1.505  16.220  0.3747 -0.0330 -0.3889
 4873SOL    HW126252   3.477   1.460  16.234  0.0596  0.1339  2.0147
 4873SOL    HW226253   3.422   1.592  16.248 -1.0638  0.9301 -1.9699
 4874SOL     OW26254   4.418   0.104   8.711  0.0640 -0.3961 -0.2924
 4874SOL    HW126255   4.464   0.154   8.778 -1.0882 -0.6927  0.7291
 4874SOL    HW226256   4.333   0.082   8.750  0.1837 -0.9889 -0.3647
 4875SOL     OW26257   0.919   2.047   0.868 -0.5614  0.6566  0.1668
 4875SOL    HW126258   0.936   2.140   0.884 -3.0905  0.9511  1.0422
 4875SOL    HW226259   0.990   2.013   0.922  0.9993  1.1459 -1.5469
 4876SOL     OW26260   4.500   3.025   2.277 -0.5691  0.0619  0.3461
 4876SOL    HW126261   4.595   3.020   2.273 -0.7005 -1.1559 -1.3184
 4876SOL    HW226262   4.488   3.004   2.184  0.2563 -1.7834  0.6514
 4877SOL     OW26263   1.834   0.155   7.359  0.4685 -0.6080  0.5190
 4877SOL    HW126264   1.861   0.182   7.447  1.6871  1.6438 -0.5683
 4877SOL    HW226265   1.919   0.131   7.320  0.5878  0.6613  0.0188
 4878SOL     OW26266   2.485   3.033   1.866  0.0533 -0.1080 -0.1851
 4878SOL    HW126267   2.433   2.957   1.892 -0.3690  0.6780  1.2216
 4878SOL    HW226268   2.573   3.001   1.845 -0.0714 -0.5243 -0.0794
 4879SOL     OW26269   4.664   0.872  14.790 -0.6454 -0.0588 -0.2573
 4879SOL    HW126270   4.619   0.838  14.867 -1.6946  2.3466  0.1802
 4879SOL    HW226271   4.734   0.807  14.795 -1.7538 -1.2860 -0.6778
 4880SOL     OW26272   1.458   2.419   6.506  0.5521  0.2120  0.1539
 4880SOL    HW126273   1.521   2.352   6.532  2.0313  1.6319  0.1655
 4880SOL    HW226274   1.514   2.496   6.502  0.3464  0.2650 -2.1417
 4881SOL     OW26275   4.058   1.069   6.617  0.2255  0.2392 -0.1409
 4881SOL    HW126276   3.998   1.120   6.671 -0.4214  0.5662 -1.1912
 4881SOL    HW226277   4.112   1.142   6.588  2.4775 -1.5378 -0.4247
 4882SOL     OW26278   0.090   0.352  13.852 -0.4108 -0.1704  0.0004
 4882SOL    HW126279   0.181   0.322  13.846 -0.6183 -0.8542  0.2943
 4882SOL    HW226280   0.058   0.339  13.763  0.0820 -0.9082 -0.0749
 4883SOL     OW26281   2.991   2.115   2.543  0.1656  0.2401 -0.3414
 4883SOL    HW126282   2.922   2.180   2.544  0.5565  0.6326  1.6023
 4883SOL    HW226283   3.047   2.137   2.468  0.3080 -0.1204 -0.3428
 4884SOL     OW26284   3.815   1.956   8.648  0.1359 -1.0740 -0.4874
 4884SOL    HW126285   3.834   1.946   8.555  2.2716 -1.5515 -0.0052
 4884SOL    HW226286   3.765   2.037   8.645  0.7367 -0.7268 -1.2770
 4885SOL     OW26287   1.913   1.997   9.997 -0.0748 -0.1490  0.1676
 4885SOL    HW126288   1.854   2.064   9.963  1.5726  2.4870  2.4951
 4885SOL    HW226289   1.968   2.060  10.043 -1.5080  0.9883  0.3083
 4886SOL     OW26290   2.737   3.778  10.414 -0.1494 -0.2409 -0.2225
 4886SOL    HW126291   2.759   3.817  10.329 -2.3389  3.4329  0.8771
 4886SOL    HW226292   2.662   3.730  10.378 -0.2239 -1.6384  1.8199
 4887SOL     OW26293   1.318   2.812   8.207  0.2475  0.2597 -0.2887
 4887SOL    HW126294   1.323   2.766   8.292 -2.3003 -0.9651 -0.7852
 4887SOL    HW226295   1.358   2.752   8.144 -1.7624 -1.4024  0.0005
 4888SOL     OW26296   2.642   2.097  16.491 -0.2532 -0.0158  0.6196
 4888SOL    HW126297   2.727   2.076  16.529  0.8096  2.3670 -0.4320
 4888SOL    HW226298   2.639   2.032  16.420 -0.6857 -2.3319  2.7513
 4889SOL     OW26299   2.847   4.120  17.369  0.4573  0.4379  0.0166
 4889SOL    HW126300   2.804   4.061  17.430 -1.5020  0.4286 -1.3631
 4889SOL    HW226301   2.809   4.206  17.388  1.0072  1.0315 -1.5689
 4890SOL     OW26302   2.953   3.470  11.154  0.2366  0.1589  0.4697
 4890SOL    HW126303   2.890   3.488  11.085  1.4362  1.4226 -0.2862
 4890SOL    HW226304   3.023   3.536  11.152  0.1846  0.2239  0.7986
 4891SOL     OW26305   1.312   0.013  10.984 -0.5624 -0.0820 -0.4459
 4891SOL    HW126306   1.233   4.697  10.971 -1.5254  1.4239 -0.6237
 4891SOL    HW226307   1.299   0.025  11.078 -1.2551 -0.3186 -0.5160
 4892SOL     OW26308   3.705   0.731  13.048  0.8081 -0.4775 -0.5820
 4892SOL    HW126309   3.617   0.769  13.039  1.3191  1.3449  2.0955
 4892SOL    HW226310   3.741   0.758  12.963  1.6228 -0.7454 -0.3168
 4893SOL     OW26311   3.528   2.413   0.808 -0.3461 -0.4614 -0.2996
 4893SOL    HW126312   3.598   2.424   0.873 -0.0864 -1.5110 -0.4102
 4893SOL    HW226313   3.520   2.506   0.786 -3.3095 -1.1015 -1.9207
 4894SOL     OW26314   0.113   1.258  13.426  0.5701  0.3408  0.1843
 4894SOL    HW126315   0.166   1.181  13.408 -1.0493 -0.6023 -0.6115
 4894SOL    HW226316   0.047   1.245  13.357 -0.5644 -1.9788  1.6966
 4895SOL     OW26317   2.673   1.655  14.828  0.1502 -0.0956  0.0083
 4895SOL    HW126318   2.742   1.674  14.765  0.6660 -0.4898  0.4522
 4895SOL    HW226319   2.717   1.651  14.913  1.2176  1.8020 -0.4648
 4896SOL     OW26320   1.574   4.602   3.331  0.4430  0.1850  0.6873
 4896SOL    HW126321   1.499   4.560   3.373  0.7222 -0.4011  0.6051
 4896SOL    HW226322   1.522   4.662   3.277  1.3275  0.6033  0.2980
 4897SOL     OW26323   0.866   3.152   6.594  0.1310 -0.2325 -0.2823
 4897SOL    HW126324   0.778   3.115   6.579  0.6929 -2.3507  1.6495
 4897SOL    HW226325   0.860   3.182   6.684  0.1214 -0.7553 -0.1073
 4898SOL     OW26326   2.819   2.334   7.776 -0.4435 -0.1951 -0.6216
 4898SOL    HW126327   2.732   2.367   7.754 -1.2866 -2.3374 -0.4580
 4898SOL    HW226328   2.800   2.267   7.841  1.8321  1.3084  1.5968
 4899SOL     OW26329   2.952   1.605  10.517  0.4977  0.6556  0.8244
 4899SOL    HW126330   2.967   1.512  10.498  0.9753  1.1035 -0.9575
 4899SOL    HW226331   2.875   1.608  10.573 -0.7814 -1.9172 -0.7885
 4900SOL     OW26332   2.960   3.292   0.680 -0.8532 -0.0081 -0.1086
 4900SOL    HW126333   2.961   3.388   0.687 -2.1861 -0.2101  2.7266
 4900SOL    HW226334   2.946   3.275   0.587  2.9292  1.2824 -0.8776
 4901SOL     OW26335   3.857   2.980  13.932 -0.1324 -0.2296 -0.0015
 4901SOL    HW126336   3.949   2.963  13.912 -0.2382  0.2653 -0.9245
 4901SOL    HW226337   3.838   3.017  13.846  0.5738 -0.8389 -0.4144
 4902SOL     OW26338   3.123   1.606   4.302  0.2842  0.3679 -0.8167
 4902SOL    HW126339   3.200   1.619   4.247  0.7088  4.1760  0.7593
 4902SOL    HW226340   3.153   1.634   4.388 -2.1922 -2.4714  0.9865
 4903SOL     OW26341   2.728   1.776   1.245  0.0310 -0.3241 -0.3344
 4903SOL    HW126342   2.645   1.809   1.280 -0.0347 -0.2983 -0.5156
 4903SOL    HW226343   2.721   1.776   1.150  1.6647  0.0323 -0.4444
 4904SOL     OW26344   0.740   1.718   8.283 -0.7026 -0.1613 -0.5879
 4904SOL    HW126345   0.811   1.674   8.237 -1.3157 -1.0734 -0.6653
 4904SOL    HW226346   0.760   1.694   8.374 -0.1492 -0.7718 -0.8678
 4905SOL     OW26347   2.550   2.750  12.218 -0.1495  0.1214  0.0430
 4905SOL    HW126348   2.575   2.828  12.268 -0.3367 -0.6263  1.3055
 4905SOL    HW226349   2.600   2.759  12.137 -2.1004  1.2826 -1.0438
 4906SOL     OW26350   2.980   1.439  14.681 -0.2592 -0.4323 -0.5647
 4906SOL    HW126351   2.906   1.380  14.670 -1.1892  0.6466 -0.1040
 4906SOL    HW226352   3.048   1.384  14.721 -1.0516 -2.3896 -1.9169
 4907SOL     OW26353   2.666   0.541  15.863 -0.4521  0.1913  0.2138
 4907SOL    HW126354   2.668   0.483  15.940  3.2469 -1.3429 -1.0693
 4907SOL    HW226355   2.743   0.597  15.872  0.1284 -0.7079  0.8096
 4908SOL     OW26356   0.810   0.429   0.223  0.1070  0.3064 -0.1298
 4908SOL    HW126357   0.841   0.485   0.152  0.1653  2.1154  1.3350
 4908SOL    HW226358   0.732   0.387   0.186  0.0230  0.2545  0.1027
 4909SOL     OW26359   0.263   4.595   8.799 -0.4901 -0.2266  0.1740
 4909SOL    HW126360   0.235   4.505   8.814  0.0276 -0.5939 -0.9958
 4909SOL    HW226361   0.344   4.596   8.850 -0.8568 -4.2165  0.8328
 4910SOL     OW26362   1.689   4.045   6.367  0.7321  0.1467  0.1315
 4910SOL    HW126363   1.673   4.134   6.336  2.1180 -0.2931 -1.8494
 4910SOL    HW226364   1.737   4.063   6.448 -0.9124 -1.0803  1.3891
 4911SOL     OW26365   1.908   0.481   2.324 -0.3902  0.5159 -0.7372
 4911SOL    HW126366   1.984   0.423   2.334 -0.4962  0.4255 -0.4540
 4911SOL    HW226367   1.936   0.553   2.380 -0.9602 -0.6476  1.0397
 4912SOL     OW26368   0.773   4.197   4.748 -0.2583 -0.2289  0.3567
 4912SOL    HW126369   0.706   4.198   4.680 -0.0509  0.1976  0.1527
 4912SOL    HW226370   0.757   4.115   4.795 -1.4055 -0.7984 -1.0360
 4913SOL     OW26371   2.006   0.096   6.647  0.5513 -0.1261 -0.1346
 4913SOL    HW126372   1.948   0.080   6.573 -0.9251 -0.7782  1.1658
 4913SOL    HW226373   2.043   0.009   6.663  1.1051  0.0234 -0.5960
 4914SOL     OW26374   0.188   0.822   8.114  0.5027 -0.1612  0.3563
 4914SOL    HW126375   0.105   0.790   8.079  1.0835 -3.9762  2.4853
 4914SOL    HW226376   0.213   0.896   8.058 -1.6247 -0.2331 -0.6615
 4915SOL     OW26377   0.305   3.157  16.617 -0.0959 -1.4229  0.3228
 4915SOL    HW126378   0.306   3.072  16.573 -1.6316 -1.2366 -0.0796
 4915SOL    HW226379   0.211   3.168  16.633  0.1964  2.2483 -0.4750
 4916SOL     OW26380   3.294   3.822  13.692  0.6033 -0.5909 -0.0032
 4916SOL    HW126381   3.219   3.875  13.664 -0.2298 -1.0190  1.3893
 4916SOL    HW226382   3.353   3.897  13.690  1.6201 -1.3315  1.9818
 4917SOL     OW26383   1.094   0.392  12.257  0.3675  0.1978 -0.1350
 4917SOL    HW126384   1.160   0.335  12.294  1.3532  2.5059  1.6589
 4917SOL    HW226385   1.088   0.457  12.327 -2.8162 -2.4029  1.9797
 4918SOL     OW26386   4.375   3.249   2.803  0.6432 -0.2079  0.1718
 4918SOL    HW126387   4.342   3.207   2.882  0.8093  0.3300  0.5235
 4918SOL    HW226388   4.469   3.249   2.822  0.5654 -0.5259  0.5558
 4919SOL     OW26389   2.485   2.704  12.708 -0.4468  0.0661 -0.0112
 4919SOL    HW126390   2.501   2.644  12.635  2.5530  2.5055 -1.3417
 4919SOL    HW226391   2.455   2.773  12.649  1.0643 -1.5040 -2.6146
 4920SOL     OW26392   2.725   4.055  12.543  0.0920  0.2711  0.5749
 4920SOL    HW126393   2.748   4.097  12.626 -3.2020 -0.4787  1.8689
 4920SOL    HW226394   2.797   4.092  12.492  1.4845 -1.6791  1.0966
 4921SOL     OW26395   0.410   1.781   8.658 -0.6554 -0.1738 -0.1730
 4921SOL    HW126396   0.467   1.717   8.615 -1.1613 -1.6637  1.3396
 4921SOL    HW226397   0.443   1.858   8.612 -1.0567 -1.2590 -2.2940
 4922SOL     OW26398   1.237   3.051   0.118 -0.0825  0.4684  0.5233
 4922SOL    HW126399   1.226   2.986   0.187 -2.7749 -0.1947 -0.5451
 4922SOL    HW226400   1.304   3.105   0.160  1.3000  1.2980 -2.7013
 4923SOL     OW26401   4.257   2.636   3.175 -0.0739  0.0954  0.9115
 4923SOL    HW126402   4.332   2.577   3.163 -1.3025 -1.4769  0.9034
 4923SOL    HW226403   4.303   2.716   3.151  0.4426  0.2416  2.3675
 4924SOL     OW26404   0.611   2.157   7.601  0.1766  0.8873  0.2590
 4924SOL    HW126405   0.628   2.210   7.523 -1.5681  2.2159  0.7988
 4924SOL    HW226406   0.549   2.100   7.556  0.5109  1.5769 -1.0847
 4925SOL     OW26407   3.124   2.745   5.893  0.0351 -0.0935  0.2830
 4925SOL    HW126408   3.128   2.760   5.799  2.0825  1.1980  0.5643
 4925SOL    HW226409   3.112   2.832   5.930  0.3947 -0.0791  0.3686
 4926SOL     OW26410   1.343   2.871   1.962 -0.4843  0.7652  0.1064
 4926SOL    HW126411   1.419   2.850   1.909  0.3373  3.6599  0.1612
 4926SOL    HW226412   1.363   2.962   1.979  1.0955  0.2252  1.0598
 4927SOL     OW26413   0.805   4.532   7.726 -0.2340 -0.4258  0.1078
 4927SOL    HW126414   0.804   4.472   7.801 -0.3780  0.0978  0.5271
 4927SOL    HW226415   0.788   4.471   7.654  2.4452 -3.6649  2.1944
 4928SOL     OW26416   3.529   2.454   3.291 -0.7804 -0.1742 -0.3815
 4928SOL    HW126417   3.554   2.410   3.210  1.0858 -0.1413  0.1676
 4928SOL    HW226418   3.442   2.418   3.307 -0.6336  0.0133  0.8877
 4929SOL     OW26419   2.032   1.439   3.531 -0.2582 -0.3418  0.1439
 4929SOL    HW126420   2.087   1.364   3.555  0.0093  0.3572  1.6958
 4929SOL    HW226421   2.100   1.507   3.529 -0.9499  0.3633  0.5906
 4930SOL     OW26422   0.411   1.892  17.049  0.3917 -0.1984  0.3256
 4930SOL    HW126423   0.435   1.965  16.991 -0.9704  0.6479  0.8173
 4930SOL    HW226424   0.487   1.834  17.055  0.7278  0.4650  2.3036
 4931SOL     OW26425   1.423   1.080  13.181  0.0645  0.0223  0.0036
 4931SOL    HW126426   1.331   1.104  13.174 -0.1842 -0.9767 -0.2424
 4931SOL    HW226427   1.456   1.124  13.103  1.8088 -1.1927  0.0508
 4932SOL     OW26428   3.887   3.616   5.275  0.3789  0.2953  0.2728
 4932SOL    HW126429   3.827   3.637   5.346  1.9506  3.0189  0.8056
 4932SOL    HW226430   3.948   3.687   5.297  0.2337  0.2583  0.8054
 4933SOL     OW26431   4.127   1.345   6.264 -0.1318 -0.0400  0.4447
 4933SOL    HW126432   4.171   1.412   6.211 -0.4826 -0.9009 -0.9291
 4933SOL    HW226433   4.105   1.291   6.188  0.8662  0.1939 -0.0069
 4934SOL     OW26434   1.031   2.176  15.712  0.1816  0.0215  0.6801
 4934SOL    HW126435   1.003   2.183  15.620 -2.0966  0.1157  1.3742
 4934SOL    HW226436   1.078   2.259  15.722 -0.2552  0.8314 -3.9465
 4935SOL     OW26437   1.000   0.041   3.032 -0.2108 -0.6111  0.7453
 4935SOL    HW126438   1.060   4.717   2.990  1.8176  1.3159  0.8889
 4935SOL    HW226439   1.047   0.124   3.029  1.7767 -1.7211  1.3559
 4936SOL     OW26440   0.904   0.816   4.866 -0.7575  0.1384 -0.2513
 4936SOL    HW126441   0.991   0.790   4.897  0.3759  1.6090 -2.1782
 4936SOL    HW226442   0.900   0.907   4.837  2.9738  1.1898  2.4585
 4937SOL     OW26443   1.080   2.572   7.337 -0.3601  0.3154 -0.4130
 4937SOL    HW126444   1.138   2.514   7.288 -0.5154 -1.2306  1.2034
 4937SOL    HW226445   0.993   2.552   7.304 -0.2652  0.5400 -0.7930
 4938SOL     OW26446   2.270   3.361   4.929  0.0968 -0.2190  0.7702
 4938SOL    HW126447   2.309   3.325   5.009  0.3744  0.3250  0.8783
 4938SOL    HW226448   2.230   3.441   4.961  1.6344  0.1555  1.8018
 4939SOL     OW26449   0.677   2.242   3.370  0.0696  0.5278 -0.0088
 4939SOL    HW126450   0.625   2.262   3.448 -0.1176  1.8824 -0.4992
 4939SOL    HW226451   0.635   2.292   3.301  1.0346 -0.4854 -1.3386
 4940SOL     OW26452   3.178   3.340   8.313  0.2255  0.1806 -0.7736
 4940SOL    HW126453   3.140   3.390   8.386 -1.0948  0.8121 -1.9006
 4940SOL    HW226454   3.103   3.296   8.274  0.4516  0.9812 -2.1004
 4941SOL     OW26455   4.256   4.035   1.858  0.7787  0.6297  0.4006
 4941SOL    HW126456   4.318   3.993   1.798 -0.2548  0.2378 -0.3856
 4941SOL    HW226457   4.300   4.021   1.942 -1.2001 -0.1191  1.3124
 4942SOL     OW26458   0.267   0.812   8.892  0.3150 -0.3787 -0.3873
 4942SOL    HW126459   0.171   0.812   8.898  0.1793 -0.7107 -2.3825
 4942SOL    HW226460   0.279   0.773   8.805 -0.4335  1.0108 -1.1100
 4943SOL     OW26461   2.861   1.503   4.613  0.3592  0.2129  0.3694
 4943SOL    HW126462   2.889   1.594   4.598 -0.2470  0.1030 -1.4468
 4943SOL    HW226463   2.846   1.508   4.708 -0.1394 -0.0541  0.3041
 4944SOL     OW26464   1.032   1.332   2.098  0.4241 -0.8127  0.0150
 4944SOL    HW126465   1.041   1.422   2.066 -1.7371 -0.4383  0.4738
 4944SOL    HW226466   0.940   1.305   2.091  0.0991  0.1061  0.7951
 4945SOL     OW26467   2.116   4.406   3.920 -0.0145  0.2592  0.2735
 4945SOL    HW126468   2.022   4.399   3.904  0.1270 -1.5585  0.2797
 4945SOL    HW226469   2.138   4.472   3.854  0.3660  1.5475  1.6935
 4946SOL     OW26470   3.759   1.365   7.950 -0.4086  0.2090 -0.1723
 4946SOL    HW126471   3.766   1.453   7.914 -1.3625  0.0969 -0.6450
 4946SOL    HW226472   3.852   1.345   7.959 -0.1736 -0.0423 -2.9313
 4947SOL     OW26473   3.208   3.794   2.084  0.0638  0.1694  0.2381
 4947SOL    HW126474   3.299   3.764   2.085 -0.0519 -0.1907 -0.1509
 4947SOL    HW226475   3.168   3.753   2.007  2.2234 -2.3385  0.4373
 4948SOL     OW26476   3.985   4.485   6.042  0.3109  0.4005  0.7480
 4948SOL    HW126477   3.953   4.509   5.955  1.4561 -0.4412  0.0864
 4948SOL    HW226478   4.049   4.420   6.012  0.9280  0.3958  2.0803
 4949SOL     OW26479   1.971   4.561   0.153 -0.1629 -0.3022  0.5865
 4949SOL    HW126480   1.877   4.577   0.151  0.0268  0.2587 -2.5128
 4949SOL    HW226481   2.002   4.632   0.209 -3.0196  2.7099 -1.6738
 4950SOL     OW26482   1.342   0.972   6.176 -0.3774 -0.5581  0.2925
 4950SOL    HW126483   1.341   0.928   6.261 -0.7902 -1.0241  0.0451
 4950SOL    HW226484   1.252   1.004   6.180 -0.1165  0.5361 -2.0617
 4951SOL     OW26485   3.010   2.571   5.427 -0.1767  0.5861 -0.2554
 4951SOL    HW126486   3.040   2.561   5.337 -1.3817 -1.4381 -0.4301
 4951SOL    HW226487   2.928   2.522   5.415  0.2545 -0.4471  0.9553
 4952SOL     OW26488   1.108   2.267   5.443 -0.2126  0.3743  0.7942
 4952SOL    HW126489   1.183   2.256   5.501  0.7085  0.1653 -0.4422
 4952SOL    HW226490   1.035   2.304   5.493 -0.9144  0.4084 -0.2599
 4953SOL     OW26491   2.990   2.512   9.437  0.5210  0.0259 -0.4937
 4953SOL    HW126492   2.990   2.511   9.533  1.8359  3.8515 -0.4382
 4953SOL    HW226493   2.990   2.606   9.420  2.4685  0.1876  0.3978
 4954SOL     OW26494   1.019   4.733   1.880  0.3250  0.3622  0.4020
 4954SOL    HW126495   0.935   4.687   1.873  1.2343 -1.4744  1.4669
 4954SOL    HW226496   0.978   0.083   1.880  0.3478  0.3588 -2.3518
 4955SOL     OW26497   2.882   1.611   5.829 -0.2661  0.1920  0.3971
 4955SOL    HW126498   2.914   1.535   5.780 -1.4456  0.4476 -0.7692
 4955SOL    HW226499   2.802   1.582   5.874 -1.9716  0.5780 -2.3991
 4956SOL     OW26500   3.676   2.450   8.792 -0.4980 -0.1613  0.0290
 4956SOL    HW126501   3.672   2.544   8.771  0.7483 -0.0644  0.1778
 4956SOL    HW226502   3.721   2.456   8.877 -0.2797  2.7921 -0.2901
 4957SOL     OW26503   4.298   3.676   4.895 -0.2572 -0.3387 -0.1587
 4957SOL    HW126504   4.357   3.680   4.970  1.1337  1.3851 -1.3469
 4957SOL    HW226505   4.219   3.699   4.945 -1.9831 -3.3480 -1.4418
 4958SOL     OW26506   3.153   3.798   2.924 -0.4407  0.0496 -0.1178
 4958SOL    HW126507   3.210   3.813   3.000  0.3172 -1.1510 -0.4442
 4958SOL    HW226508   3.215   3.792   2.852 -0.4324 -0.8120 -0.0366
 4959SOL     OW26509   0.790   1.677   1.818  0.4476 -0.0810  0.2738
 4959SOL    HW126510   0.878   1.712   1.834  1.5552 -2.2000 -1.2281
 4959SOL    HW226511   0.785   1.634   1.903 -1.7910  0.7398  0.5436
 4960SOL     OW26512   3.102   1.882   6.558  0.1215 -0.3714  0.3193
 4960SOL    HW126513   3.172   1.945   6.574  0.8370 -0.9010 -0.6727
 4960SOL    HW226514   3.028   1.939   6.578  0.6148 -0.1587  1.4997
 4961SOL     OW26515   2.078   4.284  16.310  0.0500  0.4887  0.3497
 4961SOL    HW126516   2.133   4.338  16.253  1.2052 -1.9453 -0.8663
 4961SOL    HW226517   1.987   4.310  16.293 -0.6364 -1.2566  1.2916
 4962SOL     OW26518   2.663   1.116   8.719 -0.3731 -0.0085 -0.0246
 4962SOL    HW126519   2.740   1.060   8.728 -0.7458 -0.9469 -2.8688
 4962SOL    HW226520   2.646   1.104   8.626  0.9059 -0.1692 -0.2329
 4963SOL     OW26521   4.429   1.805   6.068  0.0420 -0.1099 -0.0404
 4963SOL    HW126522   4.517   1.774   6.044  0.4116  0.2732  0.8160
 4963SOL    HW226523   4.413   1.881   6.012  1.8633 -0.0568 -0.4803
 4964SOL     OW26524   2.426   3.772  11.756  0.0132  0.0432  0.4275
 4964SOL    HW126525   2.344   3.820  11.763 -0.7244 -1.3155  1.1568
 4964SOL    HW226526   2.409   3.690  11.802 -1.9202 -0.4696 -1.2336
 4965SOL     OW26527   1.036   4.467   0.094  0.5095 -0.0559 -0.0991
 4965SOL    HW126528   1.070   4.385   0.130 -1.9869 -0.4206  1.4337
 4965SOL    HW226529   0.984   4.511   0.161  1.3998 -1.3242  1.4516
 4966SOL     OW26530   3.974   1.151   8.260  0.1656 -0.0658  0.1882
 4966SOL    HW126531   3.959   1.103   8.178 -0.3593 -0.9726  0.8117
 4966SOL    HW226532   3.984   1.236   8.217 -2.3107  0.4025  0.5371
 4967SOL     OW26533   4.593   2.637   1.037 -0.5058 -0.1688 -0.1182
 4967SOL    HW126534   4.674   2.674   1.003 -0.1908  0.5486  1.3978
 4967SOL    HW226535   4.529   2.689   0.988  0.4366  1.1775  0.0808
 4968SOL     OW26536   4.146   1.976  11.956 -0.1197  0.0459  0.5621
 4968SOL    HW126537   4.192   2.027  11.890 -0.5409  0.3953  0.5421
 4968SOL    HW226538   4.059   1.999  11.924 -0.4323  0.6675  1.8696
 4969SOL     OW26539   3.833   2.461  12.781 -0.0584  0.2377 -0.6863
 4969SOL    HW126540   3.854   2.368  12.781 -0.9415  0.0339 -2.3100
 4969SOL    HW226541   3.905   2.485  12.839 -1.1263 -2.5177  1.7248
 4970SOL     OW26542   3.367   3.237  13.270 -0.0793  0.2848  0.0872
 4970SOL    HW126543   3.345   3.293  13.195 -0.2118 -1.3524 -1.1096
 4970SOL    HW226544   3.284   3.191  13.268 -0.8864  1.7562  0.0508
 4971SOL     OW26545   3.300   1.162  16.266  0.1783  0.9876  0.2352
 4971SOL    HW126546   3.348   1.090  16.306  0.8125  1.5036  0.4012
 4971SOL    HW226547   3.216   1.133  16.301  0.5310 -0.0526  0.2120
 4972SOL     OW26548   0.093   3.824   6.325 -0.0855 -0.0297  0.4065
 4972SOL    HW126549   0.095   3.910   6.284  2.7405  0.3531  1.3426
 4972SOL    HW226550   0.112   3.845   6.416 -2.4631  0.8329  0.7109
 4973SOL     OW26551   2.184   2.654   3.205  0.4233  0.1413  0.4513
 4973SOL    HW126552   2.197   2.723   3.270 -0.7771  0.5917  0.2222
 4973SOL    HW226553   2.237   2.581   3.237  0.4574 -0.5684 -1.2419
 4974SOL     OW26554   1.552   4.610   7.563 -0.2816  0.5153 -0.5520
 4974SOL    HW126555   1.473   4.609   7.509  1.6193  0.0291 -3.3348
 4974SOL    HW226556   1.511   4.590   7.646 -0.8782  2.8981 -0.2507
 4975SOL     OW26557   4.628   0.535   8.990 -0.2660  1.2011 -0.1950
 4975SOL    HW126558   4.579   0.571   9.064 -1.9769  0.7597 -1.1132
 4975SOL    HW226559   4.686   0.468   9.026  0.3723  1.5333 -0.5974
 4976SOL     OW26560   0.246   2.579   5.081 -0.2245  0.2666 -0.0832
 4976SOL    HW126561   0.238   2.500   5.027  0.4616  0.4859 -0.5106
 4976SOL    HW226562   0.256   2.645   5.013 -0.4984 -0.7780 -1.1330
 4977SOL     OW26563   1.544   1.265   8.899 -0.6927 -0.3593 -0.3510
 4977SOL    HW126564   1.520   1.223   8.816 -0.8965  0.4323 -0.6938
 4977SOL    HW226565   1.530   1.201   8.969 -1.0437  0.0896 -0.0126
 4978SOL     OW26566   3.943   0.831   2.200 -0.6855  0.2454 -0.3839
 4978SOL    HW126567   3.905   0.746   2.180 -0.5777  0.4527 -1.4472
 4978SOL    HW226568   4.016   0.806   2.257  0.1381 -1.2859 -2.1484
 4979SOL     OW26569   4.132   2.472   1.963  0.4862  0.8254  0.0587
 4979SOL    HW126570   4.166   2.545   2.014  0.6446  0.9530 -0.2301
 4979SOL    HW226571   4.148   2.402   2.026 -0.8831 -0.1674 -0.7064
 4980SOL     OW26572   2.114   0.327   6.552 -0.5879  0.0882  0.3355
 4980SOL    HW126573   2.124   0.390   6.623 -2.3515  2.8218 -1.8816
 4980SOL    HW226574   2.070   0.254   6.595 -2.1919  1.1181  0.4063
 4981SOL     OW26575   3.289   2.572   6.051 -0.2129  0.5534  0.1639
 4981SOL    HW126576   3.238   2.628   5.993  0.3477 -3.1640 -3.8992
 4981SOL    HW226577   3.235   2.577   6.130 -1.1102 -3.1554 -0.2119
 4982SOL     OW26578   4.584   2.939   6.492  1.1417 -0.2889 -0.7838
 4982SOL    HW126579   4.642   2.863   6.501  1.5646  0.3606  1.8049
 4982SOL    HW226580   4.606   2.977   6.407 -2.4561 -0.6234 -1.8747
 4983SOL     OW26581   0.772   2.680  12.217  0.1936  0.1534 -0.1088
 4983SOL    HW126582   0.853   2.718  12.184  0.3382 -1.1768 -1.3011
 4983SOL    HW226583   0.800   2.615  12.282 -3.0162  0.0349  1.1466
 4984SOL     OW26584   2.986   3.544  13.807  0.0243  0.5130  0.7853
 4984SOL    HW126585   2.942   3.615  13.759  0.2815 -0.1843 -0.4738
 4984SOL    HW226586   2.944   3.463  13.776 -0.6199  1.5779 -1.1751
 4985SOL     OW26587   4.581   2.274   4.295  0.4524 -0.1125 -0.6998
 4985SOL    HW126588   4.608   2.269   4.387 -0.1125  1.0867 -0.4655
 4985SOL    HW226589   4.572   2.180   4.283 -2.3544  0.0268  0.4876
 4986SOL     OW26590   1.234   1.644   4.293  0.0489 -0.5630  0.3713
 4986SOL    HW126591   1.179   1.705   4.341 -0.7167  0.5600 -1.9224
 4986SOL    HW226592   1.283   1.710   4.244 -1.4515 -0.0180 -0.3846
 4987SOL     OW26593   4.375   2.751   6.437  0.6830  0.2584 -0.0200
 4987SOL    HW126594   4.424   2.821   6.395 -0.4227  1.5585  0.8473
 4987SOL    HW226595   4.442   2.698   6.479 -1.2435 -2.0432  0.1632
 4988SOL     OW26596   0.072   4.695   2.454 -0.6202 -0.0055  0.3031
 4988SOL    HW126597   0.094   0.032   2.513  1.7728  0.9164 -1.7342
 4988SOL    HW226598   0.056   4.626   2.519 -1.5075 -0.3596 -0.3040
 4989SOL     OW26599   1.618   3.902  17.343  0.0057  0.5900 -0.9283
 4989SOL    HW126600   1.534   3.883  17.300 -2.0764  2.5699  2.2838
 4989SOL    HW226601   1.605   3.992  17.371 -0.5910  0.2257 -0.0420
 4990SOL     OW26602   0.656   1.098   2.061  0.1115 -0.2009  0.3340
 4990SOL    HW126603   0.625   1.081   2.150 -0.8588  0.5995  0.1501
 4990SOL    HW226604   0.751   1.088   2.066  0.4436  2.5588 -0.4521
 4991SOL     OW26605   3.919   0.181   1.407  0.7663  0.0865  0.2219
 4991SOL    HW126606   3.976   0.107   1.426 -0.3249 -0.7251  0.2606
 4991SOL    HW226607   3.836   0.138   1.388  1.3360 -1.2866  0.8985
 4992SOL     OW26608   1.796   3.606   3.101 -0.8743 -0.2851  0.7171
 4992SOL    HW126609   1.804   3.574   3.011 -0.1643 -0.2470  0.7658
 4992SOL    HW226610   1.835   3.530   3.142 -1.8685 -1.3545 -0.3270
 4993SOL     OW26611   1.248   0.278  15.947 -0.2029 -0.3940 -0.4179
 4993SOL    HW126612   1.233   0.305  16.038 -0.5270  1.4761 -1.0278
 4993SOL    HW226613   1.235   0.183  15.941  0.7125 -0.6723  1.8931
 4994SOL     OW26614   1.463   3.631   3.372 -0.5152  0.0573  0.2164
 4994SOL    HW126615   1.475   3.671   3.286  1.8007 -2.7505 -0.7739
 4994SOL    HW226616   1.533   3.678   3.418  1.3355 -2.7349  0.1991
 4995SOL     OW26617   1.432   4.259  17.695  0.3762  0.3494 -0.5389
 4995SOL    HW126618   1.385   4.330  17.651  0.0804 -0.6265 -1.7950
 4995SOL    HW226619   1.375   4.244   0.027  0.4711  0.9453 -0.3522
 4996SOL     OW26620   4.368   3.826  13.793  0.5855 -0.3981 -0.3784
 4996SOL    HW126621   4.377   3.917  13.765 -0.0942 -0.4380 -0.7275
 4996SOL    HW226622   4.274   3.823  13.812  1.0331 -2.6906  1.5746
 4997SOL     OW26623   3.599   0.459   9.196  0.3208 -0.0770  0.0837
 4997SOL    HW126624   3.599   0.364   9.210  1.4702 -0.2641 -1.2104
 4997SOL    HW226625   3.593   0.460   9.101 -0.3870 -0.6317  0.1189
 4998SOL     OW26626   0.557   3.563   5.121 -0.5043  0.1260  0.0126
 4998SOL    HW126627   0.605   3.496   5.072  1.8802  1.2954  0.7898
 4998SOL    HW226628   0.626   3.620   5.156 -1.3598  0.0105  1.8839
 4999SOL     OW26629   2.223   0.477  16.953  0.5170  0.3992 -0.3026
 4999SOL    HW126630   2.192   0.425  16.878  2.6564 -1.8857  0.4167
 4999SOL    HW226631   2.168   0.555  16.948  3.5228  2.5042 -0.6331
 5000SOL     OW26632   0.437   1.999   6.491 -0.1634 -0.4345 -0.6435
 5000SOL    HW126633   0.395   1.917   6.464 -0.0890 -0.6427 -0.1269
 5000SOL    HW226634   0.529   1.985   6.469  0.5787  0.2328  2.1257
 5001SOL     OW26635   3.387   3.913   8.024  0.0843  0.0154 -0.1583
 5001SOL    HW126636   3.392   3.840   7.964  0.2079  0.5267 -0.7681
 5001SOL    HW226637   3.307   3.959   7.997 -1.2426 -0.6867  2.5141
 5002SOL     OW26638   4.111   2.196   2.860  0.1296  0.2718  0.2986
 5002SOL    HW126639   4.101   2.103   2.882 -0.3789 -0.5394 -3.3980
 5002SOL    HW226640   4.031   2.233   2.898  0.1752  3.0332 -2.3071
 5003SOL     OW26641   2.241   2.875  10.887 -0.2991 -0.2697  0.4625
 5003SOL    HW126642   2.221   2.952  10.833  1.0696  0.2452  0.6741
 5003SOL    HW226643   2.150   2.853  10.904 -1.0867  1.3265 -1.7439
 5004SOL     OW26644   3.150   1.062   6.544  0.2916 -0.2639 -0.3400
 5004SOL    HW126645   3.092   1.137   6.560  0.4630  0.0017 -0.9768
 5004SOL    HW226646   3.126   1.057   6.452 -1.0473 -2.9004  0.1516
 5005SOL     OW26647   2.730   3.358   5.581  0.1475 -0.1906  0.3047
 5005SOL    HW126648   2.747   3.309   5.500  1.5433  2.5129 -1.0361
 5005SOL    HW226649   2.814   3.347   5.625 -0.4415 -1.3382  1.1358
 5006SOL     OW26650   1.135   0.287   3.019  0.0709  0.5849 -0.0086
 5006SOL    HW126651   1.207   0.263   2.961  0.9122  1.0287  0.8351
 5006SOL    HW226652   1.142   0.383   3.016  0.8971  0.5132 -0.4667
 5007SOL     OW26653   0.520   1.583   8.140 -0.3553  0.5898  0.0205
 5007SOL    HW126654   0.612   1.558   8.150 -1.2278 -3.0172 -0.7614
 5007SOL    HW226655   0.534   1.677   8.143 -0.5714  0.6080  0.4578
 5008SOL     OW26656   1.082   3.953   5.136  0.3952 -0.1863 -0.3958
 5008SOL    HW126657   1.087   3.955   5.232 -0.2954  1.0163 -0.3850
 5008SOL    HW226658   1.086   4.047   5.121 -0.0206  0.2882  2.4615
 5009SOL     OW26659   0.710   1.958   2.826 -0.3613 -0.2141  0.1020
 5009SOL    HW126660   0.681   1.969   2.916  1.7726  0.9523  0.6448
 5009SOL    HW226661   0.750   1.871   2.823  0.6041  0.1472  2.1881
 5010SOL     OW26662   0.733   0.416   4.650 -0.1595  0.6322  0.0402
 5010SOL    HW126663   0.666   0.365   4.697  0.2332  0.1904  0.1258
 5010SOL    HW226664   0.779   0.341   4.612  2.2266  2.2980 -0.3531
 5011SOL     OW26665   0.146   3.507  16.586 -0.0184  0.0652 -0.4170
 5011SOL    HW126666   0.199   3.506  16.666  1.7453  1.4645 -1.5609
 5011SOL    HW226667   0.079   3.441  16.603  0.2247 -0.0788  0.0057
 5012SOL     OW26668   2.185   0.695  11.073  0.4186 -0.0695  0.2789
 5012SOL    HW126669   2.225   0.762  11.129  0.8434 -0.2810  0.2298
 5012SOL    HW226670   2.220   0.722  10.989  2.4097  0.4240  1.2857
 5013SOL     OW26671   4.639   3.761   4.227 -0.4563 -0.6979 -0.4220
 5013SOL    HW126672   4.557   3.788   4.268  1.4377  0.0130  2.8562
 5013SOL    HW226673   4.702   3.828   4.252 -0.9559 -0.5497  0.4239
 5014SOL     OW26674   0.859   4.183   9.099  0.3895 -0.2503 -0.0805
 5014SOL    HW126675   0.806   4.259   9.076  0.9524  0.6804  1.6902
 5014SOL    HW226676   0.849   4.121   9.026  2.7408 -1.8422  0.9241
 5015SOL     OW26677   1.322   2.899   3.923 -0.1188  0.4937  0.1249
 5015SOL    HW126678   1.375   2.955   3.980  1.1385 -1.8996  1.3025
 5015SOL    HW226679   1.232   2.904   3.957  0.5028  0.9979  1.6701
 5016SOL     OW26680   2.581   0.691   6.504 -0.1903  0.1822  0.5633
 5016SOL    HW126681   2.513   0.738   6.456 -1.6371 -0.7450  1.6934
 5016SOL    HW226682   2.582   0.731   6.591  2.9181  2.5555 -0.5672
 5017SOL     OW26683   4.025   3.010  14.259  0.1460  0.2065 -0.4637
 5017SOL    HW126684   4.088   3.074  14.291  1.3031  0.6000 -3.4777
 5017SOL    HW226685   4.075   2.974  14.185  2.5367  1.3766  0.5889
 5018SOL     OW26686   4.237   4.276   8.330 -0.3025 -0.3736 -0.6925
 5018SOL    HW126687   4.257   4.365   8.359 -0.6507 -0.7400  0.6531
 5018SOL    HW226688   4.321   4.235   8.308 -0.8019 -2.0822  0.6014
 5019SOL     OW26689   3.262   2.976   8.884 -0.3731  0.0548 -0.0904
 5019SOL    HW126690   3.201   2.905   8.901  0.0692 -0.4307 -0.5443
 5019SOL    HW226691   3.207   3.052   8.904 -1.1051 -0.8088  1.1639
 5020SOL     OW26692   3.580   0.847  14.690  0.3173  0.4089  0.1413
 5020SOL    HW126693   3.617   0.867  14.604  0.0484  0.2098 -0.0221
 5020SOL    HW226694   3.491   0.820  14.668  0.0016  0.1234  1.8073
 5021SOL     OW26695   2.344   0.480   8.046 -0.0789 -0.1361  0.3025
 5021SOL    HW126696   2.256   0.474   8.008  0.5936 -1.3538 -1.0754
 5021SOL    HW226697   2.397   0.525   7.981  0.9350 -1.1776  0.4089
 5022SOL     OW26698   1.486   3.069  12.576  0.2608 -0.6639  0.0123
 5022SOL    HW126699   1.524   3.026  12.500 -2.2531  0.2969 -1.8010
 5022SOL    HW226700   1.543   3.034  12.644  0.5949 -1.0473 -0.4734
 5023SOL     OW26701   4.583   2.891   9.034 -0.5590 -0.1540  0.0344
 5023SOL    HW126702   4.603   2.806   8.996  0.7996  1.5292 -3.0038
 5023SOL    HW226703   4.508   2.913   8.978 -0.2950 -2.1176 -1.0908
 5024SOL     OW26704   3.286   1.412  13.283 -0.5659 -0.3503 -0.0742
 5024SOL    HW126705   3.353   1.402  13.351  0.7902 -1.7138 -1.5867
 5024SOL    HW226706   3.328   1.489  13.243 -1.6147 -0.4687 -1.3846
 5025SOL     OW26707   4.188   4.017   4.914 -0.4220 -0.3050  0.2044
 5025SOL    HW126708   4.112   4.042   4.968 -1.7692 -0.9570 -1.3921
 5025SOL    HW226709   4.137   3.999   4.835 -0.0893 -1.3245  0.2322
 5026SOL     OW26710   4.422   1.317   2.164 -0.5529 -0.3090 -0.2184
 5026SOL    HW126711   4.361   1.260   2.118 -1.3427  0.1983  0.1862
 5026SOL    HW226712   4.384   1.396   2.125 -1.7585 -0.7725  0.0146
 5027SOL     OW26713   1.575   0.396   3.545 -0.0048  0.6977  0.0638
 5027SOL    HW126714   1.513   0.324   3.532  0.0588  0.7042 -0.2651
 5027SOL    HW226715   1.659   0.351   3.552 -0.1596  0.5125  0.7473
 5028SOL     OW26716   2.343   1.989   3.586 -0.4647  0.1509  0.8635
 5028SOL    HW126717   2.433   1.973   3.559 -0.0421  4.6001 -0.3536
 5028SOL    HW226718   2.327   2.073   3.543 -0.9317  0.3436  1.4184
 5029SOL     OW26719   4.211   2.686   7.050 -0.5092  0.0759 -0.3214
 5029SOL    HW126720   4.132   2.653   7.006 -1.7767  0.1382  1.9178
 5029SOL    HW226721   4.207   2.633   7.130  1.1070  0.4476 -0.0075
 5030SOL     OW26722   3.171   3.488  17.340 -0.7310  0.2531  0.5566
 5030SOL    HW126723   3.215   3.530  17.413  1.7919  1.1065 -1.4628
 5030SOL    HW226724   3.129   3.416  17.387 -1.4563 -0.2406 -0.8277
 5031SOL     OW26725   4.198   3.556   5.729  0.1588 -0.2614 -0.0831
 5031SOL    HW126726   4.257   3.483   5.743  0.2863  0.3078  2.2744
 5031SOL    HW226727   4.215   3.566   5.635 -2.7694 -1.2223 -0.7019
 5032SOL     OW26728   0.606   4.144   3.970 -0.1043  0.1745  0.6106
 5032SOL    HW126729   0.526   4.192   3.989  0.5818  1.7972 -0.5681
 5032SOL    HW226730   0.574   4.079   3.907  2.3711 -0.2972 -0.1716
 5033SOL     OW26731   4.645   4.045   3.490  0.3873  0.4011 -0.5755
 5033SOL    HW126732   4.714   3.996   3.533 -1.4992 -0.5080  1.4201
 5033SOL    HW226733   4.576   3.981   3.471 -1.1158  0.5128  4.4629
 5034SOL     OW26734   0.815   1.653   8.525 -0.1173  0.1329  0.2470
 5034SOL    HW126735   0.869   1.719   8.567 -2.8201  0.6444  2.9285
 5034SOL    HW226736   0.842   1.573   8.570 -0.0282 -0.5688 -1.0466
 5035SOL     OW26737   2.805   1.464   8.761  0.3036 -0.0834 -0.1381
 5035SOL    HW126738   2.718   1.451   8.724  0.1162 -0.9441  0.6075
 5035SOL    HW226739   2.844   1.528   8.701  0.6631  0.2727  0.4793
 5036SOL     OW26740   1.760   2.893   5.193 -0.2249 -0.6188  0.4091
 5036SOL    HW126741   1.749   2.971   5.140 -0.2607  0.6409  2.2546
 5036SOL    HW226742   1.828   2.925   5.252 -0.1620 -1.3225  0.7209
 5037SOL     OW26743   2.650   1.808  16.730 -0.1496  0.1011  0.3617
 5037SOL    HW126744   2.581   1.851  16.679 -0.7856 -0.5476  0.6666
 5037SOL    HW226745   2.604   1.726  16.751 -1.3635  0.6852 -0.0191
 5038SOL     OW26746   2.015   1.627   4.795  0.5430 -0.1788  0.0602
 5038SOL    HW126747   2.073   1.552   4.810 -0.5332 -0.6304  1.8664
 5038SOL    HW226748   2.052   1.683   4.863 -0.0362  1.3977 -0.9151
 5039SOL     OW26749   3.809   4.661   2.278 -0.2354  0.2984  0.0737
 5039SOL    HW126750   3.814   0.016   2.252  0.3404  0.8708  2.1785
 5039SOL    HW226751   3.850   4.617   2.203 -0.9061 -1.4185  0.7053
 5040SOL     OW26752   4.608   2.343   7.990  0.0486 -0.2068 -0.6045
 5040SOL    HW126753   4.547   2.327   7.917 -0.6093  0.8698 -0.2864
 5040SOL    HW226754   4.540   2.388   8.041  0.4031  1.4636 -1.6051
 5041SOL     OW26755   1.177   0.244   3.445  0.1560 -0.5230 -0.3451
 5041SOL    HW126756   1.214   0.324   3.409 -0.4461 -0.1976 -0.2353
 5041SOL    HW226757   1.207   0.170   3.391  0.7454 -1.0878  0.7617
 5042SOL     OW26758   0.794   4.493  14.854  0.4025 -0.4488 -0.1954
 5042SOL    HW126759   0.816   4.581  14.884  1.9787 -0.9918  0.2688
 5042SOL    HW226760   0.847   4.445  14.918 -0.8404 -2.8749 -0.9737
 5043SOL     OW26761   3.897   0.111   8.672 -0.6820 -0.6679 -0.0624
 5043SOL    HW126762   3.891   0.194   8.719  0.0856 -1.3629  1.2758
 5043SOL    HW226763   3.871   0.054   8.745 -1.3413 -0.5019 -0.1709
 5044SOL     OW26764   0.104   3.102  13.567 -0.1373 -0.7168 -0.0512
 5044SOL    HW126765   0.011   3.080  13.560 -0.1974 -0.7201  0.7901
 5044SOL    HW226766   0.131   3.012  13.548 -0.8876 -1.5225  2.6386
 5045SOL     OW26767   3.731   2.188   1.561 -0.1998  0.3131  0.0502
 5045SOL    HW126768   3.727   2.278   1.529 -3.0667  0.0697 -0.2987
 5045SOL    HW226769   3.667   2.144   1.504  0.0108  0.8136 -0.5783
 5046SOL     OW26770   4.719   3.777   5.370 -0.0715  0.1132  0.4822
 5046SOL    HW126771   4.625   3.792   5.378 -0.2158 -0.0813 -0.9311
 5046SOL    HW226772   4.727   3.754   5.463  2.0041 -1.5986 -0.1115
 5047SOL     OW26773   2.725   4.138   3.575  0.0857  0.0876 -0.1018
 5047SOL    HW126774   2.649   4.082   3.587 -0.5014  0.7873 -0.5093
 5047SOL    HW226775   2.696   4.195   3.503  1.5935  1.7615  0.6122
 5048SOL     OW26776   0.928   2.394   6.235 -0.2478 -0.0447 -0.3040
 5048SOL    HW126777   0.989   2.328   6.202  0.8021  1.0122 -0.4729
 5048SOL    HW226778   0.982   2.454   6.286  0.4360 -0.4500 -0.5457
 5049SOL     OW26779   2.447   0.202   6.511 -0.0508  0.3376  0.8050
 5049SOL    HW126780   2.474   0.267   6.575  0.7350 -0.2135  1.0343
 5049SOL    HW226781   2.389   0.145   6.561 -2.2133  0.0772 -1.9814
 5050SOL     OW26782   3.747   3.466   0.549 -0.6716  0.2438  0.1239
 5050SOL    HW126783   3.772   3.381   0.587 -0.3197 -0.7011 -2.2203
 5050SOL    HW226784   3.651   3.462   0.550 -0.6296 -0.6284  0.4867
 5051SOL     OW26785   4.239   4.047   9.189  0.1178 -0.2211  0.3500
 5051SOL    HW126786   4.270   4.106   9.258 -0.3148  0.5737 -0.1297
 5051SOL    HW226787   4.206   4.109   9.124 -0.3327  0.1723  0.9576
 5052SOL     OW26788   2.721   2.100   1.081  0.3614  0.1642  0.4769
 5052SOL    HW126789   2.736   2.034   1.149 -1.3817  1.7660  2.3749
 5052SOL    HW226790   2.764   2.176   1.120 -2.0692  1.4147  0.6482
 5053SOL     OW26791   4.674   3.675   1.568 -0.2350 -0.5307  0.1125
 5053SOL    HW126792   4.616   3.607   1.535  0.6951 -1.4989  0.4857
 5053SOL    HW226793   4.660   3.659   1.661  0.9349  0.1022  0.3978
 5054SOL     OW26794   3.735   4.607  16.193  0.5854 -0.0150 -0.0250
 5054SOL    HW126795   3.787   4.542  16.147  2.3972  1.6977 -0.3903
 5054SOL    HW226796   3.690   4.651  16.121 -1.3978 -0.8842  0.6810
 5055SOL     OW26797   1.236   1.518   0.643  0.5643  0.0752 -0.3817
 5055SOL    HW126798   1.163   1.580   0.653  2.1928  1.8188  0.6794
 5055SOL    HW226799   1.202   1.443   0.693 -0.5110 -0.3203 -1.7186
 5056SOL     OW26800   1.530   1.462   0.974  0.1025 -0.0129  0.1128
 5056SOL    HW126801   1.621   1.433   0.967  0.2496  0.9816 -1.9930
 5056SOL    HW226802   1.501   1.442   0.885  1.3471  0.1491 -0.3318
 5057SOL     OW26803   3.179   2.973   1.021 -0.1602 -0.1663  0.5579
 5057SOL    HW126804   3.131   3.044   0.978 -0.7350  0.0580  1.5690
 5057SOL    HW226805   3.113   2.907   1.041  0.3062 -0.1188  2.2175
 5058SOL     OW26806   3.863   3.209   8.186 -0.7195  0.2058  0.0576
 5058SOL    HW126807   3.915   3.129   8.188  0.7125  1.1479  0.6591
 5058SOL    HW226808   3.783   3.181   8.229 -0.1613  1.0282  1.6288
 5059SOL     OW26809   0.177   1.487   0.110  0.4390  0.1900  0.7826
 5059SOL    HW126810   0.198   1.550   0.179 -0.0161  1.1208  0.0534
 5059SOL    HW226811   0.089   1.520   0.094 -0.4018 -2.3318  0.1327
 5060SOL     OW26812   4.506   4.495   4.096 -0.3438  1.1306 -0.0719
 5060SOL    HW126813   4.597   4.470   4.113 -1.7993 -1.3442  4.1018
 5060SOL    HW226814   4.458   4.412   4.106  1.6480  0.0689  0.6246
 5061SOL     OW26815   0.550   2.906   9.308 -0.1100 -0.7740  0.0284
 5061SOL    HW126816   0.507   2.841   9.252 -0.4152  1.2895 -2.1639
 5061SOL    HW226817   0.611   2.944   9.245  0.6905  0.2944  1.4522
 5062SOL     OW26818   0.372   0.305   2.669  0.4645 -0.0126 -0.0512
 5062SOL    HW126819   0.331   0.384   2.704  2.0592  1.5748 -1.7667
 5062SOL    HW226820   0.449   0.341   2.625 -0.7439  0.9816 -1.3699
 5063SOL     OW26821   2.919   2.786   5.556  0.3363 -0.1446 -0.2149
 5063SOL    HW126822   2.999   2.826   5.591 -0.6605  0.4254  1.4681
 5063SOL    HW226823   2.945   2.698   5.529 -1.8671 -1.1963  1.0699
 5064SOL     OW26824   2.164   3.066   3.603  0.0582  0.3429  0.5491
 5064SOL    HW126825   2.107   3.076   3.680 -0.5968 -2.1815  0.4119
 5064SOL    HW226826   2.208   2.982   3.619 -1.9063 -0.8803 -0.4825
 5065SOL     OW26827   4.536   0.133  13.798  0.1047 -0.1548 -0.6010
 5065SOL    HW126828   4.446   0.118  13.828 -0.4390  1.6946 -1.2855
 5065SOL    HW226829   4.595   0.124  13.872 -2.1993 -1.2624  1.1051
 5066SOL     OW26830   0.096   0.147  16.548 -0.2566 -0.0671  0.7384
 5066SOL    HW126831   0.028   0.194  16.596 -0.8855 -1.0569  0.8232
 5066SOL    HW226832   0.173   0.172  16.598  1.4832  1.0462 -2.4678
 5067SOL     OW26833   3.073   0.034  13.368  0.0508 -0.4213 -0.2013
 5067SOL    HW126834   3.037   0.021  13.456 -3.0722  1.4774 -1.2108
 5067SOL    HW226835   2.998   0.006  13.316  0.1822 -1.0066 -0.0750
 5068SOL     OW26836   3.233   2.961   4.732  0.1348 -0.4033 -0.1877
 5068SOL    HW126837   3.289   3.038   4.744  1.7545 -1.4896 -0.6541
 5068SOL    HW226838   3.161   3.011   4.693  0.2654  0.3637  0.5658
 5069SOL     OW26839   3.074   4.252   5.780  0.4714 -0.2523  0.1121
 5069SOL    HW126840   3.071   4.256   5.876 -1.2512  0.7247  0.0047
 5069SOL    HW226841   3.169   4.256   5.766  0.3972  0.2181 -0.2764
 5070SOL     OW26842   2.013   4.299   8.017 -0.4334  0.6776  0.1477
 5070SOL    HW126843   1.958   4.284   8.093 -1.0543  0.9060 -0.2579
 5070SOL    HW226844   1.996   4.391   7.998  1.8606  1.2077  0.5891
 5071SOL     OW26845   0.139   1.466   7.000 -0.1332 -0.0676 -0.0409
 5071SOL    HW126846   0.201   1.431   7.065 -1.9405 -0.0023  1.7087
 5071SOL    HW226847   0.157   1.414   6.922  2.4318 -1.4951  1.4655
 5072SOL     OW26848   0.672   4.453   2.022 -0.1731  0.9359  0.0987
 5072SOL    HW126849   0.657   4.370   1.976  1.5994 -0.0647  1.3039
 5072SOL    HW226850   0.743   4.484   1.966  1.9516 -1.2437  1.5301
 5073SOL     OW26851   3.381   2.729   3.416  0.1734 -0.4435  0.5499
 5073SOL    HW126852   3.459   2.673   3.418  1.5240  1.4624  1.8416
 5073SOL    HW226853   3.318   2.667   3.453 -0.4481 -1.3299 -1.9805
 5074SOL     OW26854   2.518   2.140   6.927 -0.0406  0.2035  0.1906
 5074SOL    HW126855   2.505   2.127   7.021  0.9779  1.8552  0.5450
 5074SOL    HW226856   2.570   2.060   6.915 -1.2063 -0.5702  0.2240
 5075SOL     OW26857   0.704   4.489  17.047 -0.0946  0.2594  0.0919
 5075SOL    HW126858   0.700   4.394  17.037 -1.6361  0.2420  0.9245
 5075SOL    HW226859   0.766   4.502  16.975 -0.4553 -0.5089 -0.3615
 5076SOL     OW26860   2.680   1.622   2.878 -0.2596  0.0351  0.1195
 5076SOL    HW126861   2.718   1.603   2.793 -2.2481 -1.7770 -0.3613
 5076SOL    HW226862   2.720   1.554   2.931  1.7502  0.0258 -1.4295
 5077SOL     OW26863   1.994   0.703   6.912 -0.6190  0.4871  0.5583
 5077SOL    HW126864   1.973   0.773   6.851 -0.2315 -0.2716 -0.4544
 5077SOL    HW226865   2.058   0.741   6.972  0.6923 -0.3857 -0.2923
 5078SOL     OW26866   4.465   4.190  15.632  0.0053  0.2804 -0.1702
 5078SOL    HW126867   4.522   4.116  15.651  0.6056  0.7618 -0.1182
 5078SOL    HW226868   4.423   4.155  15.554  0.4513 -2.1047  0.6875
 5079SOL     OW26869   3.202   2.661   8.857  0.4174 -0.5122  0.3395
 5079SOL    HW126870   3.271   2.604   8.889 -0.2491 -1.2406  0.4664
 5079SOL    HW226871   3.147   2.657   8.935 -0.9296 -0.0792 -0.5812
 5080SOL     OW26872   4.494   2.803  17.442 -0.1386 -0.4180  0.6239
 5080SOL    HW126873   4.474   2.862  17.515 -0.9733 -1.8436  1.5300
 5080SOL    HW226874   4.429   2.734  17.455 -1.6759  0.7518 -0.8219
 5081SOL     OW26875   0.866   3.976   5.000  0.2338  0.0784  0.1952
 5081SOL    HW126876   0.931   3.951   5.066  0.7196 -1.7094 -0.9471
 5081SOL    HW226877   0.786   3.980   5.052 -0.0759 -1.3681 -0.1645
 5082SOL     OW26878   3.608   0.764  16.503 -0.6349 -0.5066  0.3613
 5082SOL    HW126879   3.697   0.764  16.468 -0.1345  2.3809  1.6260
 5082SOL    HW226880   3.605   0.824  16.577  0.7316 -0.0375  0.0324
 5083SOL     OW26881   1.543   4.455   3.920 -0.7338  0.5627  0.2041
 5083SOL    HW126882   1.491   4.530   3.949 -0.3714  0.6542  0.6310
 5083SOL    HW226883   1.476   4.389   3.934 -0.5967  0.7283  1.6272
 5084SOL     OW26884   3.228   2.518   7.408  0.3388  0.2837  0.2907
 5084SOL    HW126885   3.308   2.472   7.382  2.0057  2.5668  1.3414
 5084SOL    HW226886   3.258   2.607   7.427  0.5210  0.3366 -0.2443
 5085SOL     OW26887   1.782   1.886   6.506  0.1884 -0.4271  0.0722
 5085SOL    HW126888   1.732   1.865   6.585 -1.6381  0.4692 -0.8268
 5085SOL    HW226889   1.832   1.965   6.526  1.1393 -0.3476 -2.5806
 5086SOL     OW26890   1.413   3.010   5.317  0.1857  0.0708  1.1228
 5086SOL    HW126891   1.433   3.010   5.411  1.0673  2.5182  0.9333
 5086SOL    HW226892   1.455   2.928   5.290 -1.7955 -1.1330  1.6916
 5087SOL     OW26893   1.315   3.567  10.287  0.1733  0.3146 -0.8214
 5087SOL    HW126894   1.258   3.591  10.360  1.3722  0.1466  0.1726
 5087SOL    HW226895   1.392   3.571  10.344 -0.0618 -2.8999 -0.2462
 5088SOL     OW26896   2.474   3.712   7.268 -0.0466  0.7199 -0.1507
 5088SOL    HW126897   2.409   3.743   7.330  0.5602 -0.3390  1.0082
 5088SOL    HW226898   2.453   3.768   7.193 -0.5133  0.0061 -0.5470
 5089SOL     OW26899   3.680   3.061   7.479  0.1150  0.3015  0.0049
 5089SOL    HW126900   3.735   3.051   7.400  0.8955 -0.3858  0.6330
 5089SOL    HW226901   3.717   2.994   7.537 -0.9200 -1.7550 -1.7011
 5090SOL     OW26902   2.323   2.732   1.812  0.4297  0.3143 -0.0782
 5090SOL    HW126903   2.384   2.767   1.747  0.5716 -0.2845 -0.2738
 5090SOL    HW226904   2.357   2.645   1.836 -1.1534 -0.3203 -0.1034
 5091SOL     OW26905   4.652   4.592  15.818 -0.1628  0.3183 -0.6348
 5091SOL    HW126906   4.577   4.532  15.815  0.4176 -0.4590  0.3885
 5091SOL    HW226907   4.626   4.676  15.855 -1.9437  0.9929 -3.3989
 5092SOL     OW26908   1.379   2.152   1.155 -0.0080  0.4946  0.2397
 5092SOL    HW126909   1.320   2.107   1.094 -0.6176 -0.3513  1.4671
 5092SOL    HW226910   1.457   2.097   1.146  0.2471  0.8864  0.0498
 5093SOL     OW26911   2.112   1.617   6.154  0.5726  0.1089 -0.1923
 5093SOL    HW126912   2.084   1.674   6.082  0.1207  0.6683  0.4264
 5093SOL    HW226913   2.036   1.560   6.161  0.2172  0.2064 -3.2457
 5094SOL     OW26914   1.422   0.067  14.654  0.0766 -0.2068 -0.2892
 5094SOL    HW126915   1.366   0.029  14.722  0.9197 -0.7765  0.0875
 5094SOL    HW226916   1.429   4.723  14.603  1.8061  0.4744 -1.1318
 5095SOL     OW26917   3.042   2.310   7.342 -1.0439  0.4441 -0.4928
 5095SOL    HW126918   3.020   2.262   7.422 -0.2821  1.0402  0.0718
 5095SOL    HW226919   3.095   2.383   7.373  0.7911 -0.9925 -0.2382
 5096SOL     OW26920   3.744   0.391   5.153 -0.1592 -0.8354  0.4202
 5096SOL    HW126921   3.718   0.313   5.201  0.7339 -0.1991  1.9423
 5096SOL    HW226922   3.658   0.429   5.135 -0.2988 -1.6412 -0.6192
 5097SOL     OW26923   2.536   0.538   4.714 -0.5794 -0.4898 -0.0534
 5097SOL    HW126924   2.488   0.456   4.729 -0.2972 -0.4624  0.9365
 5097SOL    HW226925   2.542   0.569   4.804  0.1910 -0.2022 -0.2100
 5098SOL     OW26926   1.883   0.344   4.821  0.4001 -0.2867 -0.5407
 5098SOL    HW126927   1.934   0.334   4.741  0.1414 -3.1066 -0.3587
 5098SOL    HW226928   1.809   0.288   4.796 -1.8561  2.2537  0.3923
 5099SOL     OW26929   0.597   2.342   6.717  0.5446 -0.0062  0.1172
 5099SOL    HW126930   0.521   2.313   6.767  0.9230  0.8557  1.1865
 5099SOL    HW226931   0.582   2.436   6.712 -0.6401 -0.1667  0.6416
 5100SOL     OW26932   3.311   1.561   4.807 -0.2221 -0.1872  0.5204
 5100SOL    HW126933   3.379   1.617   4.771 -0.0832 -1.1927 -0.7965
 5100SOL    HW226934   3.244   1.581   4.741  2.1998  1.2838 -1.4851
 5101SOL     OW26935   2.417   2.777   8.807  0.5843  0.1934 -0.3718
 5101SOL    HW126936   2.350   2.821   8.859 -1.3918 -2.6760 -0.4808
 5101SOL    HW226937   2.412   2.686   8.835  0.0703  0.4904  0.5077
 5102SOL     OW26938   1.326   2.347   2.874  0.1240 -0.0845 -0.2415
 5102SOL    HW126939   1.276   2.402   2.936 -1.0578 -1.3557 -0.0678
 5102SOL    HW226940   1.272   2.333   2.796 -2.3345 -1.2655  1.6853
 5103SOL     OW26941   0.131   0.958  15.665  0.4379  0.1699 -0.0381
 5103SOL    HW126942   0.192   0.903  15.616  1.2830 -0.4983  1.7550
 5103SOL    HW226943   0.174   0.965  15.750 -1.0523 -0.1283  0.7399
 5104SOL     OW26944   3.011   1.646   3.357  0.4346  0.1383  0.0492
 5104SOL    HW126945   3.092   1.603   3.329 -0.7321 -3.1705  1.7888
 5104SOL    HW226946   2.974   1.685   3.277  0.0590  1.3222  0.7978
 5105SOL     OW26947   2.224   2.761  10.565 -0.6520 -0.3988  0.6604
 5105SOL    HW126948   2.154   2.747  10.628 -1.2232  0.8544  0.2915
 5105SOL    HW226949   2.288   2.693  10.588  0.6365  0.6835  0.2638
 5106SOL     OW26950   4.159   0.164  17.099 -0.1721  0.4861 -0.7031
 5106SOL    HW126951   4.091   0.230  17.082 -2.4017 -0.4720  4.3266
 5106SOL    HW226952   4.236   0.200  17.057 -0.8442  0.7899 -1.6738
 5107SOL     OW26953   4.442   2.652   0.369  0.1539  0.0558  0.2529
 5107SOL    HW126954   4.402   2.694   0.445 -2.6216 -2.1355 -0.0227
 5107SOL    HW226955   4.529   2.627   0.399 -0.3214  0.5316  2.0089
 5108SOL     OW26956   2.016   3.647   7.024  1.1669 -0.6902  0.1107
 5108SOL    HW126957   2.022   3.658   7.119 -1.3163 -0.8733  0.2911
 5108SOL    HW226958   2.047   3.731   6.992  0.7905 -0.4269  0.4421
 5109SOL     OW26959   2.299   3.512   5.953 -0.1838  0.0946  0.0386
 5109SOL    HW126960   2.319   3.503   6.046  1.4147  0.3694 -0.2827
 5109SOL    HW226961   2.220   3.459   5.949 -1.3117  1.9483 -1.9218
 5110SOL     OW26962   4.596   4.560   3.556 -0.0127 -0.0193 -0.9353
 5110SOL    HW126963   4.634   4.476   3.531  1.7319  0.1664  1.0941
 5110SOL    HW226964   4.676   4.612   3.565  0.1257 -0.6329  1.3830
 5111SOL     OW26965   2.199   4.243  12.513 -0.1327 -0.1118  0.2037
 5111SOL    HW126966   2.203   4.151  12.538  2.6288  0.2573  1.1018
 5111SOL    HW226967   2.277   4.271  12.562  0.4243  1.2749 -1.4651
 5112SOL     OW26968   0.808   1.656  10.259  0.1816 -0.1270  0.1504
 5112SOL    HW126969   0.852   1.624  10.180 -1.9932  0.8693 -1.4481
 5112SOL    HW226970   0.873   1.724  10.277  0.0787  0.2991 -1.0847
 5113SOL     OW26971   3.870   1.939   6.153 -0.1974 -0.3483 -0.4109
 5113SOL    HW126972   3.866   1.983   6.238  1.6650  0.2707 -0.6376
 5113SOL    HW226973   3.805   1.986   6.102  1.0699  1.0809 -0.7000
 5114SOL     OW26974   0.044   0.289   1.021 -0.0770  0.0023 -0.0066
 5114SOL    HW126975   4.708   0.348   1.003 -0.5417  0.1244  2.2247
 5114SOL    HW226976   0.118   0.350   1.015  0.2227 -0.5048 -1.4117
 5115SOL     OW26977   2.219   0.247   7.058 -0.1572  0.8545  0.1924
 5115SOL    HW126978   2.260   0.328   7.089  1.7684  0.8439 -2.3052
 5115SOL    HW226979   2.141   0.275   7.011 -0.0435 -0.5273 -0.8007
 5116SOL     OW26980   1.195   2.562  12.070  0.4984  0.3844  0.3732
 5116SOL    HW126981   1.138   2.638  12.071 -0.4205 -0.2666 -1.6773
 5116SOL    HW226982   1.145   2.502  12.125 -0.9527 -0.0814 -1.4661
 5117SOL     OW26983   2.164   3.864  11.830 -0.2303  0.7585  0.2711
 5117SOL    HW126984   2.071   3.880  11.811 -0.4719 -1.1813 -0.1973
 5117SOL    HW226985   2.165   3.787  11.887 -1.2431 -0.5727 -1.5031
 5118SOL     OW26986   3.544   3.169  11.870  0.9500  0.5429 -0.6988
 5118SOL    HW126987   3.478   3.236  11.853 -0.3177 -0.5893 -0.1867
 5118SOL    HW226988   3.600   3.182  11.793  2.2359 -0.6077  0.0409
 5119SOL     OW26989   4.176   0.491   6.273 -0.3464  0.4985  0.4025
 5119SOL    HW126990   4.267   0.480   6.245 -0.4936  1.7227 -0.5446
 5119SOL    HW226991   4.197   0.481   6.366  0.0233 -2.1252  0.0193
 5120SOL     OW26992   2.246   2.421  15.584  0.0664 -0.4838 -0.6583
 5120SOL    HW126993   2.244   2.498  15.640 -0.5291 -0.4336 -0.7484
 5120SOL    HW226994   2.318   2.438  15.523  1.1381 -3.3544 -0.1975
 5121SOL     OW26995   3.629   3.857   7.110 -1.0017  0.0997  0.2555
 5121SOL    HW126996   3.634   3.927   7.174 -0.0366  0.8232 -0.6225
 5121SOL    HW226997   3.585   3.796   7.170 -0.6820  1.1340  1.5398
 5122SOL     OW26998   0.527   0.497  12.566  0.2206 -0.2622  0.2957
 5122SOL    HW126999   0.529   0.479  12.472  2.6218 -1.3939  0.5708
 5122SOL    HW227000   0.503   0.590  12.571 -0.9957 -0.4559 -1.6524
 5123SOL     OW27001   2.367   3.157  17.726  0.0979  0.0681  0.2273
 5123SOL    HW127002   2.375   3.081   0.040  0.1215  1.4548  2.0365
 5123SOL    HW227003   2.385   3.119  17.641  0.5513  2.0012 -0.5469
 5124SOL     OW27004   2.996   2.917   4.327 -0.0847  0.0405  0.2082
 5124SOL    HW127005   2.917   2.970   4.339 -2.1442 -2.9307 -0.3102
 5124SOL    HW227006   3.043   2.971   4.264 -0.4249 -0.9836 -0.9171
 5125SOL     OW27007   0.741   2.905   2.765  0.3765  0.1845 -0.4829
 5125SOL    HW127008   0.674   2.856   2.717 -0.4617  0.7659  0.0841
 5125SOL    HW227009   0.816   2.917   2.707 -0.1950 -0.2059 -1.2939
 5126SOL     OW27010   1.386   4.537   7.776 -0.4373  0.0753 -0.4172
 5126SOL    HW127011   1.413   4.463   7.828 -1.3860 -0.4020 -0.5938
 5126SOL    HW227012   1.332   4.585   7.839  2.0108  1.3388  0.6987
 5127SOL     OW27013   1.298   3.728   4.097  0.0651 -0.6469  0.0576
 5127SOL    HW127014   1.369   3.758   4.040 -0.0394  0.8986  0.7191
 5127SOL    HW227015   1.339   3.666   4.157 -2.3759  0.7591  3.2045
 5128SOL     OW27016   2.449   0.190   4.496 -0.0933  0.1014  0.2130
 5128SOL    HW127017   2.501   0.263   4.466  1.2587 -0.0411  2.1835
 5128SOL    HW227018   2.417   0.153   4.414  1.5639 -0.6269 -0.1018
 5129SOL     OW27019   0.724   4.534   2.607  0.4651  0.0733 -0.2554
 5129SOL    HW127020   0.782   4.602   2.572 -0.2948 -0.8401 -3.2271
 5129SOL    HW227021   0.640   4.580   2.599 -0.3063 -0.9067  2.0168
 5130SOL     OW27022   1.244   3.566   3.120 -0.0080 -0.0641 -0.0085
 5130SOL    HW127023   1.226   3.646   3.071 -0.7560  0.3394  0.9266
 5130SOL    HW227024   1.339   3.555   3.117  0.1405  0.7151  1.6084
 5131SOL     OW27025   3.684   2.685   3.916  1.2156  0.2285  0.3659
 5131SOL    HW127026   3.656   2.764   3.871  0.0799 -0.4560 -0.1197
 5131SOL    HW227027   3.667   2.620   3.848  0.3174 -0.7294  1.5229
 5132SOL     OW27028   4.163   4.088  12.630 -0.2907 -0.1021 -0.0674
 5132SOL    HW127029   4.084   4.038  12.649 -1.1575  2.1106  2.2807
 5132SOL    HW227030   4.123   4.159  12.579  0.5291  1.6259  1.6795
 5133SOL     OW27031   3.856   0.565   2.109  0.1266 -0.0680  0.4032
 5133SOL    HW127032   3.853   0.485   2.162 -0.9653  0.7892  1.6449
 5133SOL    HW227033   3.935   0.555   2.055 -2.2320  0.9866 -3.1870
 5134SOL     OW27034   1.949   1.900  15.220 -0.1556  0.5342 -0.1757
 5134SOL    HW127035   1.901   1.982  15.227  0.5254  0.7078  2.4503
 5134SOL    HW227036   1.973   1.905  15.127  0.9563 -2.9502 -0.0804
 5135SOL     OW27037   2.904   3.250  15.472 -0.1837  0.7020  0.6524
 5135SOL    HW127038   2.926   3.226  15.382 -0.7011  0.2036  0.6644
 5135SOL    HW227039   2.925   3.167  15.514 -2.0015 -0.7033 -1.2271
 5136SOL     OW27040   0.860   3.230   0.079 -0.0496 -0.5144 -0.2165
 5136SOL    HW127041   0.768   3.238   0.104  0.7487  2.8152  1.6563
 5136SOL    HW227042   0.912   3.228   0.160 -0.3502 -2.2597 -0.0689
 5137SOL     OW27043   2.247   2.341   6.232  0.0346 -0.2388  0.2591
 5137SOL    HW127044   2.263   2.278   6.303  0.0409 -1.1360 -0.5351
 5137SOL    HW227045   2.329   2.389   6.224 -0.6952  1.0052  0.2667
 5138SOL     OW27046   2.903   0.659   3.220  0.3026 -0.5342  0.1725
 5138SOL    HW127047   2.891   0.614   3.136  0.9849 -0.3448 -0.0255
 5138SOL    HW227048   2.970   0.603   3.258  0.0803 -1.0652 -0.2219
 5139SOL     OW27049   3.043   1.751   6.013  0.3487 -0.2428  0.5076
 5139SOL    HW127050   3.123   1.713   5.978  1.5951  3.2729 -0.5043
 5139SOL    HW227051   2.987   1.729   5.939  0.1215 -2.3697  1.3260
 5140SOL     OW27052   0.386   4.146   9.653 -0.6391 -0.2955  0.2023
 5140SOL    HW127053   0.438   4.206   9.707 -0.7011 -1.2763  1.3508
 5140SOL    HW227054   0.406   4.187   9.568 -2.1566  0.1238  0.0382
 5141SOL     OW27055   0.745   4.154   7.564 -0.1907  0.3544 -0.0806
 5141SOL    HW127056   0.738   4.233   7.511 -1.5235  0.1441 -0.2341
 5141SOL    HW227057   0.824   4.114   7.528  0.5103  1.3387  0.3792
 5142SOL     OW27058   0.840   0.483  12.718 -0.5107 -0.5790  1.1607
 5142SOL    HW127059   0.756   0.489  12.764 -0.5510  4.3133  0.4380
 5142SOL    HW227060   0.865   0.574  12.735 -0.0245 -0.8961  2.0912
 5143SOL     OW27061   1.215   0.772   2.492  0.5183 -0.2530  0.0025
 5143SOL    HW127062   1.222   0.704   2.559 -0.8195  0.6936  1.0888
 5143SOL    HW227063   1.244   0.846   2.545 -0.2322 -1.1806  1.6985
 5144SOL     OW27064   3.238   1.745   9.586  0.0813  0.4721 -0.0515
 5144SOL    HW127065   3.222   1.825   9.634 -1.6644  2.0132 -3.1647
 5144SOL    HW227066   3.262   1.684   9.656  0.3837  0.8771  0.1919
 5145SOL     OW27067   2.756   0.059  13.774  0.0702 -0.1129  0.0857
 5145SOL    HW127068   2.720   0.145  13.751  2.5464  1.5745  2.6129
 5145SOL    HW227069   2.680   0.010  13.742 -1.0863  0.4799  1.8996
 5146SOL     OW27070   2.867   4.408   4.328  0.4393  0.6563 -1.1244
 5146SOL    HW127071   2.863   4.371   4.239 -3.2398 -2.0740  0.2046
 5146SOL    HW227072   2.800   4.352   4.366  1.5444  1.4754  2.0103
 5147SOL     OW27073   0.994   0.962  15.184 -0.8263 -0.1735 -0.4467
 5147SOL    HW127074   1.041   0.986  15.264  0.3647  0.8389 -1.4533
 5147SOL    HW227075   0.932   1.035  15.179  0.3975  0.8211 -0.9701
 5148SOL     OW27076   0.575   4.509  15.210 -0.4483  0.2871 -0.2425
 5148SOL    HW127077   0.560   4.415  15.196 -0.4495  0.2012  0.3357
 5148SOL    HW227078   0.514   4.527  15.281  0.2432 -1.4221  0.7871
 5149SOL     OW27079   0.261   1.956   7.035 -0.1831 -0.4787  0.5324
 5149SOL    HW127080   0.194   1.999   7.088  0.1676  0.1803  0.4476
 5149SOL    HW227081   0.228   2.000   6.957  0.4174  0.4327  0.7832
 5150SOL     OW27082   3.753   3.035   6.137  0.3878 -0.2147 -0.0916
 5150SOL    HW127083   3.668   3.012   6.174  0.8997  0.1261  1.2929
 5150SOL    HW227084   3.814   3.021   6.209  1.6860  0.1531 -1.1180
 5151SOL     OW27085   2.983   3.047   7.356  0.0729  0.1921 -0.4845
 5151SOL    HW127086   2.933   3.128   7.345 -1.1340 -0.5176 -0.2562
 5151SOL    HW227087   3.061   3.090   7.392  0.5317  1.0338 -2.4941
 5152SOL     OW27088   3.348   0.778  14.608 -0.8538 -0.2520 -0.7159
 5152SOL    HW127089   3.348   0.870  14.582  0.4010 -0.0860 -0.1410
 5152SOL    HW227090   3.344   0.733  14.524  1.4094 -0.3361 -0.7846
 5153SOL     OW27091   2.436   3.715   7.937  0.1171 -0.3954  0.1590
 5153SOL    HW127092   2.521   3.730   7.978 -0.7462 -1.7236  2.4366
 5153SOL    HW227093   2.399   3.800   7.915 -4.0229 -1.9359  1.1880
 5154SOL     OW27094   2.716   1.359   9.131  0.0071  0.1080 -0.0063
 5154SOL    HW127095   2.791   1.384   9.076 -1.0843  3.2573 -0.0905
 5154SOL    HW227096   2.777   1.336   9.202 -3.2880 -1.1398  2.4017
 5155SOL     OW27097   2.594   3.062   9.670  0.1800 -0.7685  0.3209
 5155SOL    HW127098   2.605   3.042   9.763 -1.0367 -1.0812  0.3984
 5155SOL    HW227099   2.581   2.973   9.636 -0.4475 -0.1175 -1.1409
 5156SOL     OW27100   0.626   2.736  16.027  0.5775  0.6729 -0.0686
 5156SOL    HW127101   0.641   2.719  15.934 -0.6379  0.7552 -0.2723
 5156SOL    HW227102   0.614   2.643  16.048  2.1592  0.5222  0.2138
 5157SOL     OW27103   4.669   4.278   4.464 -0.3594 -0.2079 -0.6570
 5157SOL    HW127104   4.714   4.287   4.380  0.1178  0.0241 -0.3823
 5157SOL    HW227105   0.002   4.267   4.529  0.1439  0.7589 -1.0291
 5158SOL     OW27106   1.192   1.263   2.950  0.3280 -0.7298  0.0348
 5158SOL    HW127107   1.261   1.319   2.985  1.1963 -0.7659 -1.6173
 5158SOL    HW227108   1.184   1.197   3.019 -0.1004  0.8099  1.4549
 5159SOL     OW27109   0.779   1.565   3.566  0.4553 -0.3170  0.8265
 5159SOL    HW127110   0.863   1.520   3.552 -0.0136 -1.7770  2.6093
 5159SOL    HW227111   0.804   1.627   3.635 -0.0520  0.7164  0.0701
 5160SOL     OW27112   2.302   3.903   8.225 -0.4427  0.4312  0.2970
 5160SOL    HW127113   2.274   3.992   8.202 -2.2522  0.0707  1.1362
 5160SOL    HW227114   2.370   3.923   8.289 -0.8647 -0.6957  1.0962
 5161SOL     OW27115   4.298   0.207   0.758  0.4964  0.0664 -0.1949
 5161SOL    HW127116   4.228   0.231   0.697  0.7257  1.7549  0.1909
 5161SOL    HW227117   4.261   0.223   0.845 -0.4401  0.7564 -0.7207
 5162SOL     OW27118   4.064   0.921   4.480 -0.5366  0.3165  0.2769
 5162SOL    HW127119   4.008   0.898   4.407 -0.8125  0.2445  0.5095
 5162SOL    HW227120   4.125   0.847   4.481 -2.8047 -1.5529  3.4266
 5163SOL     OW27121   4.046   4.506   6.878 -0.3829 -0.1280  0.3027
 5163SOL    HW127122   4.000   4.583   6.846 -1.3344 -1.4303 -1.4618
 5163SOL    HW227123   3.977   4.448   6.908  0.9114 -2.3652 -1.0153
 5164SOL     OW27124   3.865   3.866   5.054 -0.1857 -0.8299 -0.0117
 5164SOL    HW127125   3.903   3.950   5.030 -1.0830 -1.1658 -2.5722
 5164SOL    HW227126   3.833   3.890   5.141  0.9730 -3.4643  1.1392
 5165SOL     OW27127   3.466   4.667   3.198 -0.1990  0.0915  0.3034
 5165SOL    HW127128   3.438   4.598   3.259 -0.2994  0.9323  1.2014
 5165SOL    HW227129   3.460   0.007   3.256  1.2601 -0.8088  1.6571
 5166SOL     OW27130   3.057   1.224   9.728  0.3562  0.1103 -0.2499
 5166SOL    HW127131   3.036   1.170   9.652  0.2818 -0.6671  0.3241
 5166SOL    HW227132   3.087   1.163   9.796  1.2898 -1.6746 -2.2641
 5167SOL     OW27133   0.816   1.149  11.108  0.2266 -0.9602  0.7696
 5167SOL    HW127134   0.722   1.131  11.109 -0.2573  1.6578  0.7337
 5167SOL    HW227135   0.837   1.187  11.193 -1.0273 -0.9944  1.0959
 5168SOL     OW27136   3.130   1.081   5.405 -0.0616 -0.6226  0.2000
 5168SOL    HW127137   3.186   1.158   5.396  0.9199 -1.0553  2.7022
 5168SOL    HW227138   3.185   1.020   5.454 -2.1483 -3.0732 -0.4985
 5169SOL     OW27139   3.558   1.056   8.307 -0.2091 -0.5213  0.9571
 5169SOL    HW127140   3.527   1.001   8.379 -2.5401  3.5721  3.1154
 5169SOL    HW227141   3.479   1.059   8.254  0.4004 -1.2621 -0.0009
 5170SOL     OW27142   0.911   0.134   7.569 -0.1324  0.0555 -0.1462
 5170SOL    HW127143   0.994   0.145   7.523  1.8033 -0.3543  3.2891
 5170SOL    HW227144   0.939   0.144   7.660 -1.5518 -1.0564  0.4085
 5171SOL     OW27145   4.646   4.328   7.960 -0.2483  0.3092  0.1254
 5171SOL    HW127146   4.726   4.294   7.921 -1.1564 -1.0678 -0.5596
 5171SOL    HW227147   4.674   4.375   8.039  1.4184  0.9838 -0.8776
 5172SOL     OW27148   1.000   3.678  14.529  0.2666  0.1841  0.0610
 5172SOL    HW127149   0.936   3.722  14.474 -1.3002 -1.9324  0.1641
 5172SOL    HW227150   0.938   3.639  14.591  0.3564  0.0314  0.0572
 5173SOL     OW27151   2.629   2.132   2.992 -0.4509  0.0524  0.1219
 5173SOL    HW127152   2.639   2.038   3.009 -1.3431  0.1764  1.3190
 5173SOL    HW227153   2.666   2.176   3.069 -2.8253  1.3802  0.4833
 5174SOL     OW27154   2.248   2.704   3.918 -0.5892 -0.4847 -0.0406
 5174SOL    HW127155   2.193   2.698   3.996 -2.0695 -0.2751 -1.0692
 5174SOL    HW227156   2.199   2.773   3.874  0.9271  1.0751  0.7014
 5175SOL     OW27157   0.040   1.691   4.904 -0.4444  0.6042  0.2304
 5175SOL    HW127158   0.131   1.676   4.878 -0.2984 -0.3488  1.3077
 5175SOL    HW227159   0.045   1.783   4.928 -1.1308  0.1393  2.1317
 5176SOL     OW27160   0.239   0.461   8.887  0.0801 -0.1542  0.3683
 5176SOL    HW127161   0.150   0.489   8.865  0.4188  0.5171 -0.1542
 5176SOL    HW227162   0.249   0.448   8.982 -0.5961 -0.5807  0.3763
 5177SOL     OW27163   3.001   2.968  17.501  0.6510  0.1397 -0.0385
 5177SOL    HW127164   3.061   2.932  17.567  0.1698 -0.1919  0.2163
 5177SOL    HW227165   2.924   2.982  17.556  1.5202  3.1552  0.4196
 5178SOL     OW27166   4.137   0.204   7.323  0.2079 -0.3294 -0.5417
 5178SOL    HW127167   4.179   0.170   7.402  2.9238 -1.2203 -2.3655
 5178SOL    HW227168   4.093   0.277   7.364  1.6178  1.6932 -2.6117
 5179SOL     OW27169   3.125   0.559   9.796 -0.6488 -0.3325 -0.2268
 5179SOL    HW127170   3.087   0.512   9.871 -0.7983  0.3392  0.1170
 5179SOL    HW227171   3.216   0.563   9.826  0.3177 -1.4704 -3.0148
 5180SOL     OW27172   2.896   2.681  16.044 -0.3443 -0.2981  0.1996
 5180SOL    HW127173   2.883   2.638  15.960 -1.1571 -0.8349  0.5944
 5180SOL    HW227174   2.967   2.633  16.087 -1.1858 -1.1326  0.6470
 5181SOL     OW27175   4.034   1.222   9.734  0.2061 -0.3789 -0.2810
 5181SOL    HW127176   4.089   1.295   9.706 -1.8208  1.6845  1.1609
 5181SOL    HW227177   3.944   1.252   9.749  0.2043 -0.2377 -0.5620
 5182SOL     OW27178   0.279   3.121   0.515  0.0954 -0.2786  0.0581
 5182SOL    HW127179   0.270   3.130   0.420  0.2632  2.5552  0.2877
 5182SOL    HW227180   0.229   3.042   0.534  0.7636 -0.0982  2.5581
 5183SOL     OW27181   1.419   4.123   0.879  0.2521  0.6302  0.4378
 5183SOL    HW127182   1.324   4.120   0.885  0.3925 -1.8735  1.3012
 5183SOL    HW227183   1.447   4.194   0.937  0.3391  1.1225 -0.2001
 5184SOL     OW27184   3.462   0.102   8.810  0.0609 -0.1653  0.1343
 5184SOL    HW127185   3.367   0.116   8.806 -0.3732 -2.8238  1.2404
 5184SOL    HW227186   3.476   0.007   8.813  1.6675  0.0434 -0.8458
 5185SOL     OW27187   3.906   1.299  14.797 -0.2300  0.8403  0.2382
 5185SOL    HW127188   3.838   1.312  14.731  1.4911 -0.8460 -1.8375
 5185SOL    HW227189   3.889   1.210  14.829 -0.2481  0.1656 -1.6336
 5186SOL     OW27190   3.426   2.823   6.061  0.0483  0.0756 -0.1992
 5186SOL    HW127191   3.441   2.762   5.989  0.0987  1.9174 -1.7393
 5186SOL    HW227192   3.353   2.873   6.025  0.8162  1.2920 -0.0773
 5187SOL     OW27193   4.581   4.323   8.708 -0.2747 -0.4073 -0.1828
 5187SOL    HW127194   4.636   4.361   8.778 -0.6147 -0.5363  0.1542
 5187SOL    HW227195   4.515   4.392   8.697 -0.6337 -0.3639  2.1171
 5188SOL     OW27196   3.354   1.389  16.851 -0.2424  0.2449  0.2826
 5188SOL    HW127197   3.304   1.315  16.815 -2.6572  2.7308 -1.4715
 5188SOL    HW227198   3.320   1.462  16.799 -2.2762 -0.7558  0.1767
 5189SOL     OW27199   2.626   2.026  13.800 -0.2091  0.0984 -0.1997
 5189SOL    HW127200   2.552   2.063  13.751  1.5719  0.9723 -2.2181
 5189SOL    HW227201   2.594   2.049  13.888 -0.6130  0.3875 -0.4204
 5190SOL     OW27202   0.353   1.462  15.416  0.6846 -0.1477 -0.3716
 5190SOL    HW127203   0.440   1.500  15.413  0.5354  0.2697  0.6607
 5190SOL    HW227204   0.310   1.547  15.423  0.9910 -0.2086  2.2634
 5191SOL     OW27205   2.589   4.084   6.430  0.1229 -0.2396 -0.2036
 5191SOL    HW127206   2.513   4.027   6.440  2.2610 -2.8606  0.9249
 5191SOL    HW227207   2.561   4.132   6.352  1.4721 -0.5338 -0.8671
 5192SOL     OW27208   0.376   4.400   3.744 -0.0343  0.5903  0.0163
 5192SOL    HW127209   0.289   4.433   3.722 -0.7518 -0.7333  0.8603
 5192SOL    HW227210   0.435   4.458   3.697 -0.7939 -0.2449 -1.9622
 5193SOL     OW27211   1.394   4.546   9.116  0.3629 -1.0065 -0.0339
 5193SOL    HW127212   1.480   4.539   9.157 -0.0972  1.1704  1.2845
 5193SOL    HW227213   1.353   4.465   9.146  1.1688 -1.5439 -0.3700
 5194SOL     OW27214   4.632   3.055  16.484 -0.0419 -0.5418 -0.1324
 5194SOL    HW127215   4.562   3.110  16.517 -0.4525 -0.1754 -1.6239
 5194SOL    HW227216   4.691   3.042  16.558  0.1528  0.4614 -0.1172
 5195SOL     OW27217   1.429   0.892   7.812 -0.5162  0.4836  0.0262
 5195SOL    HW127218   1.458   0.843   7.735  0.9647  0.7671  0.4198
 5195SOL    HW227219   1.373   0.831   7.861 -0.9784  0.0554 -1.0260
 5196SOL     OW27220   0.816   2.122  11.527  0.5980  0.0146  0.0164
 5196SOL    HW127221   0.862   2.118  11.611  0.6048 -0.7525 -0.0258
 5196SOL    HW227222   0.843   2.043  11.479  0.0353  0.8087 -1.6179
 5197SOL     OW27223   2.640   3.779   2.918  0.1022  0.5721  0.3464
 5197SOL    HW127224   2.723   3.766   2.963  0.5257  0.1433 -0.5600
 5197SOL    HW227225   2.661   3.770   2.825 -0.4317  0.2389  0.2590
 5198SOL     OW27226   4.093   4.672  17.237  0.2969  0.2419  0.1784
 5198SOL    HW127227   4.107   0.005  17.174  1.0667  1.5765  1.8241
 5198SOL    HW227228   4.080   4.713  17.323  2.4827 -1.3859  1.2979
 5199SOL     OW27229   1.261   0.099   1.772  0.2457  0.2757 -0.4467
 5199SOL    HW127230   1.189   0.045   1.805 -0.2932  1.3741  0.1521
 5199SOL    HW227231   1.214   0.151   1.706 -1.2347  0.2116  0.5684
 5200SOL     OW27232   3.841   0.731   9.090  0.0288  0.3725  0.0882
 5200SOL    HW127233   3.783   0.737   9.165 -1.0310 -0.5642 -0.6495
 5200SOL    HW227234   3.925   0.765   9.119 -0.4106  0.0202  1.7539
 5201SOL     OW27235   3.169   0.510   3.245  0.1243  0.1995  0.1427
 5201SOL    HW127236   3.194   0.421   3.221 -0.2004  0.1356  0.0520
 5201SOL    HW227237   3.230   0.532   3.316 -2.6810  0.6180  2.4224
 5202SOL     OW27238   0.947   2.111  12.046  0.8612 -0.5296  0.1555
 5202SOL    HW127239   0.902   2.171  12.106 -1.4265 -1.1717 -0.9207
 5202SOL    HW227240   0.983   2.049  12.110  0.6057 -1.6436 -0.7826
 5203SOL     OW27241   3.887   2.245   5.551 -0.9364 -0.4499  0.8892
 5203SOL    HW127242   3.913   2.164   5.507 -0.3465 -0.5335  1.3800
 5203SOL    HW227243   3.964   2.303   5.548 -0.0326 -1.8852 -3.6755
 5204SOL     OW27244   4.199   1.504   4.257  0.1815 -1.0641  0.0484
 5204SOL    HW127245   4.248   1.552   4.190  0.7899  0.5054  1.6103
 5204SOL    HW227246   4.144   1.449   4.201 -2.7331 -0.2972  2.1516
 5205SOL     OW27247   1.262   4.099   7.201 -0.0675  0.2983 -0.5434
 5205SOL    HW127248   1.319   4.149   7.142  1.0174  1.0385  1.1091
 5205SOL    HW227249   1.291   4.135   7.285  0.0484  3.5915 -1.9952
 5206SOL     OW27250   1.207   0.318  10.472  0.6766 -0.2135  0.0469
 5206SOL    HW127251   1.200   0.373  10.393 -0.6701  0.5943  0.7353
 5206SOL    HW227252   1.203   0.388  10.537 -0.8730 -1.3213  1.1331
 5207SOL     OW27253   0.814   4.442   4.381  0.0547 -0.2368  0.7443
 5207SOL    HW127254   0.855   4.448   4.467  0.6282  2.1427  0.3043
 5207SOL    HW227255   0.770   4.357   4.378 -0.3427  0.0230 -0.9459
 5208SOL     OW27256   0.482   1.005   2.659  0.3298  0.5444  0.2754
 5208SOL    HW127257   0.527   0.932   2.701  1.4550  0.0915 -1.7448
 5208SOL    HW227258   0.396   1.001   2.702 -0.3003 -1.1813 -1.1427
 5209SOL     OW27259   4.097   3.978   8.751  0.8664  0.1128 -0.4879
 5209SOL    HW127260   4.079   4.020   8.666  0.6382 -0.2107 -0.5999
 5209SOL    HW227261   4.008   3.978   8.786  2.1111  0.2780  2.6643
 5210SOL     OW27262   1.954   2.242   3.952 -0.4894  0.0029  0.3422
 5210SOL    HW127263   1.870   2.212   3.918 -1.5959  0.9511  2.2508
 5210SOL    HW227264   2.009   2.174   3.914 -0.9444 -0.5860  0.7394
 5211SOL     OW27265   3.215   0.455   6.685  0.1546 -0.5366  0.9526
 5211SOL    HW127266   3.137   0.510   6.681  0.4366 -0.2985 -1.1827
 5211SOL    HW227267   3.272   0.529   6.708 -0.3767  0.2005 -0.1514
 5212SOL     OW27268   1.180   1.430   1.739 -0.3675 -0.5873  0.2252
 5212SOL    HW127269   1.230   1.487   1.796 -2.5243  2.3786 -0.8425
 5212SOL    HW227270   1.192   1.345   1.781 -2.5291  0.4338  2.8427
 5213SOL     OW27271   4.624   3.779   6.712 -0.1227 -0.1402  0.4455
 5213SOL    HW127272   4.547   3.728   6.738  0.1618 -0.1392  1.2928
 5213SOL    HW227273   4.580   3.846   6.660  1.3466 -0.8090 -1.6475
 5214SOL     OW27274   4.556   0.734  15.004 -0.0567 -0.1896  0.3521
 5214SOL    HW127275   4.524   0.790  15.075  1.7600  2.2417 -0.7672
 5214SOL    HW227276   4.539   0.647  15.041  2.0929 -0.3288  1.0056
 5215SOL     OW27277   4.622   1.646   9.367 -0.1544  0.4661  0.2485
 5215SOL    HW127278   4.554   1.712   9.383  0.4242  1.4764 -1.3754
 5215SOL    HW227279   4.567   1.570   9.347  0.6809  0.1225 -0.7410
 5216SOL     OW27280   2.447   3.413  16.958  0.7228 -0.0115 -0.0950
 5216SOL    HW127281   2.519   3.359  16.925  1.1661  0.5526 -0.0391
 5216SOL    HW227282   2.395   3.397  16.878  0.3782  0.2988  0.0671
 5217SOL     OW27283   3.392   3.620   4.446 -0.0291  0.0612  0.5786
 5217SOL    HW127284   3.391   3.714   4.461  2.3717 -0.1273  1.8767
 5217SOL    HW227285   3.306   3.614   4.403 -0.8383 -1.3086  2.3779
 5218SOL     OW27286   1.408   0.015   8.421  0.2447  0.0467  0.3327
 5218SOL    HW127287   1.458   4.711   8.350 -0.1701  0.7368 -0.3606
 5218SOL    HW227288   1.445   4.711   8.500  2.8278  0.6779 -0.5492
 5219SOL     OW27289   4.308   3.233   4.642 -0.1929 -0.0351  0.0693
 5219SOL    HW127290   4.306   3.241   4.737 -0.9502  2.0020 -0.1212
 5219SOL    HW227291   4.399   3.205   4.628  0.3218  0.7098  2.0343
 5220SOL     OW27292   4.318   4.645   2.170 -0.3023  0.0228 -0.2429
 5220SOL    HW127293   4.334   4.663   2.262  2.2177  0.6215 -0.7901
 5220SOL    HW227294   4.243   4.701   2.150  0.4039  0.9836 -0.2003
 5221SOL     OW27295   2.479   4.202  17.217  0.4555  0.3704  0.1892
 5221SOL    HW127296   2.543   4.177  17.151  0.1463 -1.4777  0.5888
 5221SOL    HW227297   2.481   4.129  17.280  2.7438  0.0063 -0.3215
 5222SOL     OW27298   1.951   0.284   6.980  0.2317  0.3586  0.0703
 5222SOL    HW127299   1.917   0.200   7.010 -1.5203  1.4486  1.1748
 5222SOL    HW227300   1.899   0.336   7.042 -1.5697  0.7106 -1.7220
 5223SOL     OW27301   2.834   2.293   9.773  0.0294 -0.2829  0.1017
 5223SOL    HW127302   2.778   2.237   9.719 -2.8513  2.3710  0.3313
 5223SOL    HW227303   2.788   2.303   9.856  2.2987  0.8977  1.2220
 5224SOL     OW27304   4.121   0.067   7.070 -0.0675  0.1529  0.4144
 5224SOL    HW127305   4.133   0.095   7.160  0.7738  0.8245  0.0969
 5224SOL    HW227306   4.139   4.711   7.086  3.5393  1.1174  1.7929
 5225SOL     OW27307   3.246   0.321   6.039 -0.5753  0.9819  0.1182
 5225SOL    HW127308   3.309   0.306   5.968  0.7663 -0.3857  1.5868
 5225SOL    HW227309   3.234   0.415   6.025 -1.2701  0.8117 -0.4474
 5226SOL     OW27310   1.341   3.308   1.108  0.0992 -0.8290 -0.1509
 5226SOL    HW127311   1.313   3.286   1.019 -1.5914  0.4530  0.0603
 5226SOL    HW227312   1.261   3.291   1.159 -0.0274 -1.2712 -0.5012
 5227SOL     OW27313   1.742   2.165   9.877  0.3584  0.6216 -0.3282
 5227SOL    HW127314   1.740   2.250   9.833  1.1819  0.2992 -0.9898
 5227SOL    HW227315   1.649   2.145   9.884  0.0894  1.5502 -1.2204
 5228SOL     OW27316   3.397   4.245   6.958 -0.6132  0.1837  0.8647
 5228SOL    HW127317   3.458   4.172   6.946 -2.4014 -1.1689  0.1289
 5228SOL    HW227318   3.431   4.300   6.887  1.0984  0.6941  2.0807
 5229SOL     OW27319   2.204   1.254   2.643  0.1319 -0.1624 -0.0881
 5229SOL    HW127320   2.264   1.187   2.610 -0.2859 -0.3164 -0.5386
 5229SOL    HW227321   2.198   1.303   2.561 -1.9238  0.6881  0.5584
 5230SOL     OW27322   4.002   1.088  15.595  0.0482 -0.7755 -0.1667
 5230SOL    HW127323   4.079   1.103  15.540  1.2099  0.6825  1.8329
 5230SOL    HW227324   3.930   1.091  15.531 -0.7995  2.4654  0.9302
 5231SOL     OW27325   1.650   4.689  10.747  0.4885  0.1263 -0.4080
 5231SOL    HW127326   1.585   0.021  10.734  1.9371  2.0801  2.6492
 5231SOL    HW227327   1.619   4.645  10.826  2.1570 -0.4006 -0.0490
 5232SOL     OW27328   3.310   1.431   8.754  0.6749 -0.8216  0.2651
 5232SOL    HW127329   3.400   1.463   8.764  0.6007 -0.7895  0.8250
 5232SOL    HW227330   3.312   1.337   8.733 -0.4343 -0.8449  0.2883
 5233SOL     OW27331   0.994   3.772   3.504 -0.1284  0.0640 -0.0935
 5233SOL    HW127332   0.985   3.776   3.409 -2.3538  2.2995  0.2215
 5233SOL    HW227333   1.075   3.720   3.505  0.0605  0.3743  0.5086
 5234SOL     OW27334   1.537   0.316  13.616  0.4549 -0.1994 -0.5205
 5234SOL    HW127335   1.524   0.377  13.689 -0.1964  1.6100 -2.1584
 5234SOL    HW227336   1.458   0.340  13.567 -0.1660  0.0471  0.6028
 5235SOL     OW27337   2.486   2.481  16.826 -0.2977  0.3358  0.0011
 5235SOL    HW127338   2.533   2.403  16.797 -0.6354 -0.4651  1.5729
 5235SOL    HW227339   2.568   2.530  16.836 -0.4277  0.5381  0.0830
 5236SOL     OW27340   1.324   0.215   2.800  0.2632  0.6828 -0.0715
 5236SOL    HW127341   1.407   0.244   2.838  1.4370 -2.5996 -0.0783
 5236SOL    HW227342   1.359   0.139   2.754 -1.3625 -0.5112  0.6532
 5237SOL     OW27343   4.261   0.270  17.726  0.1588  0.5797 -0.1409
 5237SOL    HW127344   4.341   0.281  17.675  1.0080 -0.3209  1.0124
 5237SOL    HW227345   4.257   0.337   0.049  1.4910 -1.0222  1.5230
 5238SOL     OW27346   4.550   2.570   0.081  0.0997 -0.7413  0.2941
 5238SOL    HW127347   4.516   2.504   0.142 -3.5459  1.5839  0.7851
 5238SOL    HW227348   4.641   2.539   0.079  0.6153  0.8271 -0.3124
 5239SOL     OW27349   2.721   3.120   2.305 -0.2489  0.0010  0.4319
 5239SOL    HW127350   2.806   3.097   2.270 -0.6363  0.3007 -0.7017
 5239SOL    HW227351   2.748   3.187   2.368  2.3209 -0.6893  0.0655
 5240SOL     OW27352   3.365   2.442   7.716 -0.2073  0.5176  0.2861
 5240SOL    HW127353   3.394   2.351   7.724 -0.5528  0.2748 -1.1292
 5240SOL    HW227354   3.271   2.432   7.731 -0.5516  1.1911 -1.3760
 5241SOL     OW27355   0.276   1.622   7.409  0.3704 -0.4997 -0.8882
 5241SOL    HW127356   0.200   1.565   7.421 -0.5531  0.9376  0.1344
 5241SOL    HW227357   0.271   1.680   7.486 -0.1749 -1.0873 -0.4857
 5242SOL     OW27358   0.976   1.821   4.917 -0.3335  0.2750 -0.1141
 5242SOL    HW127359   0.983   1.911   4.884 -2.2208  1.3158  2.3226
 5242SOL    HW227360   0.948   1.775   4.838 -1.1933  1.0229 -0.2441
 5243SOL     OW27361   4.401   4.689   6.961 -0.4957 -0.2608 -0.0778
 5243SOL    HW127362   4.320   4.651   6.995 -0.6159  0.2121  0.1654
 5243SOL    HW227363   4.465   4.630   7.000 -0.0049 -1.1996 -2.3176
 5244SOL     OW27364   2.178   3.886   0.304 -0.7695  0.2076 -0.1603
 5244SOL    HW127365   2.161   3.976   0.331  0.3612  0.2768  0.3180
 5244SOL    HW227366   2.109   3.842   0.354  1.1285 -2.2681  0.2798
 5245SOL     OW27367   4.054   4.295   3.800  0.2880 -0.0014 -0.2981
 5245SOL    HW127368   3.992   4.367   3.812  0.5985  0.4377 -1.3650
 5245SOL    HW227369   4.140   4.336   3.808  0.2229  0.3455 -1.3732
 5246SOL     OW27370   1.699   0.742   3.358 -0.2375  0.1650 -0.2558
 5246SOL    HW127371   1.680   0.795   3.281  0.3904 -1.6723 -1.6620
 5246SOL    HW227372   1.772   0.688   3.328 -1.4023 -0.4656 -1.9319
 5247SOL     OW27373   1.538   4.531  13.662  0.2610  0.4947  0.2044
 5247SOL    HW127374   1.451   4.504  13.631 -0.1005  1.0748  0.7127
 5247SOL    HW227375   1.549   4.620  13.630  2.2035  0.7558  1.6174
 5248SOL     OW27376   0.371   4.045  16.141  1.1285  0.1443  0.1926
 5248SOL    HW127377   0.289   4.067  16.097  1.2770 -1.2484 -0.7984
 5248SOL    HW227378   0.347   3.987  16.213  3.8889 -1.4607 -0.1722
 5249SOL     OW27379   2.016   1.553   7.175  0.5702  0.0282 -0.0974
 5249SOL    HW127380   1.971   1.492   7.234  2.3768  0.2578  1.5596
 5249SOL    HW227381   2.061   1.608   7.239 -1.2135  1.0532  0.2433
 5250SOL     OW27382   2.307   3.811   1.103 -0.2680 -0.2355  0.3832
 5250SOL    HW127383   2.385   3.842   1.058 -0.2339  0.2368  0.7660
 5250SOL    HW227384   2.243   3.829   1.033 -0.7742  0.2345  0.9653
 5251SOL     OW27385   3.451   0.688   2.758 -0.3198 -0.2819 -0.1138
 5251SOL    HW127386   3.476   0.780   2.769  0.0691 -0.4788  0.6528
 5251SOL    HW227387   3.395   0.676   2.835  2.4647  0.8393  2.0945
 5252SOL     OW27388   2.109   0.737  11.385  0.0070  0.1588 -0.3512
 5252SOL    HW127389   2.064   0.791  11.320 -1.6191  0.1263  0.7469
 5252SOL    HW227390   2.105   0.791  11.465  0.5317 -0.6114  0.1988
 5253SOL     OW27391   0.309   3.508   4.549 -0.8241  0.2423 -0.0913
 5253SOL    HW127392   0.272   3.449   4.483  1.0893 -0.0867 -0.8719
 5253SOL    HW227393   0.237   3.571   4.548 -1.2436 -0.1752  4.6363
 5254SOL     OW27394   1.073   1.180  14.242  0.0508 -0.3642  0.2588
 5254SOL    HW127395   1.162   1.144  14.246  0.2079 -0.0405 -0.2690
 5254SOL    HW227396   1.081   1.219  14.155  2.2169  1.5839  1.3381
 5255SOL     OW27397   3.175   0.248   0.844 -0.2461  0.0168 -0.2294
 5255SOL    HW127398   3.257   0.283   0.810 -1.5723  4.0408  0.7277
 5255SOL    HW227399   3.182   0.260   0.939 -0.1123  1.0454 -0.3673
 5256SOL     OW27400   4.340   1.684   8.250  0.4674 -0.2420 -0.4145
 5256SOL    HW127401   4.296   1.761   8.216  0.1336  0.9360  2.6816
 5256SOL    HW227402   4.428   1.722   8.258  0.3004  0.8606 -3.9491
 5257SOL     OW27403   2.414   0.073  12.706 -0.4809  0.4162 -0.6042
 5257SOL    HW127404   2.508   0.052  12.710 -0.3999  0.6837 -1.0997
 5257SOL    HW227405   2.419   0.166  12.686  0.6133  0.6720  0.8888
 5258SOL     OW27406   3.314   1.644   4.103  0.2229  0.4029 -0.9510
 5258SOL    HW127407   3.311   1.739   4.089  0.2339  0.5622  0.1222
 5258SOL    HW227408   3.354   1.612   4.023  3.2173 -1.8916  1.4970
 5259SOL     OW27409   1.608   4.063   0.071 -0.1015 -0.1314 -0.1873
 5259SOL    HW127410   1.565   4.121   0.008 -0.5391  1.1259  1.2454
 5259SOL    HW227411   1.595   3.975   0.035  1.2621 -0.0143 -0.9707
 5260SOL     OW27412   4.210   4.270   0.811 -0.3673  0.4466 -0.3162
 5260SOL    HW127413   4.166   4.243   0.892  0.8045 -0.0569  0.1473
 5260SOL    HW227414   4.151   4.237   0.744  1.5193 -1.7117 -0.9189
 5261SOL     OW27415   1.322   1.266   4.184 -0.0089  0.7886 -0.6146
 5261SOL    HW127416   1.235   1.298   4.209  1.1256  2.7962  0.7551
 5261SOL    HW227417   1.328   1.182   4.229 -0.2591  0.7090 -0.7290
 5262SOL     OW27418   0.725   2.567   0.450  0.0118  0.2894 -0.1497
 5262SOL    HW127419   0.687   2.599   0.369  1.1824 -3.2745 -2.1098
 5262SOL    HW227420   0.817   2.583   0.428 -0.4942  1.1589 -1.5592
 5263SOL     OW27421   0.324   2.933  16.406 -0.1354 -0.4727  0.0162
 5263SOL    HW127422   0.261   2.864  16.424 -0.1260 -0.5068 -0.0849
 5263SOL    HW227423   0.358   2.911  16.320 -0.4210  0.2178 -0.2773
 5264SOL     OW27424   2.820   2.157   3.401  0.7266  0.1075 -1.0519
 5264SOL    HW127425   2.888   2.118   3.346  1.5061  0.2759 -0.2081
 5264SOL    HW227426   2.846   2.248   3.386 -2.0617  1.4618  2.3494
 5265SOL     OW27427   4.272   3.071  11.476 -0.0651  0.5239  0.3071
 5265SOL    HW127428   4.270   3.119  11.559  1.3299 -0.4388  0.9050
 5265SOL    HW227429   4.267   3.132  11.402 -0.5647  0.2011  0.0829
 5266SOL     OW27430   0.290   0.983  10.796  0.0602  0.2201 -0.0724
 5266SOL    HW127431   0.315   0.906  10.745  0.0564  0.0461  0.1873
 5266SOL    HW227432   0.197   0.981  10.775 -0.6169 -1.0708  3.0283
 5267SOL     OW27433   3.546   2.995   0.860 -0.1108 -0.3552 -0.0506
 5267SOL    HW127434   3.517   2.919   0.809  0.0969 -0.9755  0.7420
 5267SOL    HW227435   3.613   2.949   0.911 -1.2254 -1.7377  0.1552
 5268SOL     OW27436   4.578   3.915   5.016 -0.6514  0.0814 -0.1639
 5268SOL    HW127437   4.592   3.962   5.099  1.8442 -0.9240 -0.0059
 5268SOL    HW227438   4.528   3.843   5.055  1.1055 -0.3512  1.2972
 5269SOL     OW27439   4.521   4.026   3.921 -0.2302  0.8469 -0.5880
 5269SOL    HW127440   4.607   3.993   3.947 -0.6744 -0.9741 -1.3876
 5269SOL    HW227441   4.550   4.113   3.894 -1.2858  0.9221 -1.4717
 5270SOL     OW27442   4.442   3.858  15.118  0.4388  0.2540 -0.1944
 5270SOL    HW127443   4.476   3.922  15.055 -0.1309 -0.9427 -1.7302
 5270SOL    HW227444   4.491   3.878  15.198  1.1668 -2.5122  0.0282
 5271SOL     OW27445   0.386   2.362   8.133 -0.2849 -0.2995 -0.1160
 5271SOL    HW127446   0.393   2.279   8.085  0.7068 -0.1038 -0.3062
 5271SOL    HW227447   0.328   2.344   8.207  0.4033 -0.0592  0.4650
 5272SOL     OW27448   1.148   3.075   3.229  0.3359  0.2295 -0.0665
 5272SOL    HW127449   1.131   3.163   3.263  2.3816  0.2792  0.8381
 5272SOL    HW227450   1.220   3.044   3.284  2.7358  2.4515 -1.9643
 5273SOL     OW27451   1.768   0.152  11.665  0.0564 -0.2205  0.1298
 5273SOL    HW127452   1.844   0.195  11.627 -0.7156  0.0631 -1.1178
 5273SOL    HW227453   1.797   0.144  11.756  0.1604 -0.4426  0.0763
 5274SOL     OW27454   0.026   3.265   5.705  0.0584 -0.3361  0.0382
 5274SOL    HW127455   4.732   3.242   5.793 -1.8154  0.0240 -0.5132
 5274SOL    HW227456   0.119   3.249   5.718  0.3232  1.4328  0.3564
 5275SOL     OW27457   1.436   2.145   7.202 -0.6134  0.0172  0.4800
 5275SOL    HW127458   1.526   2.128   7.230 -1.2262 -0.6421  2.0457
 5275SOL    HW227459   1.447   2.240   7.191 -1.1642  0.0726  0.3851
 5276SOL     OW27460   4.443   1.385   7.519  0.4375 -0.0099 -0.2512
 5276SOL    HW127461   4.397   1.468   7.505 -0.7785 -0.3368  1.8400
 5276SOL    HW227462   4.519   1.404   7.464 -1.4143  2.6991 -1.8879
 5277SOL     OW27463   4.050   3.291   6.546 -0.0088 -0.6635  0.5561
 5277SOL    HW127464   4.124   3.237   6.518  1.0824  1.6921 -1.0640
 5277SOL    HW227465   4.087   3.379   6.540 -0.4478 -0.6260 -1.5585
 5278SOL     OW27466   3.885   1.408   8.642  0.7522  0.2156 -0.2739
 5278SOL    HW127467   3.837   1.337   8.598 -1.7109  0.9643  1.2111
 5278SOL    HW227468   3.862   1.485   8.590 -1.2006  0.6011  1.1577
 5279SOL     OW27469   4.051   1.118   4.027  0.0931  0.5033 -0.4752
 5279SOL    HW127470   4.091   1.198   3.994  2.2670 -1.2588 -2.1485
 5279SOL    HW227471   4.103   1.101   4.106  1.5230  0.7942 -1.3393
 5280SOL     OW27472   4.722   0.102   9.402 -0.4186  0.2482  0.1972
 5280SOL    HW127473   4.673   0.085   9.322  1.0950  1.5123 -0.9896
 5280SOL    HW227474   4.680   0.186   9.419  1.9719  1.8986 -2.1072
 5281SOL     OW27475   1.712   2.651   7.318  0.0545 -0.7537  0.0779
 5281SOL    HW127476   1.758   2.725   7.357 -0.2537 -1.1005  1.0825
 5281SOL    HW227477   1.721   2.653   7.222 -0.5550 -1.6926  0.0056
 5282SOL     OW27478   0.767   1.121   8.605  0.0605 -0.1746 -0.0312
 5282SOL    HW127479   0.800   1.188   8.546 -0.5097  0.5361  0.4715
 5282SOL    HW227480   0.802   1.146   8.690 -0.5740  1.3782 -0.2414
 5283SOL     OW27481   2.176   4.143   8.220 -0.4844 -0.0815 -0.0348
 5283SOL    HW127482   2.111   4.141   8.291  0.4611 -2.5694  0.7266
 5283SOL    HW227483   2.126   4.202   8.162  0.7876 -1.1600 -2.2400
 5284SOL     OW27484   3.313   3.027   3.910 -0.6415 -0.1007  0.1010
 5284SOL    HW127485   3.363   2.946   3.903  0.8854  0.7921  0.7056
 5284SOL    HW227486   3.292   3.041   3.817 -0.0858  1.7281  0.2459
 5285SOL     OW27487   4.453   2.932  15.149  0.3523  0.2980  0.2638
 5285SOL    HW127488   4.503   3.000  15.195 -0.1335  0.0956  1.0889
 5285SOL    HW227489   4.375   2.987  15.137  1.0590  1.5274  1.2803
 5286SOL     OW27490   2.477   3.056  10.315 -0.0162  0.5409 -0.3410
 5286SOL    HW127491   2.540   3.049  10.243  1.1793 -1.4241  0.9231
 5286SOL    HW227492   2.495   3.141  10.354 -0.1157  0.7654 -0.7812
 5287SOL     OW27493   3.246   4.555  12.114 -0.0758  0.1774  0.6783
 5287SOL    HW127494   3.339   4.548  12.133  0.2091  0.2030 -0.6737
 5287SOL    HW227495   3.234   4.558  12.019 -0.6759 -1.1701  0.6962
 5288SOL     OW27496   0.075   3.603   8.847  0.0465  0.4688  0.1413
 5288SOL    HW127497   0.139   3.668   8.877  0.7955  0.0469 -0.5721
 5288SOL    HW227498   4.731   3.648   8.876 -0.8404 -0.3016 -1.1392
 5289SOL     OW27499   2.048   4.595  17.356  0.3941 -0.2076 -0.1323
 5289SOL    HW127500   1.953   4.589  17.346  0.0978  0.1976  2.5632
 5289SOL    HW227501   2.060   4.586  17.450 -0.4480 -0.1981 -0.0190
 5290SOL     OW27502   4.222   0.997   7.085 -0.1980  0.2827 -0.6208
 5290SOL    HW127503   4.275   1.068   7.122 -2.8417  1.5139  0.7464
 5290SOL    HW227504   4.185   1.041   7.009  2.2239  0.5885 -1.6287
 5291SOL     OW27505   4.249   1.421   9.571 -0.1869  0.4752 -0.2531
 5291SOL    HW127506   4.318   1.370   9.613 -0.5359 -0.0629 -0.3291
 5291SOL    HW227507   4.276   1.511   9.591  0.2778  0.3474 -0.3064
 5292SOL     OW27508   1.083   0.993  15.441 -0.7499 -0.0219  0.0148
 5292SOL    HW127509   1.059   1.026  15.527 -1.3968  1.1450 -0.6033
 5292SOL    HW227510   1.167   0.953  15.463 -1.3426 -1.0240  0.4027
 5293SOL     OW27511   0.908   3.961  15.406  0.4270  0.1671  0.2994
 5293SOL    HW127512   1.001   3.971  15.386  0.4709  0.8973  0.8566
 5293SOL    HW227513   0.881   3.891  15.347 -0.0628  0.2441  0.4310
 5294SOL     OW27514   2.928   2.979  10.467 -0.3509 -0.0963  0.1726
 5294SOL    HW127515   2.867   2.926  10.517 -0.2260  1.8759  2.4218
 5294SOL    HW227516   2.948   3.044  10.534 -0.3285  1.7656 -1.6090
 5295SOL     OW27517   0.209   3.965   5.402  0.0643 -0.2472 -0.2999
 5295SOL    HW127518   0.241   3.877   5.383 -0.5635 -0.6392  0.4272
 5295SOL    HW227519   0.152   3.978   5.326 -1.9277  1.3476  1.4467
 5296SOL     OW27520   1.480   2.451   2.372 -0.2514 -0.0190  0.5301
 5296SOL    HW127521   1.544   2.403   2.425  1.0247 -1.4837 -2.3219
 5296SOL    HW227522   1.533   2.462   2.293  0.9097 -1.5667  1.0744
 5297SOL     OW27523   3.904   2.386   2.491 -0.0950 -0.0896  0.1564
 5297SOL    HW127524   3.891   2.318   2.558 -0.4290  0.1138  0.2991
 5297SOL    HW227525   3.999   2.392   2.500 -0.2368  0.7946  1.0426
 5298SOL     OW27526   2.321   4.140  11.615 -0.1267  0.2716  0.1762
 5298SOL    HW127527   2.346   4.192  11.538  1.6751  0.8707  1.1561
 5298SOL    HW227528   2.246   4.096  11.577  1.3304  0.3586 -2.7858
 5299SOL     OW27529   4.165   1.428   4.628  0.2469  0.8734  0.1453
 5299SOL    HW127530   4.260   1.418   4.634 -0.0456 -1.1924  1.2611
 5299SOL    HW227531   4.143   1.351   4.576  2.7380 -0.3070  0.8232
 5300SOL     OW27532   1.221   0.317   4.606 -0.6804  0.0847 -0.2671
 5300SOL    HW127533   1.269   0.341   4.685 -2.2672 -0.9478  1.0022
 5300SOL    HW227534   1.173   0.399   4.596 -2.2548 -0.9513 -1.2631
 5301SOL     OW27535   2.327   2.459   7.981  0.5756  0.2238  0.0269
 5301SOL    HW127536   2.297   2.527   7.921 -2.8425 -1.6937 -0.4623
 5301SOL    HW227537   2.402   2.505   8.016  1.6312 -2.3622  1.1682
 5302SOL     OW27538   1.056   0.822  16.229  0.2270 -0.2573 -0.3671
 5302SOL    HW127539   0.995   0.863  16.289  0.0139  0.2422 -0.9278
 5302SOL    HW227540   0.992   0.767  16.185 -1.3481  0.8388  0.5723
 5303SOL     OW27541   2.721   2.699  11.825  0.3523 -0.5286 -0.6646
 5303SOL    HW127542   2.637   2.655  11.842  0.5953  0.3479  2.5972
 5303SOL    HW227543   2.719   2.775  11.883 -2.2064  0.5745 -2.1479
 5304SOL     OW27544   3.415   1.175   2.332  0.0544 -0.2292 -0.1679
 5304SOL    HW127545   3.472   1.235   2.285  0.5072 -1.4499 -1.1691
 5304SOL    HW227546   3.477   1.124   2.384 -0.2436  1.8525  2.2459
 5305SOL     OW27547   2.471   2.699   8.075 -0.3686 -0.0750  0.0452
 5305SOL    HW127548   2.462   2.764   8.145 -0.9266 -1.7794  1.5458
 5305SOL    HW227549   2.497   2.755   8.001 -2.0440  0.3374 -0.2189
 5306SOL     OW27550   0.823   3.552   2.804  0.0416  0.3623 -0.3588
 5306SOL    HW127551   0.843   3.486   2.738  0.7447  0.2792 -0.0704
 5306SOL    HW227552   0.913   3.582   2.817 -0.4904  0.8055  2.2146
 5307SOL     OW27553   3.991   1.610   5.227  0.3432  0.8533 -0.1797
 5307SOL    HW127554   4.080   1.619   5.261  0.1997  3.2276 -0.4407
 5307SOL    HW227555   3.937   1.581   5.300  0.6482  0.8598  0.0459
 5308SOL     OW27556   2.706   3.883   7.306 -0.5841 -0.4424  0.4675
 5308SOL    HW127557   2.637   3.817   7.292 -1.2602  0.2711  0.4237
 5308SOL    HW227558   2.745   3.856   7.389 -2.2895 -1.2833  1.0116
 5309SOL     OW27559   1.380   2.467  11.747 -0.5882  0.1555 -0.7068
 5309SOL    HW127560   1.333   2.408  11.806 -0.9772  0.8696 -0.3014
 5309SOL    HW227561   1.411   2.405  11.681 -0.3286 -0.0562 -0.3826
 5310SOL     OW27562   3.869   4.383   4.415  0.2618  0.1282  0.1286
 5310SOL    HW127563   3.790   4.380   4.469 -0.3853  2.9119 -0.6490
 5310SOL    HW227564   3.909   4.463   4.448 -0.1086  0.4727 -0.2556
 5311SOL     OW27565   3.911   3.888  14.113  0.2479  0.0557 -0.1477
 5311SOL    HW127566   3.898   3.818  14.178  0.8496  1.4854  1.5032
 5311SOL    HW227567   3.920   3.832  14.036  0.8456 -0.0768  0.0147
 5312SOL     OW27568   0.881   4.448   6.842 -0.2099  0.2235 -0.1619
 5312SOL    HW127569   0.942   4.485   6.906  0.7528 -0.0613 -0.9177
 5312SOL    HW227570   0.897   4.356   6.859  1.3111  0.1423 -1.9237
 5313SOL     OW27571   2.142   3.222   9.025  0.0200  0.3648 -0.1332
 5313SOL    HW127572   2.047   3.225   9.021  0.0421 -2.2348 -2.8040
 5313SOL    HW227573   2.151   3.136   8.983  2.0745 -0.4568  1.9645
 5314SOL     OW27574   3.311   3.863   9.255 -0.1512  0.2752 -0.4282
 5314SOL    HW127575   3.374   3.866   9.183 -0.6916  1.7808 -0.8254
 5314SOL    HW227576   3.291   3.770   9.264  0.3594  0.0823 -1.2431
 5315SOL     OW27577   3.403   3.494  12.243 -0.1449 -0.3585 -0.4489
 5315SOL    HW127578   3.353   3.478  12.323  0.2735 -1.3796 -0.3857
 5315SOL    HW227579   3.407   3.405  12.206 -1.6992 -0.4412 -0.4193
 5316SOL     OW27580   1.546   1.202   1.641  0.1103  0.4380  0.2973
 5316SOL    HW127581   1.616   1.212   1.705  1.5912 -2.6607 -0.8333
 5316SOL    HW227582   1.550   1.278   1.583 -0.0841  1.3442  1.4640
 5317SOL     OW27583   3.269   2.800   1.387  0.1495 -0.3239 -0.0893
 5317SOL    HW127584   3.297   2.804   1.295 -0.7863 -1.3017 -0.4110
 5317SOL    HW227585   3.228   2.887   1.388 -0.7295 -0.7762  1.8743
 5318SOL     OW27586   0.513   2.928   4.252  0.1287  0.3718  0.4222
 5318SOL    HW127587   0.500   2.841   4.216 -0.5481  1.2923 -1.5493
 5318SOL    HW227588   0.422   2.950   4.274 -0.0618  0.6937 -0.7313
 5319SOL     OW27589   3.457   2.612   2.086  0.3403  0.7075 -0.5245
 5319SOL    HW127590   3.424   2.683   2.031  0.0222 -0.5045 -1.9101
 5319SOL    HW227591   3.469   2.538   2.026 -3.1864  0.1385 -0.5605
 5320SOL     OW27592   0.163   3.791   2.216  0.1760 -0.1795  0.4457
 5320SOL    HW127593   0.128   3.868   2.261  1.0520 -0.1063  1.0201
 5320SOL    HW227594   0.163   3.825   2.127  0.0148 -2.0895 -0.2953
 5321SOL     OW27595   0.040   1.588   8.571  0.1524  0.0908 -0.8342
 5321SOL    HW127596   0.075   1.676   8.562  0.2604  0.3734  2.4807
 5321SOL    HW227597   0.118   1.533   8.584  0.2888  0.3722 -0.4690
 5322SOL     OW27598   0.236   1.290   4.038  0.1464 -0.0592 -0.0693
 5322SOL    HW127599   0.159   1.234   4.043  1.0244 -1.3306 -0.5502
 5322SOL    HW227600   0.248   1.302   3.944  0.7047 -0.3205 -0.0344
 5323SOL     OW27601   2.398   3.073  12.946  0.4419  0.5742 -0.1378
 5323SOL    HW127602   2.311   3.075  12.987  0.2344 -1.4907 -0.4438
 5323SOL    HW227603   2.399   2.983  12.914  1.2969 -0.0903  1.7913
 5324SOL     OW27604   1.545   4.357  11.819  0.6198 -0.4776 -0.1296
 5324SOL    HW127605   1.616   4.297  11.800  0.0110 -1.1977 -0.1168
 5324SOL    HW227606   1.520   4.394  11.734 -2.6511  0.7273  1.3392
 5325SOL     OW27607   2.252   0.865   4.251 -0.3787  0.1302 -0.1244
 5325SOL    HW127608   2.314   0.793   4.241  1.5944  1.9293 -0.9491
 5325SOL    HW227609   2.295   0.906   4.326  0.8706 -1.0804 -0.1792
 5326SOL     OW27610   2.646   1.945   4.957  0.4418 -0.1484 -0.3509
 5326SOL    HW127611   2.701   2.011   5.000  0.1214  0.6715 -1.1726
 5326SOL    HW227612   2.710   1.875   4.963  0.7651  0.4237  2.6755
 5327SOL     OW27613   4.420   1.520   5.460 -0.0767 -0.5740 -0.4407
 5327SOL    HW127614   4.441   1.465   5.536  0.3833  0.6994  0.3612
 5327SOL    HW227615   4.326   1.505   5.452 -0.3111  0.2915  0.6315
 5328SOL     OW27616   2.498   3.835   5.447 -0.0515 -0.2022 -0.1886
 5328SOL    HW127617   2.438   3.843   5.520  2.4918  1.1689  1.7508
 5328SOL    HW227618   2.514   3.928   5.433  1.5224 -0.4011  0.1859
 5329SOL     OW27619   1.366   1.009   1.993 -0.2289 -0.3269  0.1962
 5329SOL    HW127620   1.334   0.996   2.083  0.8214 -3.7704  0.0854
 5329SOL    HW227621   1.458   1.028   2.010  0.0408 -1.8339  0.4105
 5330SOL     OW27622   2.355   2.677   7.484  0.3169  0.3702 -0.4884
 5330SOL    HW127623   2.306   2.703   7.406 -2.2250  0.3778  1.1199
 5330SOL    HW227624   2.316   2.594   7.511  1.5244  0.6179  2.0598
 5331SOL     OW27625   3.005   4.403   8.096  0.4665 -0.0911 -0.8898
 5331SOL    HW127626   3.024   4.471   8.161  1.5690 -0.0168 -1.3045
 5331SOL    HW227627   3.091   4.379   8.063  2.0446  2.1189  1.6459
 5332SOL     OW27628   1.034   4.357   0.887  0.8707  0.1054  0.1227
 5332SOL    HW127629   1.115   4.397   0.916  1.7920 -1.6438 -0.0226
 5332SOL    HW227630   0.987   4.439   0.872 -2.2142 -1.7220 -0.4173
 5333SOL     OW27631   2.444   0.604  14.228  0.3346 -0.8528 -0.0561
 5333SOL    HW127632   2.385   0.540  14.269 -0.2182 -0.3916 -0.1381
 5333SOL    HW227633   2.484   0.653  14.300  0.4842 -1.5866  0.3669
 5334SOL     OW27634   0.258   0.227   8.744 -0.2264 -0.5182  0.1045
 5334SOL    HW127635   0.190   0.166   8.772 -1.3618  1.0440  0.7299
 5334SOL    HW227636   0.248   0.304   8.799 -2.3767 -1.1014  0.5500
 5335SOL     OW27637   0.788   3.710   4.910 -0.3036 -0.2710  0.3750
 5335SOL    HW127638   0.853   3.762   4.958  1.5165 -0.2381 -2.1127
 5335SOL    HW227639   0.763   3.655   4.984  1.5834  1.6364  2.4426
 5336SOL     OW27640   3.660   0.219   3.197 -0.5897  0.1351 -0.5140
 5336SOL    HW127641   3.589   0.203   3.259  0.1138  0.0557  0.2518
 5336SOL    HW227642   3.728   0.261   3.248 -1.0295  0.2054  0.0096
 5337SOL     OW27643   3.020   2.580  10.448  0.4412  0.0526 -0.2660
 5337SOL    HW127644   2.963   2.607  10.376 -0.8753  0.2523  0.8560
 5337SOL    HW227645   2.950   2.545  10.504 -0.5779  3.0458  0.3457
 5338SOL     OW27646   2.638   1.410   1.335 -0.5642 -0.5876 -0.0187
 5338SOL    HW127647   2.709   1.471   1.317 -0.1486 -1.5397 -1.6436
 5338SOL    HW227648   2.664   1.376   1.420 -0.2580  1.0275  0.5248
 5339SOL     OW27649   3.824   3.719   4.830  0.1737 -0.0878  0.5331
 5339SOL    HW127650   3.839   3.777   4.905  1.5440  0.4705 -0.1776
 5339SOL    HW227651   3.783   3.644   4.873  1.7350 -0.3657  1.5484
 5340SOL     OW27652   2.636   0.286   6.723  0.5244  0.7059 -0.1056
 5340SOL    HW127653   2.544   0.298   6.744 -0.2186 -1.7321 -1.9227
 5340SOL    HW227654   2.664   0.376   6.710  1.4956  0.1444 -1.9674
 5341SOL     OW27655   2.171   4.512   2.896  0.0834  0.1863  0.1773
 5341SOL    HW127656   2.151   4.426   2.858  1.6231 -0.1236  0.0954
 5341SOL    HW227657   2.090   4.535   2.942  0.4959  0.4533  0.7749
 5342SOL     OW27658   2.069   1.844  10.542 -0.6193 -0.4502 -0.0483
 5342SOL    HW127659   2.013   1.921  10.551  2.5311  1.9228 -1.1109
 5342SOL    HW227660   2.036   1.786  10.611 -1.1142 -0.2055 -0.0829
 5343SOL     OW27661   0.711   4.011   7.881 -0.8402  0.5433  0.5949
 5343SOL    HW127662   0.736   3.919   7.870 -1.1466  0.7379 -1.7142
 5343SOL    HW227663   0.620   4.005   7.852 -0.7673  0.5507  0.3612
 5344SOL     OW27664   2.573   4.479  14.899  0.2897 -0.3825  0.0478
 5344SOL    HW127665   2.582   4.560  14.848 -0.8800  0.2536  0.8353
 5344SOL    HW227666   2.480   4.464  14.881  0.2679  1.1346 -1.1416
 5345SOL     OW27667   3.028   3.142   6.927  0.2506 -0.0970  0.6729
 5345SOL    HW127668   3.013   3.232   6.900 -3.5448 -0.9758 -0.1214
 5345SOL    HW227669   3.002   3.088   6.852 -0.4627  1.5827 -0.2701
 5346SOL     OW27670   3.544   4.214   4.942 -0.4233  0.0988  0.2828
 5346SOL    HW127671   3.489   4.172   5.009  3.1701 -1.7726  2.0700
 5346SOL    HW227672   3.584   4.286   4.991  1.5247 -0.8544  0.0724
 5347SOL     OW27673   0.246   3.890   7.415 -0.0382 -0.3905 -0.4698
 5347SOL    HW127674   0.245   3.985   7.400 -1.6853 -0.2100  0.8478
 5347SOL    HW227675   0.253   3.853   7.327 -0.7311 -1.4228 -0.0857
 5348SOL     OW27676   2.217   1.623   7.346 -0.0529 -0.9323  0.4943
 5348SOL    HW127677   2.311   1.606   7.349  0.6321  2.9769  0.4646
 5348SOL    HW227678   2.198   1.700   7.400 -1.5567 -0.1429 -1.1675
 5349SOL     OW27679   3.093   1.979   3.096 -0.3766  0.0513  0.4774
 5349SOL    HW127680   3.020   2.039   3.110 -1.5150 -0.9623 -1.1381
 5349SOL    HW227681   3.039   1.901   3.087 -0.5299  0.3061 -0.7703
 5350SOL     OW27682   4.211   3.481   2.566 -0.5516  0.3092  0.4245
 5350SOL    HW127683   4.215   3.415   2.497  1.4622 -0.0058  0.8390
 5350SOL    HW227684   4.285   3.539   2.547 -1.4929  1.7566  1.1597
 5351SOL     OW27685   0.443   1.851  15.285 -0.4255 -0.2158  0.3128
 5351SOL    HW127686   0.419   1.865  15.376 -2.3559 -1.7538  0.0551
 5351SOL    HW227687   0.538   1.867  15.285 -0.0644 -2.3138  0.0636
 5352SOL     OW27688   3.006   2.617   2.522  0.0096  0.1198 -0.1711
 5352SOL    HW127689   3.098   2.603   2.546 -0.2817  0.8965  1.4062
 5352SOL    HW227690   2.970   2.555   2.585 -1.8096  1.7730  0.4284
 5353SOL     OW27691   2.817   4.147  12.020 -1.0971 -0.3302 -0.0034
 5353SOL    HW127692   2.908   4.123  12.033 -0.7605  1.2249  0.5888
 5353SOL    HW227693   2.820   4.237  12.052  2.1487 -0.8607  1.1919
 5354SOL     OW27694   0.404   3.145   6.795  0.2551  0.7899  0.0525
 5354SOL    HW127695   0.478   3.113   6.848 -2.7473 -0.6890  3.3323
 5354SOL    HW227696   0.399   3.083   6.722 -1.9072 -0.0838  0.9471
 5355SOL     OW27697   2.682   3.908  13.516 -0.2892 -0.1894  0.2464
 5355SOL    HW127698   2.638   3.958  13.585  0.5812 -0.4458  0.9784
 5355SOL    HW227699   2.710   3.978  13.458  0.4162 -1.6216 -1.1524
 5356SOL     OW27700   0.337   4.012   6.987  0.2298  0.3237  0.3464
 5356SOL    HW127701   0.358   4.102   6.963 -1.0652  1.2395  2.6541
 5356SOL    HW227702   0.243   4.030   6.980  0.5093  1.1279 -1.3121
 5357SOL     OW27703   4.508   0.225  13.185  0.5891  0.1667  0.4611
 5357SOL    HW127704   4.549   0.305  13.153 -2.3803  1.2654 -0.6270
 5357SOL    HW227705   4.555   0.151  13.147  1.6853 -0.3335  2.8112
 5358SOL     OW27706   3.033   2.727   8.646  0.2176  0.6612 -0.1230
 5358SOL    HW127707   3.117   2.748   8.686 -0.6460  2.2672  0.8601
 5358SOL    HW227708   2.988   2.687   8.721  0.3482  1.5425  0.4228
 5359SOL     OW27709   3.745   1.090  16.994  0.1179  0.3288  0.1688
 5359SOL    HW127710   3.676   1.152  16.972  0.0507  0.6902  1.4301
 5359SOL    HW227711   3.680   1.019  16.997 -2.6949  2.8765  0.1541
 5360SOL     OW27712   2.589   2.471   7.626 -0.2683  0.0745 -0.0101
 5360SOL    HW127713   2.598   2.565   7.642  1.3386  0.2349 -1.9426
 5360SOL    HW227714   2.627   2.471   7.538  0.1567 -0.0785  0.1729
 5361SOL     OW27715   2.093   3.547   3.392  0.2321 -0.4028 -0.3448
 5361SOL    HW127716   2.096   3.576   3.484 -4.2584 -2.8051  0.5263
 5361SOL    HW227717   2.097   3.630   3.344 -1.6416 -0.1874 -0.1128
 5362SOL     OW27718   4.574   4.432   2.998  0.3277  0.1067  0.7657
 5362SOL    HW127719   4.497   4.422   3.055  0.3541 -0.6661  0.6596
 5362SOL    HW227720   4.557   4.506   2.939 -1.0566 -2.5196 -2.0998
 5363SOL     OW27721   3.038   0.791  13.001 -0.6182  0.4233  0.4988
 5363SOL    HW127722   2.977   0.824  13.067 -1.1643  3.3382 -1.4634
 5363SOL    HW227723   3.124   0.811  13.037 -0.5160  1.4502 -0.3050
 5364SOL     OW27724   3.605   0.128   3.986  0.1694 -0.0549  0.7090
 5364SOL    HW127725   3.630   0.045   4.027  1.6746 -0.3282 -0.7468
 5364SOL    HW227726   3.615   0.097   3.897 -4.5243  0.6756 -0.0661
 5365SOL     OW27727   3.404   4.283   3.438  0.1541  0.1332 -0.0711
 5365SOL    HW127728   3.442   4.354   3.489  0.2289  1.8132 -2.4895
 5365SOL    HW227729   3.311   4.297   3.453  0.4700  0.1282  1.8723
 5366SOL     OW27730   4.596   4.515   6.098 -0.2642 -0.3722  0.4232
 5366SOL    HW127731   4.562   4.452   6.162 -2.2980  1.6992  1.3752
 5366SOL    HW227732   4.543   4.499   6.020  0.8100  2.7498 -0.9511
 5367SOL     OW27733   4.028   3.225  12.628  0.3387 -0.2629 -0.0247
 5367SOL    HW127734   4.057   3.315  12.619  1.5148 -0.6019  0.4006
 5367SOL    HW227735   3.961   3.233  12.696  2.0642  1.0079  1.5157
 5368SOL     OW27736   1.495   0.366  15.445 -0.1330  0.9478  0.3497
 5368SOL    HW127737   1.540   0.374  15.361 -0.3870  0.1260  0.1288
 5368SOL    HW227738   1.571   0.359  15.502  0.3589 -3.6598 -0.8201
 5369SOL     OW27739   3.172   2.361   1.292 -0.4850 -0.4186 -0.0575
 5369SOL    HW127740   3.160   2.267   1.306 -1.8147 -0.3702 -0.8875
 5369SOL    HW227741   3.248   2.359   1.234 -0.2721 -0.2448  0.2152
 5370SOL     OW27742   0.060   4.725   4.915 -0.1177  0.0026 -0.1961
 5370SOL    HW127743   4.734   4.700   4.847  0.9175  0.4348 -1.3094
 5370SOL    HW227744   0.025   4.672   4.987 -2.4892  2.4554  0.4391
 5371SOL     OW27745   2.544   4.474  16.341 -0.1053  0.0452  1.0436
 5371SOL    HW127746   2.614   4.434  16.290 -1.3192 -0.2805 -0.4015
 5371SOL    HW227747   2.582   4.559  16.357  0.4128  0.0281 -0.0675
 5372SOL     OW27748   4.416   1.364   3.853 -0.0671  0.1833 -0.3000
 5372SOL    HW127749   4.394   1.273   3.834 -0.3595 -0.1443  1.6454
 5372SOL    HW227750   4.410   1.401   3.765 -1.4172 -0.7105 -0.5831
 5373SOL     OW27751   4.404   3.656   1.934 -0.3136 -0.5382 -0.4660
 5373SOL    HW127752   4.386   3.665   1.840 -1.0204 -2.7757 -0.5525
 5373SOL    HW227753   4.464   3.729   1.951 -0.4864 -1.0381  2.2731
 5374SOL     OW27754   2.579   3.499   3.288  0.7279  0.1362 -0.5903
 5374SOL    HW127755   2.503   3.445   3.310  0.4921  0.6342 -0.1846
 5374SOL    HW227756   2.532   3.573   3.250 -1.2373 -0.9292 -0.2823
 5375SOL     OW27757   1.611   4.558   6.386  0.4359 -0.1328 -0.0546
 5375SOL    HW127758   1.679   4.611   6.428  0.6326 -0.7677  0.4343
 5375SOL    HW227759   1.612   4.610   6.306  0.6318 -1.5611 -0.9896
 5376SOL     OW27760   4.408   0.166   4.154  0.3232  0.5039 -0.1498
 5376SOL    HW127761   4.364   0.246   4.126  0.8031  0.1251 -1.9285
 5376SOL    HW227762   4.470   0.189   4.224  0.6768  1.8513 -0.9195
 5377SOL     OW27763   2.401   2.746   5.062  0.0573  0.0974 -0.4454
 5377SOL    HW127764   2.390   2.757   4.967 -0.2889 -0.4178 -0.4673
 5377SOL    HW227765   2.373   2.831   5.097 -2.7446 -0.3324 -1.6504
 5378SOL     OW27766   3.437   0.674  17.143 -1.1869  0.4001 -0.0799
 5378SOL    HW127767   3.467   0.704  17.229  1.2930  2.4769 -1.6952
 5378SOL    HW227768   3.451   0.580  17.148  1.1119  0.7365 -0.3120
 5379SOL     OW27769   4.090   4.030   8.359  0.3556  0.6390 -0.1276
 5379SOL    HW127770   3.997   4.031   8.381  0.6760  1.4200  1.2015
 5379SOL    HW227771   4.112   4.124   8.360 -0.3002  0.8411 -3.3845
 5380SOL     OW27772   2.349   3.628   5.297  0.4402 -0.3973  0.5309
 5380SOL    HW127773   2.355   3.639   5.202  1.7066  1.6808  0.8465
 5380SOL    HW227774   2.422   3.677   5.334  0.2160  0.3936 -0.0907
 5381SOL     OW27775   2.376   1.841  10.858  0.5503  0.5213 -0.1318
 5381SOL    HW127776   2.444   1.782  10.889  2.3192  2.9017  0.5814
 5381SOL    HW227777   2.422   1.921  10.833  0.7912  1.2700  2.6315
 5382SOL     OW27778   0.772   0.278  15.666  0.4938  0.4510 -0.4392
 5382SOL    HW127779   0.692   0.257  15.713 -0.5450  2.4392 -1.3391
 5382SOL    HW227780   0.748   0.366  15.637  1.1647  0.4334 -1.0561
 5383SOL     OW27781   3.672   1.731   6.800  0.3730  0.1874  0.0830
 5383SOL    HW127782   3.585   1.754   6.770  1.3083 -0.7223 -3.2972
 5383SOL    HW227783   3.692   1.812   6.846 -0.7337  0.5749 -0.1210
 5384SOL     OW27784   2.788   0.199   6.131  0.1357 -0.2847  0.2529
 5384SOL    HW127785   2.698   0.226   6.151  0.1230  0.3687 -0.6612
 5384SOL    HW227786   2.784   0.104   6.137  1.4222 -0.5213 -2.3642
 5385SOL     OW27787   0.095   3.428  14.662  0.8089 -0.5594  0.4845
 5385SOL    HW127788   0.064   3.359  14.721 -0.3137 -0.2372  0.2699
 5385SOL    HW227789   0.184   3.447  14.693  0.1907 -0.2003  2.0511
 5386SOL     OW27790   2.835   3.881   4.324 -0.2727  0.1790 -0.1368
 5386SOL    HW127791   2.739   3.885   4.330 -0.3095 -1.8000  0.6145
 5386SOL    HW227792   2.851   3.787   4.315  3.2289  0.8983 -1.2238
 5387SOL     OW27793   4.075   4.456  12.224 -0.2166  0.2545 -0.0670
 5387SOL    HW127794   4.138   4.430  12.157 -0.1946 -0.2429  0.1424
 5387SOL    HW227795   4.110   4.538  12.258 -1.0063  1.1855 -1.5337
 5388SOL     OW27796   1.776   3.836   5.684 -0.1776 -0.2775 -0.2233
 5388SOL    HW127797   1.832   3.866   5.612  0.5153 -0.5738  0.1933
 5388SOL    HW227798   1.691   3.859   5.646 -0.7502 -1.6016  0.2796
 5389SOL     OW27799   2.675   1.407   7.333 -0.1122 -0.0672 -0.0588
 5389SOL    HW127800   2.753   1.428   7.384 -0.6722  0.4623  0.5674
 5389SOL    HW227801   2.712   1.358   7.259  2.5115 -0.5527  1.5575
 5390SOL     OW27802   3.356   4.080   5.168 -0.7444  0.3590  0.4717
 5390SOL    HW127803   3.448   4.059   5.184 -0.8269 -1.1695 -1.0425
 5390SOL    HW227804   3.312   4.000   5.139 -1.6204  1.5211 -1.3912
 5391SOL     OW27805   1.701   0.413   1.897 -0.8192 -0.3840  0.2895
 5391SOL    HW127806   1.610   0.440   1.887 -0.2270  1.1193 -1.0649
 5391SOL    HW227807   1.710   0.456   1.982 -0.1112 -0.9964  0.5210
 5392SOL     OW27808   2.285   1.329   5.088  0.2572 -0.3296 -0.2749
 5392SOL    HW127809   2.238   1.258   5.130 -0.0123  0.8374  1.4263
 5392SOL    HW227810   2.370   1.317   5.132  0.0387 -0.2939  0.1579
 5393SOL     OW27811   0.408   3.327  16.395  0.0374 -0.0498  0.1886
 5393SOL    HW127812   0.490   3.306  16.440 -0.0691  1.9003  1.2939
 5393SOL    HW227813   0.340   3.304  16.459 -0.0379  1.9022  0.8160
 5394SOL     OW27814   1.982   4.267   4.823 -0.5391  0.6854  0.1375
 5394SOL    HW127815   1.958   4.338   4.883  1.6200  1.2895  0.2933
 5394SOL    HW227816   2.037   4.216   4.883 -1.1588  0.5293  0.5659
 5395SOL     OW27817   4.533   0.696   1.632 -0.3117  0.8403 -0.2260
 5395SOL    HW127818   4.470   0.715   1.562 -2.0557 -2.3188  0.4921
 5395SOL    HW227819   4.563   0.786   1.648  3.4907 -0.3067 -0.8701
 5396SOL     OW27820   3.200   4.540   6.336  0.1842  0.5015 -0.1071
 5396SOL    HW127821   3.235   4.566   6.251 -1.3687 -0.1045 -0.9266
 5396SOL    HW227822   3.117   4.505   6.304  0.6131 -0.9305  0.3335
 5397SOL     OW27823   1.715   2.093   5.659  0.6447  0.2868  0.3012
 5397SOL    HW127824   1.706   2.079   5.753  0.0694  0.0533  0.2088
 5397SOL    HW227825   1.642   2.038   5.630 -1.3690  3.3064 -0.3357
 5398SOL     OW27826   2.754   2.236  15.649  1.0673  0.3298 -0.5890
 5398SOL    HW127827   2.671   2.279  15.669  1.1498  1.3211 -2.3219
 5398SOL    HW227828   2.722   2.184  15.574  2.9615 -0.3464 -0.9311
 5399SOL     OW27829   2.292   4.325   4.099 -0.2785  0.5495  0.8470
 5399SOL    HW127830   2.271   4.389   4.167 -1.6287  1.1056 -0.0743
 5399SOL    HW227831   2.245   4.357   4.022  0.0439 -1.3373 -0.1347
 5400SOL     OW27832   0.520   0.337   7.783  0.5354  0.2022  0.5644
 5400SOL    HW127833   0.545   0.266   7.843 -0.9888 -0.0500  0.9006
 5400SOL    HW227834   0.556   0.408   7.835  0.0754  0.7409  0.1363
 5401SOL     OW27835   0.834   3.623   4.655  0.7471 -0.2391 -0.0276
 5401SOL    HW127836   0.818   3.650   4.745 -1.3084 -0.6551 -0.2704
 5401SOL    HW227837   0.753   3.644   4.608  0.8923  3.5118  1.4280
 5402SOL     OW27838   0.519   4.629   5.748 -0.0184  0.6925 -0.0740
 5402SOL    HW127839   0.462   4.604   5.821  1.4375  1.1939  1.2344
 5402SOL    HW227840   0.604   4.642   5.790  0.6849  0.0746 -1.3160
 5403SOL     OW27841   1.657   0.285  10.651  0.1829  0.2392  0.0287
 5403SOL    HW127842   1.590   0.227  10.686 -0.3965 -0.0460 -1.5697
 5403SOL    HW227843   1.723   0.279  10.720  0.5973  1.5930 -0.2513
 5404SOL     OW27844   4.237   2.939   8.469 -0.4206 -0.3612 -0.0141
 5404SOL    HW127845   4.208   2.903   8.553  0.1757  1.0141  0.7794
 5404SOL    HW227846   4.167   3.001   8.445 -2.9432 -3.3873 -0.4570
 5405SOL     OW27847   0.250   0.525  12.359 -0.7224  0.2240  0.0321
 5405SOL    HW127848   0.314   0.458  12.336  0.2389  1.5558 -1.1778
 5405SOL    HW227849   0.271   0.591  12.292  0.9154  0.5546  0.8760
 5406SOL     OW27850   1.401   4.102   9.490 -0.0625 -0.5581 -0.3742
 5406SOL    HW127851   1.416   4.190   9.525 -0.5128 -0.0125 -1.5492
 5406SOL    HW227852   1.443   4.098   9.404  2.6665 -0.4381  0.9394
 5407SOL     OW27853   2.755   3.337   6.635 -0.0402  0.0913 -0.5679
 5407SOL    HW127854   2.777   3.254   6.678 -0.2237  0.9768  1.2482
 5407SOL    HW227855   2.722   3.308   6.550  0.5926  0.2060 -0.8484
 5408SOL     OW27856   1.610   4.094   7.344 -0.0207  0.3318 -0.7621
 5408SOL    HW127857   1.524   4.124   7.315 -0.7891 -1.6785 -0.5707
 5408SOL    HW227858   1.589   4.091   7.438  2.1002 -1.5780 -0.3600
 5409SOL     OW27859   1.555   2.500   2.838 -0.2560  0.3583 -0.3377
 5409SOL    HW127860   1.475   2.448   2.843  1.2809 -1.7741  2.2486
 5409SOL    HW227861   1.569   2.525   2.929 -1.0494  0.0751 -0.1400
 5410SOL     OW27862   2.557   2.172   0.072  0.2286  0.3481 -0.0887
 5410SOL    HW127863   2.522   2.240   0.014 -1.2030 -0.8985 -0.6893
 5410SOL    HW227864   2.619   2.130   0.013  0.6405  0.0719  0.5452
 5411SOL     OW27865   3.554   0.280   1.821  0.8577  0.1614  0.6028
 5411SOL    HW127866   3.568   0.204   1.765  0.3218  0.5936 -0.1214
 5411SOL    HW227867   3.525   0.238   1.902  1.6206 -3.8737 -1.2689
 5412SOL     OW27868   4.096   4.678  10.095 -0.5473 -0.0607 -0.2156
 5412SOL    HW127869   4.085   4.584  10.111 -0.7986 -0.0297 -0.2173
 5412SOL    HW227870   4.192   4.673  10.095 -0.4116  2.8330 -1.9494
 5413SOL     OW27871   1.443   3.559   1.473 -0.7352  0.0838  0.1937
 5413SOL    HW127872   1.358   3.545   1.431  0.1980 -0.5240 -1.5035
 5413SOL    HW227873   1.453   3.654   1.458 -0.8510  0.1840  0.7731
 5414SOL     OW27874   4.346   1.504   7.028 -0.0262 -0.3374 -0.0218
 5414SOL    HW127875   4.434   1.539   7.039 -0.3889  0.7302 -0.4374
 5414SOL    HW227876   4.297   1.574   7.073 -0.1829  1.1123 -2.4762
 5415SOL     OW27877   4.277   3.646   8.330 -0.2152  0.2526 -0.6787
 5415SOL    HW127878   4.298   3.612   8.242  1.6622 -3.7000  1.2932
 5415SOL    HW227879   4.291   3.570   8.386 -0.2553  2.8627  2.8639
 5416SOL     OW27880   1.856   3.952   5.448 -0.0531  0.0663  0.4881
 5416SOL    HW127881   1.852   3.905   5.364 -1.1204 -0.0136  0.5786
 5416SOL    HW227882   1.818   4.039   5.436  0.9296  0.2571 -1.2332
 5417SOL     OW27883   2.299   2.283   2.280 -0.5426 -0.2010  0.5892
 5417SOL    HW127884   2.243   2.227   2.334  0.5278 -2.0617 -0.2756
 5417SOL    HW227885   2.341   2.223   2.219 -0.8329  0.5048 -0.3035
 5418SOL     OW27886   4.455   2.009  15.207  0.2321  0.2240  0.1141
 5418SOL    HW127887   4.447   1.914  15.203  0.4714  0.1071  2.3498
 5418SOL    HW227888   4.429   2.012  15.115 -2.0660  0.3884  0.7604
 5419SOL     OW27889   1.071   1.938   1.429  0.2409 -0.2886  0.6675
 5419SOL    HW127890   0.988   1.895   1.451 -0.4445  1.9452  2.4212
 5419SOL    HW227891   1.119   1.866   1.388 -0.9970 -1.2033  0.7853
 5420SOL     OW27892   4.319   3.189   8.354  0.6533 -0.3384 -0.0068
 5420SOL    HW127893   4.362   3.138   8.423  1.6196  2.9102  1.7850
 5420SOL    HW227894   4.227   3.166   8.372  0.9275 -0.8601  0.7322
 5421SOL     OW27895   1.729   4.456   3.167  0.2145  0.2638  0.2593
 5421SOL    HW127896   1.670   4.385   3.193 -1.3691  1.4675 -0.0678
 5421SOL    HW227897   1.685   4.531   3.207 -0.4673  1.2932 -2.4624
 5422SOL     OW27898   2.804   1.332   9.700  0.4531  0.1007  0.1123
 5422SOL    HW127899   2.889   1.290   9.693  0.3157 -0.3932  1.4912
 5422SOL    HW227900   2.813   1.418   9.659  3.3217  0.0844  0.7366
 5423SOL     OW27901   4.355   2.405   7.130 -0.0957  0.7862  0.2461
 5423SOL    HW127902   4.447   2.431   7.135  0.5952 -1.9583  1.4148
 5423SOL    HW227903   4.344   2.422   7.037  2.3178  0.2208 -0.1287
 5424SOL     OW27904   3.539   2.151   5.174  0.1029  0.4983  0.2499
 5424SOL    HW127905   3.579   2.224   5.222  1.9044 -1.7437  2.1541
 5424SOL    HW227906   3.549   2.188   5.086  1.4202 -0.8888 -0.1919
 5425SOL     OW27907   4.379   3.919   7.459 -0.0022  0.5452 -0.3336
 5425SOL    HW127908   4.378   3.996   7.403 -1.9142 -0.5243 -1.7582
 5425SOL    HW227909   4.306   3.875   7.416  0.4840 -1.9267  1.3715
 5426SOL     OW27910   0.372   0.687   8.666 -0.5089  0.3702 -0.1436
 5426SOL    HW127911   0.297   0.627   8.666  0.5497 -0.9952 -1.5965
 5426SOL    HW227912   0.388   0.695   8.572  0.5442  0.8193  0.0823
 5427SOL     OW27913   0.173   2.662   8.366 -0.4777 -0.0446 -0.0317
 5427SOL    HW127914   0.223   2.609   8.429 -0.6522 -0.9210 -0.6410
 5427SOL    HW227915   0.196   2.638   8.276 -1.8045  1.7417 -0.8460
 5428SOL     OW27916   4.328   1.148   4.832  0.0794  0.5550  0.1212
 5428SOL    HW127917   4.383   1.173   4.906  2.5497 -1.1190 -1.1793
 5428SOL    HW227918   4.333   1.227   4.779  0.9204  1.2943  1.3161
 5429SOL     OW27919   2.898   3.285   7.234  0.1916  0.3683  0.0813
 5429SOL    HW127920   2.901   3.367   7.185  3.6888 -0.0139 -0.3608
 5429SOL    HW227921   2.839   3.319   7.301  0.9560  1.3968  0.2310
 5430SOL     OW27922   1.704   3.764   6.711 -0.2006 -0.1143  0.0158
 5430SOL    HW127923   1.771   3.815   6.756  0.4419 -0.0705 -0.9884
 5430SOL    HW227924   1.651   3.743   6.788  0.4129 -0.4821  0.3356
 5431SOL     OW27925   0.599   4.141   3.209 -0.1634 -0.4139  0.4472
 5431SOL    HW127926   0.638   4.195   3.140 -0.7479 -0.1882  0.2867
 5431SOL    HW227927   0.598   4.189   3.291  2.6539  2.5470 -1.2638
 5432SOL     OW27928   1.008   0.188  15.750  0.1696  0.3254  0.5751
 5432SOL    HW127929   1.024   0.276  15.783 -1.1480  0.7760 -0.0038
 5432SOL    HW227930   0.917   0.195  15.721  0.3892 -1.8018 -0.6423
 5433SOL     OW27931   4.057   1.056  12.833 -0.1914  0.0812  0.2996
 5433SOL    HW127932   3.991   1.105  12.881 -0.7130  2.3071 -2.6853
 5433SOL    HW227933   4.130   1.069  12.893 -1.1432  0.1026  1.4311
 5434SOL     OW27934   0.515   3.957   3.774  0.3326 -0.4917 -0.4349
 5434SOL    HW127935   0.477   3.979   3.688  1.6551 -1.1536 -1.1833
 5434SOL    HW227936   0.591   3.908   3.741  1.5434  0.5103  0.8741
 5435SOL     OW27937   0.646   2.995   4.661  0.2641 -0.3099 -0.6638
 5435SOL    HW127938   0.738   2.971   4.678  0.4570 -0.3003 -1.6746
 5435SOL    HW227939   0.637   3.062   4.729  2.2027 -0.2645 -0.4462
 5436SOL     OW27940   0.289   3.724  15.608 -0.3942 -0.3363  0.2230
 5436SOL    HW127941   0.235   3.681  15.541 -0.3281  1.8333 -1.2217
 5436SOL    HW227942   0.242   3.696  15.686  1.2986  1.8486  2.0168
 5437SOL     OW27943   0.795   0.714  16.250  0.6305 -0.3062  0.0211
 5437SOL    HW127944   0.734   0.642  16.266 -0.1007  0.0845 -0.9930
 5437SOL    HW227945   0.803   0.751  16.338 -1.6192  0.4405 -0.0888
 5438SOL     OW27946   3.626   1.693  16.046  0.2930  0.3215  0.3412
 5438SOL    HW127947   3.698   1.650  16.000 -0.3105  0.3337 -0.5996
 5438SOL    HW227948   3.569   1.695  15.970  1.7489 -0.6636 -0.7672
 5439SOL     OW27949   0.784   3.813  14.162 -0.2483 -0.2669  0.2795
 5439SOL    HW127950   0.692   3.806  14.136 -0.1609 -3.1547  0.7240
 5439SOL    HW227951   0.809   3.899  14.128  1.5247 -1.3419 -1.1921
 5440SOL     OW27952   4.436   2.803   1.494 -0.5996 -0.5429  0.1334
 5440SOL    HW127953   4.367   2.737   1.502 -1.2191  0.1332  0.3012
 5440SOL    HW227954   4.484   2.767   1.419  2.1575 -1.8132  2.5253
 5441SOL     OW27955   0.297   1.789   4.343  0.1559  0.4547  0.4174
 5441SOL    HW127956   0.242   1.815   4.269  0.7823  2.1428  0.5555
 5441SOL    HW227957   0.372   1.842   4.316 -1.4802  1.9616 -1.2003
 5442SOL     OW27958   3.812   0.536   2.985  0.1563  0.4746  0.3956
 5442SOL    HW127959   3.737   0.592   3.003  2.0360  2.1964  2.8826
 5442SOL    HW227960   3.867   0.541   3.064 -0.3262  1.0425  0.6933
 5443SOL     OW27961   2.939   4.696  11.933  0.2033 -0.2343  0.1667
 5443SOL    HW127962   2.969   4.693  11.841  1.3804  1.4434  0.4965
 5443SOL    HW227963   3.004   0.009  11.982  0.6367  2.7550 -3.3896
 5444SOL     OW27964   2.558   2.341  11.652 -0.2692 -0.0177  0.2740
 5444SOL    HW127965   2.473   2.309  11.682 -0.2487  1.7811  2.2587
 5444SOL    HW227966   2.564   2.410  11.719 -0.5959 -1.0315  1.3444
 5445SOL     OW27967   0.141   1.455  10.002 -0.1802 -0.4817  0.3753
 5445SOL    HW127968   0.198   1.489   9.933 -1.0828  0.8110  0.2696
 5445SOL    HW227969   0.208   1.434  10.068  0.8106 -0.8254 -0.7348
 5446SOL     OW27970   3.225   3.573  13.649  0.2406 -0.3323  0.4759
 5446SOL    HW127971   3.166   3.554  13.722  0.6919 -1.2695  0.5846
 5446SOL    HW227972   3.231   3.669  13.647  0.7673 -0.3886 -0.7817
 5447SOL     OW27973   1.219   0.599   5.761 -0.2502 -0.3469 -0.2272
 5447SOL    HW127974   1.259   0.515   5.783 -1.7023 -0.6060  1.4122
 5447SOL    HW227975   1.279   0.662   5.801 -0.6717 -0.0967  0.0086
 5448SOL     OW27976   1.866   2.128  15.102 -0.2013  0.3073  0.3951
 5448SOL    HW127977   1.802   2.134  15.031  2.5126  0.0272 -2.0566
 5448SOL    HW227978   1.927   2.060  15.075 -0.9084 -0.9615  2.0121
 5449SOL     OW27979   2.450   1.696   3.030  1.4300 -0.4302 -0.5167
 5449SOL    HW127980   2.383   1.659   2.971 -0.8802  0.8199  1.3545
 5449SOL    HW227981   2.522   1.647   2.989  0.1457 -2.2306 -0.6412
 5450SOL     OW27982   2.283   1.402   3.318  0.2184  0.0501  0.2365
 5450SOL    HW127983   2.271   1.489   3.355  0.9872 -0.5528  1.8948
 5450SOL    HW227984   2.347   1.360   3.374 -0.6570 -1.2639  0.2550
 5451SOL     OW27985   1.961   3.163   7.239  0.3876  0.2119 -0.3854
 5451SOL    HW127986   1.963   3.258   7.231 -1.8237  0.3155  0.1722
 5451SOL    HW227987   1.881   3.151   7.290 -0.7147  1.6952 -1.7377
 5452SOL     OW27988   4.430   4.220   3.176  0.4528  0.3533 -0.1566
 5452SOL    HW127989   4.362   4.153   3.165  1.6273 -1.3500  2.9730
 5452SOL    HW227990   4.512   4.175   3.152  0.5049  0.4327 -0.1266
 5453SOL     OW27991   0.381   4.438   2.683 -0.1935 -0.0009  0.1626
 5453SOL    HW127992   0.411   4.371   2.622 -0.5974 -1.8971  2.0693
 5453SOL    HW227993   0.408   4.516   2.633  0.5458 -0.7583 -0.6199
 5454SOL     OW27994   3.050   4.038   4.376  0.3158 -0.2112 -0.2117
 5454SOL    HW127995   3.048   4.034   4.472 -1.7413  2.5320 -0.1524
 5454SOL    HW227996   2.959   4.017   4.356  0.1000 -1.7359  2.3823
 5455SOL     OW27997   3.684   2.165   1.026 -0.0084 -0.0110 -0.7198
 5455SOL    HW127998   3.772   2.201   1.037 -0.7160  1.6702 -0.5622
 5455SOL    HW227999   3.670   2.139   0.935  1.4958 -2.1632 -0.3372
 5456SOL     OW28000   0.419   0.855   2.185 -0.2904 -0.0101  0.3653
 5456SOL    HW128001   0.388   0.885   2.271 -2.1347 -0.7561 -0.0560
 5456SOL    HW228002   0.360   0.890   2.119 -0.1509  0.2550  0.3782
 5457SOL     OW28003   0.345   0.949   6.265 -0.2438 -0.3136  0.1862
 5457SOL    HW128004   0.409   0.994   6.320  0.6283 -1.1006 -0.1856
 5457SOL    HW228005   0.358   0.860   6.297 -1.7803 -0.5698  0.0832
 5458SOL     OW28006   3.066   2.638  17.599 -0.1809 -0.3469 -0.1835
 5458SOL    HW128007   3.003   2.691  17.648 -1.1189  0.1828 -1.9674
 5458SOL    HW228008   3.051   2.556  17.645  1.1986 -1.6726 -2.1184
 5459SOL     OW28009   0.982   3.332   2.374  0.1025 -0.5140  0.1825
 5459SOL    HW128010   0.917   3.266   2.352  0.6174 -1.8968  2.7148
 5459SOL    HW228011   0.933   3.408   2.345  3.6913  1.6709 -0.2281
 5460SOL     OW28012   1.539   0.191   0.700  0.2339  0.4093  0.3259
 5460SOL    HW128013   1.596   0.135   0.647  1.0420  2.3190 -0.7930
 5460SOL    HW228014   1.605   0.234   0.754  1.3552 -3.1154  1.7843
 5461SOL     OW28015   0.308   0.412   7.957  0.1877  0.3005 -0.2183
 5461SOL    HW128016   0.257   0.475   7.906  1.1720  0.0021 -1.6065
 5461SOL    HW228017   0.343   0.351   7.891 -1.1805  0.6924 -1.3132
 5462SOL     OW28018   2.453   1.383   2.435 -0.1993  0.4006  0.0735
 5462SOL    HW128019   2.526   1.351   2.382 -1.5735 -1.4908 -0.6460
 5462SOL    HW228020   2.389   1.313   2.425 -0.2345  0.5062 -0.4043
 5463SOL     OW28021   3.409   0.301   6.304 -0.2130 -0.2657 -0.0014
 5463SOL    HW128022   3.377   0.215   6.328  0.7630 -0.8842 -0.9258
 5463SOL    HW228023   3.336   0.325   6.246 -0.4439  1.2558  0.9281
 5464SOL     OW28024   1.505   1.304   2.508 -0.0730  0.3131 -0.0226
 5464SOL    HW128025   1.432   1.312   2.569 -0.0748  0.3747 -0.0328
 5464SOL    HW228026   1.555   1.385   2.514  0.7491 -0.2133  0.2681
 5465SOL     OW28027   2.829   2.373   0.033 -0.1148 -0.7330 -0.3228
 5465SOL    HW128028   2.922   2.369   0.008  0.0208  0.3258  0.0317
 5465SOL    HW228029   2.840   2.317   0.110  0.8417  0.5695  0.4852
 5466SOL     OW28030   1.578   0.860   2.519 -0.0257 -0.2760  0.3162
 5466SOL    HW128031   1.557   0.794   2.585 -2.8110  0.1117 -0.1669
 5466SOL    HW228032   1.537   0.939   2.555 -0.4369 -0.1959 -0.3219
 5467SOL     OW28033   4.249   2.225   1.157  0.6714 -0.0363 -0.2376
 5467SOL    HW128034   4.228   2.263   1.242  1.3431  0.6704 -0.3878
 5467SOL    HW228035   4.325   2.279   1.134 -0.9198  2.2441 -0.2036
 5468SOL     OW28036   0.944   1.984   5.608  0.0607  0.2012  0.2771
 5468SOL    HW128037   1.028   2.020   5.636  0.9604 -1.0902 -0.7505
 5468SOL    HW228038   0.883   2.055   5.627  0.6106  0.1607  2.2344
 5469SOL     OW28039   1.892   2.682   3.711 -0.0346  0.2143  0.0056
 5469SOL    HW128040   1.821   2.632   3.672  0.6777 -0.2377 -0.7059
 5469SOL    HW228041   1.953   2.676   3.638  0.1388 -0.8816  0.2447
 5470SOL     OW28042   1.965   2.613   0.921  0.3214 -0.1070  0.0746
 5470SOL    HW128043   1.966   2.706   0.901  0.6699  0.5669  3.2099
 5470SOL    HW228044   2.029   2.575   0.860  1.7160  0.9159  0.8876
 5471SOL     OW28045   4.644   1.936   5.457 -0.3638  0.3346  0.3336
 5471SOL    HW128046   4.582   1.961   5.527 -1.7562 -1.4060 -0.2833
 5471SOL    HW228047   4.589   1.884   5.399 -1.5648  1.3249  0.5645
 5472SOL     OW28048   4.097   3.147   3.514 -0.0542  0.4180 -0.1405
 5472SOL    HW128049   4.068   3.234   3.543 -1.2140 -0.6628  1.9069
 5472SOL    HW228050   4.009   3.114   3.534  0.0834  0.3571  0.3478
 5473SOL     OW28051   2.925   3.458   1.960  0.2363  0.2317 -0.2144
 5473SOL    HW128052   2.934   3.403   2.038 -0.7462  0.8179  0.3118
 5473SOL    HW228053   2.912   3.398   1.887 -1.9131  1.5914 -0.9546
 5474SOL     OW28054   1.382   2.598  11.308 -0.3125  0.4272  0.2285
 5474SOL    HW128055   1.369   2.640  11.393 -2.4450 -2.6505  1.4491
 5474SOL    HW228056   1.330   2.650  11.247 -0.0150  1.4293  0.8396
 5475SOL     OW28057   0.406   1.794   5.278  0.3530  0.3160 -0.4537
 5475SOL    HW128058   0.464   1.728   5.317 -1.5586  0.6631  2.9837
 5475SOL    HW228059   0.328   1.783   5.331  1.4391  1.2016  1.3548
 5476SOL     OW28060   4.663   3.351   4.519 -0.5584 -0.1429  1.1419
 5476SOL    HW128061   4.612   3.408   4.462  0.7887  0.1185  0.1976
 5476SOL    HW228062   4.610   3.272   4.517  0.8620 -1.1237  1.7202
 5477SOL     OW28063   2.495   2.980   0.690  0.0284 -0.3409 -0.3180
 5477SOL    HW128064   2.427   3.038   0.725  0.2481 -0.9035  1.0523
 5477SOL    HW228065   2.572   3.037   0.703 -0.3192 -0.0543  0.5345
 5478SOL     OW28066   3.669   1.350   2.317  0.2773 -0.1190  0.4024
 5478SOL    HW128067   3.640   1.364   2.407 -0.8704  1.8354 -0.2713
 5478SOL    HW228068   3.734   1.285   2.344  0.5686  0.7779  1.8631
 5479SOL     OW28069   4.411   3.376  16.292  0.1895 -0.0640  0.3831
 5479SOL    HW128070   4.339   3.376  16.355 -0.7169 -0.3835 -0.6454
 5479SOL    HW228071   4.395   3.306  16.228  2.7334 -1.6019  1.4180
 5480SOL     OW28072   2.121   2.909   1.595 -0.0888  0.3172 -0.1200
 5480SOL    HW128073   2.202   2.890   1.549  1.3447 -0.1199  2.6371
 5480SOL    HW228074   2.056   2.907   1.524 -1.1020 -0.4864  0.8408
 5481SOL     OW28075   2.458   0.559  13.779 -0.9485 -0.1143 -0.4269
 5481SOL    HW128076   2.434   0.638  13.826 -0.1103  0.4385 -0.9340
 5481SOL    HW228077   2.370   0.521  13.785 -0.6279 -1.0829 -1.8723
 5482SOL     OW28078   0.543   3.013   7.457  0.0409 -0.6635  0.1316
 5482SOL    HW128079   0.554   2.946   7.389  0.6956 -0.8302  0.4030
 5482SOL    HW228080   0.630   3.014   7.497 -0.6786  0.5147  1.6585
 5483SOL     OW28081   0.031   2.218   9.629  0.1018 -0.3062  0.1419
 5483SOL    HW128082   4.727   2.171   9.556 -0.2344  3.5395 -2.1849
 5483SOL    HW228083   0.030   2.153   9.700  1.0980 -1.6074 -1.0557
 5484SOL     OW28084   3.778   4.192   4.134  0.6875 -0.3779 -0.2172
 5484SOL    HW128085   3.693   4.207   4.093  0.2063  0.9919  1.3004
 5484SOL    HW228086   3.832   4.149   4.067 -2.4750 -2.5821 -1.3688
 5485SOL     OW28087   0.272   3.553   1.711  0.2545 -0.3819 -0.3875
 5485SOL    HW128088   0.205   3.545   1.642 -1.6725  2.0836  1.2180
 5485SOL    HW228089   0.233   3.622   1.764  2.3134  0.2721  0.2684
 5486SOL     OW28090   3.445   4.000  10.343 -0.3910 -0.2626  0.0365
 5486SOL    HW128091   3.419   3.987  10.252  0.5665  3.5071 -0.7710
 5486SOL    HW228092   3.475   4.090  10.332 -0.8475 -0.0174  0.8031
 5487SOL     OW28093   4.145   1.833  14.533  0.3558  0.6776  0.2829
 5487SOL    HW128094   4.172   1.751  14.491  0.5821  0.8290  0.1338
 5487SOL    HW228095   4.217   1.888  14.501 -0.1300 -0.3688 -2.5766
 5488SOL     OW28096   2.922   4.102  13.042 -0.5571  0.2870  0.2122
 5488SOL    HW128097   2.973   4.052  12.979  0.0249  1.9559 -0.6670
 5488SOL    HW228098   2.977   4.078  13.116  1.0386  0.9219 -0.7713
 5489SOL     OW28099   0.562   2.001   6.185  0.0087 -0.5498 -0.3807
 5489SOL    HW128100   0.564   1.992   6.090  1.8533  0.5351 -0.4407
 5489SOL    HW228101   0.598   2.089   6.193 -0.9997 -0.0939 -0.8842
 5490SOL     OW28102   4.207   3.580   0.705 -0.2238  0.1950  0.6300
 5490SOL    HW128103   4.153   3.578   0.626 -0.0535  1.5736  0.4876
 5490SOL    HW228104   4.208   3.673   0.725 -1.9803  0.0864  1.2027
 5491SOL     OW28105   1.783   2.490   7.636 -0.0991 -0.0878  0.0887
 5491SOL    HW128106   1.745   2.435   7.705 -1.4405  1.0797  0.2844
 5491SOL    HW228107   1.703   2.521   7.592 -0.0001  1.0851  0.7488
 5492SOL     OW28108   0.380   2.935   4.879 -0.3593 -0.1944  0.0744
 5492SOL    HW128109   0.375   3.018   4.832  0.4129 -1.1833 -1.7593
 5492SOL    HW228110   0.474   2.925   4.891 -0.2874 -0.2383 -0.5279
 5493SOL     OW28111   4.121   1.704   5.959  0.2255  0.3839 -0.6080
 5493SOL    HW128112   4.091   1.794   5.943 -0.1866  0.6673  1.7590
 5493SOL    HW228113   4.037   1.670   5.989  0.3623 -1.1180 -1.8985
 5494SOL     OW28114   2.660   1.291   5.073  0.4570 -0.0295  0.4647
 5494SOL    HW128115   2.666   1.319   4.982  0.2389 -1.1941  0.0986
 5494SOL    HW228116   2.627   1.369   5.118 -0.2244 -1.0846  1.7894
 5495SOL     OW28117   0.770   1.353   3.199 -0.1973  0.0942  0.3040
 5495SOL    HW128118   0.782   1.290   3.128  1.0762 -0.0360  0.6394
 5495SOL    HW228119   0.707   1.417   3.165 -0.5425 -0.1911  0.3986
 5496SOL     OW28120   3.391   1.798  13.574 -0.1706 -0.1390 -0.0595
 5496SOL    HW128121   3.345   1.732  13.626 -1.8236 -0.2563 -1.6639
 5496SOL    HW228122   3.425   1.737  13.509  3.3049  1.1577  0.5249
 5497SOL     OW28123   2.821   1.305   2.550  0.5705  0.1213  0.3970
 5497SOL    HW128124   2.877   1.230   2.566  0.5743  0.2587  1.0259
 5497SOL    HW228125   2.761   1.298   2.624 -1.6120  1.2686 -1.2529
 5498SOL     OW28126   1.844   1.712  13.960 -0.3344 -0.2873  0.2537
 5498SOL    HW128127   1.775   1.650  13.935 -0.2566 -0.2365 -0.0744
 5498SOL    HW228128   1.888   1.719  13.876 -0.8757  3.8685  0.3427
 5499SOL     OW28129   0.796   0.695   9.303  0.8308 -0.3658  0.2153
 5499SOL    HW128130   0.767   0.732   9.387 -1.4131  1.1811 -1.2304
 5499SOL    HW228131   0.711   0.687   9.260  0.4191  1.1510  0.7043
 5500SOL     OW28132   0.006   1.108   9.253  0.4247 -0.3880  0.0620
 5500SOL    HW128133   4.689   1.074   9.180  1.8561 -0.0630 -1.1392
 5500SOL    HW228134   0.017   1.024   9.297 -0.0172  1.4798  3.7139
 5501SOL     OW28135   4.148   3.792  10.124  0.6761  0.2906  0.5344
 5501SOL    HW128136   4.065   3.759  10.091 -0.5222  2.1521  1.6681
 5501SOL    HW228137   4.110   3.876  10.151  1.7291  0.3373  1.8543
 5502SOL     OW28138   4.447   2.406  15.734  0.1118 -0.5941 -0.2659
 5502SOL    HW128139   4.442   2.442  15.645  1.3784 -3.0387 -1.3268
 5502SOL    HW228140   4.390   2.330  15.733 -1.1963  0.4207 -2.0184
 5503SOL     OW28141   0.583   4.717  14.695 -0.0752  0.7032 -0.0212
 5503SOL    HW128142   0.584   0.076  14.695 -0.8815  0.6943  2.1784
 5503SOL    HW228143   0.666   4.692  14.736 -0.8627  0.1856  1.2541
 5504SOL     OW28144   2.730   4.515   6.221 -0.1771  0.1747  0.1411
 5504SOL    HW128145   2.638   4.499   6.240  0.1363  0.0760  1.5865
 5504SOL    HW228146   2.722   4.553   6.133  0.0832 -0.9567 -0.3614
 5505SOL     OW28147   3.968   0.706   1.843 -0.3022 -0.2672  0.7617
 5505SOL    HW128148   3.880   0.680   1.817 -0.7581  1.0704  0.9491
 5505SOL    HW228149   3.961   0.795   1.878  0.6629  0.4144 -0.7638
 5506SOL     OW28150   2.408   0.472   7.404 -0.1336 -0.5780 -0.1941
 5506SOL    HW128151   2.416   0.555   7.452 -0.7905 -0.6894  0.1098
 5506SOL    HW228152   2.313   0.467   7.394 -0.1817 -1.2278  0.6023
 5507SOL     OW28153   3.653   0.923   2.143  0.0086 -0.6515  0.5966
 5507SOL    HW128154   3.661   0.864   2.068 -0.6859  1.1637 -0.8872
 5507SOL    HW228155   3.694   1.001   2.108 -0.3435 -0.1455  1.3187
 5508SOL     OW28156   2.184   4.071  16.416  0.2773  0.6354  0.2991
 5508SOL    HW128157   2.174   4.154  16.369 -0.7396  0.3578  0.0145
 5508SOL    HW228158   2.100   4.074  16.462  0.2687  1.2356  0.2384
 5509SOL     OW28159   4.312   4.295  11.216  0.4151  0.6361 -0.1898
 5509SOL    HW128160   4.392   4.326  11.174  0.9928 -0.9996 -0.3093
 5509SOL    HW228161   4.306   4.328  11.306 -0.7692  1.9299 -0.7524
 5510SOL     OW28162   3.251   1.426   9.896 -0.3361 -0.1996  0.0741
 5510SOL    HW128163   3.343   1.406   9.882  0.3567 -0.8924  5.6283
 5510SOL    HW228164   3.220   1.437   9.806 -1.0931  0.2277  0.3833
 5511SOL     OW28165   3.455   0.859   8.436  0.2027 -0.3760  0.2770
 5511SOL    HW128166   3.443   0.783   8.379 -0.7367 -0.5709  0.7353
 5511SOL    HW228167   3.506   0.819   8.507  0.2737 -0.8923 -0.0619
 5512SOL     OW28168   1.525   2.687   9.484  0.0405  0.0272  0.0516
 5512SOL    HW128169   1.546   2.599   9.453  2.2261 -0.6684  3.5986
 5512SOL    HW228170   1.552   2.686   9.575 -0.8007  2.4964  0.3261
 5513SOL     OW28171   0.568   4.109  12.856  0.4246 -0.2183  0.0372
 5513SOL    HW128172   0.652   4.063  12.856  0.5802  0.0574 -1.5128
 5513SOL    HW228173   0.567   4.147  12.943 -1.2150  0.1358 -0.1311
 5514SOL     OW28174   2.260   2.629  16.846  0.3213  0.3372  0.3775
 5514SOL    HW128175   2.331   2.571  16.819  1.0381  0.7641  1.3535
 5514SOL    HW228176   2.213   2.647  16.764  1.9495 -0.6380 -0.7810
 5515SOL     OW28177   0.778   2.076   2.066  0.2679 -0.1868 -0.1795
 5515SOL    HW128178   0.774   2.061   1.971 -0.3582 -0.7780 -0.0569
 5515SOL    HW228179   0.873   2.085   2.079  0.3795 -1.7863  0.1193
 5516SOL     OW28180   0.042   1.795   2.329  0.0763  0.1809  0.7160
 5516SOL    HW128181   4.713   1.864   2.326  1.1687  1.1358 -0.9131
 5516SOL    HW228182   0.013   1.735   2.260 -0.4842  1.2971 -0.0103
 5517SOL     OW28183   1.711   4.478  13.377 -0.0718 -0.1155  0.2876
 5517SOL    HW128184   1.622   4.508  13.362 -0.1876 -0.5579  0.1054
 5517SOL    HW228185   1.692   4.392  13.414  1.3533 -0.6699 -0.2743
 5518SOL     OW28186   2.189   3.412  13.444 -0.1970 -0.1084 -0.0863
 5518SOL    HW128187   2.262   3.410  13.382 -0.2160  0.5255 -0.1296
 5518SOL    HW228188   2.224   3.368  13.522  0.1163  0.0547 -0.1347
 5519SOL     OW28189   3.993   2.309   4.351  0.4298 -0.3946 -0.8339
 5519SOL    HW128190   4.078   2.265   4.355  0.3578 -0.3741  0.8519
 5519SOL    HW228191   3.937   2.232   4.336 -1.3614  0.7826 -0.2044
 5520SOL     OW28192   2.575   1.319   1.896  0.2561  0.1740  0.2602
 5520SOL    HW128193   2.515   1.245   1.907 -1.0277  1.3173  0.9130
 5520SOL    HW228194   2.632   1.305   1.972 -0.8601  0.2220  1.1083
 5521SOL     OW28195   1.056   0.610   6.641 -0.4439  0.2541 -0.5527
 5521SOL    HW128196   1.019   0.554   6.708 -0.2605 -0.3449 -0.9488
 5521SOL    HW228197   1.028   0.570   6.559 -1.1848 -2.1841  0.9033
 5522SOL     OW28198   3.840   0.334   4.899  0.0460  0.2780 -0.1392
 5522SOL    HW128199   3.768   0.274   4.881 -0.6806  1.3580 -0.8282
 5522SOL    HW228200   3.816   0.383   4.978 -0.4941  2.1525 -1.4608
 5523SOL     OW28201   0.282   3.706   8.296 -0.1240  0.1485 -0.4194
 5523SOL    HW128202   0.290   3.657   8.215  0.1964 -1.1637  0.3951
 5523SOL    HW228203   0.333   3.785   8.280  1.2254 -0.6626 -0.1527
 5524SOL     OW28204   0.912   2.623   2.833 -0.0995  0.6668  0.0017
 5524SOL    HW128205   0.999   2.656   2.856 -0.0498 -0.2312  1.1269
 5524SOL    HW228206   0.868   2.705   2.855 -1.0600 -0.4749  2.3841
 5525SOL     OW28207   0.841   4.140  14.701  0.1744  0.2505 -0.0266
 5525SOL    HW128208   0.912   4.187  14.744 -0.1385  0.1763  0.5631
 5525SOL    HW228209   0.783   4.214  14.681 -0.4517 -0.2359 -0.0309
 5526SOL     OW28210   1.643   4.663   7.972 -0.2977  0.1892  0.1543
 5526SOL    HW128211   1.621   0.006   7.924 -1.3490 -0.6209 -0.7128
 5526SOL    HW228212   1.638   4.601   7.899  1.4651  1.2962 -0.9021
 5527SOL     OW28213   2.456   3.678   3.823 -0.4586 -0.2196  0.4388
 5527SOL    HW128214   2.411   3.594   3.812 -0.2325 -0.3911  0.8087
 5527SOL    HW228215   2.534   3.672   3.767 -0.7525 -1.3990  0.1511
 5528SOL     OW28216   1.916   4.319   1.324  0.3609 -0.1231 -0.5965
 5528SOL    HW128217   1.971   4.380   1.373 -0.5641  0.0140  0.2617
 5528SOL    HW228218   1.977   4.273   1.267 -0.8438 -0.9122 -1.2584
 5529SOL     OW28219   2.077   3.257   8.338 -0.3079 -0.2311 -0.7010
 5529SOL    HW128220   1.999   3.267   8.393  0.9701 -1.9833  1.4321
 5529SOL    HW228221   2.073   3.163   8.324  3.2937 -0.3655 -0.9539
 5530SOL     OW28222   3.202   3.625  16.342 -0.4587  0.1872  0.0585
 5530SOL    HW128223   3.200   3.696  16.406  1.2326 -1.9127  2.4880
 5530SOL    HW228224   3.175   3.669  16.262  0.1468  2.2401  0.9906
 5531SOL     OW28225   1.942   3.728   2.612  0.2751  0.3217 -0.2079
 5531SOL    HW128226   2.029   3.730   2.571  0.8437  0.4290  0.9957
 5531SOL    HW228227   1.892   3.704   2.535 -1.0841  0.0080  0.7646
 5532SOL     OW28228   1.768   3.465   8.028  1.0275  0.1259  0.0634
 5532SOL    HW128229   1.783   3.480   7.935  1.4566 -2.6248 -0.3000
 5532SOL    HW228230   1.860   3.464   8.058  0.5648 -1.9013  1.3941
 5533SOL     OW28231   2.289   2.317   9.027  0.1256  0.2587 -0.9591
 5533SOL    HW128232   2.282   2.267   9.108 -0.3102  1.8184 -0.0372
 5533SOL    HW228233   2.224   2.268   8.976 -1.2048  0.2693  0.7213
 5534SOL     OW28234   2.366   2.382  15.916 -0.2481 -0.4327 -0.0702
 5534SOL    HW128235   2.379   2.335  15.998  3.1120 -2.4410 -1.7737
 5534SOL    HW228236   2.360   2.473  15.944  2.7846 -0.0530 -0.6068
 5535SOL     OW28237   1.167   3.978   9.001 -0.7459  0.0361 -0.0569
 5535SOL    HW128238   1.072   3.981   9.013 -0.8532 -0.9457 -0.7131
 5535SOL    HW228239   1.176   4.073   9.016 -1.7758  0.2671 -0.9510
 5536SOL     OW28240   1.779   3.524   8.534  0.0459 -0.3677  0.4435
 5536SOL    HW128241   1.822   3.605   8.562 -1.3609 -0.0443  1.7378
 5536SOL    HW228242   1.708   3.561   8.481  0.7111 -1.2418 -1.0495
 5537SOL     OW28243   4.243   1.386   6.792 -0.2282  0.6057  0.5296
 5537SOL    HW128244   4.178   1.321   6.816  0.4415 -0.1375  0.3254
 5537SOL    HW228245   4.290   1.402   6.874  3.5410  0.1176 -1.5414
 5538SOL     OW28246   1.955   4.408   7.150  0.0044  0.4303 -0.5060
 5538SOL    HW128247   1.970   4.321   7.112  3.6944  0.6285  0.4305
 5538SOL    HW228248   1.899   4.390   7.225  1.1676 -0.7495  0.0967
 5539SOL     OW28249   2.965   2.835   8.144 -0.0546  0.0162  0.3485
 5539SOL    HW128250   3.023   2.774   8.100  0.0097 -1.4904  2.5391
 5539SOL    HW228251   2.992   2.833   8.236  1.3922  0.3099 -0.0722
 5540SOL     OW28252   2.876   1.372   9.334 -0.1745  0.2884  0.1512
 5540SOL    HW128253   2.901   1.309   9.402  0.0974 -0.0596 -0.2735
 5540SOL    HW228254   2.832   1.441   9.385  0.8332  0.8698  0.2378
 5541SOL     OW28255   2.127   2.923   2.041  0.4184 -0.2031 -0.0622
 5541SOL    HW128256   2.203   2.937   2.098  1.3541  0.0553 -1.3766
 5541SOL    HW228257   2.054   2.964   2.087  0.0496 -1.1784  0.2264
 5542SOL     OW28258   1.422   1.701   3.151  0.2106  0.6026  0.3204
 5542SOL    HW128259   1.383   1.788   3.152  0.3885  0.6936 -0.4519
 5542SOL    HW228260   1.433   1.676   3.059  1.0342 -1.9345  1.1095
 5543SOL     OW28261   1.632   1.517   2.597  0.3747  0.1178  0.2637
 5543SOL    HW128262   1.601   1.607   2.600  0.1268  0.0629 -0.4901
 5543SOL    HW228263   1.724   1.528   2.574  0.5104  1.0252  1.2438
 5544SOL     OW28264   0.376   1.308   0.543  0.6803  0.4940 -0.3050
 5544SOL    HW128265   0.384   1.269   0.456 -0.5330  0.4329 -0.3875
 5544SOL    HW228266   0.280   1.306   0.539  0.6031  2.4960  0.7534
 5545SOL     OW28267   0.434   1.700   1.210  0.2566 -0.3589 -0.0724
 5545SOL    HW128268   0.525   1.675   1.225  0.0995 -0.4711  0.6757
 5545SOL    HW228269   0.399   1.630   1.155  0.4033 -0.5722  0.1090
 5546SOL     OW28270   2.280   0.266  13.802 -0.2292 -0.1757 -0.5829
 5546SOL    HW128271   2.241   0.348  13.773 -1.6209 -0.3753  0.6869
 5546SOL    HW228272   2.237   0.213  13.735  0.7237 -1.2108 -0.3656
 5547SOL     OW28273   4.193   2.494   5.138 -0.5231 -0.2094 -0.0612
 5547SOL    HW128274   4.268   2.518   5.191 -0.5292  1.2895 -0.7297
 5547SOL    HW228275   4.231   2.495   5.050  0.1943  0.9004  0.2718
 5548SOL     OW28276   3.968   1.748   8.759  0.1344  0.2275 -0.0252
 5548SOL    HW128277   3.915   1.810   8.710 -0.0996 -0.9364 -1.2259
 5548SOL    HW228278   3.909   1.679   8.792  1.7694 -0.7728  0.8254
 5549SOL     OW28279   4.708   3.753  16.552 -0.0743 -0.0071 -0.1275
 5549SOL    HW128280   4.660   3.670  16.553  1.1148 -0.7325 -3.6704
 5549SOL    HW228281   0.057   3.720  16.582 -0.2767 -1.8537 -1.5921
 5550SOL     OW28282   1.883   1.210   1.962  0.3185 -0.0537  0.6452
 5550SOL    HW128283   1.850   1.297   1.943  1.3768  0.7447  2.4076
 5550SOL    HW228284   1.855   1.211   2.054 -3.0035 -0.2341 -0.3609
 5551SOL     OW28285   3.144   4.271   8.334 -0.4788 -0.0079  0.3572
 5551SOL    HW128286   3.071   4.258   8.274  1.0368  0.2869 -1.5492
 5551SOL    HW228287   3.104   4.263   8.421 -0.6799 -1.2765  0.1425
 5552SOL     OW28288   3.233   4.587   4.990 -0.3348  0.5371 -0.4287
 5552SOL    HW128289   3.253   4.501   5.025 -2.3719  0.4924  0.6558
 5552SOL    HW228290   3.149   4.569   4.948 -0.1272 -2.6791  0.5235
 5553SOL     OW28291   1.999   2.872   0.838  0.2825 -0.1638 -0.1744
 5553SOL    HW128292   2.058   2.884   0.764  1.6843  1.9092  1.2772
 5553SOL    HW228293   2.056   2.904   0.908 -2.7994  2.0755  1.3186
 5554SOL     OW28294   2.293   2.509   3.589 -0.5156  0.0048 -0.5240
 5554SOL    HW128295   2.257   2.483   3.673 -0.8198  1.8659 -0.0773
 5554SOL    HW228296   2.385   2.534   3.599 -0.3503 -1.3938  1.2196
 5555SOL     OW28297   0.112   3.550   4.205 -0.5858  0.1629 -0.2552
 5555SOL    HW128298   0.191   3.600   4.225 -0.1695 -0.6564  0.1910
 5555SOL    HW228299   0.037   3.608   4.215  2.2557  3.7447  0.4407
 5556SOL     OW28300   0.299   0.788   9.306 -0.4118 -0.2189  0.0496
 5556SOL    HW128301   0.333   0.849   9.240 -2.3037 -1.2636 -1.8964
 5556SOL    HW228302   0.369   0.724   9.316  2.2257  2.8768  1.5746
 5557SOL     OW28303   2.874   2.098   8.585 -0.5137  0.0870  0.4175
 5557SOL    HW128304   2.809   2.071   8.649 -1.1378 -1.4169 -0.8355
 5557SOL    HW228305   2.945   2.103   8.648 -0.5318 -2.0544  0.6365
 5558SOL     OW28306   2.762   1.499   5.342 -0.5260  0.4070  0.0094
 5558SOL    HW128307   2.830   1.435   5.361  0.1189  0.3011 -2.5426
 5558SOL    HW228308   2.687   1.446   5.366  1.0234 -1.7348  0.1478
 5559SOL     OW28309   3.229   3.829   5.164 -0.4354  0.5195  0.0829
 5559SOL    HW128310   3.138   3.842   5.137 -0.2774 -1.3734 -1.3674
 5559SOL    HW228311   3.240   3.736   5.141 -3.1511  0.1590  0.2641
 5560SOL     OW28312   0.534   3.518   9.430  0.5531 -0.0564  0.0957
 5560SOL    HW128313   0.534   3.526   9.334 -1.8085 -2.1855 -0.0979
 5560SOL    HW228314   0.507   3.426   9.427  2.0931 -0.4123 -2.9811
 5561SOL     OW28315   4.542   4.686   3.313 -0.1967  0.1671  0.3030
 5561SOL    HW128316   4.518   4.607   3.361 -0.7103  0.4213  0.4715
 5561SOL    HW228317   4.458   4.699   3.268  0.7856  0.2450 -1.4995
 5562SOL     OW28318   0.163   0.738  11.239 -0.9394  0.8257  0.4840
 5562SOL    HW128319   0.234   0.782  11.192  0.3106 -0.3620  1.2789
 5562SOL    HW228320   0.141   0.678  11.168  1.6470  0.0965  0.3015
 5563SOL     OW28321   0.046   0.353   9.109  0.7487  0.1826  0.0404
 5563SOL    HW128322   0.097   0.273   9.098 -0.5531 -0.7793  1.0459
 5563SOL    HW228323   0.044   0.363   9.204 -2.3902  1.3513 -0.1301
 5564SOL     OW28324   4.044   3.120   8.431 -0.3000 -0.5290 -0.4101
 5564SOL    HW128325   4.009   3.138   8.518 -1.7186  1.4925 -1.4007
 5564SOL    HW228326   4.025   3.204   8.389  2.5267 -0.8904 -2.3908
 5565SOL     OW28327   3.746   3.955   3.237  0.5436 -0.4696 -0.5502
 5565SOL    HW128328   3.696   4.027   3.199  1.6262  1.1711  1.1344
 5565SOL    HW228329   3.764   3.973   3.329 -2.5882 -0.7709  0.1031
 5566SOL     OW28330   1.112   3.279   8.996  0.6230 -0.4000  0.1560
 5566SOL    HW128331   1.112   3.349   8.931 -1.3666 -0.0780  0.5031
 5566SOL    HW228332   1.151   3.211   8.941  0.0869  1.2511 -2.2238
 5567SOL     OW28333   1.607   1.745  15.534 -0.0958 -0.0725 -0.0797
 5567SOL    HW128334   1.565   1.672  15.579  1.1914  0.4115  1.9154
 5567SOL    HW228335   1.585   1.733  15.442 -1.9366  2.0784  0.0610
 5568SOL     OW28336   1.068   0.617   7.386  0.4672  0.1532 -0.8578
 5568SOL    HW128337   1.145   0.589   7.336  2.5390 -1.0169  2.9820
 5568SOL    HW228338   1.117   0.639   7.465  1.7188 -0.2733 -1.5084
 5569SOL     OW28339   1.446   2.072   5.272  0.5599  0.2132 -0.6689
 5569SOL    HW128340   1.461   2.165   5.252  5.3661 -0.6412 -1.0689
 5569SOL    HW228341   1.361   2.060   5.231  0.3496 -1.6306  0.3166
 5570SOL     OW28342   2.456   3.555   2.483 -0.6632 -0.0788  0.4266
 5570SOL    HW128343   2.448   3.626   2.419 -1.6489  1.1981  1.9437
 5570SOL    HW228344   2.543   3.526   2.456 -1.4936  0.3736 -2.8154
 5571SOL     OW28345   0.016   1.110   8.871 -0.0053 -0.4341 -0.0484
 5571SOL    HW128346   0.087   1.138   8.928  0.6203 -0.5411 -0.7793
 5571SOL    HW228347   0.045   1.019   8.860 -1.3215 -0.9099  0.3326
 5572SOL     OW28348   2.194   2.575  17.109 -0.1373 -0.2805  0.1574
 5572SOL    HW128349   2.280   2.589  17.148 -0.2010  1.2182 -0.2469
 5572SOL    HW228350   2.216   2.593  17.017  0.8000 -0.4839  0.3438
 5573SOL     OW28351   1.586   3.156   9.687  0.1092  0.3451 -0.1126
 5573SOL    HW128352   1.638   3.129   9.762 -2.6311 -2.4039  0.7747
 5573SOL    HW228353   1.591   3.252   9.684 -0.1575  0.3955  1.1011
 5574SOL     OW28354   0.502   2.795  13.511  0.6874 -0.3106 -0.6650
 5574SOL    HW128355   0.525   2.869  13.455  2.9170  1.2477  2.3784
 5574SOL    HW228356   0.406   2.800  13.509  0.7332 -0.0642 -3.2877
 5575SOL     OW28357   1.199   1.028   4.253 -0.1642 -0.3761  0.2766
 5575SOL    HW128358   1.137   1.093   4.220  1.7985  1.7920  0.7811
 5575SOL    HW228359   1.191   0.964   4.182  1.2865  0.5545 -0.7378
 5576SOL     OW28360   4.491   0.566   0.461 -0.1408 -0.2040 -0.0859
 5576SOL    HW128361   4.520   0.490   0.411 -1.7361 -0.4075 -0.7038
 5576SOL    HW228362   4.437   0.517   0.522  0.1833 -0.7608 -0.2477
 5577SOL     OW28363   2.655   1.452  14.096  0.1526 -0.2956  0.0668
 5577SOL    HW128364   2.569   1.433  14.059  0.5172 -0.9771 -0.4377
 5577SOL    HW228365   2.720   1.473  14.028 -0.5645 -1.5494 -1.0064
 5578SOL     OW28366   3.070   1.877   7.879  0.1440 -0.5748  0.0835
 5578SOL    HW128367   3.130   1.815   7.838  0.8153  1.7614 -2.5445
 5578SOL    HW228368   3.063   1.942   7.809  0.5240  0.4850  1.0315
 5579SOL     OW28369   2.591   1.108   8.169 -0.5142  0.3839 -0.4055
 5579SOL    HW128370   2.516   1.064   8.129 -2.1278  0.0313  2.9487
 5579SOL    HW228371   2.546   1.161   8.236  0.9501  1.5017 -0.3067
 5580SOL     OW28372   3.879   0.231   9.155  0.1708 -0.2145 -0.0865
 5580SOL    HW128373   3.814   0.294   9.186  0.9490  0.7739 -0.4699
 5580SOL    HW228374   3.830   0.151   9.174 -2.4178  1.0632 -1.4517
 5581SOL     OW28375   1.942   3.686   2.324 -0.2101  0.4988  0.0982
 5581SOL    HW128376   2.000   3.616   2.294  1.5018  1.1965  1.8332
 5581SOL    HW228377   1.859   3.638   2.328  0.8967 -1.4455 -0.1375
 5582SOL     OW28378   1.222   1.385   7.522  0.2307  0.2280  0.1991
 5582SOL    HW128379   1.234   1.472   7.486  1.6662 -0.3310 -0.7116
 5582SOL    HW228380   1.215   1.335   7.441 -0.6491 -2.3369  1.8301
 5583SOL     OW28381   2.166   3.680   8.168  0.3670 -0.0797  0.2305
 5583SOL    HW128382   2.112   3.677   8.247 -0.6038 -0.2527 -0.4347
 5583SOL    HW228383   2.231   3.741   8.201 -0.5933  1.7368 -1.2164
 5584SOL     OW28384   2.219   3.818   6.043 -0.2991  0.1927 -0.2630
 5584SOL    HW128385   2.181   3.894   6.000  0.3654 -0.0221 -1.2432
 5584SOL    HW228386   2.312   3.832   6.025 -0.0893  2.0003  2.2640
 5585SOL     OW28387   4.387   3.665  16.399 -0.2609  0.2902 -0.1920
 5585SOL    HW128388   4.415   3.715  16.322  0.1604  0.8991  0.3535
 5585SOL    HW228389   4.359   3.740  16.452 -3.4270 -1.0892  0.0985
 5586SOL     OW28390   2.422   1.037   2.701  0.2928 -0.5630 -0.3715
 5586SOL    HW128391   2.443   0.951   2.737 -0.2238 -0.7104 -0.4241
 5586SOL    HW228392   2.429   1.098   2.774 -1.6554  0.8312 -1.3571
 5587SOL     OW28393   4.106   4.484   2.403 -0.0313 -0.4827  0.0419
 5587SOL    HW128394   4.081   4.576   2.405  3.2115  0.3615  1.1754
 5587SOL    HW228395   4.097   4.446   2.315 -2.4135 -1.5489  0.7548
 5588SOL     OW28396   0.291   1.631  16.746  0.2924  0.2704  0.5049
 5588SOL    HW128397   0.210   1.633  16.796  1.3049 -0.5874  2.1912
 5588SOL    HW228398   0.359   1.603  16.807  1.0606 -2.1587 -1.4686
 5589SOL     OW28399   1.630   0.998   8.032 -0.2362 -0.1077  0.1741
 5589SOL    HW128400   1.590   1.029   8.114  1.0399  0.3294  0.6338
 5589SOL    HW228401   1.567   1.025   7.966 -2.2949  0.5681  2.3989
 5590SOL     OW28402   2.586   1.784   9.427  0.1314 -1.1697 -0.1267
 5590SOL    HW128403   2.579   1.734   9.345 -0.5685 -2.1712  0.5514
 5590SOL    HW228404   2.678   1.811   9.420 -0.4182  0.5719 -0.8040
 5591SOL     OW28405   1.844   4.493   4.221  0.0705 -0.3147 -0.0867
 5591SOL    HW128406   1.897   4.571   4.237  1.1150 -1.2722  1.0807
 5591SOL    HW228407   1.762   4.540   4.203 -0.3698 -1.5095 -1.1862
 5592SOL     OW28408   3.381   0.004   3.550 -0.4392 -0.0579 -0.1220
 5592SOL    HW128409   3.337   4.664   3.511 -1.2310 -0.5360  1.7263
 5592SOL    HW228410   3.330   0.016   3.630 -0.9463  2.1395 -0.7681
 5593SOL     OW28411   2.544   2.626   5.510  0.3121 -0.6032 -0.5575
 5593SOL    HW128412   2.590   2.593   5.433  1.9758  1.8417 -0.5911
 5593SOL    HW228413   2.618   2.660   5.560  1.5233 -1.0334 -2.0763
 5594SOL     OW28414   3.690   3.469  12.244  0.1288  0.3497 -0.1519
 5594SOL    HW128415   3.690   3.390  12.190  0.4516  0.5397 -0.4352
 5594SOL    HW228416   3.596   3.486  12.237 -0.2689 -2.0961 -0.9183
 5595SOL     OW28417   1.922   2.078   4.726  0.4003 -0.7843 -0.3348
 5595SOL    HW128418   1.871   2.158   4.715 -2.6389 -2.5428  0.9322
 5595SOL    HW228419   1.998   2.099   4.672  0.0300  1.8635  0.1644
 5596SOL     OW28420   1.509   2.630   4.621 -0.0675 -0.0054 -0.5240
 5596SOL    HW128421   1.560   2.600   4.696 -0.2430  1.4448  0.1591
 5596SOL    HW228422   1.423   2.589   4.634 -0.7003  2.0010  1.5493
 5597SOL     OW28423   3.272   2.577   2.262 -0.2573  0.4608  0.0845
 5597SOL    HW128424   3.323   2.574   2.181  1.3645 -0.8822  1.1645
 5597SOL    HW228425   3.297   2.656   2.312  0.4192 -0.8230  1.7702
 5598SOL     OW28426   2.216   0.713  11.842 -0.1592 -0.2433 -0.1217
 5598SOL    HW128427   2.192   0.627  11.809  0.7330 -0.8918  0.9280
 5598SOL    HW228428   2.274   0.676  11.909 -0.9661 -0.6625  0.3413
 5599SOL     OW28429   0.308   2.707   6.655  0.6080 -0.2979  0.7848
 5599SOL    HW128430   0.289   2.678   6.744  1.4449  1.2569  1.4700
 5599SOL    HW228431   0.232   2.764   6.646  1.4606  0.7705  0.1571
 5600SOL     OW28432   3.562   3.120   5.212  0.2310  0.4180 -0.4761
 5600SOL    HW128433   3.492   3.167   5.255  2.6394  4.6587 -1.2140
 5600SOL    HW228434   3.504   3.089   5.143 -0.9867 -0.7190  1.0724
 5601SOL     OW28435   0.521   1.540  17.263 -0.0580 -0.1712  0.2280
 5601SOL    HW128436   0.549   1.603  17.196 -1.0219 -1.3781 -1.3071
 5601SOL    HW228437   0.588   1.551  17.331 -0.6629 -0.2085  0.8264
 5602SOL     OW28438   1.262   4.633   2.409 -0.4132  0.0556 -0.0024
 5602SOL    HW128439   1.246   4.713   2.360 -0.3550  1.0310  1.5841
 5602SOL    HW228440   1.304   4.583   2.339  0.6002  0.1055  0.5613
 5603SOL     OW28441   0.508   2.221  16.337  0.5558  0.3284  0.3125
 5603SOL    HW128442   0.491   2.199  16.246  1.5052  1.2056 -0.0792
 5603SOL    HW228443   0.437   2.284  16.350 -0.0200 -0.3761  0.5543
 5604SOL     OW28444   0.219   2.496   4.596 -0.5653 -0.0310 -0.3097
 5604SOL    HW128445   0.290   2.444   4.633  1.0502  0.8420 -2.1913
 5604SOL    HW228446   0.167   2.506   4.676 -1.5681 -0.6797 -0.8780
 5605SOL     OW28447   1.201   4.310   5.315 -0.4051 -1.0141 -0.0961
 5605SOL    HW128448   1.130   4.246   5.326  2.3058 -4.0598 -0.1124
 5605SOL    HW228449   1.278   4.265   5.350  1.5912  2.3420 -0.2464
 5606SOL     OW28450   2.250   4.508   6.120 -0.5067 -0.1614  0.6154
 5606SOL    HW128451   2.204   4.485   6.040 -2.2361  2.8812  0.7487
 5606SOL    HW228452   2.314   4.571   6.086  0.2682 -0.9241  0.6480
 5607SOL     OW28453   3.322   0.940   1.635 -0.0978 -0.0595  0.3694
 5607SOL    HW128454   3.312   0.844   1.634  1.0997 -0.1476 -1.8682
 5607SOL    HW228455   3.396   0.948   1.694 -0.3072  0.1139  0.6088
 5608SOL     OW28456   1.007   0.992   3.358 -0.2850  0.5764  0.2669
 5608SOL    HW128457   0.947   0.955   3.292 -0.3836  0.1899  0.5739
 5608SOL    HW228458   0.962   1.076   3.366 -0.8847  0.2288  0.5159
 5609SOL     OW28459   1.503   1.348   3.522 -0.2271 -0.8132 -0.0230
 5609SOL    HW128460   1.521   1.423   3.465 -0.5629 -1.5700 -1.1185
 5609SOL    HW228461   1.590   1.334   3.559  0.2751 -0.6068 -1.1180
 5610SOL     OW28462   4.082   3.681   4.039  0.1554 -0.2819 -0.2391
 5610SOL    HW128463   4.155   3.653   3.985  0.9610 -0.5453  1.0011
 5610SOL    HW228464   4.103   3.637   4.121 -0.0835 -1.2051 -0.6757
 5611SOL     OW28465   0.938   0.844   2.906 -0.2768 -0.4885 -0.2933
 5611SOL    HW128466   0.860   0.899   2.897  0.6161  1.1192  1.5340
 5611SOL    HW228467   0.927   0.773   2.844  0.0300 -1.1483  0.4091
 5612SOL     OW28468   3.468   1.042   3.764 -0.3008  0.0799  0.2096
 5612SOL    HW128469   3.469   0.968   3.825 -1.7912 -0.9131 -0.9894
 5612SOL    HW228470   3.376   1.065   3.773 -0.8126 -1.3030 -1.5275
 5613SOL     OW28471   1.098   4.022   1.585  0.6415  0.2407 -0.3598
 5613SOL    HW128472   1.086   3.939   1.538  0.1660 -0.0546  0.2776
 5613SOL    HW228473   1.186   4.045   1.556  0.9661  0.7843  1.0775
 5614SOL     OW28474   0.395   4.114   2.072  0.0574 -0.6482  0.0061
 5614SOL    HW128475   0.465   4.138   2.134 -1.3187 -0.2629  1.4077
 5614SOL    HW228476   0.447   4.127   1.993 -0.7502  2.8439  0.0559
 5615SOL     OW28477   4.085   3.605   3.001  0.0896 -0.4116 -0.5339
 5615SOL    HW128478   4.047   3.522   3.030 -2.2187  1.2815  1.3547
 5615SOL    HW228479   4.179   3.592   3.009 -0.1055 -1.2361  0.6040
 5616SOL     OW28480   4.725   3.805   5.878 -0.0996  0.4282  0.3384
 5616SOL    HW128481   0.018   3.798   5.787 -0.1219  1.3758  0.2583
 5616SOL    HW228482   4.729   3.711   5.896  1.5426  0.3028 -0.6363
 5617SOL     OW28483   3.297   4.172   2.470 -0.3868  0.3501 -0.2452
 5617SOL    HW128484   3.258   4.172   2.382 -1.1503 -0.4986  0.0956
 5617SOL    HW228485   3.348   4.253   2.471 -0.5286  0.4437 -0.4339
 5618SOL     OW28486   2.944   0.769   6.410  0.3909  0.6196  0.2660
 5618SOL    HW128487   2.966   0.790   6.319 -2.2227  0.4808 -0.4082
 5618SOL    HW228488   2.848   0.759   6.409 -0.0627  5.1041  1.2211
 5619SOL     OW28489   1.117   0.187   8.070 -0.2845  0.1741  0.2062
 5619SOL    HW128490   1.105   0.093   8.084  3.4739 -0.0264  1.8847
 5619SOL    HW228491   1.057   0.216   8.139 -1.0636 -0.1846 -0.3148
 5620SOL     OW28492   3.584   2.035   4.224 -0.1399 -0.1434 -0.8568
 5620SOL    HW128493   3.643   2.110   4.218 -0.9831  0.6366  0.6970
 5620SOL    HW228494   3.570   2.032   4.319 -3.4728  0.5086 -1.3285
 5621SOL     OW28495   3.270   4.563  14.602 -0.5105 -0.4273  0.2626
 5621SOL    HW128496   3.219   4.517  14.536 -0.7552  0.1559  0.0484
 5621SOL    HW228497   3.202   4.619  14.640  1.3734  2.2693 -0.2793
 5622SOL     OW28498   1.272   0.944   2.268 -0.4065  0.1414  0.4090
 5622SOL    HW128499   1.225   0.885   2.326  0.7329  0.7784  1.9592
 5622SOL    HW228500   1.308   1.023   2.308  0.2482 -1.3363  2.7018
 5623SOL     OW28501   3.342   1.183   7.316  0.2517  0.1579 -0.7951
 5623SOL    HW128502   3.420   1.148   7.273  1.0880 -1.3977  1.9122
 5623SOL    HW228503   3.366   1.155   7.405 -1.8620 -1.3535 -0.6988
 5624SOL     OW28504   0.768   0.184  12.786  0.1000  0.5564 -0.5677
 5624SOL    HW128505   0.756   0.110  12.726  2.0915 -0.3582  0.1516
 5624SOL    HW228506   0.677   0.213  12.789 -0.4578 -0.8304 -3.6361
 5625SOL     OW28507   3.192   0.099   3.762  0.1969 -0.3385 -0.0894
 5625SOL    HW128508   3.148   0.029   3.810  1.3045 -2.2102 -1.8068
 5625SOL    HW228509   3.255   0.135   3.825  0.0548 -1.2090  0.5526
 5626SOL     OW28510   4.079   1.833   7.540  0.8911 -0.0769  0.2982
 5626SOL    HW128511   3.999   1.788   7.514  1.0896  0.1532 -0.7010
 5626SOL    HW228512   4.108   1.859   7.452  0.0428  1.0283  0.3469
 5627SOL     OW28513   2.822   0.128  15.585  0.1319  0.2803  0.5445
 5627SOL    HW128514   2.814   0.178  15.504 -2.2792  0.4605  0.8843
 5627SOL    HW228515   2.757   0.174  15.638 -0.6297 -1.0828  0.7879
 5628SOL     OW28516   2.675   0.277  10.349 -0.1048 -0.4738 -0.0491
 5628SOL    HW128517   2.603   0.272  10.412  0.7428  1.8044  1.0810
 5628SOL    HW228518   2.633   0.235  10.274 -0.8866 -2.4337  1.4823
 5629SOL     OW28519   2.901   1.614  17.000  0.1678 -0.6043  0.6887
 5629SOL    HW128520   2.968   1.590  17.063  0.0119 -0.9595  0.7210
 5629SOL    HW228521   2.910   1.541  16.938  1.7623  0.2375 -0.0707
 5630SOL     OW28522   1.390   1.924   6.320 -0.4940 -0.3028 -0.0121
 5630SOL    HW128523   1.464   1.974   6.284 -1.9162  1.8906  0.1230
 5630SOL    HW228524   1.368   1.974   6.398 -2.6834  1.1928 -1.5963
 5631SOL     OW28525   0.729   0.149  13.122 -0.4843 -0.1123  0.5706
 5631SOL    HW128526   0.732   0.136  13.027 -0.7240  0.1111  0.5346
 5631SOL    HW228527   0.669   0.222  13.135 -0.1909 -0.1052  1.9028
 5632SOL     OW28528   2.235   0.853   6.079  0.5164  0.4438  0.1978
 5632SOL    HW128529   2.307   0.916   6.079  0.3481  0.6389 -1.8024
 5632SOL    HW228530   2.158   0.896   6.115 -1.4075 -3.2809  0.6003
 5633SOL     OW28531   2.098   2.557   5.811  0.0105 -0.3423  0.2348
 5633SOL    HW128532   2.042   2.576   5.886  0.5367  0.3669  0.4478
 5633SOL    HW228533   2.149   2.637   5.796  0.9730 -0.7621  1.2819
 5634SOL     OW28534   2.986   2.163   2.805 -0.0846 -0.1274 -0.2033
 5634SOL    HW128535   2.962   2.133   2.717  1.0879 -1.8595  0.0692
 5634SOL    HW228536   2.916   2.228   2.809 -0.8785 -1.0161  0.5575
 5635SOL     OW28537   0.044   0.533   0.505  0.5821  0.8519 -0.0419
 5635SOL    HW128538   4.697   0.573   0.527  0.6541  1.1990 -0.4011
 5635SOL    HW228539   0.049   0.454   0.560  1.0401 -0.5473 -2.0737
 5636SOL     OW28540   2.003   2.247   9.085 -0.1836 -0.0771 -0.4342
 5636SOL    HW128541   2.037   2.175   9.032  0.1124 -1.1494  1.2335
 5636SOL    HW228542   1.915   2.240   9.048  0.0588 -1.3598 -0.7738
 5637SOL     OW28543   3.288   3.483   1.955  0.5152 -0.0371  0.4913
 5637SOL    HW128544   3.323   3.467   1.867 -0.8622 -0.1773 -0.0389
 5637SOL    HW228545   3.211   3.535   1.931  0.6922 -1.2745 -2.8108
 5638SOL     OW28546   3.882   0.884   2.724  0.1454 -0.1224 -0.0604
 5638SOL    HW128547   3.820   0.858   2.656 -0.0307  1.9285 -0.6851
 5638SOL    HW228548   3.814   0.927   2.777 -1.8629 -0.3501 -2.4946
 5639SOL     OW28549   4.552   0.250   2.018 -0.3889 -0.4498  0.2451
 5639SOL    HW128550   4.565   0.228   1.926 -1.4088  1.4929 -0.3661
 5639SOL    HW228551   4.599   0.176   2.058  0.2034  0.0125  0.4163
 5640SOL     OW28552   2.121   0.528  15.371 -0.5200 -0.0411  0.9445
 5640SOL    HW128553   2.159   0.585  15.437 -0.5625  0.3617  0.6240
 5640SOL    HW228554   2.034   0.567  15.356  0.5930  0.5915 -3.9138
 5641SOL     OW28555   1.984   2.943   5.964  0.5254  0.4009 -0.1634
 5641SOL    HW128556   2.046   2.996   5.915 -0.5856  0.2382 -1.7413
 5641SOL    HW228557   1.968   2.998   6.041 -0.0071  1.2688 -0.8960
 5642SOL     OW28558   4.347   1.811   2.694  0.0151 -0.2739  0.3855
 5642SOL    HW128559   4.322   1.879   2.755 -0.3246  1.7956 -2.0617
 5642SOL    HW228560   4.408   1.753   2.739  1.0772 -0.4728 -1.3315
 5643SOL     OW28561   4.658   4.324  11.524  0.2437  0.3950  0.2251
 5643SOL    HW128562   0.007   4.282  11.538  1.1662  2.3310  0.4613
 5643SOL    HW228563   4.672   4.363  11.437  0.2917  0.8709  0.4479
 5644SOL     OW28564   4.678   4.113   8.406  0.0103 -0.0694  0.1563
 5644SOL    HW128565   4.589   4.116   8.369  0.8947 -1.9337 -2.1161
 5644SOL    HW228566   4.695   4.020   8.394  0.2321  0.3915 -3.1703
 5645SOL     OW28567   1.868   3.083   1.050 -0.2369  0.1768  0.3008
 5645SOL    HW128568   1.849   3.126   1.134  0.5961  0.1395  0.5080
 5645SOL    HW228569   1.849   2.993   1.076  0.7845 -0.4352 -1.0892
 5646SOL     OW28570   3.412   1.174  13.411 -0.0681  0.2216 -0.7019
 5646SOL    HW128571   3.416   1.177  13.507 -3.2963 -2.3041 -0.5118
 5646SOL    HW228572   3.436   1.083  13.396  0.2355 -0.1954  2.2540
 5647SOL     OW28573   2.162   2.075   8.353  0.0071 -0.2776 -0.3288
 5647SOL    HW128574   2.107   2.001   8.326 -3.4712  1.3244  2.4239
 5647SOL    HW228575   2.171   2.125   8.271 -1.9067  0.5607 -0.0079
 5648SOL     OW28576   0.107   3.953   2.003 -0.0744  0.4999 -0.2017
 5648SOL    HW128577   0.050   4.009   2.055 -1.6953 -1.7802  0.4949
 5648SOL    HW228578   0.193   3.994   2.010 -0.2318  0.3429  2.5261
 5649SOL     OW28579   4.439   1.394   8.730 -0.2138 -0.0479 -0.5881
 5649SOL    HW128580   4.457   1.365   8.820 -2.1021 -0.4671 -0.3489
 5649SOL    HW228581   4.346   1.372   8.724 -0.0108 -1.0536 -0.1468
 5650SOL     OW28582   1.436   3.745   0.178  0.5401 -0.0094  0.4450
 5650SOL    HW128583   1.518   3.698   0.195 -0.1715 -0.3072  3.0927
 5650SOL    HW228584   1.440   3.750   0.083 -0.0817  0.5427  0.4478
 5651SOL     OW28585   2.080   4.312   9.799 -0.0947  0.2065  0.3417
 5651SOL    HW128586   2.108   4.398   9.767 -0.2954 -0.0471 -0.5329
 5651SOL    HW228587   2.128   4.249   9.745  0.8297  1.2518 -0.0677
 5652SOL     OW28588   0.747   0.493   2.134  0.3969 -0.0465  0.3877
 5652SOL    HW128589   0.827   0.486   2.081  0.1434  2.2847 -0.3129
 5652SOL    HW228590   0.708   0.406   2.140 -0.5019  0.4466  1.6431
 5653SOL     OW28591   2.064   4.575   6.678 -0.0337  0.4666 -0.2983
 5653SOL    HW128592   2.117   4.496   6.690 -0.5940 -0.0535 -1.2905
 5653SOL    HW228593   2.021   4.591   6.762  2.0601 -0.9706  1.0290
 5654SOL     OW28594   3.179   2.881   6.481  0.4319 -0.2094 -0.2491
 5654SOL    HW128595   3.125   2.937   6.425 -0.5044 -2.3206 -1.4382
 5654SOL    HW228596   3.218   2.816   6.423  1.6993 -1.9404  2.5325
 5655SOL     OW28597   2.099   3.238   4.013 -0.5339 -0.1603 -0.5191
 5655SOL    HW128598   2.151   3.160   3.993  0.4879  0.8537 -1.8380
 5655SOL    HW228599   2.167   3.299   4.039 -2.8837  1.2032  2.4138
 5656SOL     OW28600   0.789   3.413   9.016 -0.1071  0.3882 -0.0294
 5656SOL    HW128601   0.711   3.443   9.063  1.3216  2.2159  1.1531
 5656SOL    HW228602   0.834   3.494   8.995  0.6938 -0.2533 -0.8048
 5657SOL     OW28603   1.209   1.907   5.672  0.0214  0.1438  0.2526
 5657SOL    HW128604   1.283   1.962   5.697 -1.1098  1.6334  0.2599
 5657SOL    HW228605   1.252   1.864   5.597  0.1189  0.0733  0.3485
 5658SOL     OW28606   1.899   2.143   1.907  0.0642  0.2105 -0.3369
 5658SOL    HW128607   1.907   2.169   1.998  0.2208 -0.9693 -0.0027
 5658SOL    HW228608   1.980   2.184   1.876  0.9886 -1.8396 -0.6736
 5659SOL     OW28609   0.110   4.488   2.700  0.3424  0.4255 -0.2489
 5659SOL    HW128610   0.068   4.405   2.721 -1.4504  1.9195  2.0212
 5659SOL    HW228611   0.204   4.468   2.704  0.2235 -0.1482 -0.3255
 5660SOL     OW28612   4.503   3.849   3.383 -0.4107 -0.4896  0.0851
 5660SOL    HW128613   4.563   3.775   3.389 -0.4582 -0.7161 -2.2968
 5660SOL    HW228614   4.421   3.815   3.347  0.5475 -0.4574 -2.1484
 5661SOL     OW28615   2.110   2.754   2.408  0.0275 -0.0444  0.0163
 5661SOL    HW128616   2.152   2.672   2.385 -2.0236 -0.4700 -2.1851
 5661SOL    HW228617   2.174   2.791   2.469 -0.6944  1.3411 -0.0637
 5662SOL     OW28618   2.547   4.495   9.998  0.4577 -0.0433 -0.2967
 5662SOL    HW128619   2.519   4.540   9.918 -0.8080 -3.8380 -1.9875
 5662SOL    HW228620   2.467   4.497  10.050  0.8910  0.3589  0.3611
 5663SOL     OW28621   4.389   3.815   4.345 -0.2588 -0.0000 -0.0558
 5663SOL    HW128622   4.308   3.779   4.380 -0.8207  0.1211 -1.2349
 5663SOL    HW228623   4.348   3.890   4.302  1.0285  0.8614  0.1984
 5664SOL     OW28624   3.920   3.012   5.920  0.6106  0.1282 -0.2244
 5664SOL    HW128625   3.875   2.940   5.876  1.0868 -0.0912 -0.3541
 5664SOL    HW228626   3.866   3.037   5.995 -0.5938 -1.9961 -0.3829
 5665SOL     OW28627   1.080   1.485   4.035  0.3831  0.0310 -0.0591
 5665SOL    HW128628   1.171   1.495   4.005 -0.0278  3.1041 -0.2981
 5665SOL    HW228629   1.097   1.457   4.125 -0.8625 -2.0822 -0.5002
 5666SOL     OW28630   2.491   2.958  16.031 -0.3501  0.3615 -0.3517
 5666SOL    HW128631   2.531   2.957  16.118 -0.3887  0.2938 -0.3353
 5666SOL    HW228632   2.564   2.939  15.971  0.0730  2.6607 -0.5760
 5667SOL     OW28633   0.845   2.848   3.027 -0.8097  0.0403  0.2926
 5667SOL    HW128634   0.802   2.910   2.967  0.3837 -0.8527 -1.5079
 5667SOL    HW228635   0.935   2.880   3.023 -0.4143 -1.1507 -0.4282
 5668SOL     OW28636   3.871   3.814   4.104 -0.6058  0.0722 -0.4992
 5668SOL    HW128637   3.936   3.747   4.088  0.5946  1.0462  0.3272
 5668SOL    HW228638   3.910   3.887   4.055 -0.2202  0.5822  0.5659
 5669SOL     OW28639   1.128   3.071   6.209 -0.1332  0.3488  0.1704
 5669SOL    HW128640   1.059   3.073   6.275 -1.5558 -1.6806 -1.2596
 5669SOL    HW228641   1.109   2.982   6.179 -1.2463  1.0849 -1.2672
 5670SOL     OW28642   1.799   1.841   8.399  1.0181 -0.5966  0.0902
 5670SOL    HW128643   1.772   1.900   8.329  3.8605  1.1298  0.4434
 5670SOL    HW228644   1.875   1.800   8.359  1.8053  1.0064 -0.0355
 5671SOL     OW28645   4.518   2.571   8.480 -0.5132 -0.1232 -0.0951
 5671SOL    HW128646   4.491   2.608   8.563 -1.4003  1.8638 -1.2730
 5671SOL    HW228647   4.583   2.635   8.452  0.8131 -1.6100 -0.4167
 5672SOL     OW28648   2.942   3.517   7.104 -0.1359 -0.3683  0.0790
 5672SOL    HW128649   3.000   3.534   7.030  0.5550  0.0303  0.7143
 5672SOL    HW228650   2.919   3.606   7.132 -1.1298 -1.0386  1.4427
 5673SOL     OW28651   0.452   1.305  12.123  1.0370 -0.2624 -0.3209
 5673SOL    HW128652   0.533   1.356  12.112 -0.2997  1.8431 -0.4686
 5673SOL    HW228653   0.488   1.223  12.091  0.0353 -2.6725  4.8179
 5674SOL     OW28654   0.107   3.588   6.588 -0.1151  0.2381 -0.0430
 5674SOL    HW128655   0.058   3.660   6.628  0.5554  0.5992  0.1296
 5674SOL    HW228656   0.054   3.558   6.514 -0.9320  0.1820  0.5722
 5675SOL     OW28657   2.986   3.616  16.018 -0.0632 -0.4027  0.5655
 5675SOL    HW128658   2.979   3.655  15.931 -1.2937 -0.1939  0.7592
 5675SOL    HW228659   3.049   3.672  16.063  1.8415  0.4889 -3.1764
 5676SOL     OW28660   1.225   2.943   2.337 -0.7555 -0.1391 -0.4244
 5676SOL    HW128661   1.216   2.948   2.242 -0.4586  1.3960 -0.3794
 5676SOL    HW228662   1.303   2.890   2.353 -0.8935  0.4855  2.3950
 5677SOL     OW28663   1.349   2.623   5.056  0.0234  0.4235  0.2750
 5677SOL    HW128664   1.264   2.602   5.016  1.0119 -0.0516 -1.5630
 5677SOL    HW228665   1.375   2.699   5.004  1.1789 -0.3391 -0.2566
 5678SOL     OW28666   1.809   2.160   8.904 -0.1402  0.2420 -0.0764
 5678SOL    HW128667   1.814   2.068   8.930 -1.4229 -0.3738 -1.9739
 5678SOL    HW228668   1.858   2.172   8.823  1.3225  0.6385  0.8777
 5679SOL     OW28669   1.922   3.677   1.635  0.1369 -0.0398  0.0411
 5679SOL    HW128670   1.841   3.644   1.676 -0.7856 -0.2907 -1.9648
 5679SOL    HW228671   1.957   3.594   1.602 -0.0506  0.5294 -1.5860
 5680SOL     OW28672   3.692   1.069  13.077  0.4508 -0.5391  0.0969
 5680SOL    HW128673   3.611   1.120  13.065 -0.4956 -1.6825  1.8111
 5680SOL    HW228674   3.662   0.981  13.098 -0.7789 -0.3300 -0.7640
 5681SOL     OW28675   3.128   2.724   6.872  0.1336 -0.1807  0.9077
 5681SOL    HW128676   3.034   2.744   6.883  0.9249  2.1033  3.5231
 5681SOL    HW228677   3.129   2.644   6.924  1.0808 -0.1030  0.9980
 5682SOL     OW28678   1.498   1.656   3.611 -0.9744  0.2508  0.2867
 5682SOL    HW128679   1.513   1.706   3.691  0.5405  0.1429  0.0547
 5682SOL    HW228680   1.589   1.650   3.584 -1.8341  2.4365 -3.1759
 5683SOL     OW28681   1.122   3.302   6.023  0.1444 -0.0997 -1.0136
 5683SOL    HW128682   1.127   3.234   6.090  0.1811 -0.4297 -1.3544
 5683SOL    HW228683   1.127   3.384   6.072 -0.7271 -0.7033  0.0607
 5684SOL     OW28684   0.370   2.604   2.886 -0.2853 -0.2037  0.2872
 5684SOL    HW128685   0.402   2.575   2.972 -2.0029 -0.5748  0.8132
 5684SOL    HW228686   0.319   2.526   2.864 -0.3234 -1.0612  3.3691
 5685SOL     OW28687   1.302   0.986   7.433 -0.5819  0.3366 -0.0973
 5685SOL    HW128688   1.221   0.944   7.463 -0.5650  1.8311  2.0811
 5685SOL    HW228689   1.275   0.996   7.342 -0.0223  0.5223 -0.2428
 5686SOL     OW28690   4.423   4.080   5.959 -0.0531  0.0227 -0.2217
 5686SOL    HW128691   4.506   4.116   5.929 -0.4243 -0.4704 -1.8677
 5686SOL    HW228692   4.364   4.155   5.969 -1.2274 -0.5297 -3.0212
 5687SOL     OW28693   0.603   2.233   9.322 -0.1250  0.0083  0.1192
 5687SOL    HW128694   0.598   2.309   9.380 -0.5810  0.2702 -0.2601
 5687SOL    HW228695   0.518   2.194   9.345  0.5934 -1.2736  0.6066
 5688SOL     OW28696   2.008   4.472  10.454  0.6854 -0.0108 -0.0170
 5688SOL    HW128697   1.958   4.523  10.518 -0.7899  1.0003 -1.9840
 5688SOL    HW228698   2.018   4.535  10.383 -2.9557  0.0752 -0.4067
 5689SOL     OW28699   3.457   0.799  13.051 -0.1555  0.5973 -0.0234
 5689SOL    HW128700   3.429   0.708  13.057 -1.2158  0.8821 -0.6729
 5689SOL    HW228701   3.382   0.844  13.090  1.5784  0.4572  3.4975
 5690SOL     OW28702   0.084   1.382   4.672  0.4189  0.3234  0.1834
 5690SOL    HW128703   0.034   1.463   4.677  1.2478  0.8121  0.3365
 5690SOL    HW228704   0.171   1.406   4.701  0.6047  1.3827 -1.2677
 5691SOL     OW28705   3.942   4.263   9.933  0.8202 -0.0688  0.5155
 5691SOL    HW128706   3.959   4.169   9.942  0.4523  0.0501  2.6248
 5691SOL    HW228707   3.981   4.294  10.015 -2.7184  3.5658  0.8002
 5692SOL     OW28708   0.875   2.831   0.030 -0.1324  0.3466 -0.6165
 5692SOL    HW128709   0.821   2.837  17.696  1.0553 -0.1875 -1.4813
 5692SOL    HW228710   0.939   2.896   0.003  2.6263 -2.1148  0.0231
 5693SOL     OW28711   4.556   0.011   6.344  0.2494 -0.2999  0.3222
 5693SOL    HW128712   4.536   4.658   6.318  1.1701 -1.3153  3.1006
 5693SOL    HW228713   4.631   0.039   6.291 -0.8970 -0.3231 -1.2999
 5694SOL     OW28714   3.468   0.236   7.342 -0.4387  0.1247  0.1286
 5694SOL    HW128715   3.416   0.244   7.422  0.3425  1.2472  0.5239
 5694SOL    HW228716   3.448   0.318   7.297  1.2237 -0.6823 -2.1121
 5695SOL     OW28717   4.571   1.706   4.228 -0.3058  0.6025  0.2609
 5695SOL    HW128718   4.648   1.648   4.227 -1.6011 -1.0704 -1.0341
 5695SOL    HW228719   4.503   1.657   4.183  1.3125 -0.2031 -1.2968
 5696SOL     OW28720   2.672   4.503   7.907  0.5191 -0.0926  0.7164
 5696SOL    HW128721   2.631   4.584   7.878 -0.5896 -1.6138 -1.9921
 5696SOL    HW228722   2.662   4.451   7.827  0.7318  2.5426 -1.0003
 5697SOL     OW28723   3.442   3.117   3.666  0.2852  0.0251 -0.0819
 5697SOL    HW128724   3.429   3.212   3.672  3.8033  0.5061 -0.1280
 5697SOL    HW228725   3.370   3.096   3.606  0.7820 -0.7002 -0.4244
 5698SOL     OW28726   1.631   0.304   2.546 -0.2091  0.4892  0.5069
 5698SOL    HW128727   1.621   0.234   2.610 -0.4541  1.7127  1.7947
 5698SOL    HW228728   1.684   0.368   2.593 -1.3468  1.3191  0.6592
 5699SOL     OW28729   1.084   4.643   1.103  0.2793 -0.7925  0.1053
 5699SOL    HW128730   1.159   4.594   1.067  0.3076 -1.5961  1.2505
 5699SOL    HW228731   1.133   4.725   1.104  0.6315 -0.9879 -0.8521
 5700SOL     OW28732   0.162   0.866   7.545  0.4563  0.3296 -0.0848
 5700SOL    HW128733   0.220   0.811   7.598 -2.9183 -0.3912  2.9042
 5700SOL    HW228734   0.199   0.864   7.457  0.5261 -0.5407 -0.0401
 5701SOL     OW28735   2.128   3.737   1.839  0.1049 -0.2591  0.2645
 5701SOL    HW128736   2.132   3.813   1.897  2.2456 -0.5185  0.4515
 5701SOL    HW228737   2.056   3.762   1.781  0.4414  1.4244  0.5790
 5702SOL     OW28738   4.285   3.622  12.335  0.6752  0.1121 -0.5949
 5702SOL    HW128739   4.197   3.640  12.369  0.8050 -0.1479 -0.1261
 5702SOL    HW228740   4.299   3.541  12.383 -0.0577  0.7995  0.7858
 5703SOL     OW28741   1.823   1.949  10.308  0.0585  0.7485 -0.1198
 5703SOL    HW128742   1.764   1.971  10.236  1.2999 -1.0928 -1.7137
 5703SOL    HW228743   1.801   2.025  10.361 -1.0798 -1.9201  3.2159
 5704SOL     OW28744   1.219   2.825  15.075 -0.3230  0.9300 -0.0172
 5704SOL    HW128745   1.245   2.799  14.987 -0.7055 -0.3007  0.2344
 5704SOL    HW228746   1.286   2.786  15.131 -1.4996 -0.8806  0.0994
 5705SOL     OW28747   3.925   1.098  15.349 -0.0059 -0.2469 -0.2865
 5705SOL    HW128748   3.860   1.141  15.294  0.5959  1.1278  0.0801
 5705SOL    HW228749   3.926   1.008  15.314  0.4189  0.5039 -2.2158
 5706SOL     OW28750   1.119   2.442   3.584  0.2463 -0.2522  0.2978
 5706SOL    HW128751   1.188   2.376   3.588  0.6524  0.0739 -1.4451
 5706SOL    HW228752   1.081   2.408   3.504 -2.0267 -0.7144  1.5654
 5707SOL     OW28753   3.210   4.192   3.827  0.1620  0.1696 -0.2141
 5707SOL    HW128754   3.276   4.157   3.887  1.2339 -0.9298 -2.0533
 5707SOL    HW228755   3.163   4.249   3.889  2.1318  0.0531  1.3780
 5708SOL     OW28756   4.476   2.515   3.069  0.0270 -0.4404  0.7839
 5708SOL    HW128757   4.413   2.471   3.013 -0.1432  2.7547 -1.5421
 5708SOL    HW228758   4.515   2.557   2.993 -1.8625 -0.1108 -0.0067
 5709SOL     OW28759   3.612   0.368   8.339 -0.1995  0.3969 -0.4343
 5709SOL    HW128760   3.606   0.297   8.275 -1.6800  1.5055 -1.5286
 5709SOL    HW228761   3.618   0.321   8.422  1.9046  2.5638  0.6284
 5710SOL     OW28762   0.996   0.055   3.536 -0.3128 -0.3208  0.2439
 5710SOL    HW128763   1.016   4.700   3.514  0.1750 -0.6266  1.9457
 5710SOL    HW228764   1.083   0.093   3.528 -0.9531  1.0196 -0.2010
 5711SOL     OW28765   1.683   3.086   9.924 -0.3478 -0.1229 -0.0552
 5711SOL    HW128766   1.632   3.019   9.970  1.0679  0.0807  1.8169
 5711SOL    HW228767   1.670   3.159   9.985  1.0477  1.3902 -1.5720
 5712SOL     OW28768   1.645   1.282   2.808 -0.5037 -0.6697  0.8754
 5712SOL    HW128769   1.691   1.266   2.890  1.2488 -1.0538 -0.1855
 5712SOL    HW228770   1.627   1.376   2.803  1.7084 -0.3912 -1.9160
 5713SOL     OW28771   3.474   0.200   8.123  0.2993  0.4101  0.2607
 5713SOL    HW128772   3.388   0.241   8.109  0.6034  1.2447  0.7915
 5713SOL    HW228773   3.455   0.116   8.082  3.3380  0.9884 -2.2680
 5714SOL     OW28774   3.835   2.072   6.860 -0.0187 -0.2352 -0.2000
 5714SOL    HW128775   3.759   2.027   6.897  0.5603 -2.6490 -1.8664
 5714SOL    HW228776   3.851   2.020   6.781  1.0278 -1.2506  0.6901
 5715SOL     OW28777   0.289   3.073   2.403 -0.4055  0.3238  0.2632
 5715SOL    HW128778   0.320   3.134   2.336 -0.9790  0.4689  0.1305
 5715SOL    HW228779   0.333   3.102   2.483  0.1545 -1.4553  0.6024
 5716SOL     OW28780   1.463   1.090   3.043  0.3843  0.2043 -0.5740
 5716SOL    HW128781   1.458   1.186   3.044 -0.8553  0.1286  0.0460
 5716SOL    HW228782   1.371   1.074   3.062  0.9344 -1.2837  0.8726
 5717SOL     OW28783   2.931   0.636   2.124  0.0649 -0.0981 -0.4674
 5717SOL    HW128784   2.997   0.685   2.075 -0.0842 -0.8831 -1.4501
 5717SOL    HW228785   2.963   0.548   2.102 -1.2759 -0.3610 -1.3631
 5718SOL     OW28786   4.249   3.404  16.783 -0.2320  0.0624 -0.2126
 5718SOL    HW128787   4.256   3.497  16.803 -0.0525  0.1416 -0.6383
 5718SOL    HW228788   4.330   3.374  16.823 -0.5364  3.2131  2.7829
 5719SOL     OW28789   1.462   2.127  15.959  0.0760  0.1405 -0.1661
 5719SOL    HW128790   1.473   2.107  16.051 -1.8363 -0.6445 -0.1093
 5719SOL    HW228791   1.437   2.041  15.924 -1.4121  0.8441 -0.8366
 5720SOL     OW28792   1.845   1.346   0.569  0.1730  0.7583 -0.1737
 5720SOL    HW128793   1.804   1.337   0.655  1.2431 -1.4743  0.1033
 5720SOL    HW228794   1.799   1.423   0.536 -1.5666 -0.6154 -0.9402
 5721SOL     OW28795   1.870   1.668  15.752  0.3932  0.8339  0.2478
 5721SOL    HW128796   1.810   1.627  15.688  0.6365  3.1230 -1.4485
 5721SOL    HW228797   1.801   1.707  15.805  1.1664 -0.4961  2.2262
 5722SOL     OW28798   1.827   4.528   6.189  0.0267 -0.0876 -0.1993
 5722SOL    HW128799   1.887   4.499   6.258 -0.9676 -0.9509  0.3048
 5722SOL    HW228800   1.859   4.616   6.170 -0.9641  0.3813  0.2936
 5723SOL     OW28801   2.150   2.861   1.150  0.4407 -0.2174  0.2968
 5723SOL    HW128802   2.198   2.818   1.221  1.3441  0.3432  0.0256
 5723SOL    HW228803   2.061   2.872   1.184  0.4465  2.3857 -0.4896
 5724SOL     OW28804   3.213   0.735  16.988 -0.4450 -0.0527  0.1702
 5724SOL    HW128805   3.242   0.685  16.912  0.4776  1.5444 -0.5399
 5724SOL    HW228806   3.283   0.715  17.050  0.7286 -0.2162 -1.2070
 5725SOL     OW28807   1.627   3.457  12.826  0.7828  0.4826 -0.1847
 5725SOL    HW128808   1.565   3.387  12.806 -1.0338  0.8308  4.4361
 5725SOL    HW228809   1.610   3.489  12.914  3.0896  2.0265 -0.2871
 5726SOL     OW28810   0.831   2.525   4.059 -0.1616 -0.1401 -0.5661
 5726SOL    HW128811   0.840   2.430   4.067  1.5964  0.3568  3.8215
 5726SOL    HW228812   0.838   2.527   3.964 -0.3813  1.3803 -0.5496
 5727SOL     OW28813   1.658   0.088   2.042  0.2730 -0.3457  0.1920
 5727SOL    HW128814   1.728   0.139   2.001 -1.3660  1.2596 -0.6011
 5727SOL    HW228815   1.585   0.131   1.998 -0.9222 -0.2619  2.2371
 5728SOL     OW28816   3.828   1.302   6.735 -0.0129  0.5804  0.2158
 5728SOL    HW128817   3.821   1.258   6.650 -4.0831 -0.0893  0.9083
 5728SOL    HW228818   3.877   1.381   6.711  0.8425  0.9157  3.0245
 5729SOL     OW28819   4.056   1.965   5.902  0.6559 -0.1506  0.0100
 5729SOL    HW128820   3.980   1.966   5.845 -0.1421  3.0076  1.1058
 5729SOL    HW228821   4.045   2.055   5.934 -1.5568 -0.4386  0.0577
 5730SOL     OW28822   3.897   4.322   5.283  0.0117  0.0295 -0.0722
 5730SOL    HW128823   3.819   4.369   5.313  0.3185 -0.0721  0.9086
 5730SOL    HW228824   3.938   4.390   5.231 -0.6791  1.3656  1.1369
 5731SOL     OW28825   4.553   1.805   6.762 -0.2344  0.4410  0.1178
 5731SOL    HW128826   4.542   1.850   6.846  1.8590 -2.0098  1.6814
 5731SOL    HW228827   4.466   1.765   6.755 -0.3186  0.7515 -0.6666
 5732SOL     OW28828   1.136   0.566   3.017 -0.1775 -0.6864 -0.1577
 5732SOL    HW128829   1.211   0.625   3.017 -0.4495 -0.3414 -0.2536
 5732SOL    HW228830   1.114   0.567   3.111  1.9500  1.5619  0.3051
 5733SOL     OW28831   1.511   0.946  12.666  0.1747  0.1798  0.8407
 5733SOL    HW128832   1.576   1.012  12.645 -0.4677  0.2750 -0.8728
 5733SOL    HW228833   1.563   0.889  12.723  1.9737  0.2737 -0.6933
 5734SOL     OW28834   1.418   1.297  13.989  0.0421  0.5432 -0.3980
 5734SOL    HW128835   1.489   1.341  14.035  0.8587 -1.2890  0.1203
 5734SOL    HW228836   1.339   1.340  14.021  0.6932  2.3428 -1.2308
 5735SOL     OW28837   4.376   2.090   8.440 -0.0065 -0.3047  0.3217
 5735SOL    HW128838   4.416   2.005   8.459 -0.8199 -0.4828  1.1818
 5735SOL    HW228839   4.434   2.143   8.494 -0.1878  1.1406 -0.9105
 5736SOL     OW28840   1.627   3.195   3.911 -0.5062  0.5371  0.7086
 5736SOL    HW128841   1.654   3.105   3.894 -1.7819  0.4870 -1.0382
 5736SOL    HW228842   1.707   3.241   3.888 -0.6710  0.0223 -0.8960
 5737SOL     OW28843   1.688   4.660   7.336  0.1031 -0.3571  0.0764
 5737SOL    HW128844   1.747   4.735   7.327  0.3565 -0.6544 -0.8308
 5737SOL    HW228845   1.697   4.619   7.422  0.3105  0.9668  0.6840
 5738SOL     OW28846   4.636   0.405   6.042  0.0634  0.0551  0.2394
 5738SOL    HW128847   4.700   0.406   6.113  1.9593 -3.4366 -1.4829
 5738SOL    HW228848   4.682   0.355   5.975  0.0668  0.4257 -0.0364
 5739SOL     OW28849   0.082   3.668   4.494 -0.3347 -0.0921  0.1672
 5739SOL    HW128850   0.104   3.709   4.578 -1.2148  0.0974  0.3046
 5739SOL    HW228851   4.723   3.677   4.494 -0.2542  0.8597  1.8592
 5740SOL     OW28852   4.002   3.323   0.855  0.2008 -0.4843  0.2161
 5740SOL    HW128853   4.019   3.402   0.906  1.1924  0.6377 -1.8276
 5740SOL    HW228854   3.914   3.341   0.822  0.2994 -3.6850 -1.7991
 5741SOL     OW28855   1.956   0.817   6.553 -0.0530 -0.2724 -0.1758
 5741SOL    HW128856   1.952   0.773   6.468 -1.8861  0.3458 -0.4118
 5741SOL    HW228857   2.048   0.843   6.560  0.0810 -0.5460 -0.9773
 5742SOL     OW28858   1.892   0.514   4.375 -0.0721  0.9131  0.3221
 5742SOL    HW128859   1.902   0.607   4.354 -1.6249  0.7216 -1.2904
 5742SOL    HW228860   1.799   0.503   4.355  0.3040  1.0650 -1.5010
 5743SOL     OW28861   4.407   0.393   3.156  0.9144 -0.5172  0.0270
 5743SOL    HW128862   4.339   0.393   3.088 -0.5039  2.1802  1.4194
 5743SOL    HW228863   4.380   0.470   3.206  0.5880 -0.1689 -0.6884
 5744SOL     OW28864   1.899   0.913   2.904  0.2058 -0.2894 -0.3408
 5744SOL    HW128865   1.962   0.981   2.928  0.3323 -0.2309 -0.8415
 5744SOL    HW228866   1.827   0.944   2.958 -0.5541 -0.2930 -1.3550
 5745SOL     OW28867   0.697   3.721   7.386  0.3898  0.0008  0.3731
 5745SOL    HW128868   0.755   3.788   7.422  3.0260 -1.2407 -1.5664
 5745SOL    HW228869   0.620   3.719   7.443 -0.7205  0.7401 -1.0934
 5746SOL     OW28870   3.694   0.244   6.260 -0.3088 -0.0982 -0.7477
 5746SOL    HW128871   3.722   0.336   6.261 -1.0043  0.0924  0.6072
 5746SOL    HW228872   3.603   0.251   6.288 -0.2269 -1.6309 -0.1068
 5747SOL     OW28873   0.940   1.754   4.010  0.2732 -0.3804  0.3614
 5747SOL    HW128874   0.947   1.670   4.055  1.0969 -0.9862 -0.8945
 5747SOL    HW228875   1.013   1.804   4.047 -0.6211  0.6500  0.7630
 5748SOL     OW28876   3.327   0.826   2.326 -0.1593 -0.0037 -0.5205
 5748SOL    HW128877   3.401   0.868   2.371  0.5914 -0.9778 -0.8519
 5748SOL    HW228878   3.258   0.836   2.390 -0.3317  0.4419 -0.7763
 5749SOL     OW28879   3.149   3.950   7.725 -0.0181  0.6026  0.4400
 5749SOL    HW128880   3.074   3.991   7.682 -0.4472  0.6938  1.2928
 5749SOL    HW228881   3.153   3.992   7.811 -1.5347 -0.3843  0.9787
 5750SOL     OW28882   1.371   4.401   2.934 -0.1011 -0.3232  0.1942
 5750SOL    HW128883   1.410   4.360   3.011  0.1658 -0.1242  0.1649
 5750SOL    HW228884   1.428   4.477   2.921  0.5861 -0.8476  0.1245
 5751SOL     OW28885   3.149   3.458  13.400 -0.7084  0.4780  0.5120
 5751SOL    HW128886   3.225   3.497  13.356 -0.0287  0.3084  1.5299
 5751SOL    HW228887   3.169   3.509  13.479 -1.9263  3.2559 -0.9721
 5752SOL     OW28888   2.961   4.700  13.622 -0.1853  0.3598 -0.0033
 5752SOL    HW128889   2.882   4.714  13.674 -1.0915  0.9175 -1.5240
 5752SOL    HW228890   2.940   4.632  13.558 -0.4811  0.4683 -0.0214
 5753SOL     OW28891   1.579   3.624  12.028  0.7159 -0.2382  0.0450
 5753SOL    HW128892   1.494   3.579  12.034  1.2484 -1.3270 -0.5063
 5753SOL    HW228893   1.591   3.629  11.934 -1.1677 -0.3116 -0.2088
 5754SOL     OW28894   3.751   0.238   3.599 -0.0449  0.0081  0.5244
 5754SOL    HW128895   3.781   0.209   3.512 -0.2755 -0.2279  0.5234
 5754SOL    HW228896   3.830   0.274   3.640 -0.2127  2.9360 -1.7197
 5755SOL     OW28897   2.909   3.395  15.701  0.2887  0.1244 -0.2615
 5755SOL    HW128898   2.847   3.340  15.749 -0.3554  2.3772  1.4594
 5755SOL    HW228899   2.908   3.350  15.617  0.8893 -0.3686 -0.0087
 5756SOL     OW28900   0.624   0.741  15.093 -0.2510  0.4596 -0.2345
 5756SOL    HW128901   0.706   0.755  15.140  0.7388 -0.5628 -1.6706
 5756SOL    HW228902   0.618   0.645  15.092  0.9236  0.3754  0.8778
 5757SOL     OW28903   0.191   4.554   7.585 -0.6260 -0.0533  0.3550
 5757SOL    HW128904   0.134   4.517   7.518  0.5170  0.7769 -1.0689
 5757SOL    HW228905   0.278   4.530   7.554  0.8049  2.2102  2.6730
 5758SOL     OW28906   4.058   1.611  13.608  0.2977 -0.0477  0.3722
 5758SOL    HW128907   4.115   1.649  13.541 -1.2965  0.6969 -0.5600
 5758SOL    HW228908   4.020   1.690  13.645 -0.6176  0.1892 -1.0773
 5759SOL     OW28909   3.487   2.436   5.945  0.0462  0.2565  0.1275
 5759SOL    HW128910   3.415   2.489   5.978 -0.5303 -0.0204 -0.6669
 5759SOL    HW228911   3.492   2.492   5.867 -0.2465 -0.2159 -0.2379
 5760SOL     OW28912   2.142   2.589   6.505 -0.9006  0.2021  0.3176
 5760SOL    HW128913   2.083   2.605   6.578 -0.7988  3.2953 -0.2655
 5760SOL    HW228914   2.097   2.522   6.453  0.4386 -1.1421  0.9291
 5761SOL     OW28915   3.647   0.190   4.580 -0.6016 -0.7360  0.0299
 5761SOL    HW128916   3.654   0.095   4.589  0.6618 -0.6037  0.3837
 5761SOL    HW228917   3.693   0.201   4.497 -0.3309  0.3211  0.3272
 5762SOL     OW28918   0.713   2.118  10.515 -0.6946  0.3502 -0.1846
 5762SOL    HW128919   0.724   2.081  10.603  2.2428  2.1666  0.2080
 5762SOL    HW228920   0.635   2.064  10.497 -1.4509  2.2199 -2.5469
 5763SOL     OW28921   4.503   0.660   4.489  0.2127  0.2914 -0.1680
 5763SOL    HW128922   4.501   0.565   4.484  2.6584  0.2786 -1.0074
 5763SOL    HW228923   4.560   0.681   4.415 -0.5304 -1.9861 -1.3697
 5764SOL     OW28924   3.223   3.063   1.358 -0.0556  0.5263  0.0435
 5764SOL    HW128925   3.170   3.089   1.434 -1.3213 -2.3113  0.1274
 5764SOL    HW228926   3.162   3.083   1.288 -2.6999  1.6310  2.6520
 5765SOL     OW28927   0.128   4.085  11.308 -0.1570 -0.8395 -0.6861
 5765SOL    HW128928   0.148   4.079  11.215  0.1356 -1.5041 -0.5840
 5765SOL    HW228929   0.111   4.178  11.322 -1.6107 -0.4700 -4.8327
 5766SOL     OW28930   1.922   2.578   3.102 -0.0902  0.5849  0.3889
 5766SOL    HW128931   1.894   2.577   3.011 -0.3765 -0.0587  0.4807
 5766SOL    HW228932   2.016   2.584   3.085 -0.1045 -2.6049 -0.7413
 5767SOL     OW28933   4.586   3.987  12.216  0.7207 -0.2934 -0.7300
 5767SOL    HW128934   4.663   3.969  12.269  0.7087 -2.3456 -1.3964
 5767SOL    HW228935   4.527   3.912  12.233  1.9689 -1.5499 -2.0068
 5768SOL     OW28936   3.850   2.816   5.245 -0.0119  0.4109  0.4737
 5768SOL    HW128937   3.774   2.762   5.223  0.7296 -0.2509 -0.4709
 5768SOL    HW228938   3.909   2.779   5.180  0.4078  0.4374  0.8370
 5769SOL     OW28939   4.524   0.463  17.711 -0.0092 -0.3403  0.1229
 5769SOL    HW128940   4.594   0.465   0.031  0.3147  1.1277 -0.2802
 5769SOL    HW228941   4.540   0.376  17.673 -1.3657 -0.0254 -1.2022
 5770SOL     OW28942   0.233   4.479   8.344 -0.4231  0.3745 -0.0955
 5770SOL    HW128943   0.206   4.432   8.423 -1.9439  1.2397 -0.0979
 5770SOL    HW228944   0.157   4.537   8.339 -1.6985 -1.3790 -1.4079
 5771SOL     OW28945   4.631   3.300   5.031  0.3358 -0.2063  0.6253
 5771SOL    HW128946   4.678   3.250   5.098 -3.0657  1.3566  4.2619
 5771SOL    HW228947   4.537   3.293   5.047  0.2922  0.2501  0.5830
 5772SOL     OW28948   2.043   0.358   6.126  0.4228 -0.6333  0.1314
 5772SOL    HW128949   1.956   0.323   6.142 -0.1957  1.4470  1.2937
 5772SOL    HW228950   2.061   0.316   6.042 -3.1965 -0.3354 -0.8019
 5773SOL     OW28951   1.278   4.223   8.401 -0.4210 -0.0693 -0.1891
 5773SOL    HW128952   1.208   4.162   8.378 -0.5435  0.7284 -1.9649
 5773SOL    HW228953   1.265   4.229   8.496  0.4639  1.4003 -0.1598
 5774SOL     OW28954   1.514   0.863  11.503 -0.5742 -0.5256  0.1544
 5774SOL    HW128955   1.585   0.897  11.556  0.5762 -1.4896 -0.7584
 5774SOL    HW228956   1.455   0.938  11.511 -0.6424 -0.3482 -1.7937
 5775SOL     OW28957   2.708   0.878   0.042 -0.3994  0.3744 -0.0305
 5775SOL    HW128958   2.726   0.785   0.057  1.8117  0.5373 -1.6890
 5775SOL    HW228959   2.721   0.912   0.130  0.3095  0.6540 -0.2413
 5776SOL     OW28960   4.286   0.150   6.067  0.2122  0.3986 -0.4115
 5776SOL    HW128961   4.263   0.132   6.158 -0.6045 -0.3310 -0.7567
 5776SOL    HW228962   4.266   0.243   6.054  1.7522  0.5401 -1.6869
 5777SOL     OW28963   3.337   3.353   4.235  0.6715 -0.6521 -0.6084
 5777SOL    HW128964   3.263   3.311   4.279 -0.1663  2.5759  1.0972
 5777SOL    HW228965   3.348   3.427   4.295 -1.4874  0.8299 -2.0085
 5778SOL     OW28966   2.019   1.873   3.877 -0.4004  0.1816 -0.5586
 5778SOL    HW128967   2.006   1.778   3.875  0.2905  0.0675  0.3578
 5778SOL    HW228968   1.941   1.893   3.825 -1.9052 -1.4970  1.0610
 5779SOL     OW28969   1.678   4.095   1.101 -0.0959 -0.8866 -0.3403
 5779SOL    HW128970   1.666   4.190   1.113 -0.9142 -0.8471 -1.4246
 5779SOL    HW228971   1.597   4.064   1.141 -0.8083  1.1062 -0.2163
 5780SOL     OW28972   1.889   2.464   8.099 -0.1794  0.0824 -0.2367
 5780SOL    HW128973   1.801   2.489   8.128  0.1155  1.3614 -0.4374
 5780SOL    HW228974   1.948   2.459   8.174  0.8274  1.5075 -0.9409
 5781SOL     OW28975   0.101   1.434   6.484 -0.2049 -0.2549  0.2003
 5781SOL    HW128976   0.129   1.345   6.462  0.7167  0.5642 -1.9502
 5781SOL    HW228977   0.160   1.487   6.431 -1.4007  1.1605  0.2598
 5782SOL     OW28978   2.951   0.225   1.904 -0.3224 -0.2320 -0.6344
 5782SOL    HW128979   2.972   0.137   1.935  1.4039  0.1982 -0.5833
 5782SOL    HW228980   2.968   0.274   1.985 -1.1962 -1.8248  0.5277
 5783SOL     OW28981   4.429   2.266  15.346  0.2793  0.4366 -0.2911
 5783SOL    HW128982   4.510   2.286  15.391 -0.9746 -0.8654  2.5312
 5783SOL    HW228983   4.466   2.199  15.289 -1.5955 -0.1945 -0.7857
 5784SOL     OW28984   2.188   4.571   9.767 -0.6630 -0.2687 -0.5997
 5784SOL    HW128985   2.259   4.559   9.830 -1.1614  0.3723  0.0832
 5784SOL    HW228986   2.181   4.666   9.763  1.0629 -0.1182 -0.1060
 5785SOL     OW28987   1.618   4.670   8.260 -0.4559  0.1611  0.3715
 5785SOL    HW128988   1.604   4.623   8.178 -0.1769  1.1059 -0.2142
 5785SOL    HW228989   1.657   0.016   8.230  1.2554 -1.0052 -0.5830
 5786SOL     OW28990   0.317   2.645  15.422  0.1337 -0.3059  0.2646
 5786SOL    HW128991   0.296   2.736  15.403 -0.8085 -0.2021  1.7536
 5786SOL    HW228992   0.248   2.617  15.482 -3.0060  3.6425 -1.5628
 5787SOL     OW28993   3.356   3.024   5.644  0.3069 -0.1197 -0.3958
 5787SOL    HW128994   3.304   2.985   5.573  0.0211  2.3002 -1.5409
 5787SOL    HW228995   3.434   3.036   5.590  1.5074  0.7963  1.5588
 5788SOL     OW28996   1.457   1.814  11.784  0.6671 -0.2866  0.2391
 5788SOL    HW128997   1.388   1.748  11.776  1.3837 -1.2573  1.9648
 5788SOL    HW228998   1.525   1.762  11.827  0.3009 -0.1446  0.9859
 5789SOL     OW28999   1.436   1.771  17.021  0.2094  0.5524 -0.0292
 5789SOL    HW129000   1.456   1.678  17.026  2.9151  1.3219  2.8360
 5789SOL    HW229001   1.368   1.769  16.953 -1.5746 -1.8739  1.8199
 5790SOL     OW29002   4.378   1.481  11.204  0.0368  0.0708 -0.2203
 5790SOL    HW129003   4.325   1.439  11.272  0.4967 -0.7849 -0.3971
 5790SOL    HW229004   4.451   1.516  11.256 -1.3796  3.1771 -0.3567
 5791SOL     OW29005   4.628   3.379   5.499  0.1142  0.3279 -0.3533
 5791SOL    HW129006   4.703   3.438   5.502 -0.0355  0.5890 -1.7752
 5791SOL    HW229007   4.653   3.322   5.572  0.7488  1.6093  0.4342
 5792SOL     OW29008   2.377   0.342   6.810 -0.0720 -0.2959 -0.0015
 5792SOL    HW129009   2.388   0.356   6.904  0.8652  1.1294 -0.3220
 5792SOL    HW229010   2.294   0.293   6.808 -1.1924  1.6822 -1.9057
 5793SOL     OW29011   1.512   2.817   8.586 -0.8059 -0.1324 -0.1898
 5793SOL    HW129012   1.468   2.779   8.662 -1.1063  1.4701  0.4407
 5793SOL    HW229013   1.458   2.776   8.518 -3.3402  0.8758  1.2484
 5794SOL     OW29014   4.699   3.293   3.194  0.7658 -0.2389 -0.3601
 5794SOL    HW129015   4.660   3.215   3.233 -1.0776  0.6787 -0.3508
 5794SOL    HW229016   4.675   3.273   3.104  0.7519  2.3956 -0.9340
 5795SOL     OW29017   1.671   2.929   9.571 -0.4880  0.5131 -0.1505
 5795SOL    HW129018   1.634   3.008   9.611 -2.4047 -0.1690 -0.6203
 5795SOL    HW229019   1.634   2.860   9.625  0.5187  0.4597  0.4665
 5796SOL     OW29020   4.102   3.589   4.298  0.3881  0.3641 -0.4224
 5796SOL    HW129021   4.020   3.559   4.337 -0.6245  3.8392  0.0886
 5796SOL    HW229022   4.158   3.557   4.370  1.8920  0.3408 -1.5993
 5797SOL     OW29023   0.638   4.672   2.988  0.6381  0.3727  0.0131
 5797SOL    HW129024   0.629   4.589   2.940  1.6230  0.9322 -1.1374
 5797SOL    HW229025   0.636   4.730   2.913  0.3671 -1.1962 -1.2058
 5798SOL     OW29026   0.678   1.536   2.043 -0.1914  0.5901  0.1600
 5798SOL    HW129027   0.647   1.458   1.997  0.1786  1.4880 -1.6002
 5798SOL    HW229028   0.605   1.598   2.049 -1.4561 -0.8822 -0.0670
 5799SOL     OW29029   1.914   0.778   5.601 -0.9057  0.0085  0.4268
 5799SOL    HW129030   1.973   0.737   5.538 -0.2219  1.9849 -0.2396
 5799SOL    HW229031   1.830   0.785   5.556 -0.2209  1.3154 -0.6626
 5800SOL     OW29032   0.277   4.204   2.912 -0.1052  0.3098 -0.0004
 5800SOL    HW129033   0.182   4.200   2.905 -0.4417  1.7066  3.8483
 5800SOL    HW229034   0.290   4.225   3.005 -0.2992  1.5817 -0.2644
 5801SOL     OW29035   3.609   2.211  13.484  0.4247  0.0601 -0.6832
 5801SOL    HW129036   3.542   2.190  13.418 -0.0137  0.4647 -0.3649
 5801SOL    HW229037   3.645   2.126  13.512 -0.8774 -0.1694  0.2972
 5802SOL     OW29038   2.778   2.961  14.645  0.3262 -0.2232 -0.9565
 5802SOL    HW129039   2.691   3.001  14.640  0.1381 -0.4067  0.7177
 5802SOL    HW229040   2.815   3.000  14.724 -1.1360  0.2909 -0.5146
 5803SOL     OW29041   0.718   0.346  13.440 -0.1466  0.2962  0.1359
 5803SOL    HW129042   0.663   0.347  13.519 -2.5612 -0.5033 -1.5156
 5803SOL    HW229043   0.655   0.366  13.370  0.4744  1.1406 -0.1826
 5804SOL     OW29044   2.802   1.120   4.112  0.2459  0.2905  0.3471
 5804SOL    HW129045   2.884   1.167   4.132  0.7812  1.7041 -5.1233
 5804SOL    HW229046   2.841   1.044   4.068 -1.4456 -0.2716 -0.1461
 5805SOL     OW29047   1.626   1.411   9.208  0.1719 -0.0208 -0.4884
 5805SOL    HW129048   1.660   1.322   9.217  0.1670 -0.0259 -0.5197
 5805SOL    HW229049   1.690   1.449   9.148 -0.4937  0.1625 -1.0826
 5806SOL     OW29050   0.427   2.535  17.082 -0.2604  0.7964  0.0117
 5806SOL    HW129051   0.459   2.448  17.060 -0.7938  0.6778 -0.2801
 5806SOL    HW229052   0.495   2.568  17.142 -1.4623 -2.3380  3.0497
 5807SOL     OW29053   0.537   2.012  11.814  0.1562  0.2775 -0.2829
 5807SOL    HW129054   0.487   1.997  11.734 -1.1271  0.3365  0.5155
 5807SOL    HW229055   0.565   2.101  11.794 -1.9523  0.6577 -1.5325
 5808SOL     OW29056   1.257   3.515  14.376  0.3431  0.1813  0.1912
 5808SOL    HW129057   1.258   3.608  14.399 -0.9618  0.2153  0.1106
 5808SOL    HW229058   1.352   3.509  14.369  0.3767  1.7902 -0.6291
 5809SOL     OW29059   3.004   0.912   5.661 -0.1557  0.3976  0.3911
 5809SOL    HW129060   2.947   0.944   5.592  0.8365 -0.2106 -0.6990
 5809SOL    HW229061   3.074   0.977   5.673 -1.3700  2.0604 -1.6484
 5810SOL     OW29062   4.423   1.441   9.359 -0.0835  0.1825 -0.7221
 5810SOL    HW129063   4.363   1.421   9.430  0.6014  1.7880  0.3179
 5810SOL    HW229064   4.476   1.363   9.372 -1.7026 -0.5827  1.1657
 5811SOL     OW29065   0.614   3.992   2.936 -0.0426  0.0447 -0.6738
 5811SOL    HW129066   0.582   4.029   3.018  0.3967  2.1967 -1.4825
 5811SOL    HW229067   0.639   3.906   2.970  0.7854  1.0902  1.3544
 5812SOL     OW29068   0.485   1.508  16.918 -0.5300  1.0583  0.1652
 5812SOL    HW129069   0.524   1.422  16.901 -1.0873  1.2433 -2.0954
 5812SOL    HW229070   0.539   1.541  16.989 -0.1287 -0.2872  0.4969
 5813SOL     OW29071   3.039   4.238   8.632 -0.1443  0.6417  0.2439
 5813SOL    HW129072   2.960   4.219   8.581 -0.8403  2.3410  0.6770
 5813SOL    HW229073   3.006   4.288   8.706 -2.4652  0.6963 -0.8105
 5814SOL     OW29074   1.206   3.999   0.653 -0.0672  0.2245 -0.1621
 5814SOL    HW129075   1.169   4.001   0.741 -0.6311 -1.0713 -0.3593
 5814SOL    HW229076   1.294   4.034   0.668 -0.2370  1.1828 -1.4214
 5815SOL     OW29077   0.808   4.003   6.521  0.1476 -0.5195 -0.3009
 5815SOL    HW129078   0.727   3.952   6.523  2.0741 -3.4409  3.2804
 5815SOL    HW229079   0.861   3.953   6.582 -0.6758  0.1732  0.9936
 5816SOL     OW29080   2.189   0.970   4.829 -0.0968  0.3679 -0.5710
 5816SOL    HW129081   2.162   1.014   4.749 -1.6693 -1.6749 -1.1848
 5816SOL    HW229082   2.204   0.882   4.794  2.7049  0.0848  1.3712
 5817SOL     OW29083   3.351   0.167  11.350 -0.2216  0.2458  0.1301
 5817SOL    HW129084   3.415   0.109  11.392 -2.5343 -1.6387  1.0638
 5817SOL    HW229085   3.407   0.241  11.330 -0.0875 -0.0666 -0.6288
 5818SOL     OW29086   0.982   2.746   9.074 -0.0819 -0.0697  0.3842
 5818SOL    HW129087   0.988   2.723   9.167  0.4310  0.8882  0.5814
 5818SOL    HW229088   0.974   2.841   9.081 -0.6339  0.0555 -1.7255
 5819SOL     OW29089   2.758   2.964  17.368 -0.5504  0.2300  0.7471
 5819SOL    HW129090   2.772   2.876  17.400 -0.0336 -0.7605 -2.1626
 5819SOL    HW229091   2.845   3.004  17.365 -0.6462  0.3840 -0.1756
 5820SOL     OW29092   1.456   3.354   8.596 -0.2795 -0.3638 -0.3441
 5820SOL    HW129093   1.500   3.335   8.513  0.5824  1.1879 -0.2475
 5820SOL    HW229094   1.444   3.269   8.637 -0.2110  0.7259  1.9635
 5821SOL     OW29095   4.728   0.929  11.284  0.5865  0.2192 -0.4596
 5821SOL    HW129096   0.049   0.855  11.270  0.7185 -0.2771  2.6559
 5821SOL    HW229097   4.732   0.977  11.201 -0.3448  2.4621  0.7600
 5822SOL     OW29098   4.609   1.581   7.262  0.4644  0.2684 -0.0153
 5822SOL    HW129099   4.537   1.626   7.307 -1.4584 -1.9383 -0.8519
 5822SOL    HW229100   4.597   1.613   7.173 -0.5675 -0.6098 -0.2039
 5823SOL     OW29101   3.876   4.511  13.221  0.0239  0.1226  0.6486
 5823SOL    HW129102   3.961   4.546  13.250 -0.8954  2.0991  0.9760
 5823SOL    HW229103   3.826   4.592  13.234 -0.9735 -0.2759 -0.7522
 5824SOL     OW29104   3.601   2.623   2.349  0.2295 -0.2997 -0.1909
 5824SOL    HW129105   3.693   2.604   2.331  0.4162 -1.3639  1.9156
 5824SOL    HW229106   3.568   2.626   2.259  1.3075  2.2904 -0.5148
 5825SOL     OW29107   1.266   3.402   0.219  0.6586 -0.0327  0.4433
 5825SOL    HW129108   1.261   3.436   0.130  1.6853  5.5147  2.4851
 5825SOL    HW229109   1.358   3.414   0.242  0.9807 -0.8197 -0.4371
 5826SOL     OW29110   1.849   1.621   6.331  0.2573 -0.1163 -0.1524
 5826SOL    HW129111   1.848   1.713   6.358 -0.1796 -0.5397  1.3005
 5826SOL    HW229112   1.784   1.626   6.262 -0.1362 -1.4092  0.1320
 5827SOL     OW29113   4.071   0.744   7.144  0.0161 -0.0905 -0.2737
 5827SOL    HW129114   4.116   0.821   7.110  1.4230 -0.4036  0.9012
 5827SOL    HW229115   4.008   0.730   7.073 -0.2552  1.1529 -0.2673
 5828SOL     OW29116   2.682   0.340  11.178  0.3111  0.0991  0.3645
 5828SOL    HW129117   2.746   0.296  11.234  2.3964  1.3008 -1.0527
 5828SOL    HW229118   2.613   0.351  11.243  0.2081 -1.3500  0.4951
 5829SOL     OW29119   4.578   2.705   3.794 -0.3040  1.0764  0.2584
 5829SOL    HW129120   4.628   2.763   3.736 -1.0262 -0.3465 -1.7777
 5829SOL    HW229121   4.560   2.755   3.874  0.7614  1.0923  0.4911
 5830SOL     OW29122   1.806   1.388   8.932  0.1110  0.3733 -0.7573
 5830SOL    HW129123   1.848   1.355   8.853 -0.7898  2.4334 -2.1134
 5830SOL    HW229124   1.727   1.335   8.921 -0.2106  0.5450  0.8005
 5831SOL     OW29125   1.272   3.469   4.223 -0.3620 -0.2305  0.0352
 5831SOL    HW129126   1.303   3.450   4.311  0.5475 -1.9640 -0.6626
 5831SOL    HW229127   1.322   3.406   4.171  1.6871  1.3396  0.1178
 5832SOL     OW29128   2.409   0.775  13.948 -0.5066  0.5440 -0.8264
 5832SOL    HW129129   2.328   0.758  13.996  0.3842  1.1795  0.8714
 5832SOL    HW229130   2.467   0.774  14.024 -1.4394  0.1769 -0.1260
 5833SOL     OW29131   2.150   3.889   3.325  0.2033 -0.5144 -0.3044
 5833SOL    HW129132   2.092   3.844   3.263 -1.9406  0.8771  0.7184
 5833SOL    HW229133   2.100   3.962   3.361  0.8278  0.2718 -1.0444
 5834SOL     OW29134   3.525   4.325   4.150 -0.9126  0.3047 -0.5845
 5834SOL    HW129135   3.492   4.365   4.070  1.5037  0.7606 -1.3464
 5834SOL    HW229136   3.554   4.398   4.204 -0.6768 -0.8140  0.8120
 5835SOL     OW29137   1.669   1.745   6.781  0.4444  0.3294  0.1575
 5835SOL    HW129138   1.741   1.709   6.832 -0.5174  0.2745  1.4638
 5835SOL    HW229139   1.645   1.818   6.838 -0.9091 -0.2121  0.2987
 5836SOL     OW29140   0.615   0.571   6.294 -0.0754  0.0013  0.1394
 5836SOL    HW129141   0.620   0.617   6.377  0.4149  1.9833 -0.9842
 5836SOL    HW229142   0.652   0.640   6.238  1.9845 -2.0866 -1.0793
 5837SOL     OW29143   2.604   3.706  14.937 -0.4591  0.5081 -0.7123
 5837SOL    HW129144   2.685   3.758  14.937 -0.3567  0.3507  0.8246
 5837SOL    HW229145   2.565   3.747  14.860 -0.9655 -0.5345 -1.0064
 5838SOL     OW29146   3.195   2.654   8.168 -0.8863  0.1586 -0.0757
 5838SOL    HW129147   3.114   2.604   8.180 -0.5624 -0.7069 -1.5264
 5838SOL    HW229148   3.233   2.637   8.254 -0.0290  3.8491  0.2711
 5839SOL     OW29149   2.142   2.657   4.153 -0.2015 -0.1333  0.9226
 5839SOL    HW129150   2.113   2.566   4.148 -0.7385  0.0369  1.0305
 5839SOL    HW229151   2.234   2.648   4.178  0.2453 -0.7003 -0.9649
 5840SOL     OW29152   2.420   0.210  10.496 -0.1100 -0.0980 -0.0410
 5840SOL    HW129153   2.361   0.191  10.569 -1.3797  1.1057 -0.7430
 5840SOL    HW229154   2.423   0.126  10.450 -1.8746  1.5585 -3.2040
 5841SOL     OW29155   1.382   2.437   1.794  0.2358 -0.0814 -0.2976
 5841SOL    HW129156   1.405   2.448   1.886  0.9047 -2.1950 -0.1990
 5841SOL    HW229157   1.297   2.393   1.796  0.4824 -0.4622  1.5466
 5842SOL     OW29158   2.816   1.105   1.781 -0.5230  0.0575  0.3346
 5842SOL    HW129159   2.892   1.051   1.761 -0.1766 -0.3785  2.8080
 5842SOL    HW229160   2.861   1.176   1.826 -0.9691  1.3516 -1.2445
 5843SOL     OW29161   2.413   0.981   1.742  0.0310  0.1525 -0.1337
 5843SOL    HW129162   2.462   0.917   1.794 -2.0998 -0.3027  1.3102
 5843SOL    HW229163   2.444   0.962   1.654  0.0504 -1.7653  0.2852
 5844SOL     OW29164   4.585   1.953  16.097 -0.3616 -0.5819 -0.3364
 5844SOL    HW129165   4.625   2.039  16.088 -0.5902 -0.3812  0.4929
 5844SOL    HW229166   4.523   1.975  16.167  0.3640  0.9129 -0.1500
 5845SOL     OW29167   3.498   2.528  13.583  0.0348  0.2346 -0.1875
 5845SOL    HW129168   3.460   2.480  13.510  1.7694  1.2291 -1.7601
 5845SOL    HW229169   3.421   2.552  13.633 -0.0341 -0.1605 -0.1082
 5846SOL     OW29170   1.556   4.607   9.661  0.1444  0.2120 -0.1221
 5846SOL    HW129171   1.610   4.668   9.610  0.3242  0.6680  0.6156
 5846SOL    HW229172   1.577   4.636   9.749 -0.5315 -4.1411  1.4844
 5847SOL     OW29173   2.547   0.439   4.421  0.1902 -0.0953  0.4206
 5847SOL    HW129174   2.526   0.506   4.487 -0.2815 -0.3853  0.5622
 5847SOL    HW229175   2.639   0.432   4.447 -0.4860  0.4923  3.0635
 5848SOL     OW29176   4.105   0.214   8.497 -0.4103 -0.1388 -0.3496
 5848SOL    HW129177   4.043   0.278   8.462  1.1966  1.1665 -0.8404
 5848SOL    HW229178   4.056   0.166   8.564  1.3596 -2.2757 -0.6012
 5849SOL     OW29179   4.013   3.183  11.284  0.0514 -0.0467 -0.6596
 5849SOL    HW129180   3.974   3.212  11.367 -1.5006 -0.9756 -1.0575
 5849SOL    HW229181   4.102   3.214  11.300  0.4550 -1.0387 -1.0033
 5850SOL     OW29182   4.574   0.617  17.252 -0.4903  0.2951 -0.1314
 5850SOL    HW129183   4.622   0.566  17.317  0.0388  0.1455 -0.6375
 5850SOL    HW229184   4.552   0.698  17.297 -1.3784 -0.5097  0.8514
 5851SOL     OW29185   0.576   3.443  14.472  0.0518  0.1888  0.0923
 5851SOL    HW129186   0.631   3.519  14.451 -0.3758 -0.3701 -2.9845
 5851SOL    HW229187   0.497   3.478  14.431  0.2171 -0.5930 -0.8988
 5852SOL     OW29188   4.028   0.872   7.735 -0.1042 -0.9548  0.5381
 5852SOL    HW129189   3.939   0.907   7.740  1.0467  1.9130  0.4765
 5852SOL    HW229190   4.022   0.788   7.781  2.1310 -1.1660  0.4423
 5853SOL     OW29191   1.635   4.325   6.235 -0.5486 -0.2298  0.1770
 5853SOL    HW129192   1.700   4.394   6.220 -0.9297  0.1029  0.0426
 5853SOL    HW229193   1.560   4.363   6.281  0.2097 -0.8856  1.9492
 5854SOL     OW29194   2.278   0.274   1.801 -0.0896  0.4514  0.1352
 5854SOL    HW129195   2.297   0.233   1.716  0.0498  0.3418  0.2191
 5854SOL    HW229196   2.356   0.308   1.844  0.8592 -0.7396 -0.6059
 5855SOL     OW29197   0.991   2.046   2.877 -0.3020  0.2565  0.2690
 5855SOL    HW129198   1.006   2.133   2.914 -0.0922  0.9503 -1.4236
 5855SOL    HW229199   0.902   2.056   2.843  0.1837  2.5588 -0.3522
 5856SOL     OW29200   2.659   3.269  14.530 -0.2578 -0.7734  0.2793
 5856SOL    HW129201   2.683   3.323  14.606 -0.3732 -2.2635  1.3782
 5856SOL    HW229202   2.627   3.184  14.562  0.1546 -0.1782  2.2925
 5857SOL     OW29203   2.600   3.512  14.134 -0.5165 -0.2955  0.2062
 5857SOL    HW129204   2.541   3.479  14.201  0.1537 -0.5709  0.6692
 5857SOL    HW229205   2.561   3.503  14.047 -0.0661 -1.0730  0.0853
 5858SOL     OW29206   3.344   0.880   8.748 -0.0040 -0.2607  0.5933
 5858SOL    HW129207   3.344   0.854   8.656  1.5602  2.1957 -0.0932
 5858SOL    HW229208   3.433   0.913   8.763 -0.7293  2.3199 -0.8848
 5859SOL     OW29209   1.999   2.678   6.708 -0.0127  0.0944  0.4023
 5859SOL    HW129210   2.055   2.657   6.783  0.8804  1.6244  0.1597
 5859SOL    HW229211   1.991   2.773   6.723 -1.7792  0.1918 -1.0819
 5860SOL     OW29212   2.858   3.877   3.539 -0.1198 -0.1889  0.5012
 5860SOL    HW129213   2.808   3.959   3.535  0.6539  0.3199  1.0221
 5860SOL    HW229214   2.890   3.888   3.628 -0.6632  0.0289  0.6694
 5861SOL     OW29215   0.646   2.882   4.950 -0.1505  0.2626 -0.7738
 5861SOL    HW129216   0.696   2.817   4.901  0.8726 -0.3957  1.1304
 5861SOL    HW229217   0.600   2.819   5.007  0.9277 -1.5574 -1.9043
 5862SOL     OW29218   1.547   1.490   3.282 -0.1730 -0.0630 -0.3729
 5862SOL    HW129219   1.517   1.572   3.243 -1.2952  1.0028  2.6970
 5862SOL    HW229220   1.637   1.518   3.300 -0.3688  0.0692  0.3867
 5863SOL     OW29221   3.235   3.986   4.816  0.4328 -0.0269  0.2550
 5863SOL    HW129222   3.154   4.015   4.773  1.2381  1.9541  0.0706
 5863SOL    HW229223   3.271   4.065   4.857 -0.1066 -0.4470  1.5678
 5864SOL     OW29224   4.559   3.830  11.437  0.0601  0.3547 -0.0375
 5864SOL    HW129225   4.525   3.917  11.415 -0.0098  0.5392  0.8222
 5864SOL    HW229226   4.625   3.843  11.506  0.6219  0.0374 -0.5152
 5865SOL     OW29227   1.669   2.721   2.281 -0.8299  0.2532 -0.4113
 5865SOL    HW129228   1.709   2.656   2.223 -0.3300  0.1150  0.1043
 5865SOL    HW229229   1.746   2.767   2.312 -0.3602 -0.3900 -0.6254
 5866SOL     OW29230   3.296   1.856   5.179  0.2983  1.1880 -0.0747
 5866SOL    HW129231   3.362   1.800   5.137 -0.1248  1.9982 -1.8054
 5866SOL    HW229232   3.298   1.838   5.273  1.3846 -1.4943 -0.6100
 5867SOL     OW29233   4.656   3.298   9.732 -0.4593  0.3887 -0.3055
 5867SOL    HW129234   4.614   3.333   9.654  0.1208 -1.2882 -1.3767
 5867SOL    HW229235   0.011   3.325   9.723  0.1431 -1.1045  1.2922
 5868SOL     OW29236   4.187   0.825   7.998 -0.0652 -0.1406 -0.3857
 5868SOL    HW129237   4.235   0.846   8.078 -0.9321 -1.1394  0.3842
 5868SOL    HW229238   4.143   0.743   8.021 -2.9842  1.5147 -0.0925
 5869SOL     OW29239   2.398   3.653   2.964  0.4161 -0.3971 -0.2975
 5869SOL    HW129240   2.479   3.697   2.937  0.5500 -0.3748  0.1375
 5869SOL    HW229241   2.431   3.564   2.973  1.0244 -0.1662 -0.2451
 5870SOL     OW29242   3.991   2.543  10.811  0.8468  0.3929 -0.0866
 5870SOL    HW129243   4.028   2.592  10.738  2.6188 -1.1619 -0.2398
 5870SOL    HW229244   3.992   2.600  10.888 -4.3326 -0.1377  0.3932
 5871SOL     OW29245   2.279   1.036  11.901 -0.0521  0.1939 -0.1531
 5871SOL    HW129246   2.303   1.115  11.949 -1.5835  0.2226  0.5643
 5871SOL    HW229247   2.354   0.977  11.907 -0.7230 -0.7346 -0.7368
 5872SOL     OW29248   2.619   3.515   2.769  0.0897 -0.9841  0.6172
 5872SOL    HW129249   2.677   3.568   2.715  0.4588 -1.3278  0.6736
 5872SOL    HW229250   2.666   3.504   2.852  1.3519 -0.8896 -0.0838
 5873SOL     OW29251   4.695   3.627   3.321 -0.1537  0.7758  0.1451
 5873SOL    HW129252   0.033   3.593   3.370 -1.5854 -3.2834 -0.5009
 5873SOL    HW229253   4.723   3.615   3.230 -1.0709  0.8369 -0.1429
 5874SOL     OW29254   0.206   0.200   9.704 -0.7608  0.3668  0.0534
 5874SOL    HW129255   0.295   0.170   9.720 -0.4656  1.4906  0.4873
 5874SOL    HW229256   0.170   0.114   9.682  1.0661 -0.7157  1.3691
 5875SOL     OW29257   3.039   3.917   6.643 -0.1509 -0.0525 -0.2300
 5875SOL    HW129258   3.079   3.844   6.595 -0.0858 -1.0906  1.4140
 5875SOL    HW229259   3.078   3.997   6.607  1.7624 -0.6264  0.5147
 5876SOL     OW29260   0.922   2.094   6.303 -0.0282  0.0008  0.6068
 5876SOL    HW129261   0.847   2.137   6.343 -0.5241 -0.2811 -0.0117
 5876SOL    HW229262   0.973   2.069   6.379  0.9120 -2.0096 -0.6880
 5877SOL     OW29263   3.242   3.674   6.723  0.1161  0.5443  0.2833
 5877SOL    HW129264   3.330   3.709   6.712 -0.6305  2.0727 -0.7604
 5877SOL    HW229265   3.266   3.584   6.699 -1.4918  0.0146  0.6380
 5878SOL     OW29266   2.515   4.504   3.778 -0.1270 -0.6104 -0.0767
 5878SOL    HW129267   2.451   4.476   3.712  1.3784 -0.1801 -1.7074
 5878SOL    HW229268   2.452   4.555   3.828  0.0619  0.2546 -0.7254
 5879SOL     OW29269   2.158   0.168   4.458 -0.0617 -0.1107 -0.0950
 5879SOL    HW129270   2.148   0.209   4.373 -3.3877  1.6300  1.1421
 5879SOL    HW229271   2.224   0.103   4.434 -1.2285 -0.1791 -3.0928
 5880SOL     OW29272   2.767   0.024  11.526 -0.3197 -0.0439  0.1945
 5880SOL    HW129273   2.718   0.093  11.570  0.6313  1.2153 -0.7046
 5880SOL    HW229274   2.819   0.081  11.470  2.2931 -3.6876 -1.1118
 5881SOL     OW29275   1.191   0.432  10.215  0.8192 -0.1765 -0.4866
 5881SOL    HW129276   1.215   0.378  10.140 -1.1151  0.9338 -1.9241
 5881SOL    HW229277   1.177   0.521  10.182 -0.4297  0.3378  1.4094
 5882SOL     OW29278   3.804   0.471  10.646 -0.2070 -0.1500 -0.3477
 5882SOL    HW129279   3.749   0.421  10.706 -1.8688  2.4217  0.2356
 5882SOL    HW229280   3.804   0.413  10.570 -0.1443 -0.9122  0.2235
 5883SOL     OW29281   0.686   3.827   4.112  0.1597 -0.4734  0.2557
 5883SOL    HW129282   0.757   3.770   4.083  0.0175 -0.7741  0.4922
 5883SOL    HW229283   0.611   3.786   4.068 -0.7323  0.2575  1.0856
 5884SOL     OW29284   2.752   1.541   9.493 -0.1081 -0.0428 -0.1532
 5884SOL    HW129285   2.665   1.543   9.452 -1.0682  0.7634  1.9417
 5884SOL    HW229286   2.763   1.630   9.527 -3.9717  0.5811 -0.5044
 5885SOL     OW29287   2.322   2.524   9.420 -0.3326  0.1386  0.2463
 5885SOL    HW129288   2.311   2.515   9.326 -1.2152 -0.5494  0.4240
 5885SOL    HW229289   2.272   2.606   9.421 -0.1660  0.2126  1.9625
 5886SOL     OW29290   4.045   0.296   6.168  0.3195  0.0781  0.4318
 5886SOL    HW129291   4.086   0.366   6.219 -0.1803  0.0388  0.8862
 5886SOL    HW229292   3.977   0.343   6.120 -0.6306 -1.5783  0.1629
 5887SOL     OW29293   0.914   3.028   6.354  0.4569 -0.2961  0.0711
 5887SOL    HW129294   0.897   2.934   6.349 -0.8939 -0.0276 -0.3660
 5887SOL    HW229295   0.882   3.052   6.441  0.3896 -1.8265  0.4586
 5888SOL     OW29296   3.536   1.686   3.089 -0.1796  0.2655 -0.7716
 5888SOL    HW129297   3.622   1.728   3.097 -0.7898  1.6429 -1.4480
 5888SOL    HW229298   3.501   1.738   3.017 -0.8801  1.6685  0.5803
 5889SOL     OW29299   3.081   3.608   8.794  0.4402  0.1130  0.2493
 5889SOL    HW129300   2.989   3.598   8.771  0.4487  0.3460  0.1082
 5889SOL    HW229301   3.084   3.694   8.837  4.5896  0.6992 -1.1981
 5890SOL     OW29302   4.216   1.601   3.867 -0.1805  0.0567  0.7255
 5890SOL    HW129303   4.199   1.692   3.845 -0.7199 -0.4218 -0.7973
 5890SOL    HW229304   4.250   1.571   3.783  0.6109  3.3055 -0.1178
 5891SOL     OW29305   2.920   0.883  17.578  0.5465 -0.7524  0.2750
 5891SOL    HW129306   2.837   0.920  17.549  1.0526  0.3105  0.2081
 5891SOL    HW229307   2.885   0.807  17.626  0.7503 -0.2033  1.2811
 5892SOL     OW29308   1.312   2.355   4.558 -0.5649  0.1025  0.3150
 5892SOL    HW129309   1.282   2.442   4.583 -0.4590  0.1063  0.4260
 5892SOL    HW229310   1.226   2.323   4.530 -0.2801  0.7502 -1.2821
 5893SOL     OW29311   2.849   1.609  13.153  0.2790 -0.1118 -0.1746
 5893SOL    HW129312   2.892   1.575  13.232 -0.9727  0.3755  0.7202
 5893SOL    HW229313   2.856   1.702  13.173  1.5109 -0.6552  1.9652
 5894SOL     OW29314   1.641   1.684  11.910 -0.1470  0.7260 -0.0843
 5894SOL    HW129315   1.649   1.592  11.885 -1.9903  0.4222  0.4981
 5894SOL    HW229316   1.640   1.679  12.006  0.4130 -1.8755 -0.2157
 5895SOL     OW29317   4.200   3.528   7.436  0.1632 -0.4408 -0.4965
 5895SOL    HW129318   4.131   3.498   7.497  2.5364 -0.4536  2.1841
 5895SOL    HW229319   4.265   3.462   7.459 -2.7568 -1.9268  3.5876
 5896SOL     OW29320   1.625   4.319   4.202 -0.0504  0.4098  0.7727
 5896SOL    HW129321   1.705   4.362   4.170  0.3018  0.8415  2.2494
 5896SOL    HW229322   1.577   4.400   4.214 -1.2124 -0.3477  1.1854
 5897SOL     OW29323   3.560   2.248   4.934  0.5085 -0.3037 -0.0697
 5897SOL    HW129324   3.615   2.191   4.880  0.7254 -0.9574  0.8273
 5897SOL    HW229325   3.535   2.309   4.865  0.5923 -1.0637 -0.7730
 5898SOL     OW29326   1.335   2.089   7.956  0.1614 -0.2560 -0.1689
 5898SOL    HW129327   1.360   2.077   7.864  1.2201 -0.5051  0.1549
 5898SOL    HW229328   1.404   2.038   7.997  0.1460  2.6872  3.5217
 5899SOL     OW29329   1.587   3.160  17.460  0.2377 -0.1496 -0.9209
 5899SOL    HW129330   1.507   3.136  17.412  0.8066  0.8336 -2.3610
 5899SOL    HW229331   1.611   3.080  17.505  0.3783  0.1476 -0.4736
 5900SOL     OW29332   1.807   4.259   0.405  0.0172  0.3588  0.6659
 5900SOL    HW129333   1.900   4.273   0.388 -0.3800  0.5496 -1.3835
 5900SOL    HW229334   1.814   4.186   0.466 -1.3108 -1.9390 -1.9458
 5901SOL     OW29335   2.429   3.964   3.341 -0.1632  0.4686 -0.5283
 5901SOL    HW129336   2.476   3.954   3.258  1.2206  0.3143  0.2680
 5901SOL    HW229337   2.351   3.910   3.329 -0.4055  0.1367  2.4832
 5902SOL     OW29338   0.110   3.904  11.528  0.2413 -0.0371 -0.1056
 5902SOL    HW129339   0.111   3.954  11.446  1.8434  0.9211  0.4933
 5902SOL    HW229340   0.075   3.974  11.582 -2.1000 -1.7908  0.6757
 5903SOL     OW29341   2.852   1.631   6.734 -0.0447 -0.0946  0.0895
 5903SOL    HW129342   2.830   1.565   6.800  1.6154  1.4342  2.1464
 5903SOL    HW229343   2.913   1.591   6.672  0.7900  0.6140  0.4579
 5904SOL     OW29344   0.036   3.273   7.666 -0.4234  0.1970  0.3729
 5904SOL    HW129345   0.092   3.349   7.646 -1.9660  1.0909 -0.6208
 5904SOL    HW229346   4.727   3.260   7.583 -1.9131 -0.9913  1.3777
 5905SOL     OW29347   3.661   0.872  10.664  0.8315 -0.8957  1.1221
 5905SOL    HW129348   3.661   0.782  10.632 -1.3666 -1.2031  2.0060
 5905SOL    HW229349   3.708   0.923  10.597  0.1269 -0.4482  0.9682
 5906SOL     OW29350   0.546   2.872  15.517  0.2752 -0.5448 -0.2594
 5906SOL    HW129351   0.584   2.839  15.435  1.4624  2.5683 -0.9598
 5906SOL    HW229352   0.620   2.921  15.552 -0.6833  0.5943  0.1490
 5907SOL     OW29353   4.669   1.022  16.326  0.1057 -0.0346  0.3928
 5907SOL    HW129354   4.632   0.934  16.323  1.6881 -0.7327  1.2487
 5907SOL    HW229355   4.614   1.069  16.389 -0.7257 -1.7118  0.9076
 5908SOL     OW29356   4.101   3.817   6.695  0.2327 -0.5943 -0.7264
 5908SOL    HW129357   4.132   3.903   6.723  1.8812 -2.2123  2.3928
 5908SOL    HW229358   4.013   3.839   6.666 -0.8695 -0.7144  2.5468
 5909SOL     OW29359   3.841   2.374  17.544 -0.3266  0.0549  0.0331
 5909SOL    HW129360   3.914   2.435  17.535 -0.4528  0.0424 -1.0935
 5909SOL    HW229361   3.815   2.370  17.452 -0.2263  1.0617 -0.0286
 5910SOL     OW29362   1.381   3.551   0.642  0.4099  0.4136  0.3095
 5910SOL    HW129363   1.426   3.467   0.632 -0.8776 -0.2964  0.4548
 5910SOL    HW229364   1.457   3.608   0.631  0.2272  0.2415 -1.7615
 5911SOL     OW29365   4.370   3.755   2.655  0.4288  0.0379  0.0625
 5911SOL    HW129366   4.384   3.812   2.579 -0.1228  0.5326  0.3314
 5911SOL    HW229367   4.307   3.800   2.712  1.3595  0.0133  1.0971
 5912SOL     OW29368   3.578   4.310   6.051 -0.2481 -0.2437  0.0471
 5912SOL    HW129369   3.569   4.404   6.037  0.9322  0.0607  1.3122
 5912SOL    HW229370   3.609   4.281   5.966 -1.6513 -2.7424  0.3889
 5913SOL     OW29371   3.001   4.087  12.667 -0.0379 -0.1006  0.4562
 5913SOL    HW129372   3.000   4.051  12.756  0.3830  0.5932  0.7379
 5913SOL    HW229373   3.089   4.067  12.634  0.2522  0.1418  1.0920
 5914SOL     OW29374   2.519   2.943   2.291 -0.0918  0.1992  0.5492
 5914SOL    HW129375   2.581   3.011   2.268 -0.4907  0.2541 -0.3780
 5914SOL    HW229376   2.571   2.889   2.350 -1.4878  1.9160  3.3429
 5915SOL     OW29377   2.095   0.101   7.257  0.1855 -1.1929  0.3930
 5915SOL    HW129378   2.131   0.153   7.186 -1.1001  0.1982  0.7561
 5915SOL    HW229379   2.119   0.013   7.228 -1.7449 -1.2064 -1.1738
 5916SOL     OW29380   2.481   3.696  10.316 -0.5778  0.1039 -0.6396
 5916SOL    HW129381   2.408   3.678  10.256 -1.7377 -2.6845  1.5796
 5916SOL    HW229382   2.452   3.776  10.359 -0.1991  1.4717 -2.9440
 5917SOL     OW29383   4.306   2.486  15.515  0.1581 -0.2855  0.1409
 5917SOL    HW129384   4.311   2.566  15.463 -0.5247  0.6639  1.5463
 5917SOL    HW229385   4.316   2.415  15.451 -0.5010 -0.2201 -0.0278
 5918SOL     OW29386   4.145   2.512   4.653 -0.4351  0.1785  0.9796
 5918SOL    HW129387   4.107   2.425   4.664  2.6180 -1.0947  1.3515
 5918SOL    HW229388   4.092   2.532   4.576 -1.1689 -0.2685  1.3677
 5919SOL     OW29389   4.258   3.188   1.779  0.3988  0.3173 -0.6245
 5919SOL    HW129390   4.299   3.225   1.857 -0.7744  0.4997 -0.0976
 5919SOL    HW229391   4.169   3.189   1.814  1.3643 -3.4225  1.9896
 5920SOL     OW29392   2.906   2.612   6.615 -0.1148  0.4577 -0.2092
 5920SOL    HW129393   2.924   2.574   6.701  1.9625  1.4924 -0.1807
 5920SOL    HW229394   2.978   2.673   6.596 -2.4627  2.9809 -0.9965
 5921SOL     OW29395   2.868   1.181  16.315  0.7682 -0.1793  0.2428
 5921SOL    HW129396   2.828   1.157  16.231 -0.2748  2.3947  0.0057
 5921SOL    HW229397   2.785   1.182  16.362 -0.2271  2.8439 -1.5779
 5922SOL     OW29398   2.838   4.345   4.038  0.0064  0.4306 -0.1537
 5922SOL    HW129399   2.747   4.340   4.067 -0.1122 -0.2214 -0.6614
 5922SOL    HW229400   2.817   4.318   3.949 -0.0177  0.7266 -0.2386
 5923SOL     OW29401   2.581   4.724   7.770 -0.2589 -0.2954  0.5869
 5923SOL    HW129402   2.515   4.676   7.720 -2.4056  2.8227  0.4354
 5923SOL    HW229403   2.540   0.069   7.800  3.3205  1.7647 -0.1102
 5924SOL     OW29404   2.503   3.754  13.878  0.3224 -0.5142  0.0193
 5924SOL    HW129405   2.451   3.833  13.886  0.7838  0.1811 -3.9019
 5924SOL    HW229406   2.518   3.746  13.784 -2.4812  0.6163 -0.5185
 5925SOL     OW29407   1.274   0.594   6.248 -0.3773 -0.0177  0.0122
 5925SOL    HW129408   1.243   0.671   6.296 -0.9045 -0.2699  0.0751
 5925SOL    HW229409   1.367   0.614   6.242 -0.9365  2.2831 -0.7488
 5926SOL     OW29410   3.109   1.518   3.793  0.4686  0.3094 -0.1383
 5926SOL    HW129411   3.045   1.519   3.864 -1.9837  1.1541 -2.3926
 5926SOL    HW229412   3.181   1.476   3.841 -0.1813 -1.0153 -0.3052
 5927SOL     OW29413   1.905   2.900   2.370  0.4371  0.3786 -0.1040
 5927SOL    HW129414   1.988   2.854   2.382 -0.5287 -0.7150  2.4764
 5927SOL    HW229415   1.892   2.946   2.453 -1.7978 -1.0936  0.3611
 5928SOL     OW29416   0.009   0.770   8.869 -0.0576 -0.1393 -0.0487
 5928SOL    HW129417   4.709   0.713   8.936  2.4272 -1.7832 -0.0790
 5928SOL    HW229418   4.687   0.759   8.794  1.0464 -0.3144 -0.8911
 5929SOL     OW29419   3.500   1.296  16.487  0.2945 -0.6222  0.3029
 5929SOL    HW129420   3.484   1.206  16.462 -1.0153  0.1259 -1.5526
 5929SOL    HW229421   3.413   1.324  16.514  1.6246  2.6980  1.2522
 5930SOL     OW29422   0.316   1.592   8.820  0.0851 -0.5860 -0.4681
 5930SOL    HW129423   0.221   1.597   8.812 -0.0897 -0.0511  2.0831
 5930SOL    HW229424   0.356   1.663   8.770  0.0280 -2.6410 -3.4437
 5931SOL     OW29425   4.272   3.417  12.492 -0.2233 -0.4810  0.5710
 5931SOL    HW129426   4.301   3.375  12.572  1.0634 -1.3591 -0.3533
 5931SOL    HW229427   4.240   3.350  12.431  0.1126 -0.5695  0.4940
 5932SOL     OW29428   0.943   4.174   3.309  0.3814 -0.0563  0.6409
 5932SOL    HW129429   0.929   4.084   3.279  0.7658  0.6428 -1.6368
 5932SOL    HW229430   0.994   4.209   3.236  0.8056 -0.4264  0.7599
 5933SOL     OW29431   2.135   0.291   5.882  0.1822 -0.2134  0.2248
 5933SOL    HW129432   2.062   0.322   5.830  0.3573  0.3820  0.3333
 5933SOL    HW229433   2.191   0.270   5.807  1.1653  2.1740  0.2683
 5934SOL     OW29434   0.193   3.329   4.826 -0.3665  0.5179  0.5841
 5934SOL    HW129435   0.120   3.388   4.809 -1.5275 -0.5837  1.7517
 5934SOL    HW229436   0.256   3.382   4.875 -0.2915 -0.2058  1.2740
 5935SOL     OW29437   3.180   2.579   3.514 -0.4212 -0.3193  0.4950
 5935SOL    HW129438   3.198   2.512   3.579 -0.9846 -2.0948 -1.1615
 5935SOL    HW229439   3.159   2.650   3.575  1.0286 -0.1203  0.7455
 5936SOL     OW29440   2.245   3.360  13.709 -0.2509 -0.3444 -0.4356
 5936SOL    HW129441   2.240   3.292  13.776 -0.1542  1.0262  0.9511
 5936SOL    HW229442   2.155   3.382  13.685 -0.1343  0.7130  0.1169
 5937SOL     OW29443   3.077   3.668   1.418 -0.1748  1.0250  0.0978
 5937SOL    HW129444   3.042   3.754   1.394 -1.1256  0.7317  0.4369
 5937SOL    HW229445   3.114   3.693   1.503  2.1778  0.4027 -0.7348
 5938SOL     OW29446   0.027   0.849   9.829  0.2882  0.4083 -0.3676
 5938SOL    HW129447   0.039   0.787   9.757 -0.7155  0.4242 -0.5468
 5938SOL    HW229448   0.103   0.905   9.817 -0.3908  1.4335  0.1071
 5939SOL     OW29449   1.889   0.951   4.539 -0.4944 -0.3598  0.9347
 5939SOL    HW129450   1.848   1.024   4.586  2.2149  1.4873  0.4609
 5939SOL    HW229451   1.973   0.995   4.524  0.8338 -2.7108  1.5160
 5940SOL     OW29452   4.115   0.018   0.560 -0.5015 -0.0062  0.3797
 5940SOL    HW129453   4.144   4.672   0.600 -0.8283  0.2439  1.1259
 5940SOL    HW229454   4.120   4.725   0.469 -1.5346 -0.3633  0.4381
 5941SOL     OW29455   2.559   4.610  17.307 -0.3700 -0.4174  0.4563
 5941SOL    HW129456   2.531   4.616  17.216 -0.2097 -0.5617  0.3988
 5941SOL    HW229457   2.500   4.540  17.335 -0.7473 -0.4728 -0.4772
 5942SOL     OW29458   2.027   3.824  10.521 -0.7482  0.3247  0.4283
 5942SOL    HW129459   2.097   3.762  10.500 -1.0729 -0.3467  1.3509
 5942SOL    HW229460   2.070   3.862  10.597  1.2235 -2.0038  0.4604
 5943SOL     OW29461   1.189   3.232   6.827 -0.1807 -0.1685 -0.3661
 5943SOL    HW129462   1.249   3.182   6.883 -1.6567 -1.1158  0.3780
 5943SOL    HW229463   1.237   3.210   6.748 -0.3783 -0.2516 -0.4637
 5944SOL     OW29464   0.483   1.569   2.514  0.0136 -0.2573  0.2327
 5944SOL    HW129465   0.445   1.657   2.521  2.1311  0.8260 -1.8187
 5944SOL    HW229466   0.550   1.597   2.451 -0.7378  0.3055 -0.3212
 5945SOL     OW29467   1.895   1.860   5.763  0.4059 -0.5064  0.4646
 5945SOL    HW129468   1.849   1.917   5.702  0.9131 -0.0358  0.5287
 5945SOL    HW229469   1.930   1.789   5.709  2.3324 -1.1197  2.5345
 5946SOL     OW29470   1.064   3.762   8.673  0.0958 -0.1940  0.4333
 5946SOL    HW129471   1.118   3.841   8.676  0.2282 -0.3001  0.8583
 5946SOL    HW229472   1.134   3.700   8.653 -0.4605 -0.6250 -0.1534
 5947SOL     OW29473   2.749   3.048  14.009 -0.5381 -0.6726  0.2947
 5947SOL    HW129474   2.807   3.053  13.933  2.5264  3.5555  2.9334
 5947SOL    HW229475   2.693   3.126  14.001 -0.2734 -0.6697 -1.6485
 5948SOL     OW29476   0.809   4.462   2.273  0.2694 -0.1976  0.2343
 5948SOL    HW129477   0.772   4.474   2.185  0.5181  1.6967  0.3711
 5948SOL    HW229478   0.784   4.542   2.320  1.6655 -0.8167  2.0207
 5949SOL     OW29479   0.652   1.182   7.170  0.0026  0.1526  0.5572
 5949SOL    HW129480   0.627   1.270   7.142 -1.4003  0.3472  2.4022
 5949SOL    HW229481   0.730   1.201   7.223  0.3043  0.7828 -0.1189
 5950SOL     OW29482   4.214   2.652  13.231  0.2775 -0.0534 -0.0644
 5950SOL    HW129483   4.250   2.618  13.312  0.9460  1.6796  0.3706
 5950SOL    HW229484   4.185   2.735  13.270  0.3708  0.1494 -0.4201
 5951SOL     OW29485   2.708   1.657  10.666  0.4736 -0.3328 -0.2529
 5951SOL    HW129486   2.770   1.727  10.685  1.5994 -1.5802  0.6645
 5951SOL    HW229487   2.655   1.689  10.593 -0.0690 -0.5946  0.0253
 5952SOL     OW29488   3.777   3.810   6.416  0.3230 -0.5583 -0.0109
 5952SOL    HW129489   3.742   3.766   6.494  0.1794  0.6567  0.6036
 5952SOL    HW229490   3.789   3.899   6.449 -0.7126 -0.7245  0.8284
 5953SOL     OW29491   3.880   4.628   1.654 -0.0477  0.0842  0.0189
 5953SOL    HW129492   3.948   4.561   1.659 -0.7610 -0.7532 -1.5181
 5953SOL    HW229493   3.892   4.654   1.562 -0.8022 -0.0132 -0.1033
 5954SOL     OW29494   0.971   1.122   6.270  0.8182  0.4954 -0.3095
 5954SOL    HW129495   1.063   1.145   6.263  0.9359  0.4615  1.1030
 5954SOL    HW229496   0.932   1.205   6.243 -0.2314 -0.8180 -2.8646
 5955SOL     OW29497   2.551   1.346   5.757  0.0681 -0.3516 -0.3985
 5955SOL    HW129498   2.587   1.432   5.734 -0.1469  0.0539  0.7866
 5955SOL    HW229499   2.482   1.369   5.820 -2.2325  0.0905 -3.1032
 5956SOL     OW29500   1.089   0.653   8.423  0.3255  0.1490 -0.3013
 5956SOL    HW129501   1.167   0.689   8.465 -0.2387 -0.0810  0.9245
 5956SOL    HW229502   1.061   0.732   8.378 -0.1862  1.0162  1.5679
 5957SOL     OW29503   3.738   1.671   7.629 -0.4930 -0.4493 -0.7174
 5957SOL    HW129504   3.815   1.669   7.687 -0.0211 -1.5047 -1.3869
 5957SOL    HW229505   3.762   1.611   7.558 -0.9451 -0.7409 -0.6256
 5958SOL     OW29506   4.034   3.868   5.368 -0.2222  0.2430 -0.1210
 5958SOL    HW129507   4.070   3.937   5.313  0.4184  1.9868  2.5176
 5958SOL    HW229508   3.944   3.901   5.373  0.2051  0.8446  3.9125
 5959SOL     OW29509   2.606   3.253   3.743 -0.1619 -0.1340 -0.2839
 5959SOL    HW129510   2.557   3.202   3.678  3.7643 -1.7055 -2.0693
 5959SOL    HW229511   2.541   3.322   3.752 -1.0198 -0.9828  0.0182
 5960SOL     OW29512   2.730   3.185   0.075 -0.3838  0.3671  0.0485
 5960SOL    HW129513   2.734   3.099   0.034 -2.5307  0.3164 -0.0955
 5960SOL    HW229514   2.790   3.227   0.013  0.2820 -1.4719 -0.5490
 5961SOL     OW29515   2.773   3.115  16.117  0.4548 -0.4626 -0.4170
 5961SOL    HW129516   2.837   3.176  16.152  1.0471 -1.4563  0.2482
 5961SOL    HW229517   2.741   3.068  16.195 -0.9169 -1.0035 -1.3084
 5962SOL     OW29518   4.397   3.678   0.396 -0.2854 -0.2756  0.5729
 5962SOL    HW129519   4.379   3.603   0.453  0.5171  1.5007  3.1461
 5962SOL    HW229520   4.319   3.666   0.342  0.6493  1.0163 -1.0371
 5963SOL     OW29521   1.380   4.524   6.510 -0.4740 -0.4389 -0.2036
 5963SOL    HW129522   1.334   4.521   6.426 -2.0945  1.3872  0.6435
 5963SOL    HW229523   1.470   4.545   6.485  0.6469 -1.5780  2.8535
 5964SOL     OW29524   1.841   1.275   8.356 -0.6413 -0.1374  0.0602
 5964SOL    HW129525   1.762   1.277   8.302 -0.7873 -1.1295  0.2209
 5964SOL    HW229526   1.900   1.242   8.288  1.3307 -0.3979  1.9312
 5965SOL     OW29527   2.192   2.298   7.698 -0.9074 -0.7607  0.1420
 5965SOL    HW129528   2.141   2.217   7.706 -1.3322 -0.4572  0.5542
 5965SOL    HW229529   2.163   2.350   7.773  3.7566  2.0981 -0.0363
 5966SOL     OW29530   4.500   0.068  14.597 -0.0946 -0.8500  0.1398
 5966SOL    HW129531   4.440   0.007  14.555  1.5509 -0.8785 -2.1691
 5966SOL    HW229532   4.566   0.072  14.527 -1.7145 -0.2340 -1.3422
 5967SOL     OW29533   1.015   0.815   9.211  0.2471 -0.2169  0.9439
 5967SOL    HW129534   0.940   0.769   9.247 -0.0177 -0.1792  0.4373
 5967SOL    HW229535   0.980   0.883   9.153  1.3593  1.7463  2.5548
 5968SOL     OW29536   3.816   2.060   6.392 -0.2846 -0.3239  0.4099
 5968SOL    HW129537   3.794   2.110   6.313  0.5733  0.1176  0.4570
 5968SOL    HW229538   3.780   2.117   6.460  3.0822  0.4966  1.5210
 5969SOL     OW29539   0.233   2.234   8.313  0.2841 -0.6686  0.4749
 5969SOL    HW129540   0.146   2.271   8.327  1.4705  2.1736  0.3529
 5969SOL    HW229541   0.244   2.189   8.397 -1.1683 -3.1308 -0.6394
 5970SOL     OW29542   4.706   2.228   2.143 -0.3955 -0.2474  0.3346
 5970SOL    HW129543   4.647   2.300   2.121 -0.0294 -0.8366 -2.5276
 5970SOL    HW229544   0.043   2.279   2.177 -0.1088  0.3301 -1.1528
 5971SOL     OW29545   1.912   0.971   6.788 -0.4952 -0.6099 -0.0534
 5971SOL    HW129546   1.876   0.936   6.707 -3.7352 -0.0883  1.1762
 5971SOL    HW229547   1.837   1.020   6.821 -0.5421  0.3701 -1.5955
 5972SOL     OW29548   1.537   2.093   1.809 -0.4509 -0.9696 -0.7193
 5972SOL    HW129549   1.486   2.012   1.799 -0.8526 -0.9370  1.0734
 5972SOL    HW229550   1.488   2.156   1.756 -0.5444 -0.6225 -0.2227
 5973SOL     OW29551   0.216   3.926   4.953  0.2567 -0.1133  0.4036
 5973SOL    HW129552   0.281   3.886   5.011  0.6980  0.2295  0.1461
 5973SOL    HW229553   0.145   3.863   4.940 -0.5529  0.7807  0.4693
 5974SOL     OW29554   0.027   3.883   3.213  0.0214  0.2412 -0.1102
 5974SOL    HW129555   0.006   3.809   3.156  0.9002  0.9107 -1.3191
 5974SOL    HW229556   4.697   3.872   3.281  0.2916  1.9680  0.4430
 5975SOL     OW29557   1.646   3.719   5.222 -0.2054  0.3662 -0.2496
 5975SOL    HW129558   1.567   3.712   5.169 -1.0257  1.0716  0.8999
 5975SOL    HW229559   1.689   3.794   5.180  0.1726 -0.8686 -2.0816
 5976SOL     OW29560   4.573   0.771  16.337 -0.3739 -0.0305 -0.0549
 5976SOL    HW129561   4.573   0.747  16.244 -0.2348 -0.1360 -0.0278
 5976SOL    HW229562   4.486   0.808  16.349 -0.1682  0.3766  0.1647
 5977SOL     OW29563   0.505   0.202   6.029 -0.5431 -0.1285  0.2912
 5977SOL    HW129564   0.555   0.242   5.959  0.9021 -2.4197  0.0135
 5977SOL    HW229565   0.427   0.169   5.984  0.0452 -2.8045  1.2058
 5978SOL     OW29566   4.199   0.119   2.947 -0.3489 -0.2389 -0.0886
 5978SOL    HW129567   4.114   0.111   2.990 -0.4211 -1.0829 -0.3891
 5978SOL    HW229568   4.173   0.074   2.867  1.8980  0.9526 -1.5061
 5979SOL     OW29569   3.996   4.446   9.299 -0.3852  0.2648 -0.3444
 5979SOL    HW129570   4.062   4.415   9.360 -2.1283 -1.9419  0.3924
 5979SOL    HW229571   4.056   4.510   9.259 -1.0704  1.1433  0.0224
 5980SOL     OW29572   1.244   0.426   6.790 -0.2062  0.1790  0.2097
 5980SOL    HW129573   1.284   0.409   6.705  1.7640  0.6038  1.0635
 5980SOL    HW229574   1.211   0.513   6.769  0.2080  0.6664  1.5386
 5981SOL     OW29575   2.997   1.626   9.726 -0.3297 -0.5332  0.8864
 5981SOL    HW129576   2.958   1.606   9.811  0.3740 -0.6915  1.1679
 5981SOL    HW229577   2.979   1.720   9.724 -0.9824 -0.7113 -1.6405
 5982SOL     OW29578   0.218   1.780   4.621  0.3015 -0.0966 -0.2933
 5982SOL    HW129579   0.246   1.720   4.552  1.4557  0.7850 -0.5997
 5982SOL    HW229580   0.131   1.801   4.589  0.5424 -0.8617 -1.4422
 5983SOL     OW29581   4.689   0.304   6.564  0.2050  0.0849 -0.3599
 5983SOL    HW129582   4.689   0.209   6.575 -1.4664  0.2881  1.3497
 5983SOL    HW229583   4.596   0.324   6.570  0.5742  1.2561  1.5531
 5984SOL     OW29584   0.649   2.732   9.524  0.3002  0.2631 -0.2277
 5984SOL    HW129585   0.597   2.784   9.586 -0.4126  0.3423 -0.8990
 5984SOL    HW229586   0.646   2.788   9.447  1.9550  2.1817  1.0802
 5985SOL     OW29587   3.001   0.578   6.794 -0.3551 -0.2968 -0.2646
 5985SOL    HW129588   2.926   0.614   6.748 -2.7541 -1.9544  2.4119
 5985SOL    HW229589   2.985   0.620   6.878 -0.4633  1.1877 -1.0179
 5986SOL     OW29590   0.129   1.847   3.218  0.0984 -0.2536  0.0205
 5986SOL    HW129591   0.198   1.862   3.153 -0.1896  0.6633 -0.0675
 5986SOL    HW229592   0.136   1.752   3.231 -0.0460 -0.3674 -0.7575
 5987SOL     OW29593   0.218   0.707   4.777  0.2589  0.2446 -0.1165
 5987SOL    HW129594   0.137   0.727   4.731 -1.0441 -1.5021  1.4576
 5987SOL    HW229595   0.258   0.632   4.734 -2.0517 -0.7474 -0.5143
 5988SOL     OW29596   1.649   0.021   9.902  0.4039  0.0465 -0.1348
 5988SOL    HW129597   1.635   0.009   9.996  0.0068 -2.1155 -0.4617
 5988SOL    HW229598   1.740   4.730   9.888  0.9301  0.4377  2.5593
 5989SOL     OW29599   0.416   0.914   5.043  0.0727 -0.4451 -0.1915
 5989SOL    HW129600   0.490   0.926   4.984  1.4192 -0.9597  1.3937
 5989SOL    HW229601   0.454   0.942   5.127  0.1641  0.3937 -0.5174
 5990SOL     OW29602   4.587   3.581   2.596 -0.1233  0.6515 -0.6338
 5990SOL    HW129603   4.655   3.578   2.664 -0.3251  0.4698 -0.4383
 5990SOL    HW229604   4.538   3.654   2.633  1.6448  1.9378 -0.7933
 5991SOL     OW29605   3.407   1.038   4.128  0.5355  0.4818 -0.2057
 5991SOL    HW129606   3.477   1.102   4.144  0.9189 -0.2990  1.2036
 5991SOL    HW229607   3.398   1.019   4.222  2.2242 -0.8878 -0.3130
 5992SOL     OW29608   3.042   2.402   8.664  0.2690 -0.5481  0.0239
 5992SOL    HW129609   3.019   2.386   8.755 -3.0311  1.8664 -0.3760
 5992SOL    HW229610   3.113   2.341   8.645  2.1381  1.5777  0.1414
 5993SOL     OW29611   3.643   1.922   7.004 -0.2423 -0.5858 -0.3003
 5993SOL    HW129612   3.591   1.982   7.059  0.7230  2.4405 -2.7186
 5993SOL    HW229613   3.640   1.848   7.065  0.7642  0.2381  0.7493
 5994SOL     OW29614   0.431   3.371   3.418 -0.1704 -0.6195  0.1169
 5994SOL    HW129615   0.505   3.314   3.395  0.4939  1.3142 -2.6285
 5994SOL    HW229616   0.356   3.326   3.378 -2.7593  1.2601  2.8847
 5995SOL     OW29617   0.252   0.311   7.065 -0.3374 -0.3117 -0.0986
 5995SOL    HW129618   0.316   0.382   7.065  0.5492 -1.1074 -0.0940
 5995SOL    HW229619   0.228   0.318   6.972  0.5939 -0.0287 -0.3143
 5996SOL     OW29620   1.108   3.469   9.640  0.2762 -0.3085  0.2760
 5996SOL    HW129621   1.099   3.541   9.701 -0.6715  0.3072 -0.5729
 5996SOL    HW229622   1.049   3.498   9.570  1.7102  1.5820 -0.1394
 5997SOL     OW29623   0.151   3.089   9.740 -0.0201  0.2289  0.5233
 5997SOL    HW129624   0.242   3.115   9.725 -0.5781  0.6373 -2.2196
 5997SOL    HW229625   0.109   3.106   9.656  1.2758 -0.1513 -0.2044
 5998SOL     OW29626   1.308   2.651   1.291  0.5594  0.2204 -0.0561
 5998SOL    HW129627   1.399   2.678   1.277 -0.0503  1.6585 -1.3157
 5998SOL    HW229628   1.274   2.716   1.353  1.4648 -0.2412  0.9165
 5999SOL     OW29629   1.137   0.580   2.293  0.0636 -0.0265 -0.8325
 5999SOL    HW129630   1.180   0.643   2.352 -1.5121 -0.0045  0.2867
 5999SOL    HW229631   1.214   0.528   2.269  0.3196  0.6827 -1.5511
 6000SOL     OW29632   2.660   1.171   1.220  0.1098 -0.2662  0.6080
 6000SOL    HW129633   2.611   1.189   1.139 -0.2171  0.1143  0.8880
 6000SOL    HW229634   2.648   1.256   1.262 -2.3432  0.8543 -2.3700
 6001SOL     OW29635   1.377   4.516   1.577  0.4589  0.4501  0.1453
 6001SOL    HW129636   1.401   4.590   1.632 -2.0945  0.8387  0.7465
 6001SOL    HW229637   1.409   4.443   1.630  0.2189 -0.5598 -1.0947
 6002SOL     OW29638   0.630   3.542   7.650  0.5305  0.1933  0.4046
 6002SOL    HW129639   0.568   3.477   7.682  3.0677 -2.6346 -0.3848
 6002SOL    HW229640   0.671   3.489   7.582 -1.3666 -0.9316  0.1439
 6003SOL     OW29641   3.137   3.790  16.146  0.3273  0.7916  0.3197
 6003SOL    HW129642   3.086   3.867  16.171  0.2879  1.0205 -0.4791
 6003SOL    HW229643   3.198   3.826  16.081  2.6694 -2.9549  0.4183
 6004SOL     OW29644   0.332   0.459   4.616 -0.1828 -0.1631 -0.3793
 6004SOL    HW129645   0.305   0.369   4.636  0.1977 -0.3159 -0.5328
 6004SOL    HW229646   0.260   0.491   4.563 -0.9353 -0.5459  0.4184
 6005SOL     OW29647   2.243   3.253   4.500  0.1253  0.1512 -0.0982
 6005SOL    HW129648   2.215   3.208   4.579  0.6603 -1.6591 -0.9321
 6005SOL    HW229649   2.172   3.316   4.487 -0.6787 -0.8229 -0.4104
 6006SOL     OW29650   4.188   3.806   2.124 -0.1011 -0.1476 -0.7067
 6006SOL    HW129651   4.118   3.870   2.110  0.2364  0.2761 -0.4847
 6006SOL    HW229652   4.272   3.852   2.116 -0.0778 -0.4671 -2.2489
 6007SOL     OW29653   0.329   3.433  13.371  0.4701  0.4020  0.5115
 6007SOL    HW129654   0.346   3.345  13.405  0.3690  0.5621  0.9717
 6007SOL    HW229655   0.254   3.409  13.317 -0.3408 -1.6542  2.6020
 6008SOL     OW29656   0.069   3.237   8.006 -0.0350 -0.5300  0.7441
 6008SOL    HW129657   0.125   3.233   7.929  0.4002  0.9209  0.9866
 6008SOL    HW229658   0.103   3.156   8.044  0.3770 -1.2491 -1.1396
 6009SOL     OW29659   1.146   3.779   1.469 -0.6903  0.2723  0.2559
 6009SOL    HW129660   1.122   3.731   1.389 -1.6446 -1.0611  1.3499
 6009SOL    HW229661   1.238   3.797   1.450 -0.5926 -2.7672 -2.2786
 6010SOL     OW29662   0.440   0.343   3.164  0.2491 -0.1575 -0.4943
 6010SOL    HW129663   0.378   0.295   3.109 -0.9003 -1.7162  2.1251
 6010SOL    HW229664   0.506   0.278   3.191  2.0321  1.5087 -0.8947
 6011SOL     OW29665   1.335   0.309   7.918  0.0004 -0.1740  0.3149
 6011SOL    HW129666   1.409   0.360   7.951  1.2037 -2.1862  0.7403
 6011SOL    HW229667   1.295   0.280   8.000 -0.4015  0.2384  0.2656
 6012SOL     OW29668   4.637   2.823   4.641 -0.2331 -0.3071  0.4505
 6012SOL    HW129669   4.679   2.805   4.557 -1.1008 -0.4798  0.0541
 6012SOL    HW229670   4.697   2.782   4.703  0.3121  1.9289  1.4136
 6013SOL     OW29671   1.664   3.901   2.078 -0.7201  0.6973  0.0354
 6013SOL    HW129672   1.629   3.977   2.032  1.5905  1.0148 -1.1743
 6013SOL    HW229673   1.588   3.868   2.126 -1.8121  2.1755 -0.6688
 6014SOL     OW29674   4.370   2.381   5.531  0.2941  0.3256  0.5755
 6014SOL    HW129675   4.296   2.324   5.511  0.7602 -0.2224  0.3945
 6014SOL    HW229676   4.353   2.412   5.620  0.7099  2.6560 -0.1461
 6015SOL     OW29677   3.523   4.599  14.689  0.5659  0.1753 -0.9739
 6015SOL    HW129678   3.547   4.609  14.597 -2.5054 -0.0454 -1.8102
 6015SOL    HW229679   3.433   4.567  14.679  0.0571  0.5797  2.2118
 6016SOL     OW29680   0.973   1.534   3.159 -0.1561  0.4991 -0.1716
 6016SOL    HW129681   0.926   1.577   3.087 -0.0326  0.3582 -0.3357
 6016SOL    HW229682   0.911   1.467   3.188  0.5547  1.3814  3.3478
 6017SOL     OW29683   4.531   0.897   4.767 -0.2641 -0.2221  0.1488
 6017SOL    HW129684   4.529   0.993   4.760  1.8603 -0.1246  0.9807
 6017SOL    HW229685   4.474   0.870   4.839  0.7384  0.5405  1.2315
 6018SOL     OW29686   3.753   4.051   8.731  0.1033  0.5710 -0.9429
 6018SOL    HW129687   3.673   4.071   8.780  0.3948 -2.0013  0.6158
 6018SOL    HW229688   3.786   3.976   8.781  2.1747  0.6486 -2.1917
 6019SOL     OW29689   0.688   2.476   4.988 -0.1311 -0.0384 -0.2138
 6019SOL    HW129690   0.679   2.548   5.051  0.1726 -1.5203  1.5277
 6019SOL    HW229691   0.750   2.416   5.030  1.7944  2.3429  0.4073
 6020SOL     OW29692   4.337   2.311   6.606  0.1681  0.0656 -1.3402
 6020SOL    HW129693   4.291   2.231   6.631  2.6536 -1.1130 -0.5852
 6020SOL    HW229694   4.418   2.266   6.583  0.7260  0.1756  0.3427
 6021SOL     OW29695   2.836   4.617   0.565  0.2835 -0.1459  0.3217
 6021SOL    HW129696   2.771   4.685   0.582 -0.6839 -1.7898  3.2815
 6021SOL    HW229697   2.878   4.616   0.651 -0.5322  2.3060  0.7436
 6022SOL     OW29698   2.079   3.438   0.209 -0.3330  0.3226 -0.2119
 6022SOL    HW129699   2.100   3.531   0.211 -0.9863  0.3999  3.0684
 6022SOL    HW229700   2.111   3.417   0.121  0.8035 -0.3090  0.3528
 6023SOL     OW29701   4.675   4.455   5.595  0.3232 -0.1808 -0.7769
 6023SOL    HW129702   4.653   4.365   5.619 -0.4542  0.1842 -0.1132
 6023SOL    HW229703   4.598   4.494   5.638 -0.0241 -0.4625 -1.1448
 6024SOL     OW29704   3.134   0.793   6.600 -0.9047 -0.9487  0.0549
 6024SOL    HW129705   3.136   0.888   6.592  0.1697 -0.8548  1.3790
 6024SOL    HW229706   3.065   0.774   6.537  1.3636 -0.2098 -2.6592
 6025SOL     OW29707   4.609   4.591   4.743 -0.7395  0.7790 -0.0515
 6025SOL    HW129708   4.549   4.656   4.779 -0.3398  1.7208 -1.0906
 6025SOL    HW229709   4.559   4.554   4.671 -1.0173 -0.2666  0.6634
 6026SOL     OW29710   3.992   0.038   6.256  0.3195  0.1898 -0.1847
 6026SOL    HW129711   4.011   0.131   6.247  0.5936  0.1994  0.5328
 6026SOL    HW229712   3.923   0.040   6.323  0.2211  0.2683 -0.2875
 6027SOL     OW29713   4.536   4.319   3.845  0.0224  0.2784 -0.0201
 6027SOL    HW129714   4.453   4.360   3.823 -0.3161 -0.2807  0.2094
 6027SOL    HW229715   4.579   4.391   3.891  0.7694 -0.5500  0.5893
 6028SOL     OW29716   1.951   1.812  10.794  0.4166  0.3891  0.0398
 6028SOL    HW129717   1.913   1.898  10.805 -1.3952 -0.3878 -0.2378
 6028SOL    HW229718   2.003   1.811  10.875 -2.0499  2.1883  1.6207
 6029SOL     OW29719   3.291   3.978  14.543  0.4236  0.5889  0.2016
 6029SOL    HW129720   3.300   3.910  14.610  0.0196 -0.1519 -0.5027
 6029SOL    HW229721   3.301   4.063  14.586  0.4386  1.0106 -0.6265
 6030SOL     OW29722   3.813   1.613   8.487  0.3970  0.0727 -0.2062
 6030SOL    HW129723   3.888   1.637   8.433  0.5626 -0.4089 -0.1862
 6030SOL    HW229724   3.746   1.675   8.457  0.2981  1.1015  2.1321
 6031SOL     OW29725   1.423   3.759   5.053 -0.1517  0.0307 -0.7611
 6031SOL    HW129726   1.378   3.685   5.012  0.6599 -0.3487 -0.9646
 6031SOL    HW229727   1.407   3.820   4.981  0.1702  0.7602 -0.2156
 6032SOL     OW29728   0.280   3.449  11.488  0.0137 -0.1320 -0.0203
 6032SOL    HW129729   0.256   3.521  11.546  0.7484 -0.0845  0.2227
 6032SOL    HW229730   0.239   3.372  11.527 -0.2829 -0.1624 -0.3910
 6033SOL     OW29731   0.541   2.887   6.934  0.1566  0.8782  0.5637
 6033SOL    HW129732   0.500   2.915   7.016  3.9131  0.9607  2.3745
 6033SOL    HW229733   0.631   2.913   6.949  0.3410  0.9566 -0.6713
 6034SOL     OW29734   1.759   3.661  10.571  0.2811 -0.1749  0.1249
 6034SOL    HW129735   1.850   3.690  10.570  0.5471 -0.9829  0.4333
 6034SOL    HW229736   1.759   3.616  10.656  2.3035  2.6378  1.6458
 6035SOL     OW29737   1.407   2.645   8.779  0.4369  0.0458 -0.3569
 6035SOL    HW129738   1.327   2.593   8.792  1.9064 -1.3252  3.2806
 6035SOL    HW229739   1.471   2.608   8.841  1.1168  0.6487 -0.7059
 6036SOL     OW29740   2.946   2.273   4.736 -0.2033 -0.7573 -0.0658
 6036SOL    HW129741   3.008   2.205   4.760  1.6971  1.3677  1.1059
 6036SOL    HW229742   2.949   2.272   4.641  1.5919  0.8008 -0.0362
 6037SOL     OW29743   0.329   3.811   2.655  0.3181 -0.0605 -0.0478
 6037SOL    HW129744   0.360   3.888   2.608  0.2650  0.6621  1.1062
 6037SOL    HW229745   0.404   3.757   2.629 -0.2174  0.1037 -1.9141
 6038SOL     OW29746   3.618   4.027  13.864  0.3611 -0.1242  0.2733
 6038SOL    HW129747   3.569   4.025  13.782 -0.3879  2.0402  0.6753
 6038SOL    HW229748   3.563   3.976  13.924  1.6480 -1.1027  0.6231
 6039SOL     OW29749   1.976   0.696   6.008 -0.3678  0.5971  0.2509
 6039SOL    HW129750   2.002   0.785   6.030 -0.1097  0.3875  0.8091
 6039SOL    HW229751   1.883   0.711   5.995 -1.4715 -3.9930  2.7584
 6040SOL     OW29752   1.446   2.609   8.073 -0.1570 -0.2756  0.5942
 6040SOL    HW129753   1.537   2.625   8.097  0.3065  0.1705 -1.4414
 6040SOL    HW229754   1.433   2.521   8.108 -0.0026  0.0689  1.5145
 6041SOL     OW29755   1.099   1.490  15.661 -0.3835  0.2265  0.3443
 6041SOL    HW129756   1.036   1.419  15.652 -0.2382  0.3402 -1.4813
 6041SOL    HW229757   1.126   1.482  15.570  1.5546  1.2261  0.8142
 6042SOL     OW29758   0.619   4.033   5.090  0.2351 -0.3575 -0.0296
 6042SOL    HW129759   0.547   3.975   5.063 -1.6959  1.4681  1.1683
 6042SOL    HW229760   0.572   4.116   5.102  0.0608 -0.5665  0.7208
 6043SOL     OW29761   4.052   0.436   4.346 -0.1005 -0.0250  0.2972
 6043SOL    HW129762   4.090   0.404   4.428 -0.7405  1.0790  1.0269
 6043SOL    HW229763   4.113   0.503   4.315  0.8318 -1.6894 -1.4082
 6044SOL     OW29764   4.383   0.518  11.707 -0.2170 -0.3359 -0.7319
 6044SOL    HW129765   4.415   0.607  11.719 -2.3070  0.2628  0.1891
 6044SOL    HW229766   4.439   0.463  11.763  1.6528  1.6673 -0.6581
 6045SOL     OW29767   3.977   1.243   3.350  0.4912  0.0615  0.4076
 6045SOL    HW129768   4.011   1.154   3.342 -1.3773 -0.6220 -0.0317
 6045SOL    HW229769   4.049   1.286   3.305  0.1328 -0.2146 -0.4338
 6046SOL     OW29770   4.296   3.337   1.517 -0.4634 -0.2702 -0.1742
 6046SOL    HW129771   4.277   3.281   1.592  0.6968 -0.8587 -0.3223
 6046SOL    HW229772   4.216   3.390   1.514 -0.6037 -0.5059 -0.5346
 6047SOL     OW29773   0.759   3.178   3.597 -0.5272  0.5353  0.6839
 6047SOL    HW129774   0.852   3.183   3.576 -0.8957  2.4097 -0.5098
 6047SOL    HW229775   0.736   3.161   3.506  0.2637  1.3385  0.3404
 6048SOL     OW29776   0.606   3.791   6.550 -0.8733  0.2814 -0.1781
 6048SOL    HW129777   0.591   3.707   6.507 -0.5123 -0.3078  0.8620
 6048SOL    HW229778   0.617   3.776   6.644  0.5434 -0.3140 -0.4374
 6049SOL     OW29779   2.386   0.131  11.450 -0.1021  0.1956 -0.4256
 6049SOL    HW129780   2.357   0.198  11.388  2.2364  3.0459  1.5664
 6049SOL    HW229781   2.464   0.174  11.485  1.5797 -3.0066 -0.1946
 6050SOL     OW29782   4.607   3.543  10.687  0.1192 -0.0801 -0.6821
 6050SOL    HW129783   4.533   3.604  10.689  2.3987  2.6653  0.2260
 6050SOL    HW229784   4.675   3.582  10.632  0.0581  1.7330  0.5301
 6051SOL     OW29785   2.452   2.542   3.971  0.3169  0.6834 -0.2586
 6051SOL    HW129786   2.389   2.610   3.947 -0.7905 -0.0356  0.6117
 6051SOL    HW229787   2.449   2.473   3.905  1.2836 -0.1846  0.6063
 6052SOL     OW29788   3.094   1.105  12.623  0.2544 -0.0228 -0.5584
 6052SOL    HW129789   3.025   1.082  12.685 -0.8458  2.3685 -0.9059
 6052SOL    HW229790   3.174   1.079  12.670 -0.0968  1.6551  0.9652
 6053SOL     OW29791   3.970   3.787   7.014  0.4966 -0.2405  0.0588
 6053SOL    HW129792   4.035   3.783   7.085  0.6416  2.1915  0.0666
 6053SOL    HW229793   3.972   3.880   6.992  0.4403  0.0367  1.2358
 6054SOL     OW29794   2.577   0.933  10.816 -0.0544 -0.1679  0.5886
 6054SOL    HW129795   2.654   0.899  10.862 -0.5464 -0.0542  1.4817
 6054SOL    HW229796   2.591   1.023  10.846  2.0299 -0.0888 -0.6065
 6055SOL     OW29797   0.257   3.072   3.558  0.6231  0.4925 -0.1640
 6055SOL    HW129798   0.283   3.121   3.479  1.9148 -1.3373 -0.8671
 6055SOL    HW229799   0.336   3.020   3.569 -0.1105 -0.4691  0.4925
 6056SOL     OW29800   1.878   4.221   2.474  0.0808 -0.3041  0.4845
 6056SOL    HW129801   1.830   4.234   2.556 -1.1153  0.0992 -0.2657
 6056SOL    HW229802   1.843   4.135   2.448 -1.1202  0.2953  0.1071
 6057SOL     OW29803   3.769   2.723   2.984  0.2952 -0.2019 -0.1696
 6057SOL    HW129804   3.840   2.691   3.039  1.6529 -1.1499 -2.4763
 6057SOL    HW229805   3.708   2.748   3.054  1.3840  2.4782 -0.1679
 6058SOL     OW29806   3.276   0.940   5.598 -0.0538  0.0885 -0.1686
 6058SOL    HW129807   3.318   0.854   5.596  1.1859  0.7287 -1.5124
 6058SOL    HW229808   3.351   0.996   5.620 -0.0646 -1.4014  3.5614
 6059SOL     OW29809   4.523   1.438   7.986 -0.5741 -0.4823 -0.1611
 6059SOL    HW129810   4.599   1.477   8.031  0.4433 -0.6723 -1.7312
 6059SOL    HW229811   4.562   1.450   7.900  0.8871  1.0636  0.7214
 6060SOL     OW29812   4.294   3.384   4.181 -0.5385 -0.0922 -0.3556
 6060SOL    HW129813   4.222   3.402   4.120 -1.2876 -0.8631  0.2931
 6060SOL    HW229814   4.246   3.359   4.260 -0.4198  0.5882 -0.0685
 6061SOL     OW29815   0.001   0.444  17.429  0.0413 -0.3427 -0.2141
 6061SOL    HW129816   0.003   0.514  17.494  0.8633 -0.3392 -0.2544
 6061SOL    HW229817   4.724   0.363  17.480 -1.6453 -1.3119 -2.1971
 6062SOL     OW29818   1.029   0.991  16.795  0.0539 -0.3513 -0.1773
 6062SOL    HW129819   1.045   0.981  16.702  0.9104  0.3865 -0.1007
 6062SOL    HW229820   0.968   0.918  16.807 -1.2853  0.7247 -0.4215
 6063SOL     OW29821   3.801   0.065   6.037  0.1001  0.2158  0.3559
 6063SOL    HW129822   3.864   0.064   6.109 -0.0168 -0.8986  0.4448
 6063SOL    HW229823   3.742   0.132   6.072 -1.1428 -0.6986  0.0411
 6064SOL     OW29824   4.595   2.660   1.327  0.3002  0.1326 -0.0901
 6064SOL    HW129825   4.632   2.647   1.240  0.4187 -2.6738  0.3727
 6064SOL    HW229826   4.669   2.622   1.376  2.0310  2.8442 -0.5781
 6065SOL     OW29827   4.544   2.961   6.078  0.3534  0.1457  0.9936
 6065SOL    HW129828   4.484   2.891   6.104 -1.2582  1.9548  2.1993
 6065SOL    HW229829   4.485   3.037   6.076 -0.3473 -0.3689  2.2704
 6066SOL     OW29830   1.613   0.472   5.415 -0.0208 -0.1385 -0.1862
 6066SOL    HW129831   1.604   0.522   5.334 -3.1318  0.5179  0.5834
 6066SOL    HW229832   1.526   0.433   5.423  0.1360 -0.3226  0.5835
 6067SOL     OW29833   3.018   2.494   2.767  0.6515 -0.0008 -0.6902
 6067SOL    HW129834   3.028   2.560   2.836 -1.7675 -2.0486  1.6287
 6067SOL    HW229835   3.086   2.432   2.794  1.2788  0.6647 -0.7559
 6068SOL     OW29836   4.039   1.379   5.815  0.2287  0.5690 -0.6367
 6068SOL    HW129837   4.100   1.452   5.829 -0.0772  0.2646  2.3889
 6068SOL    HW229838   4.098   1.304   5.807  2.5837  2.5190 -1.6851
 6069SOL     OW29839   2.425   4.558   2.369  0.5150 -0.5579 -0.2406
 6069SOL    HW129840   2.386   4.499   2.433  1.6820 -0.7850  0.2577
 6069SOL    HW229841   2.385   4.645   2.372  2.5134  0.3949 -0.5895
 6070SOL     OW29842   2.198   4.564  17.131 -0.0173  0.8631 -0.1545
 6070SOL    HW129843   2.122   4.587  17.185 -0.3800  1.5190 -0.9334
 6070SOL    HW229844   2.268   4.534  17.188 -0.2251  2.3041  0.8700
 6071SOL     OW29845   0.478   3.554   9.174  0.2080 -0.9761  0.5250
 6071SOL    HW129846   0.384   3.570   9.179  0.7447  1.3290  3.4146
 6071SOL    HW229847   0.508   3.585   9.089  1.3355  1.6138  1.8539
 6072SOL     OW29848   3.168   2.334   1.985 -0.3361 -0.3352 -0.5414
 6072SOL    HW129849   3.236   2.271   2.006  1.6531  1.6652 -1.0019
 6072SOL    HW229850   3.133   2.358   2.071 -0.6789 -0.0210 -0.7692
 6073SOL     OW29851   1.057   3.733  14.158  0.1708  0.0422 -0.3926
 6073SOL    HW129852   1.037   3.640  14.151  2.2733 -0.3477 -1.4050
 6073SOL    HW229853   0.977   3.783  14.143 -0.0356 -0.3351 -0.5399
 6074SOL     OW29854   3.589   1.379   2.586  0.2833  0.4483  0.2246
 6074SOL    HW129855   3.677   1.377   2.624  0.4449 -1.0101 -0.2352
 6074SOL    HW229856   3.555   1.467   2.599 -1.0112 -0.2223  1.4125
 6075SOL     OW29857   1.228   3.335   2.193  0.8252 -0.1423  0.2586
 6075SOL    HW129858   1.232   3.430   2.180  1.2343 -0.3429 -1.1292
 6075SOL    HW229859   1.160   3.322   2.259  2.0442  0.2947  1.6070
 6076SOL     OW29860   1.889   0.910   9.485 -0.6886  0.5466 -0.4525
 6076SOL    HW129861   1.970   0.947   9.449 -1.1754  1.2290 -0.8456
 6076SOL    HW229862   1.858   0.990   9.526  0.4457  0.6569  0.1930
 6077SOL     OW29863   0.061   1.649   8.872  0.2687 -0.2723  0.2286
 6077SOL    HW129864   4.713   1.689   8.894  0.8000  1.2966 -0.5736
 6077SOL    HW229865   0.071   1.634   8.966  1.1504  1.8284  0.4714
 6078SOL     OW29866   3.005   2.019   5.274 -0.2611 -0.2712 -0.0928
 6078SOL    HW129867   3.034   1.951   5.213 -1.3025 -0.9745  0.1987
 6078SOL    HW229868   3.038   1.987   5.358  0.0539  0.0684 -0.0872
 6079SOL     OW29869   2.714   1.010  12.937  0.0663  0.3533 -0.1962
 6079SOL    HW129870   2.658   1.047  12.869  1.4467 -1.0292 -2.1030
 6079SOL    HW229871   2.716   1.090  12.989 -0.4560  0.2499 -0.0122
 6080SOL     OW29872   2.934   1.530   2.997 -0.3447 -0.2937  0.6381
 6080SOL    HW129873   2.948   1.502   2.906 -0.6975  0.5593  0.3278
 6080SOL    HW229874   2.914   1.445   3.036  1.1181  0.1852  2.4378
 6081SOL     OW29875   0.952   0.478  15.868  0.1333 -0.1248 -0.6260
 6081SOL    HW129876   0.883   0.544  15.863  1.3789  1.4270  2.3346
 6081SOL    HW229877   1.008   0.529  15.927  1.9949 -1.2404 -1.4407
 6082SOL     OW29878   2.210   0.415   5.128 -0.2391  0.3921  0.2879
 6082SOL    HW129879   2.218   0.334   5.178  0.4642  3.1318  4.6321
 6082SOL    HW229880   2.137   0.454   5.176  0.0580 -1.5394  2.3209
 6083SOL     OW29881   0.467   4.282   5.828  0.0166 -0.1474 -0.0399
 6083SOL    HW129882   0.531   4.267   5.898  0.7783  0.1077 -0.6769
 6083SOL    HW229883   0.493   4.216   5.764  0.9467  1.0997 -0.9477
 6084SOL     OW29884   2.236   1.787  16.302  0.0413 -0.6864  0.6195
 6084SOL    HW129885   2.184   1.759  16.227  0.1036  0.0105  0.3176
 6084SOL    HW229886   2.192   1.754  16.381  0.5660 -2.5841  0.1336
 6085SOL     OW29887   0.368   0.586   2.140  0.0718 -0.1291 -0.6549
 6085SOL    HW129888   0.413   0.599   2.057  1.3314  1.3669  0.2516
 6085SOL    HW229889   0.380   0.669   2.188 -0.6044  0.0667 -0.8166
 6086SOL     OW29890   3.314   0.827  14.878  0.4683 -0.0921 -0.3893
 6086SOL    HW129891   3.332   0.781  14.796 -1.0810 -1.4084  0.0091
 6086SOL    HW229892   3.357   0.766  14.939  0.8102  1.3598  0.8122
 6087SOL     OW29893   2.630   4.434   9.123 -0.1718 -0.2204 -0.5445
 6087SOL    HW129894   2.613   4.434   9.217  1.6762  2.1718 -0.1852
 6087SOL    HW229895   2.688   4.359   9.110  0.6596  0.3170  0.0912
 6088SOL     OW29896   0.356   4.180   4.881  0.0533  0.2093  0.8123
 6088SOL    HW129897   0.313   4.244   4.938 -1.8131  1.2166 -1.7304
 6088SOL    HW229898   0.298   4.104   4.886 -1.2722  1.3328  2.2829
 6089SOL     OW29899   1.856   0.732   4.715  0.4878  0.2003 -0.3653
 6089SOL    HW129900   1.867   0.810   4.662 -0.9848  0.4663 -0.2968
 6089SOL    HW229901   1.923   0.681   4.670  0.0645  0.8416 -1.7288
 6090SOL     OW29902   3.347   2.895   9.700 -1.4292  0.3604 -0.3308
 6090SOL    HW129903   3.293   2.846   9.637 -0.7666  1.7000 -1.9519
 6090SOL    HW229904   3.393   2.947   9.634  1.9240 -1.2592  0.7647
 6091SOL     OW29905   3.754   1.855   3.436  0.3827  0.2480  0.3879
 6091SOL    HW129906   3.663   1.845   3.406  0.8560  1.4281 -1.4611
 6091SOL    HW229907   3.773   1.769   3.473 -0.3103 -0.0498  0.0536
 6092SOL     OW29908   1.690   3.640   7.469 -0.5885  0.4886 -0.0565
 6092SOL    HW129909   1.625   3.648   7.538 -0.1662  0.7011  0.3235
 6092SOL    HW229910   1.774   3.656   7.513 -0.4102 -1.3001  0.2400
 6093SOL     OW29911   0.932   4.468  11.159  0.0880 -0.4888 -0.2859
 6093SOL    HW129912   0.921   4.510  11.244  1.2535  0.0464 -0.3972
 6093SOL    HW229913   0.855   4.412  11.155 -0.1340 -0.1721 -0.3575
 6094SOL     OW29914   3.471   2.402   7.342  0.2123  0.3104 -0.7249
 6094SOL    HW129915   3.532   2.408   7.416 -1.0136  2.0228  0.1310
 6094SOL    HW229916   3.496   2.319   7.301  0.0175  1.2054 -2.6448
 6095SOL     OW29917   4.112   0.516   7.318 -0.0078  0.0024  0.2802
 6095SOL    HW129918   4.202   0.494   7.295 -0.3937 -1.0004 -0.2712
 6095SOL    HW229919   4.102   0.586   7.254 -2.9271  2.5831  3.5642
 6096SOL     OW29920   0.550   4.201  13.111  0.4494  0.1789 -0.2407
 6096SOL    HW129921   0.572   4.227  13.201  1.4057 -0.0873 -0.4035
 6096SOL    HW229922   0.458   4.187  13.132  1.0134 -1.5000  1.1259
 6097SOL     OW29923   1.956   4.386   8.544  0.1898  0.6692 -0.0147
 6097SOL    HW129924   1.995   4.438   8.614  2.5417 -1.2250  0.0897
 6097SOL    HW229925   1.885   4.444   8.515 -1.5525 -1.9003 -0.8504
 6098SOL     OW29926   2.137   2.753  14.827  0.0638 -0.0904  0.0057
 6098SOL    HW129927   2.149   2.788  14.915 -0.0565  1.0350 -0.4311
 6098SOL    HW229928   2.139   2.660  14.850 -1.9868  0.1834  1.3444
 6099SOL     OW29929   1.374   0.622   6.571  0.5499  0.4117  0.1203
 6099SOL    HW129930   1.311   0.559   6.535  1.3399 -0.2251 -0.1491
 6099SOL    HW229931   1.459   0.601   6.532 -0.5694 -0.8644 -1.6692
 6100SOL     OW29932   4.695   3.413  16.761  0.3380 -0.2466 -0.6771
 6100SOL    HW129933   4.665   3.425  16.851  0.5232 -0.4891 -0.5823
 6100SOL    HW229934   4.635   3.469  16.712  0.7123  0.6973 -0.0573
 6101SOL     OW29935   1.614   3.788   3.678  0.3003 -0.2236  0.5299
 6101SOL    HW129936   1.521   3.808   3.683  0.4070  0.2485  0.6115
 6101SOL    HW229937   1.649   3.867   3.719  1.4837 -0.4212 -0.0812
 6102SOL     OW29938   3.410   0.679   2.098  0.6537  0.4412 -0.1800
 6102SOL    HW129939   3.436   0.737   2.169  2.5778 -0.6173 -0.0148
 6102SOL    HW229940   3.471   0.710   2.030 -0.0489  1.1038 -0.5110
 6103SOL     OW29941   2.518   0.718   3.142  0.0879 -0.1005 -0.6075
 6103SOL    HW129942   2.468   0.796   3.116 -0.3413 -0.2176 -0.1386
 6103SOL    HW229943   2.594   0.760   3.181 -1.0072  0.7022  0.6798
 6104SOL     OW29944   3.480   1.823  15.033 -0.4846 -0.1268  0.1292
 6104SOL    HW129945   3.522   1.835  14.948  0.7521 -0.7048  0.6556
 6104SOL    HW229946   3.413   1.757  15.020 -0.7550  0.4658 -1.4672
 6105SOL     OW29947   0.181   1.563   5.358  0.5302  0.1402  0.2798
 6105SOL    HW129948   0.152   1.649   5.388 -2.1586 -1.3985  2.0832
 6105SOL    HW229949   0.105   1.509   5.377  1.3977 -0.7235  1.2345
 6106SOL     OW29950   4.335   2.173   7.310  0.3743 -0.1471  0.3729
 6106SOL    HW129951   4.252   2.200   7.351  0.0950  0.2189 -0.4249
 6106SOL    HW229952   4.321   2.228   7.233 -2.7705  0.3132  1.2367
 6107SOL     OW29953   0.322   1.793   3.028 -0.4920 -0.6687 -0.0677
 6107SOL    HW129954   0.340   1.699   3.023 -1.1956 -0.8378  0.6130
 6107SOL    HW229955   0.254   1.793   2.961  0.1126 -0.8650 -0.6818
 6108SOL     OW29956   0.377   2.627   9.724  0.2319  0.0029 -0.2453
 6108SOL    HW129957   0.334   2.590   9.647  0.0589  2.7296 -1.4855
 6108SOL    HW229958   0.367   2.558   9.789 -2.6287 -0.4118 -1.1622
 6109SOL     OW29959   2.130   1.948  12.859  0.8126 -0.1941 -0.6293
 6109SOL    HW129960   2.128   1.997  12.941 -0.8609  0.3388 -0.9913
 6109SOL    HW229961   2.224   1.933  12.850  1.2632  0.9582  2.3271
 6110SOL     OW29962   4.259   2.959   0.036  0.4802 -0.3087  0.1596
 6110SOL    HW129963   4.232   3.041   0.079  1.3375  0.1279 -0.1399
 6110SOL    HW229964   4.167   2.938   0.021  0.4142 -1.0830  1.6635
 6111SOL     OW29965   0.068   1.410   2.492  0.0059 -0.3117 -0.6260
 6111SOL    HW129966   4.710   1.427   2.499 -0.1346 -0.7540 -1.4195
 6111SOL    HW229967   0.081   1.391   2.399  0.3426 -0.3196 -0.5757
 6112SOL     OW29968   2.382   4.343  11.894 -0.1113 -0.2433  0.1866
 6112SOL    HW129969   2.305   4.290  11.910 -1.1559  1.5885  1.2446
 6112SOL    HW229970   2.423   4.292  11.824  0.9862  0.6041  0.1981
 6113SOL     OW29971   2.020   0.479   2.674  0.2227 -0.0038 -0.2991
 6113SOL    HW129972   2.055   0.405   2.624  0.1504 -1.6891  2.1736
 6113SOL    HW229973   1.931   0.453   2.698  0.8268 -1.5496  0.2700
 6114SOL     OW29974   0.247   3.469   8.164  0.0744  0.4415  0.1989
 6114SOL    HW129975   0.151   3.461   8.163 -0.1315  2.6888  0.8844
 6114SOL    HW229976   0.261   3.431   8.077  0.4348 -0.8706  0.8348
 6115SOL     OW29977   4.609   2.785   5.867 -0.2577 -0.0578 -0.4726
 6115SOL    HW129978   4.612   2.852   5.935  0.1329 -1.4332  0.8455
 6115SOL    HW229979   4.605   2.703   5.916  3.3075  1.4652  2.3224
 6116SOL     OW29980   4.389   1.055   3.448  0.2817  0.0433 -0.1305
 6116SOL    HW129981   4.388   0.993   3.376  1.9771 -0.9093  0.6429
 6116SOL    HW229982   4.338   1.010   3.515 -1.6855  0.8055 -1.1368
 6117SOL     OW29983   3.663   3.946   0.038  0.2279  0.2769  0.6957
 6117SOL    HW129984   3.700   4.024   0.079  0.0434  0.9587 -0.4284
 6117SOL    HW229985   3.728   3.919  17.717 -0.7298 -0.6442  0.1183
 6118SOL     OW29986   3.930   0.165   5.636 -0.3551 -0.2068  0.5674
 6118SOL    HW129987   3.997   0.146   5.701  1.4966 -0.8544 -1.5522
 6118SOL    HW229988   3.975   0.230   5.581 -1.3506  0.0109  0.0060
 6119SOL     OW29989   1.173   2.619   2.576  0.3679  0.5662 -0.2174
 6119SOL    HW129990   1.226   2.674   2.518 -0.3400  0.2330 -1.1843
 6119SOL    HW229991   1.134   2.687   2.631  1.2824  0.2907  0.7702
 6120SOL     OW29992   1.617   0.401  15.216  0.3914 -0.1812  0.3389
 6120SOL    HW129993   1.658   0.482  15.185 -0.4183  0.1263  0.0922
 6120SOL    HW229994   1.672   0.333  15.175  0.4448 -0.1482  0.3554
 6121SOL     OW29995   4.729   4.371   1.235 -0.1618  0.0124  0.2724
 6121SOL    HW129996   0.065   4.434   1.234  0.3147 -0.5872 -3.3654
 6121SOL    HW229997   4.663   4.403   1.297 -1.8093 -1.1944 -0.8616
 6122SOL     OW29998   1.395   3.783   1.816  1.0484  0.2020 -0.3383
 6122SOL    HW129999   1.379   3.824   1.900  0.0097 -0.6975 -0.0991
 6122SOL    HW230000   1.426   3.856   1.762  1.9234 -0.3211 -0.5491
 6123SOL     OW30001   1.590   2.035   3.123  0.3029 -0.3327  0.1846
 6123SOL    HW130002   1.604   1.996   3.037 -1.6621  1.0490 -0.7728
 6123SOL    HW230003   1.658   1.984   3.167  0.9655  0.5811  0.2152
 6124SOL     OW30004   3.484   1.672   7.927  0.7543 -0.2424  0.0216
 6124SOL    HW130005   3.501   1.744   7.867 -1.7152  1.0031  0.8215
 6124SOL    HW230006   3.397   1.696   7.959  1.3894  0.3048  1.3537
 6125SOL     OW30007   2.467   4.094   7.671 -0.3712  0.4438 -0.1445
 6125SOL    HW130008   2.557   4.097   7.639 -0.7699 -1.0399 -1.4015
 6125SOL    HW230009   2.461   4.186   7.695  0.3689  0.3079  0.5652
 6126SOL     OW30010   0.139   4.621   5.228  0.3529  0.0490 -0.2044
 6126SOL    HW130011   0.054   4.622   5.184  0.0825  0.3797  0.3229
 6126SOL    HW230012   0.108   4.594   5.315  0.0712 -0.9321 -0.6091
 6127SOL     OW30013   3.403   4.374  12.297  0.1545 -0.6756  0.1289
 6127SOL    HW130014   3.320   4.409  12.264  0.7735  0.3982 -0.2661
 6127SOL    HW230015   3.436   4.443  12.355 -1.7378 -0.5748  1.0766
 6128SOL     OW30016   3.233   2.639  10.878 -0.3512  0.2801  0.2867
 6128SOL    HW130017   3.180   2.663  10.802  0.1829  1.0865  0.1769
 6128SOL    HW230018   3.168   2.620  10.946  0.7901 -0.1937  1.2467
 6129SOL     OW30019   0.265   2.605   8.089  0.2115  0.1031 -0.4079
 6129SOL    HW130020   0.180   2.565   8.071 -0.0230  1.6417 -2.6901
 6129SOL    HW230021   0.325   2.530   8.077 -3.2258 -2.6021 -0.7171
 6130SOL     OW30022   3.659   1.848   9.296  0.3407 -0.3727 -0.0813
 6130SOL    HW130023   3.589   1.783   9.289 -1.2048  1.4373 -1.6630
 6130SOL    HW230024   3.722   1.807   9.236  0.5653 -1.4805  0.9206
 6131SOL     OW30025   3.129   2.207   2.322  0.6595  0.1451 -0.3120
 6131SOL    HW130026   3.207   2.182   2.271  0.4005 -0.1538 -0.5606
 6131SOL    HW230027   3.057   2.178   2.266  1.1765  0.5471 -1.1848
 6132SOL     OW30028   0.938   2.153  16.634 -0.4868 -0.0364 -0.3163
 6132SOL    HW130029   0.978   2.239  16.631  1.7878 -1.0094  2.7467
 6132SOL    HW230030   0.855   2.176  16.592 -1.5846  0.3818  2.0986
 6133SOL     OW30031   4.010   1.487   9.108 -0.2812  0.0108  0.4149
 6133SOL    HW130032   4.057   1.481   9.191  1.6700  0.1073 -0.6645
 6133SOL    HW230033   3.952   1.412   9.103  2.1793 -1.8669 -0.0580
 6134SOL     OW30034   2.156   3.150   4.748 -0.4918 -0.3791  0.9690
 6134SOL    HW130035   2.073   3.142   4.795  0.3404 -0.8054  2.3842
 6134SOL    HW230036   2.186   3.233   4.785 -1.7138  0.7312 -0.5376
 6135SOL     OW30037   1.497   3.128   2.165  0.1559  0.4368  0.2079
 6135SOL    HW130038   1.559   3.062   2.133 -1.3516 -0.6423 -0.4302
 6135SOL    HW230039   1.555   3.204   2.155  0.5493 -0.3198 -3.1459
 6136SOL     OW30040   3.231   0.359   8.374 -0.7314 -0.1032 -0.0974
 6136SOL    HW130041   3.295   0.288   8.374  0.5228  1.0149 -1.6356
 6136SOL    HW230042   3.165   0.306   8.330  0.5278 -0.4815 -1.5177
 6137SOL     OW30043   1.062   2.527  12.298 -0.3638  0.5770 -0.6549
 6137SOL    HW130044   0.983   2.543  12.350 -0.8559 -1.5077 -0.7673
 6137SOL    HW230045   1.120   2.594  12.335  0.1870 -0.7759  0.9426
 6138SOL     OW30046   4.657   2.746   3.405 -0.0402  0.3002 -0.3136
 6138SOL    HW130047   4.564   2.733   3.387 -0.2942  1.6174  0.0600
 6138SOL    HW230048   4.693   2.750   3.317  0.1671  0.1204 -0.2379
 6139SOL     OW30049   0.126   3.120   8.720 -0.1742  0.3136 -0.4650
 6139SOL    HW130050   0.079   3.178   8.780  0.1273  0.1588 -0.0798
 6139SOL    HW230051   0.167   3.184   8.661  1.8780 -2.4328 -2.0193
 6140SOL     OW30052   3.036   2.155   1.147 -0.4065 -0.4084  0.0917
 6140SOL    HW130053   3.113   2.179   1.096 -0.2026 -0.8668  0.1783
 6140SOL    HW230054   3.004   2.084   1.092  0.8724 -0.9390  0.0194
 6141SOL     OW30055   2.031   3.455   5.948  0.0466 -0.1934 -0.2579
 6141SOL    HW130056   1.988   3.462   6.033  2.3349  3.3976  0.5794
 6141SOL    HW230057   1.961   3.485   5.889  1.1498  2.1098 -0.3626
 6142SOL     OW30058   1.076   2.818   4.607  0.3487 -0.2133 -0.2206
 6142SOL    HW130059   1.011   2.863   4.660  1.0299 -1.8178  1.9535
 6142SOL    HW230060   1.069   2.866   4.524  1.0725  1.9235  0.9645
 6143SOL     OW30061   1.183   4.366   9.756  0.2071  0.1906 -0.2714
 6143SOL    HW130062   1.242   4.307   9.710 -1.6788 -1.5296 -0.5144
 6143SOL    HW230063   1.207   4.360   9.848 -0.9624  0.3722  0.0496
 6144SOL     OW30064   1.220   2.679   2.101 -0.2880  0.1206 -0.5059
 6144SOL    HW130065   1.146   2.711   2.152  0.0171 -0.0754  0.0703
 6144SOL    HW230066   1.243   2.754   2.046  0.7563 -1.4286 -2.1755
 6145SOL     OW30067   3.607   1.928   8.083  0.7446 -0.4974 -0.1568
 6145SOL    HW130068   3.573   1.918   7.994 -0.3078 -3.7664  0.5970
 6145SOL    HW230069   3.567   1.845   8.110  0.1165  0.0421  0.5579
 6146SOL     OW30070   2.747   3.136  12.125  0.0690 -0.6706  0.1825
 6146SOL    HW130071   2.715   3.220  12.093 -1.0173 -0.4859  1.6979
 6146SOL    HW230072   2.840   3.154  12.133 -0.5226  2.3787  0.5039
 6147SOL     OW30073   2.691   0.508  15.245  0.3877 -0.6064 -0.1024
 6147SOL    HW130074   2.742   0.542  15.171 -1.0207  1.3115 -0.1820
 6147SOL    HW230075   2.611   0.475  15.204  1.3278 -0.1889 -2.2828
 6148SOL     OW30076   1.765   4.227  11.109 -0.3782  0.0066  0.5131
 6148SOL    HW130077   1.777   4.238  11.014 -0.2150  0.8046  0.6248
 6148SOL    HW230078   1.809   4.142  11.108  1.0669  0.7409  1.8911
 6149SOL     OW30079   3.451   2.644   4.921 -0.0452 -0.0106  0.1005
 6149SOL    HW130080   3.360   2.639   4.893  0.0856  2.4257 -0.7333
 6149SOL    HW230081   3.495   2.603   4.847  1.0925 -1.9501  1.8473
 6150SOL     OW30082   4.502   4.060   8.676  0.2278  0.4636 -0.1872
 6150SOL    HW130083   4.586   4.037   8.638 -0.0413  1.6774 -1.5294
 6150SOL    HW230084   4.504   4.156   8.674  1.7600  0.4857  2.5805
 6151SOL     OW30085   3.774   2.780   7.099 -0.1909 -0.0373  0.0665
 6151SOL    HW130086   3.710   2.848   7.079 -1.8177 -2.2799 -2.2266
 6151SOL    HW230087   3.733   2.739   7.175  0.5084 -1.0895 -0.1218
 6152SOL     OW30088   0.191   2.002   1.960 -0.0568  0.5128  0.5929
 6152SOL    HW130089   0.255   2.053   1.911 -0.3129  0.2797  0.0224
 6152SOL    HW230090   0.236   1.991   2.044 -0.5986 -0.9189  0.6960
 6153SOL     OW30091   1.849   1.530   4.489 -0.0736  0.0306 -0.1878
 6153SOL    HW130092   1.819   1.553   4.577 -2.5337  3.7127 -2.0145
 6153SOL    HW230093   1.938   1.566   4.486  0.3561 -1.1210 -1.2128
 6154SOL     OW30094   0.416   1.341   5.469 -0.1827  0.3509  0.3476
 6154SOL    HW130095   0.345   1.294   5.425 -0.5120  2.3461 -1.2705
 6154SOL    HW230096   0.363   1.399   5.524  0.5019  2.3231 -1.0780
 6155SOL     OW30097   4.278   0.212   0.302 -0.0883  0.3340  0.3638
 6155SOL    HW130098   4.319   0.275   0.361 -1.3173  1.0220  0.4802
 6155SOL    HW230099   4.338   0.138   0.302  0.6540  0.9580 -1.0664
 6156SOL     OW30100   3.748   4.618  11.170  0.0438  0.2638  0.4763
 6156SOL    HW130101   3.726   4.531  11.136  2.1448 -0.9768  2.2920
 6156SOL    HW230102   3.843   4.607  11.181 -0.3290 -1.5872  1.9019
 6157SOL     OW30103   3.105   1.779   5.020 -0.2197  0.3976  0.4518
 6157SOL    HW130104   3.103   1.690   5.055 -0.2762 -0.0978 -0.7984
 6157SOL    HW230105   3.173   1.816   5.077  0.0384 -1.6335  1.4317
 6158SOL     OW30106   0.102   2.866   3.690 -0.0146 -0.4446 -0.4207
 6158SOL    HW130107   0.041   2.937   3.710 -0.0651 -0.4389 -0.5923
 6158SOL    HW230108   0.170   2.915   3.645 -0.3426  1.1303  0.8193
 6159SOL     OW30109   1.639   1.295   6.401 -0.3366  0.4648 -0.0754
 6159SOL    HW130110   1.556   1.309   6.447 -0.0307  3.6026 -0.4295
 6159SOL    HW230111   1.686   1.378   6.406  0.8398 -0.1939 -0.2771
 6160SOL     OW30112   1.019   3.791  15.787  0.3534 -0.2316  0.3069
 6160SOL    HW130113   1.075   3.799  15.710 -2.0152  0.0279 -1.3800
 6160SOL    HW230114   0.934   3.772  15.747  0.8229 -1.1730 -0.2411
 6161SOL     OW30115   0.968   4.020   7.725  0.1166  0.6072  0.2771
 6161SOL    HW130116   0.885   4.063   7.704 -1.3762 -0.3074  4.2656
 6161SOL    HW230117   0.959   3.962   7.649  1.2892  0.5857  0.1576
 6162SOL     OW30118   0.283   3.100   4.293 -0.1944 -0.6541  0.2160
 6162SOL    HW130119   0.241   3.180   4.323 -0.1999 -0.0599 -1.3809
 6162SOL    HW230120   0.233   3.088   4.212 -0.9818 -1.6800  0.8561
 6163SOL     OW30121   3.627   2.046   6.052  0.0559  0.5126  0.0705
 6163SOL    HW130122   3.553   2.028   6.109 -0.6849  0.1756 -1.0030
 6163SOL    HW230123   3.641   2.141   6.063 -0.0640  0.4145  1.0763
 6164SOL     OW30124   2.861   1.262   6.302 -0.1386  0.0548  0.3695
 6164SOL    HW130125   2.768   1.246   6.290  0.0242  0.5749 -1.5300
 6164SOL    HW230126   2.875   1.332   6.238  2.1977 -1.4508 -0.7860
 6165SOL     OW30127   0.429   1.770   5.786  0.3305  0.1682  0.1881
 6165SOL    HW130128   0.488   1.813   5.725  0.0649 -1.1301 -0.9961
 6165SOL    HW230129   0.421   1.832   5.859 -0.6201  0.4257 -0.1287
 6166SOL     OW30130   3.958   1.885   2.695 -0.0799  0.1913 -0.1194
 6166SOL    HW130131   3.992   1.889   2.785 -0.9197  0.3956  0.1948
 6166SOL    HW230132   3.962   1.791   2.678  2.3834  0.2553  0.1150
 6167SOL     OW30133   2.888   0.023  12.986 -0.0852 -0.0131  0.1074
 6167SOL    HW130134   2.829   0.083  12.940  1.5290  2.4428  1.2346
 6167SOL    HW230135   2.977   0.049  12.962 -0.7685  2.1422 -0.0704
 6168SOL     OW30136   1.061   3.379   3.093 -0.4271  0.4245 -0.3150
 6168SOL    HW130137   1.143   3.427   3.104  0.1641 -1.0925  2.0000
 6168SOL    HW230138   1.069   3.338   3.007 -0.9078  1.0876 -0.6738
 6169SOL     OW30139   1.342   2.925   3.325 -0.0875 -0.2761 -0.3563
 6169SOL    HW130140   1.322   2.949   3.415  2.7236 -0.0929  0.2466
 6169SOL    HW230141   1.438   2.931   3.319 -0.0493  0.8206  1.2604
 6170SOL     OW30142   1.408   1.531   8.294  0.1477 -0.2057 -0.0028
 6170SOL    HW130143   1.390   1.572   8.209  2.0287  1.1369  0.2555
 6170SOL    HW230144   1.490   1.483   8.283  1.1454  1.6471 -0.6306
 6171SOL     OW30145   1.121   0.985   9.815 -0.2611 -0.2628 -0.6028
 6171SOL    HW130146   1.134   0.953   9.726 -1.5493 -1.6417 -0.2803
 6171SOL    HW230147   1.120   0.899   9.856  0.5532 -0.9578 -2.0492
 6172SOL     OW30148   3.215   3.735   8.222  0.3352  0.3834  0.3940
 6172SOL    HW130149   3.282   3.683   8.266 -0.4440  0.1277  1.2846
 6172SOL    HW230150   3.267   3.792   8.165 -1.2835 -0.5429 -2.0113
 6173SOL     OW30151   0.811   3.690  16.674  0.5196  0.2085  0.0309
 6173SOL    HW130152   0.902   3.678  16.647  0.2970  1.9711 -1.4833
 6173SOL    HW230153   0.761   3.672  16.595  2.9297 -1.4786 -1.1283
 6174SOL     OW30154   2.944   4.491  13.477 -0.5816 -0.3385 -0.3647
 6174SOL    HW130155   2.903   4.540  13.406 -2.0580 -1.7877 -0.5173
 6174SOL    HW230156   2.983   4.422  13.422  0.3707 -0.4350  0.4284
 6175SOL     OW30157   2.124   3.410   2.763  0.3692  0.0580  0.2550
 6175SOL    HW130158   2.206   3.441   2.725  0.4600  0.3659  0.7058
 6175SOL    HW230159   2.129   3.319   2.792  0.2117  0.4187  1.3831
 6176SOL     OW30160   3.864   4.731   8.424 -0.2822 -0.0912 -0.3223
 6176SOL    HW130161   3.954   4.703   8.404 -0.2324  0.2054 -0.5071
 6176SOL    HW230162   3.875   0.051   8.500 -2.4626 -1.4855  1.0259
 6177SOL     OW30163   4.444   4.383  13.264  0.6832  0.1475  0.2495
 6177SOL    HW130164   4.518   4.419  13.312  0.8965  2.1336 -1.5425
 6177SOL    HW230165   4.465   4.290  13.274  1.8957  0.5307  1.2247
 6178SOL     OW30166   0.015   2.650   8.922  0.2539  0.6622 -0.1218
 6178SOL    HW130167   0.062   2.733   8.937 -0.5484  1.2132 -0.6672
 6178SOL    HW230168   0.016   2.607   9.008 -1.6342 -1.3498 -1.1318
 6179SOL     OW30169   2.483   3.280   1.985 -0.2953  0.0272 -0.1022
 6179SOL    HW130170   2.422   3.321   1.923  0.5415  3.7839  1.5292
 6179SOL    HW230171   2.507   3.198   1.942 -2.4063 -0.1061 -1.0383
 6180SOL     OW30172   4.046   3.276   2.789 -0.6921 -0.3185  0.2947
 6180SOL    HW130173   4.139   3.295   2.776 -0.6528  1.0473  2.5715
 6180SOL    HW230174   4.037   3.212   2.719 -1.5271  0.9152 -0.7301
 6181SOL     OW30175   1.719   1.315   0.110  0.1547  0.8715  0.4093
 6181SOL    HW130176   1.757   1.384   0.055  0.4662  0.4259  0.0645
 6181SOL    HW230177   1.742   1.244   0.050  1.7476  1.6136  0.1322
 6182SOL     OW30178   3.379   0.299   6.921 -0.0152  0.4198 -0.0042
 6182SOL    HW130179   3.367   0.242   6.998  0.8896  0.2451  0.0027
 6182SOL    HW230180   3.309   0.268   6.863 -1.9347  4.7128  0.0050
 6183SOL     OW30181   2.349   2.122   5.185 -0.0084 -0.0454  0.5805
 6183SOL    HW130182   2.283   2.133   5.253 -1.0040 -3.5287  0.2047
 6183SOL    HW230183   2.418   2.076   5.234  0.0065 -0.5943  0.0565
 6184SOL     OW30184   4.468   3.577   4.673 -0.3624 -0.1243  0.3675
 6184SOL    HW130185   4.423   3.620   4.746 -0.2741 -1.7860  1.4098
 6184SOL    HW230186   4.536   3.532   4.724 -2.0475  0.7425  3.3710
 6185SOL     OW30187   1.554   0.385   7.250  0.5880 -0.2447  0.5545
 6185SOL    HW130188   1.520   0.380   7.339  0.0269  0.4252  0.3760
 6185SOL    HW230189   1.544   0.292   7.232 -1.5253  0.1238 -0.0997
 6186SOL     OW30190   3.916   3.207   6.308  0.3911 -0.0215  0.2520
 6186SOL    HW130191   3.852   3.278   6.300 -0.2908 -0.4852  1.5222
 6186SOL    HW230192   3.938   3.224   6.400 -1.3621  1.5681  0.3957
 6187SOL     OW30193   3.670   2.508   1.082  0.6439  0.2642  0.0027
 6187SOL    HW130194   3.586   2.462   1.080  1.2956 -0.8528 -1.3630
 6187SOL    HW230195   3.730   2.434   1.084  0.4863  0.2143  2.1021
 6188SOL     OW30196   4.145   4.003   3.523  0.0217  0.9042 -0.2070
 6188SOL    HW130197   4.121   3.982   3.433 -0.7732 -1.1582  0.4819
 6188SOL    HW230198   4.180   4.089   3.500  0.8435  0.7831  0.5869
 6189SOL     OW30199   2.546   2.391   4.938 -0.4552 -0.6617 -0.4373
 6189SOL    HW130200   2.558   2.300   4.967  0.3208 -0.1082  0.9852
 6189SOL    HW230201   2.463   2.410   4.981 -0.0815 -0.3332  0.1447
 6190SOL     OW30202   2.428   2.325   5.916  0.2296  0.2468  0.3754
 6190SOL    HW130203   2.398   2.406   5.876 -1.9219 -0.5681  0.3214
 6190SOL    HW230204   2.395   2.259   5.855  2.1037 -0.0540 -0.2915
 6191SOL     OW30205   0.430   0.416   0.232 -0.3554 -0.6026 -0.2906
 6191SOL    HW130206   0.359   0.360   0.267 -2.1530  0.1470 -2.7415
 6191SOL    HW230207   0.492   0.348   0.206  1.6880  1.1088  0.2059
 6192SOL     OW30208   3.111   3.157   6.584  0.0218  0.1462 -0.3355
 6192SOL    HW130209   3.042   3.104   6.625 -0.6191  0.9690 -0.3601
 6192SOL    HW230210   3.188   3.123   6.630  0.0687 -1.8110 -1.8833
 6193SOL     OW30211   4.064   2.943   5.363  0.1449  0.5242  0.3403
 6193SOL    HW130212   4.000   2.884   5.324 -1.3489  2.6122 -0.3468
 6193SOL    HW230213   4.073   2.899   5.448 -1.3886 -2.0087 -0.8177
 6194SOL     OW30214   4.533   0.315   0.351  0.6075  0.1639  0.3596
 6194SOL    HW130215   4.555   0.236   0.400  0.2948  0.0604  0.3317
 6194SOL    HW230216   4.605   0.331   0.289 -0.2333  1.6391 -0.2333
 6195SOL     OW30217   0.670   3.031  10.356 -0.2164  0.5435 -0.2345
 6195SOL    HW130218   0.650   3.071  10.271 -0.6085 -1.2585 -0.9888
 6195SOL    HW230219   0.583   3.037  10.396  0.4617 -0.4364  1.3910
 6196SOL     OW30220   0.369   0.832   7.083  0.1766 -0.3004  0.3763
 6196SOL    HW130221   0.328   0.918   7.082  2.7693  0.9395  2.4988
 6196SOL    HW230222   0.463   0.844   7.099  0.3367 -1.0730  0.0443
 6197SOL     OW30223   2.486   4.024   0.943 -0.0565  0.0273  0.3890
 6197SOL    HW130224   2.538   4.025   0.863 -0.9026 -0.8796 -0.1624
 6197SOL    HW230225   2.411   4.071   0.906 -0.0247 -1.1176 -1.1271
 6198SOL     OW30226   3.384   2.108   7.618  0.0802 -0.3780  0.3014
 6198SOL    HW130227   3.375   2.021   7.580  2.0310 -0.0687 -0.8407
 6198SOL    HW230228   3.478   2.118   7.631 -0.2171  1.0742  1.4879
 6199SOL     OW30229   3.016   1.119   2.651  0.1089  0.1273 -0.2678
 6199SOL    HW130230   3.039   1.155   2.737  0.2284  0.2504 -0.3505
 6199SOL    HW230231   3.098   1.140   2.605  1.5827 -3.4835  0.7279
 6200SOL     OW30232   3.699   2.846  14.552 -0.0170 -0.2490 -0.1557
 6200SOL    HW130233   3.760   2.918  14.534 -1.8435  1.2151 -0.6152
 6200SOL    HW230234   3.667   2.874  14.638  1.2942  1.8150 -0.3317
 6201SOL     OW30235   3.417   2.139   5.423 -0.5886 -0.6964  0.0493
 6201SOL    HW130236   3.430   2.233   5.408  1.0684 -0.7515  1.2004
 6201SOL    HW230237   3.425   2.109   5.333 -2.1120 -0.4027 -0.1915
 6202SOL     OW30238   1.804   0.740   9.267 -0.2182  0.0757 -0.5422
 6202SOL    HW130239   1.895   0.756   9.245 -0.6842  0.6162 -2.0467
 6202SOL    HW230240   1.803   0.798   9.344  3.9949 -1.1569  0.3958
 6203SOL     OW30241   3.147   2.472  11.603 -0.1092 -0.1725 -0.2906
 6203SOL    HW130242   3.086   2.542  11.627  1.4496  1.1491 -0.2392
 6203SOL    HW230243   3.186   2.509  11.524  2.4677 -2.1684  0.0354
 6204SOL     OW30244   1.412   2.300   9.190  0.0448 -0.5830  0.0505
 6204SOL    HW130245   1.358   2.222   9.177 -1.5818  0.5577 -0.0955
 6204SOL    HW230246   1.457   2.304   9.106 -0.2713  2.2172  0.0327
 6205SOL     OW30247   4.681   2.156   8.686  0.4070  0.2225 -0.4382
 6205SOL    HW130248   4.687   2.228   8.749  3.3551 -0.1991 -0.2057
 6205SOL    HW230249   4.624   2.193   8.619  0.9364 -0.6071 -1.3438
 6206SOL     OW30250   0.546   4.055  13.611  0.0834 -1.1890 -0.0084
 6206SOL    HW130251   0.600   3.979  13.632  1.0920  0.4956  3.5614
 6206SOL    HW230252   0.601   4.111  13.666  0.9312 -1.4697 -0.5620
 6207SOL     OW30253   1.741   4.428  13.812 -0.6335 -0.2479 -0.1397
 6207SOL    HW130254   1.669   4.458  13.757 -0.7334 -0.8758 -0.3453
 6207SOL    HW230255   1.795   4.496  13.771 -0.1459  0.4184  1.6044
 6208SOL     OW30256   3.009   1.601   6.484  0.1850  0.3169 -0.0922
 6208SOL    HW130257   3.057   1.680   6.510  1.6388  0.3746 -3.0056
 6208SOL    HW230258   2.981   1.628   6.397  1.1472  1.2698 -0.1113
 6209SOL     OW30259   1.678   1.963   4.089  0.1127  0.8356  0.2861
 6209SOL    HW130260   1.765   1.949   4.127 -0.1816 -0.0970  0.6140
 6209SOL    HW230261   1.628   1.889   4.123  2.6902 -0.9306  0.2372
 6210SOL     OW30262   0.228   1.407   8.631 -0.2527  0.5991 -0.6086
 6210SOL    HW130263   0.301   1.345   8.623  0.2739  1.2912 -1.1013
 6210SOL    HW230264   0.256   1.482   8.684 -0.6001  1.5880 -1.8345
 6211SOL     OW30265   1.305   2.796   9.611 -0.1863 -0.1860  0.4999
 6211SOL    HW130266   1.263   2.856   9.549  2.3648 -0.8929 -1.9174
 6211SOL    HW230267   1.381   2.770   9.559 -1.1426 -1.6767 -0.1548
 6212SOL     OW30268   0.132   3.694   5.672 -0.7799 -0.1141 -0.6269
 6212SOL    HW130269   0.204   3.741   5.630  1.5410 -2.4584  0.7119
 6212SOL    HW230270   0.111   3.620   5.615  0.3967 -0.7974 -0.1654
 6213SOL     OW30271   2.940   1.267   2.139 -0.0369  0.1184 -0.2492
 6213SOL    HW130272   2.999   1.290   2.211 -0.0919  0.3962 -0.2942
 6213SOL    HW230273   3.003   1.275   2.067 -0.1822 -1.1978 -0.5281
 6214SOL     OW30274   4.473   1.067  10.975  0.7839  0.2606  0.1238
 6214SOL    HW130275   4.539   0.999  10.975  0.5102 -0.0045 -0.1667
 6214SOL    HW230276   4.427   1.064  11.059 -0.1755 -2.0471 -0.4975
 6215SOL     OW30277   0.482   0.782   1.011  0.1596  0.3773  0.5151
 6215SOL    HW130278   0.413   0.804   0.948  1.9622  0.1173 -1.5393
 6215SOL    HW230279   0.510   0.868   1.043 -1.3385  1.1309 -0.2113
 6216SOL     OW30280   3.856   1.911  16.097  0.3244 -0.5026 -0.0072
 6216SOL    HW130281   3.848   1.830  16.046 -1.5117  0.4583 -1.2522
 6216SOL    HW230282   3.878   1.879  16.184 -1.3622 -0.7955  0.3064
 6217SOL     OW30283   1.465   4.250  11.172 -0.2411  0.2713  0.4308
 6217SOL    HW130284   1.473   4.172  11.227 -1.9816  0.6645  1.2684
 6217SOL    HW230285   1.547   4.246  11.124  0.2692 -0.5585  1.3632
 6218SOL     OW30286   1.286   3.956   4.570  0.1593  0.3693  0.1271
 6218SOL    HW130287   1.379   3.934   4.563 -0.6739 -2.4635 -1.9416
 6218SOL    HW230288   1.253   3.902   4.643 -0.0295 -0.3046 -0.4581
 6219SOL     OW30289   2.945   4.029   1.683  0.2129  0.0899 -0.1375
 6219SOL    HW130290   2.923   3.975   1.759 -0.5795 -0.0966 -0.4937
 6219SOL    HW230291   2.912   4.115   1.711  0.3346  0.3165 -0.6815
 6220SOL     OW30292   1.576   1.491  11.503 -0.8701 -0.1652 -0.1638
 6220SOL    HW130293   1.664   1.514  11.533 -1.5335  0.7109  1.0798
 6220SOL    HW230294   1.524   1.499  11.582  0.4120  1.2561  0.5352
 6221SOL     OW30295   0.951   3.266   4.069 -0.0919 -0.4329 -0.0141
 6221SOL    HW130296   0.906   3.288   3.988 -0.2040  0.9831  0.4326
 6221SOL    HW230297   0.937   3.345   4.121  1.0129  0.1488 -0.6008
 6222SOL     OW30298   2.281   3.544  17.518 -0.4008 -0.5046 -0.7058
 6222SOL    HW130299   2.212   3.603  17.487 -1.0009 -0.9932 -0.3245
 6222SOL    HW230300   2.221   3.503  17.580  1.4438 -2.0453  0.0449
 6223SOL     OW30301   3.236   1.952  11.647 -0.5828  0.3268  0.4850
 6223SOL    HW130302   3.310   1.942  11.587  0.1834  1.2493  1.2818
 6223SOL    HW230303   3.235   2.046  11.662  0.0324  0.3202  0.5705
 6224SOL     OW30304   0.472   4.691   8.986 -0.0741 -0.3084  0.2167
 6224SOL    HW130305   0.536   4.624   8.962  1.7173  1.7611 -0.7094
 6224SOL    HW230306   0.492   0.035   8.938 -1.4336  0.7550  1.4334
 6225SOL     OW30307   0.640   1.258   5.658 -0.2729 -0.3146  0.3362
 6225SOL    HW130308   0.648   1.353   5.647 -3.8141 -0.4987 -3.6160
 6225SOL    HW230309   0.548   1.249   5.635 -0.1676  3.2003 -1.4622
 6226SOL     OW30310   2.065   1.844   5.975  0.3287  0.2564 -0.3382
 6226SOL    HW130311   2.011   1.864   5.899  0.5802 -0.1624 -0.6278
 6226SOL    HW230312   2.131   1.785   5.939  0.2988  1.4342 -2.3298
 6227SOL     OW30313   2.474   0.804   8.330  0.5666  0.5080  0.0743
 6227SOL    HW130314   2.540   0.853   8.379  0.3960 -1.2399  2.0704
 6227SOL    HW230315   2.416   0.779   8.402  0.6513  0.7176  0.2143
 6228SOL     OW30316   3.192   2.250   5.502  0.0199  0.4736 -0.0533
 6228SOL    HW130317   3.257   2.192   5.464 -1.8810 -0.4760 -1.8938
 6228SOL    HW230318   3.239   2.332   5.487  1.9723 -0.6312  0.0642
 6229SOL     OW30319   4.157   0.747   3.052  0.0150  0.2819 -0.0287
 6229SOL    HW130320   4.078   0.718   3.097  0.9518 -0.3333  1.2079
 6229SOL    HW230321   4.183   0.669   3.003 -2.0650 -0.4248 -0.0088
 6230SOL     OW30322   0.124   2.830   0.833 -0.4424 -0.1791 -0.2784
 6230SOL    HW130323   0.110   2.878   0.751  1.4718 -0.4557 -0.7596
 6230SOL    HW230324   0.067   2.880   0.891 -1.3022  0.9599 -2.0985
 6231SOL     OW30325   4.433   2.812   5.369 -0.1149  0.2989 -0.3950
 6231SOL    HW130326   4.456   2.880   5.432 -1.4871 -1.5848  2.1898
 6231SOL    HW230327   4.443   2.857   5.285 -0.0021 -1.2389 -1.2055
 6232SOL     OW30328   0.704   2.271  16.549  0.3797  0.0549 -0.0979
 6232SOL    HW130329   0.690   2.359  16.586  3.3801 -0.8504  3.2234
 6232SOL    HW230330   0.628   2.253  16.495  1.5144  0.3043 -1.7635
 6233SOL     OW30331   2.327   1.933  10.593 -0.0869 -0.2606 -0.0022
 6233SOL    HW130332   2.237   1.905  10.573 -1.0276  2.2620  0.5961
 6233SOL    HW230333   2.329   1.897  10.681  0.2802 -1.5568 -0.5513
 6234SOL     OW30334   4.018   1.591  10.267 -0.1623 -0.1378  0.0633
 6234SOL    HW130335   4.075   1.565  10.194  0.3737  3.9339 -1.0146
 6234SOL    HW230336   4.060   1.543  10.338  1.4828 -1.9009 -2.1061
 6235SOL     OW30337   2.997   0.853   3.853  0.2500 -0.1001  1.0058
 6235SOL    HW130338   3.029   0.866   3.942 -1.0249  0.9017  1.3251
 6235SOL    HW230339   2.904   0.875   3.861 -0.2609 -1.7950 -0.1975
 6236SOL     OW30340   2.354   1.804   8.863 -0.2642  0.1061  0.3948
 6236SOL    HW130341   2.315   1.890   8.879 -1.5356 -0.7088  1.7259
 6236SOL    HW230342   2.362   1.816   8.769  1.0004 -0.4459  0.4479
 6237SOL     OW30343   0.574   3.364   6.668  0.5616  0.1804  0.0362
 6237SOL    HW130344   0.492   3.394   6.709 -0.1443 -2.6963  0.6947
 6237SOL    HW230345   0.622   3.320   6.738  1.6045  1.2857  0.0176
 6238SOL     OW30346   3.400   1.419   3.457  0.0261  0.4836  0.7105
 6238SOL    HW130347   3.318   1.398   3.502 -1.8281  0.6163 -2.6870
 6238SOL    HW230348   3.372   1.481   3.391  0.9456 -0.1496 -0.2694
 6239SOL     OW30349   1.038   3.049  17.675  0.1788  0.8427  0.8503
 6239SOL    HW130350   1.109   3.072  17.734  2.2736 -1.2911 -0.8609
 6239SOL    HW230351   0.973   3.112  17.709 -1.2912 -0.2459  0.0584
 6240SOL     OW30352   1.751   4.103  11.844  0.1184 -0.5034  0.5688
 6240SOL    HW130353   1.787   4.045  11.777 -2.8964 -2.9994  1.1181
 6240SOL    HW230354   1.718   4.041  11.909 -1.5955 -1.4713 -1.2001
 6241SOL     OW30355   0.482   2.017   5.438  0.1768  0.2404  0.0561
 6241SOL    HW130356   0.465   1.960   5.363 -1.1872  0.8264 -0.0774
 6241SOL    HW230357   0.468   1.959   5.513 -2.9492  0.3410 -0.4729
 6242SOL     OW30358   0.847   0.224   1.487  0.8601  0.2925 -0.5472
 6242SOL    HW130359   0.769   0.194   1.441  1.6154  1.3122 -2.5130
 6242SOL    HW230360   0.809   0.280   1.555  2.0460 -1.1501  1.3076
 6243SOL     OW30361   3.433   2.148  12.581 -0.6359 -0.8162  0.3322
 6243SOL    HW130362   3.526   2.137  12.564 -0.4043  0.8323  0.5498
 6243SOL    HW230363   3.402   2.113  12.497  2.4979  1.5964 -1.7954
 6244SOL     OW30364   3.272   1.065   2.042 -0.3589 -0.7559 -0.6213
 6244SOL    HW130365   3.283   1.066   2.137 -2.3854 -2.7870 -0.3584
 6244SOL    HW230366   3.338   1.132   2.026 -1.6982  1.3882  2.7652
 6245SOL     OW30367   1.681   0.541   3.127  1.2481  0.1772  0.4315
 6245SOL    HW130368   1.720   0.605   3.067  0.0266  0.0776 -0.4731
 6245SOL    HW230369   1.737   0.466   3.106  0.3690 -0.6813  1.1564
 6246SOL     OW30370   1.677   2.185   3.911 -0.1568 -0.0077  0.1272
 6246SOL    HW130371   1.683   2.145   3.997  1.5246  1.3593  0.6432
 6246SOL    HW230372   1.582   2.187   3.901 -0.2546  0.0543  1.0994
 6247SOL     OW30373   1.686   2.259   2.764 -0.4383  0.5706  0.0429
 6247SOL    HW130374   1.627   2.334   2.767 -0.2878  0.5979  2.0055
 6247SOL    HW230375   1.645   2.215   2.690  0.2094 -2.2382  1.3629
 6248SOL     OW30376   4.490   0.839  11.585  0.3469  0.3994 -0.4792
 6248SOL    HW130377   4.517   0.929  11.568  0.7840  0.5699  1.1027
 6248SOL    HW230378   4.494   0.803  11.497  1.1401 -0.2580 -0.1718
 6249SOL     OW30379   1.289   3.271   3.363 -0.0091  0.0507 -0.2438
 6249SOL    HW130380   1.325   3.223   3.438 -0.5053  0.7978  0.4721
 6249SOL    HW230381   1.369   3.312   3.329  0.6560 -0.9094  0.1443
 6250SOL     OW30382   2.732   0.348   6.413 -0.0415  0.2058  0.3246
 6250SOL    HW130383   2.688   0.431   6.394  0.9489  0.7898  0.5829
 6250SOL    HW230384   2.667   0.299   6.362  0.7572  1.0293 -1.4897
 6251SOL     OW30385   4.074   4.393  12.805  0.2550 -0.1099 -0.4369
 6251SOL    HW130386   3.989   4.416  12.842  0.5938  1.1059 -0.4072
 6251SOL    HW230387   4.129   4.444  12.864  1.3139 -0.3848 -1.1728
 6252SOL     OW30388   2.196   3.094   5.482  0.4755  0.9822  0.2514
 6252SOL    HW130389   2.147   3.170   5.514 -0.5533  0.6420 -0.5378
 6252SOL    HW230390   2.279   3.107   5.528  1.0737 -1.3996 -0.1826
 6253SOL     OW30391   0.134   3.553   6.986  0.1243 -0.0571  0.8315
 6253SOL    HW130392   0.179   3.469   6.974  0.3827  0.0224  1.2439
 6253SOL    HW230393   0.178   3.609   6.922  0.8461 -1.1601  0.3566
 6254SOL     OW30394   3.339   2.269   8.135  0.3165 -0.0616  0.0836
 6254SOL    HW130395   3.267   2.305   8.083 -0.9618 -2.0149  0.4906
 6254SOL    HW230396   3.303   2.184   8.162  2.5573 -0.9203  0.3584
 6255SOL     OW30397   0.526   1.314   8.344  0.0700 -0.3980 -0.0002
 6255SOL    HW130398   0.520   1.294   8.437  0.5614  3.2437  0.8236
 6255SOL    HW230399   0.554   1.405   8.352 -1.4220  0.0354  0.4486
 6256SOL     OW30400   3.075   0.223   8.185  0.2966  0.1088 -0.4217
 6256SOL    HW130401   3.113   0.164   8.120 -0.5238 -0.5472 -0.3019
 6256SOL    HW230402   2.981   0.204   8.178  0.5565 -1.0001 -0.8216
 6257SOL     OW30403   3.557   0.696   3.373  0.3114  0.1575 -0.0716
 6257SOL    HW130404   3.609   0.742   3.439  0.9659 -1.3786  0.4820
 6257SOL    HW230405   3.468   0.725   3.391 -0.3560 -1.8584 -0.1243
 6258SOL     OW30406   1.381   0.285  17.275 -0.6574 -0.8087  0.0513
 6258SOL    HW130407   1.434   0.258  17.200 -0.8033  2.4341 -1.2194
 6258SOL    HW230408   1.320   0.344  17.231 -0.7533 -2.9390 -2.6732
 6259SOL     OW30409   2.321   2.222   4.074 -0.0638  0.2628  0.6732
 6259SOL    HW130410   2.324   2.213   3.979 -0.4257  3.3226  0.3736
 6259SOL    HW230411   2.225   2.221   4.074 -0.0363 -2.5798  0.6637
 6260SOL     OW30412   0.053   3.777  13.078 -0.4107  0.1066 -0.3696
 6260SOL    HW130413   0.108   3.800  13.002  1.3773  2.1022  1.5428
 6260SOL    HW230414   0.096   3.700  13.114  0.2937  0.7613  0.2023
 6261SOL     OW30415   3.281   1.770   2.464  0.4188 -0.1533  0.1119
 6261SOL    HW130416   3.203   1.795   2.415  1.4112  0.2690 -1.2374
 6261SOL    HW230417   3.284   1.679   2.434  0.7197 -0.6208  1.5321
 6262SOL     OW30418   1.338   1.907   1.584 -1.0402 -0.8447  0.3425
 6262SOL    HW130419   1.303   1.820   1.603  0.0343 -1.3175  0.1981
 6262SOL    HW230420   1.392   1.880   1.509 -1.7152 -0.5313 -0.2561
 6263SOL     OW30421   3.275   2.353   3.311  0.3525 -0.1593  0.7972
 6263SOL    HW130422   3.206   2.368   3.246  0.3883 -2.1276  0.3100
 6263SOL    HW230423   3.236   2.304   3.384 -0.7420  0.1190  0.4107
 6264SOL     OW30424   0.072   3.164   6.551  0.1824 -0.2160 -0.7309
 6264SOL    HW130425   0.040   3.249   6.582 -3.9493 -0.8120 -3.2724
 6264SOL    HW230426   0.126   3.198   6.479 -1.2116  1.6061 -0.9372
 6265SOL     OW30427   1.495   2.034  15.578 -0.3158  0.4308 -0.3934
 6265SOL    HW130428   1.510   2.127  15.561 -0.5848  0.4836 -0.3367
 6265SOL    HW230429   1.492   1.990  15.493 -3.3256 -0.9138  0.4182
 6266SOL     OW30430   3.485   3.478   6.577 -0.1091 -0.0054 -0.0930
 6266SOL    HW130431   3.573   3.444   6.561  2.2339  5.0706  1.9361
 6266SOL    HW230432   3.506   3.568   6.603  2.0021 -0.5857  0.1569
 6267SOL     OW30433   2.454   1.274   7.037  0.5108 -0.2193 -0.4143
 6267SOL    HW130434   2.366   1.237   7.037  0.8360 -0.9974  0.4527
 6267SOL    HW230435   2.434   1.368   7.035  2.4756  0.1815 -0.5722
 6268SOL     OW30436   0.011   4.267   9.848 -0.0048 -0.0609  0.2962
 6268SOL    HW130437   0.011   4.223   9.763  1.7015 -0.3195  0.4203
 6268SOL    HW230438   4.726   4.200   9.912 -0.1040 -1.1881 -0.9201
 6269SOL     OW30439   3.221   2.986   3.371  0.0057  0.1561  0.3130
 6269SOL    HW130440   3.304   3.026   3.344 -0.1866  1.5408  1.7329
 6269SOL    HW230441   3.260   2.899   3.377  0.5737  0.4690  1.1624
 6270SOL     OW30442   4.629   4.298   3.584 -0.7853 -0.0846  0.0405
 6270SOL    HW130443   4.612   4.266   3.673  0.3869  1.6374  0.8918
 6270SOL    HW230444   4.636   4.215   3.536 -1.6589 -0.5501  0.7222
 6271SOL     OW30445   2.912   3.596   4.315  0.2041  0.1354  0.0161
 6271SOL    HW130446   2.847   3.570   4.380 -0.7927  0.1368 -0.9661
 6271SOL    HW230447   2.874   3.571   4.230 -0.1723  0.5157  0.0723
 6272SOL     OW30448   1.705   4.314   2.283 -0.5139  0.6890 -0.1207
 6272SOL    HW130449   1.636   4.251   2.299 -0.4006 -0.1018 -2.6881
 6272SOL    HW230450   1.784   4.261   2.293  0.4633  1.8859 -1.3426
 6273SOL     OW30451   0.523   4.325   8.883 -0.1478  0.0433 -0.2133
 6273SOL    HW130452   0.520   4.237   8.921  0.7474 -0.1949 -0.6873
 6273SOL    HW230453   0.446   4.325   8.827 -0.9900 -1.8615  0.9265
 6274SOL     OW30454   0.541   0.622  17.046  0.4558  0.1197 -0.1908
 6274SOL    HW130455   0.451   0.616  17.014  1.1559 -0.8725 -1.9911
 6274SOL    HW230456   0.592   0.637  16.966  1.5591 -0.3014  0.4220
 6275SOL     OW30457   2.953   1.692   8.604  0.1119  0.3556  0.2323
 6275SOL    HW130458   3.000   1.612   8.580 -0.4869  0.0860 -0.0582
 6275SOL    HW230459   2.962   1.701   8.698  2.4145  2.7583 -0.2188
 6276SOL     OW30460   4.049   0.267   4.107  0.3293  0.4607  0.2930
 6276SOL    HW130461   3.992   0.312   4.044 -0.2196 -1.5678 -0.6529
 6276SOL    HW230462   4.047   0.332   4.177 -0.1352  1.1432 -0.3455
 6277SOL     OW30463   0.810   1.264  17.567 -0.1907 -0.1425 -0.1353
 6277SOL    HW130464   0.743   1.315  17.614 -0.2877  2.4756 -3.0953
 6277SOL    HW230465   0.886   1.296  17.616 -1.1699 -0.1960  1.4279
 6278SOL     OW30466   0.358   0.955   0.126  0.1301  0.3736 -0.9649
 6278SOL    HW130467   0.324   0.870   0.154  2.6059 -1.1389 -2.6212
 6278SOL    HW230468   0.440   0.931   0.084 -0.5941 -1.5192 -1.2981
 6279SOL     OW30469   2.869   0.085   8.572  0.1612 -0.0027  0.2589
 6279SOL    HW130470   2.845   0.008   8.520  0.6463 -0.3864  0.5990
 6279SOL    HW230471   2.953   0.103   8.531  0.1894  1.9329  1.1551
 6280SOL     OW30472   2.137   0.298   0.220 -0.2586 -0.6471  0.3501
 6280SOL    HW130473   2.057   0.323   0.266 -1.1891  0.2918 -1.7591
 6280SOL    HW230474   2.197   0.348   0.275  0.5681  0.1754 -1.3042
 6281SOL     OW30475   2.729   2.892   3.473  0.0107 -0.9041 -0.4173
 6281SOL    HW130476   2.821   2.919   3.473 -1.3259  3.6996  0.9946
 6281SOL    HW230477   2.716   2.855   3.560  1.2424 -0.6653 -0.1235
 6282SOL     OW30478   1.743   2.246   3.032 -0.6237  0.0214 -0.0958
 6282SOL    HW130479   1.736   2.238   2.937  1.2561  0.3341 -0.2671
 6282SOL    HW230480   1.680   2.181   3.065 -0.1091 -0.5364 -0.2027
 6283SOL     OW30481   0.923   3.284   6.847  0.2728 -0.3301  0.0181
 6283SOL    HW130482   0.953   3.365   6.887 -0.1617  0.1191 -0.5619
 6283SOL    HW230483   1.011   3.257   6.822  0.9182  0.4752  1.3991
 6284SOL     OW30484   4.268   3.012  13.110 -0.7508 -0.2004 -0.1907
 6284SOL    HW130485   4.258   2.960  13.030 -0.2726  0.1106 -0.4480
 6284SOL    HW230486   4.196   3.075  13.109  1.2781  2.1059  0.4463
 6285SOL     OW30487   3.507   4.555  13.306 -0.2908 -0.1750  0.2167
 6285SOL    HW130488   3.581   4.590  13.355 -0.3936  1.1625 -0.5754
 6285SOL    HW230489   3.444   4.608  13.354 -0.9138  1.2291 -2.1019
 6286SOL     OW30490   1.775   2.797   8.577 -0.5617  0.7219 -0.3202
 6286SOL    HW130491   1.686   2.820   8.601 -0.3320 -2.0247  3.1514
 6286SOL    HW230492   1.754   2.705   8.568 -0.7477  0.7536 -0.2088
 6287SOL     OW30493   3.453   4.188  14.635  0.5042  0.3564  0.1986
 6287SOL    HW130494   3.511   4.115  14.612  0.7511  1.1861 -1.8475
 6287SOL    HW230495   3.517   4.239  14.685 -1.3447  1.1698  1.7292
 6288SOL     OW30496   3.107   3.377   2.606  0.3129  0.2619  0.6260
 6288SOL    HW130497   3.189   3.421   2.581  0.6749 -0.3636  0.6955
 6288SOL    HW230498   3.072   3.446   2.663 -1.7750 -0.8438  0.6776
 6289SOL     OW30499   0.642   1.715   7.321  0.2964  0.0123  0.3124
 6289SOL    HW130500   0.622   1.807   7.308 -2.0506 -0.9381 -2.9614
 6289SOL    HW230501   0.625   1.684   7.232  1.2422  1.1244 -0.2483
 6290SOL     OW30502   4.583   3.516   5.793  0.0445 -0.3132 -0.5559
 6290SOL    HW130503   4.643   3.456   5.748  1.3741 -0.1833  1.0214
 6290SOL    HW230504   4.620   3.527   5.881  0.8879  2.4370 -1.2652
 6291SOL     OW30505   1.507   3.083  10.155  0.2000  0.1534 -0.0749
 6291SOL    HW130506   1.456   3.164  10.166  0.6569  0.3795  0.3707
 6291SOL    HW230507   1.442   3.024  10.117 -1.2140  2.0841 -0.6979
 6292SOL     OW30508   0.862   1.534   7.302  0.0146 -0.3735 -0.4674
 6292SOL    HW130509   0.783   1.588   7.304  0.1873 -0.1333  0.1168
 6292SOL    HW230510   0.930   1.601   7.316 -0.5600 -0.3107  2.1335
 6293SOL     OW30511   2.920   2.706   7.731  0.0091 -0.0043  0.0461
 6293SOL    HW130512   2.888   2.783   7.778 -0.6620 -0.9740  1.1669
 6293SOL    HW230513   2.958   2.742   7.650 -0.4090 -2.1800 -1.1118
 6294SOL     OW30514   0.407   1.324   2.422  0.2271  0.0967  0.0074
 6294SOL    HW130515   0.348   1.342   2.495  0.4519  2.2684 -0.3547
 6294SOL    HW230516   0.466   1.397   2.442 -1.4069  1.0095  1.5070
 6295SOL     OW30517   1.543   1.121   1.065  0.3404 -0.0161 -0.4216
 6295SOL    HW130518   1.543   1.145   1.158 -1.0970 -2.7354  0.2733
 6295SOL    HW230519   1.460   1.157   1.032 -0.4756 -1.4929  0.0224
 6296SOL     OW30520   0.324   2.872   2.855 -0.5126 -0.1682 -0.6329
 6296SOL    HW130521   0.338   2.778   2.868 -1.8401 -0.3801 -0.7039
 6296SOL    HW230522   0.282   2.876   2.769 -2.7353  1.8398  0.5217
 6297SOL     OW30523   4.693   0.994   7.849  0.0724  0.0240  0.9940
 6297SOL    HW130524   0.052   0.990   7.849  0.0494 -0.7407 -0.9824
 6297SOL    HW230525   4.670   1.076   7.804 -1.2394 -1.0663 -0.3132
 6298SOL     OW30526   2.831   1.751  13.436 -0.2622  0.5096  0.2536
 6298SOL    HW130527   2.790   1.835  13.457 -1.3929  0.4041 -1.5179
 6298SOL    HW230528   2.919   1.776  13.464 -0.0652  3.4755 -2.8845
 6299SOL     OW30529   1.820   1.877   1.444 -0.2170  0.4587  0.0234
 6299SOL    HW130530   1.833   1.926   1.362  0.3321  0.3116  0.0217
 6299SOL    HW230531   1.913   1.866   1.462 -0.1101  0.1297 -0.7300
 6300SOL     OW30532   4.233   2.699   5.530  0.0070 -0.2598 -0.3396
 6300SOL    HW130533   4.297   2.744   5.584  0.2949  1.2679 -1.9574
 6300SOL    HW230534   4.240   2.754   5.452 -2.2835 -0.9906 -1.0797
 6301SOL     OW30535   2.012   3.785   3.910 -0.2283 -0.5323 -0.3465
 6301SOL    HW130536   1.931   3.745   3.879  0.6705 -1.5985 -1.3040
 6301SOL    HW230537   2.055   3.724   3.970  1.3395  2.0662  1.1649
 6302SOL     OW30538   3.421   4.031   5.732 -0.4218  0.0374  0.1413
 6302SOL    HW130539   3.475   3.993   5.802 -0.7361 -0.0583  0.3341
 6302SOL    HW230540   3.339   3.983   5.741 -0.5607  0.0391 -1.1345
 6303SOL     OW30541   4.488   0.777   7.148  0.1040 -0.4325 -0.3127
 6303SOL    HW130542   4.450   0.701   7.193  0.4091 -1.6457 -2.1039
 6303SOL    HW230543   4.405   0.824   7.136 -0.7367 -1.6156  0.7995
 6304SOL     OW30544   0.265   2.641   5.842 -0.1304 -0.0387  0.0370
 6304SOL    HW130545   0.198   2.631   5.910 -1.0421  1.5813 -0.5999
 6304SOL    HW230546   0.218   2.622   5.761 -0.4916 -1.5308  0.5968
 6305SOL     OW30547   4.631   2.334  13.700  0.3932  0.2912 -0.2266
 6305SOL    HW130548   4.680   2.252  13.698 -1.3098 -0.7251 -0.2640
 6305SOL    HW230549   4.545   2.291  13.694 -0.5100  1.9279  0.9212
 6306SOL     OW30550   2.680   1.774   0.940 -0.7755 -0.7276  0.2369
 6306SOL    HW130551   2.775   1.764   0.935 -0.9375 -2.0376 -0.3791
 6306SOL    HW230552   2.653   1.863   0.917 -2.2501 -1.4862 -0.9716
 6307SOL     OW30553   3.174   0.507   3.643 -0.1717  0.1977  0.5140
 6307SOL    HW130554   3.140   0.473   3.726 -0.2865 -0.4153  0.2182
 6307SOL    HW230555   3.096   0.498   3.588  0.5866 -1.7457 -0.2258
 6308SOL     OW30556   1.139   3.591   3.365  0.1010  0.2847 -0.0193
 6308SOL    HW130557   1.210   3.606   3.303  1.2372 -3.1746  0.4751
 6308SOL    HW230558   1.062   3.578   3.309  0.9128  0.0048 -1.0661
 6309SOL     OW30559   3.622   0.683  13.861  0.8399  0.4184  0.3850
 6309SOL    HW130560   3.551   0.719  13.808 -1.2281 -1.9992  1.5172
 6309SOL    HW230561   3.568   0.669  13.939  0.4696 -0.1232  0.0282
 6310SOL     OW30562   4.427   4.262   4.241  0.0591 -0.2108 -0.4003
 6310SOL    HW130563   4.372   4.184   4.245 -1.6835  1.1013  1.1336
 6310SOL    HW230564   4.510   4.214   4.235 -0.0958 -0.3540 -1.2964
 6311SOL     OW30565   1.660   0.416   4.277  0.8350 -0.0716 -0.1192
 6311SOL    HW130566   1.566   0.427   4.291  0.4214 -0.0429 -2.7954
 6311SOL    HW230567   1.655   0.332   4.230  0.3875  1.2496 -2.4462
 6312SOL     OW30568   3.784   0.287   5.838  0.5353 -0.2180 -0.0000
 6312SOL    HW130569   3.839   0.294   5.760 -3.5139  2.0576 -2.6724
 6312SOL    HW230570   3.819   0.204   5.869 -0.2294 -0.9748 -1.1688
 6313SOL     OW30571   2.533   4.648   8.462  0.0950  0.6110  0.4383
 6313SOL    HW130572   2.489   4.729   8.437  0.0230  0.3663 -0.2552
 6313SOL    HW230573   2.465   4.583   8.440  2.3433 -1.0282 -1.7390
 6314SOL     OW30574   0.721   1.125   2.393  0.0301 -0.0734 -0.4428
 6314SOL    HW130575   0.811   1.158   2.396 -0.3553  0.9371  0.2137
 6314SOL    HW230576   0.686   1.156   2.477 -1.1215  0.1715 -1.0199
 6315SOL     OW30577   0.379   3.748   9.459  0.2759  0.5005 -0.2345
 6315SOL    HW130578   0.442   3.679   9.480  0.7031  0.9255 -0.1229
 6315SOL    HW230579   0.338   3.723   9.376  2.3889  0.0016 -1.1339
 6316SOL     OW30580   0.070   2.174   4.097  0.2409  0.4424  0.3260
 6316SOL    HW130581   0.140   2.220   4.052  0.0100 -1.3755 -1.8743
 6316SOL    HW230582   0.021   2.244   4.140  0.0235 -1.1875  2.7514
 6317SOL     OW30583   0.640   4.500  13.839  0.1105 -0.2412  0.4645
 6317SOL    HW130584   0.650   4.565  13.770  1.6505 -0.3758  0.5492
 6317SOL    HW230585   0.594   4.550  13.906 -0.3008  0.6935 -0.5174
 6318SOL     OW30586   0.564   0.328  13.669 -0.2480 -0.0366  0.0943
 6318SOL    HW130587   0.499   0.273  13.712  0.3486  0.5652  1.7471
 6318SOL    HW230588   0.570   0.403  13.729 -0.2501  0.5711 -0.6640
 6319SOL     OW30589   0.874   1.737   3.739 -0.0067  0.0249  0.7494
 6319SOL    HW130590   0.883   1.762   3.831 -1.5887  2.5203  0.2224
 6319SOL    HW230591   0.963   1.746   3.706  0.2933  0.1381  1.5865
 6320SOL     OW30592   0.300   0.260   7.595  0.2597 -0.6707 -0.0154
 6320SOL    HW130593   0.300   0.331   7.530  1.4269  0.4192  1.1918
 6320SOL    HW230594   0.355   0.310   7.655 -1.7262  1.0437  0.3955
 6321SOL     OW30595   3.674   4.492  17.649 -0.1136 -0.2657  0.8590
 6321SOL    HW130596   3.724   4.515  17.727  0.7763 -0.1353  0.2409
 6321SOL    HW230597   3.607   4.560  17.658  0.0261  0.0672 -0.5572
 6322SOL     OW30598   1.187   4.668   5.587 -0.1822 -0.2336 -0.9893
 6322SOL    HW130599   1.162   4.658   5.679  1.1455 -2.5657 -0.8561
 6322SOL    HW230600   1.111   4.721   5.567  0.0754  0.8803  0.9667
 6323SOL     OW30601   2.153   2.743  16.624  0.0668  0.1607 -0.6109
 6323SOL    HW130602   2.102   2.820  16.644 -0.7264  0.1743 -2.7097
 6323SOL    HW230603   2.089   2.680  16.590 -0.3151  1.2292 -1.8242
 6324SOL     OW30604   4.182   3.712  10.746 -0.0199  0.3978 -0.4334
 6324SOL    HW130605   4.228   3.643  10.699 -1.2616 -1.2917  0.8259
 6324SOL    HW230606   4.243   3.784  10.728  0.7536  0.0296  0.6741
 6325SOL     OW30607   3.996   0.665   4.078  0.2865  0.0210 -0.5108
 6325SOL    HW130608   4.034   0.736   4.026  0.3871  0.0801 -0.3557
 6325SOL    HW230609   4.058   0.659   4.150 -0.3363 -0.7081 -0.0301
 6326SOL     OW30610   1.112   3.198   9.721  0.4207 -0.1572 -0.1596
 6326SOL    HW130611   1.199   3.160   9.710  1.3352  1.3043  2.0615
 6326SOL    HW230612   1.135   3.283   9.684  1.8803 -1.0651 -1.3347
 6327SOL     OW30613   4.451   4.539  17.292 -0.1841 -0.1124  0.2874
 6327SOL    HW130614   4.383   4.500  17.237  2.0632 -1.2270 -1.6778
 6327SOL    HW230615   4.531   4.508  17.250  0.2847  0.9624  0.3925
 6328SOL     OW30616   2.756   1.659   4.013  0.2709  0.1720 -0.1279
 6328SOL    HW130617   2.755   1.746   3.972  0.3329 -0.0606 -0.6209
 6328SOL    HW230618   2.663   1.635   4.007  0.2457 -0.1627  1.7334
 6329SOL     OW30619   3.006   3.163   1.220 -0.2513 -0.0521  0.7475
 6329SOL    HW130620   3.023   3.172   1.126  2.8506  1.5935  1.4879
 6329SOL    HW230621   3.013   3.252   1.253 -2.1963  0.1031  0.7365
 6330SOL     OW30622   1.944   2.161   7.327 -0.3190  0.4248 -0.0231
 6330SOL    HW130623   2.036   2.162   7.352 -0.3677  0.5750  0.1478
 6330SOL    HW230624   1.921   2.250   7.353 -1.5661  0.2506 -0.5157
 6331SOL     OW30625   1.887   4.396   7.585  0.6015 -0.2945 -0.5152
 6331SOL    HW130626   1.871   4.339   7.510  1.2249  1.3223 -1.8687
 6331SOL    HW230627   1.977   4.382   7.612  0.2006 -0.9160  0.4977
 6332SOL     OW30628   1.279   1.767  15.601 -0.4564 -0.1067  0.2427
 6332SOL    HW130629   1.198   1.801  15.564 -0.7466  0.0294  1.0000
 6332SOL    HW230630   1.325   1.748  15.519  1.4721 -2.1446  1.7957
 6333SOL     OW30631   1.701   1.896   9.740 -0.5535  0.2361 -0.2173
 6333SOL    HW130632   1.625   1.906   9.798 -0.6524  1.5211 -0.5729
 6333SOL    HW230633   1.729   1.987   9.744 -0.6184  0.2499 -0.0671
 6334SOL     OW30634   4.179   4.096   8.049  0.0283 -0.0516 -0.7337
 6334SOL    HW130635   4.247   4.163   8.043  0.1920  0.0735  2.3296
 6334SOL    HW230636   4.179   4.055   8.135 -0.8582  3.1169  0.7909
 6335SOL     OW30637   1.507   4.375   5.092  0.4789  0.6063 -0.3128
 6335SOL    HW130638   1.426   4.370   5.041  2.1967 -0.9180 -2.8951
 6335SOL    HW230639   1.516   4.284   5.121 -1.2665  0.9180  1.2016
 6336SOL     OW30640   2.683   0.040   8.167  0.7549 -0.3134 -0.3370
 6336SOL    HW130641   2.589   0.038   8.147  0.1165 -1.0592  2.7879
 6336SOL    HW230642   2.704   0.128   8.137 -0.2678 -0.1701 -0.6333
 6337SOL     OW30643   3.079   2.637   6.233 -0.1766 -0.5784 -0.3946
 6337SOL    HW130644   3.150   2.679   6.281  1.1864 -3.1392 -0.1745
 6337SOL    HW230645   3.074   2.561   6.291  1.1285  1.3420  2.2333
 6338SOL     OW30646   4.486   0.964   6.457 -0.1105 -0.0301 -0.3849
 6338SOL    HW130647   4.508   1.039   6.513 -0.7781 -0.1653  0.0641
 6338SOL    HW230648   4.532   0.898   6.509 -0.7497  1.7896  2.4895
 6339SOL     OW30649   2.337   4.548   8.020 -0.1286 -0.2285 -0.2867
 6339SOL    HW130650   2.388   4.628   8.006  1.6312 -1.2303  0.3724
 6339SOL    HW230651   2.254   4.574   7.979 -0.9915 -2.2876  0.1889
 6340SOL     OW30652   2.312   4.402  17.327  0.6131 -0.2420  0.2031
 6340SOL    HW130653   2.358   4.325  17.294 -0.8274 -1.5435  1.2348
 6340SOL    HW230654   2.229   4.366  17.358 -0.3778  1.3249 -0.6181
 6341SOL     OW30655   4.125   0.676  12.148  0.0426  0.1594 -0.0078
 6341SOL    HW130656   4.185   0.746  12.123  0.9255 -1.1044 -1.4197
 6341SOL    HW230657   4.088   0.711  12.229 -0.4487 -1.4625  0.4658
 6342SOL     OW30658   2.416   3.136   7.376  0.4317  0.0409  0.3991
 6342SOL    HW130659   2.445   3.224   7.398 -0.5604  0.7579 -1.0963
 6342SOL    HW230660   2.486   3.083   7.413  1.6049 -0.0026 -1.8736
 6343SOL     OW30661   2.136   1.062   3.259 -0.0363 -0.4244  0.6331
 6343SOL    HW130662   2.125   0.972   3.289 -1.4212 -0.0574  1.2362
 6343SOL    HW230663   2.049   1.095   3.284  0.3717  1.0664  0.1041
 6344SOL     OW30664   2.791   1.189  12.546  1.1858 -0.0217  0.0659
 6344SOL    HW130665   2.727   1.164  12.613 -1.8085  1.0057 -2.4190
 6344SOL    HW230666   2.740   1.159  12.471  0.5119 -1.0328  0.9314
 6345SOL     OW30667   4.575   3.701   5.578 -0.4165  0.4345 -0.2393
 6345SOL    HW130668   4.539   3.783   5.613 -0.3110  0.0171  0.8672
 6345SOL    HW230669   4.554   3.645   5.652 -1.6772 -0.5459 -1.3452
 6346SOL     OW30670   1.173   0.418   1.732 -0.5501 -0.1815  0.3620
 6346SOL    HW130671   1.146   0.342   1.680 -2.5849  0.3436  0.6668
 6346SOL    HW230672   1.100   0.479   1.726  0.1061  0.3974 -1.5261
 6347SOL     OW30673   0.796   4.067   5.891  0.6533  0.6596 -0.4730
 6347SOL    HW130674   0.758   4.018   5.963 -2.3547  1.1416 -1.7166
 6347SOL    HW230675   0.808   4.150   5.936  0.7052  1.2469 -1.5578
 6348SOL     OW30676   3.627   1.003  17.552 -0.3260 -0.0125  0.0495
 6348SOL    HW130677   3.686   1.056  17.605  1.6040  0.0013 -2.1163
 6348SOL    HW230678   3.541   1.027  17.588  0.0527 -0.8928  1.5430
 6349SOL     OW30679   2.729   4.318  10.093  0.0546  0.2245 -0.0008
 6349SOL    HW130680   2.659   4.365  10.048 -0.8214  0.7166  1.8859
 6349SOL    HW230681   2.735   4.381  10.165 -1.5155 -0.4308  0.6990
 6350SOL     OW30682   1.145   2.764   5.739  0.8882  0.0962 -0.0163
 6350SOL    HW130683   1.205   2.716   5.796 -0.4951 -0.1583  1.2146
 6350SOL    HW230684   1.176   2.852   5.762  4.3604 -1.0668 -0.2052
 6351SOL     OW30685   1.358   1.153   6.636 -0.0949 -0.3214  0.3498
 6351SOL    HW130686   1.358   1.062   6.668  0.0373 -0.0619  1.0948
 6351SOL    HW230687   1.450   1.178   6.637 -0.6833  1.8584 -0.5077
 6352SOL     OW30688   2.134   2.228   6.840  0.0450  0.1349 -0.3429
 6352SOL    HW130689   2.107   2.178   6.916 -0.9590  0.2649 -0.6079
 6352SOL    HW230690   2.061   2.291   6.834 -0.6242 -0.4367  1.9188
 6353SOL     OW30691   2.410   1.027   5.051  0.1706  0.2233 -0.1628
 6353SOL    HW130692   2.462   1.100   5.018  2.4617 -1.0731  0.5470
 6353SOL    HW230693   2.360   0.995   4.976 -3.0388  0.1498  2.0362
 6354SOL     OW30694   4.038   0.622   1.493  0.0781  0.0393 -0.7475
 6354SOL    HW130695   3.984   0.685   1.446  0.5309  1.2321  0.3293
 6354SOL    HW230696   4.118   0.673   1.509  1.7392 -3.3735  1.9278
 6355SOL     OW30697   3.187   3.272   2.859  0.2966 -0.0633  0.1761
 6355SOL    HW130698   3.231   3.190   2.837 -0.9954 -1.0898  1.4132
 6355SOL    HW230699   3.185   3.310   2.772 -0.1680 -1.3266 -0.3692
 6356SOL     OW30700   1.562   4.020   7.621 -0.0625 -0.0575  0.0032
 6356SOL    HW130701   1.524   4.052   7.703 -1.5365  1.0621 -1.1071
 6356SOL    HW230702   1.641   3.976   7.651 -0.4042 -1.1270 -0.6306
 6357SOL     OW30703   4.060   2.763  12.329 -0.3076  0.3769 -0.2051
 6357SOL    HW130704   4.017   2.687  12.369  0.0759  0.9313  1.2429
 6357SOL    HW230705   3.993   2.810  12.279 -0.4489 -0.4371 -0.7699
 6358SOL     OW30706   2.834   2.409   2.360  0.1647 -0.4881  0.2701
 6358SOL    HW130707   2.830   2.397   2.455  0.0301  1.3272  0.4993
 6358SOL    HW230708   2.790   2.494   2.356 -1.4913 -1.3424  0.0233
 6359SOL     OW30709   0.505   2.652  10.375  0.2524 -0.1922  0.4007
 6359SOL    HW130710   0.514   2.733  10.425 -0.1379  1.4229 -2.1874
 6359SOL    HW230711   0.565   2.588  10.413 -1.3905 -1.7211  0.4204
 6360SOL     OW30712   0.160   3.931   3.556  0.1583  0.1121 -0.0043
 6360SOL    HW130713   0.201   3.990   3.619  1.4846 -0.5559 -0.2345
 6360SOL    HW230714   0.227   3.908   3.491  1.7649  0.2129  1.6292
 6361SOL     OW30715   3.768   4.109   1.893  0.6280  0.1113  0.5452
 6361SOL    HW130716   3.766   4.079   1.801 -1.6489  2.2985 -0.1207
 6361SOL    HW230717   3.704   4.051   1.934 -0.5067  0.9421 -0.0403
 6362SOL     OW30718   3.090   4.628   5.911 -0.4905 -0.4808  0.2016
 6362SOL    HW130719   3.008   4.641   5.863  0.9114 -0.7180 -2.2544
 6362SOL    HW230720   3.077   4.679   5.991 -0.2444 -1.9104  1.1362
 6363SOL     OW30721   3.057   3.207   1.537  0.3534  0.3716 -0.4356
 6363SOL    HW130722   3.060   3.287   1.486 -2.1693  1.6862  1.4726
 6363SOL    HW230723   3.146   3.203   1.574  0.2925 -0.3826 -0.3650
 6364SOL     OW30724   2.160   0.749  14.039 -0.1441 -0.0356 -0.4715
 6364SOL    HW130725   2.178   0.800  14.117 -0.7828 -0.4839 -0.0311
 6364SOL    HW230726   2.086   0.697  14.071 -1.6892  2.1175 -0.5230
 6365SOL     OW30727   0.326   1.980   6.758  0.1670  0.2447  0.0971
 6365SOL    HW130728   0.295   1.890   6.766  2.2039 -0.3477  1.3021
 6365SOL    HW230729   0.355   1.979   6.667  1.1944 -1.6921  0.4567
 6366SOL     OW30730   0.889   0.323   3.107 -0.7047 -0.3476 -0.0024
 6366SOL    HW130731   0.976   0.321   3.066 -0.6675  0.5225  0.0305
 6366SOL    HW230732   0.900   0.270   3.186 -0.8924 -0.6883 -0.2024
 6367SOL     OW30733   2.928   2.296   3.871  0.1604  0.5926 -0.3560
 6367SOL    HW130734   2.963   2.259   3.952 -0.4139 -0.5965 -0.6549
 6367SOL    HW230735   2.950   2.386   3.896  0.0674  0.6157 -0.3546
 6368SOL     OW30736   1.973   0.155   2.988 -0.2093 -0.3489 -0.3305
 6368SOL    HW130737   2.064   0.145   3.016 -0.2413  1.4230  0.3988
 6368SOL    HW230738   1.994   0.138   2.896 -1.8931  0.8273 -0.9248
 6369SOL     OW30739   2.113   1.900   3.400 -0.5700 -0.1860 -0.3362
 6369SOL    HW130740   2.130   1.938   3.486  0.5715  1.0599 -1.1248
 6369SOL    HW230741   2.188   1.934   3.352  0.3864 -1.8981 -0.0829
 6370SOL     OW30742   0.530   4.693   6.192 -0.0997  0.3955  0.0617
 6370SOL    HW130743   0.609   4.712   6.243  0.9061  0.3115 -1.5000
 6370SOL    HW230744   0.523   0.039   6.143  2.1166 -0.5949 -1.8879
 6371SOL     OW30745   4.688   3.568   6.344  0.4074  0.2778 -0.2533
 6371SOL    HW130746   0.001   3.524   6.275  0.2189 -1.1930  0.5523
 6371SOL    HW230747   4.677   3.654   6.303 -1.8623  1.9376  3.7644
 6372SOL     OW30748   0.287   1.519   5.664  0.0073  0.4698 -0.2746
 6372SOL    HW130749   0.308   1.506   5.756  0.6499  0.3288 -0.4352
 6372SOL    HW230750   0.353   1.585   5.640  1.1080 -0.7066 -0.5149
 6373SOL     OW30751   4.201   2.892   5.011 -0.3703 -0.0874 -0.3053
 6373SOL    HW130752   4.294   2.912   5.020 -0.5029  0.5079 -0.2484
 6373SOL    HW230753   4.210   2.825   4.943 -0.8233 -1.6859  1.2186
 6374SOL     OW30754   3.481   3.431   5.874 -0.5046  0.0439  0.5040
 6374SOL    HW130755   3.446   3.519   5.861 -0.4047 -0.3283 -2.4213
 6374SOL    HW230756   3.523   3.418   5.789  0.0395  0.8217  0.6529
 6375SOL     OW30757   4.357   0.719  10.076 -0.2161  0.0366 -0.2149
 6375SOL    HW130758   4.442   0.759  10.058 -0.7375  1.3744  0.2787
 6375SOL    HW230759   4.363   0.736  10.170  0.8213  0.8166 -0.4218
 6376SOL     OW30760   3.098   3.346   8.740 -0.0636  0.1772 -0.2161
 6376SOL    HW130761   3.087   3.440   8.758  1.5914  0.5335 -1.0216
 6376SOL    HW230762   3.033   3.332   8.671 -1.1146  1.6791  0.4452
 6377SOL     OW30763   1.537   3.536   9.901 -0.2607 -0.2408 -0.6199
 6377SOL    HW130764   1.461   3.579   9.861 -0.0346 -2.3153 -3.2401
 6377SOL    HW230765   1.580   3.500   9.824  4.2171  2.8720  0.4116
 6378SOL     OW30766   3.717   0.235   6.574  0.2616  0.7526 -0.2925
 6378SOL    HW130767   3.631   0.245   6.533  0.6717  0.1853 -1.3104
 6378SOL    HW230768   3.716   0.277   6.659  0.0294 -0.1913  0.1744
 6379SOL     OW30769   0.209   3.044   8.132 -0.0615  0.3059  0.2852
 6379SOL    HW130770   0.269   2.971   8.117 -0.4802 -0.2273  1.2576
 6379SOL    HW230771   0.254   3.104   8.191  1.5882  0.7606 -1.4054
 6380SOL     OW30772   0.974   0.319  11.135 -0.5305 -0.7564 -0.3417
 6380SOL    HW130773   0.896   0.372  11.149 -0.0436 -0.5516  1.4894
 6380SOL    HW230774   0.957   0.231  11.169  1.0398 -0.9659 -0.1301
 6381SOL     OW30775   0.039   0.710  16.488 -0.1358  0.9318  0.3145
 6381SOL    HW130776   0.034   0.784  16.549 -2.8269  1.5716 -0.6851
 6381SOL    HW230777   4.701   0.730  16.431  1.3870  1.0674 -1.6384
 6382SOL     OW30778   3.591   3.933   2.002  0.8071  0.2876  0.1140
 6382SOL    HW130779   3.555   3.845   1.990  1.1730 -0.1548  2.1768
 6382SOL    HW230780   3.539   3.956   2.079 -1.9005  0.5069 -1.8181
 6383SOL     OW30781   3.385   0.398   4.825 -0.6826 -0.4520 -0.5014
 6383SOL    HW130782   3.397   0.492   4.834 -0.3495 -0.5175 -0.2446
 6383SOL    HW230783   3.322   0.386   4.896  0.4690  1.0733  0.7677
 6384SOL     OW30784   2.582   2.665   0.853 -0.3817 -0.0913 -0.0760
 6384SOL    HW130785   2.666   2.702   0.881  0.3529 -2.1566  0.4462
 6384SOL    HW230786   2.519   2.695   0.919 -1.0522  0.8532 -1.1508
 6385SOL     OW30787   4.048   2.225   3.234  0.0563 -0.3064 -0.1623
 6385SOL    HW130788   4.085   2.151   3.283 -0.5319  0.8587  2.0427
 6385SOL    HW230789   3.981   2.246   3.299 -0.1776 -1.5698 -0.0038
 6386SOL     OW30790   3.043   0.370   2.125 -0.5672 -0.1196  0.1494
 6386SOL    HW130791   3.126   0.373   2.079 -0.2421  1.0794  0.8149
 6386SOL    HW230792   3.082   0.326   2.201  0.5330 -0.7017 -0.7477
 6387SOL     OW30793   1.955   3.979   6.062  0.2191 -0.3739  0.0805
 6387SOL    HW130794   1.864   3.948   6.066  0.1103 -0.2427 -1.5847
 6387SOL    HW230795   1.960   4.022   5.977 -0.1080 -1.0733 -0.2893
 6388SOL     OW30796   3.834   4.354   7.609  0.5045  0.4554 -0.5218
 6388SOL    HW130797   3.789   4.313   7.682  0.3667  1.0942 -0.2442
 6388SOL    HW230798   3.855   4.440   7.647  2.4417 -0.6881  1.0363
 6389SOL     OW30799   0.858   3.804   1.490  0.5219 -0.5922 -0.3662
 6389SOL    HW130800   0.949   3.789   1.464  0.6807  0.3658 -0.3614
 6389SOL    HW230801   0.851   3.890   1.449 -1.3522  0.0384  1.2764
 6390SOL     OW30802   4.354   2.703   0.902  0.3072  0.4679 -0.0617
 6390SOL    HW130803   4.284   2.681   0.964 -0.0970  0.3063 -0.5815
 6390SOL    HW230804   4.303   2.757   0.843  0.2768  0.5551  0.0442
 6391SOL     OW30805   1.227   1.326   5.245 -0.6496  0.4780  0.0196
 6391SOL    HW130806   1.254   1.235   5.231 -0.4773  0.6627 -0.8307
 6391SOL    HW230807   1.312   1.366   5.229 -1.0199  2.0380  2.0006
 6392SOL     OW30808   2.850   0.623   2.391  0.1631 -0.0626 -0.4635
 6392SOL    HW130809   2.880   0.640   2.302  1.0441  1.7000  0.1672
 6392SOL    HW230810   2.874   0.701   2.440  0.3578 -0.6395  0.3512
 6393SOL     OW30811   2.509   4.684  16.706 -0.8226  0.1897  0.2955
 6393SOL    HW130812   2.527   4.718  16.618  0.4706 -2.8963 -0.6174
 6393SOL    HW230813   2.423   4.642  16.694 -0.0849 -1.1300 -0.3714
 6394SOL     OW30814   0.807   1.987   4.165 -0.0676 -0.3081  0.3237
 6394SOL    HW130815   0.775   1.934   4.238  0.9236  0.8654  1.6003
 6394SOL    HW230816   0.768   1.937   4.093 -0.8272  0.9229 -0.1382
 6395SOL     OW30817   0.275   2.156   6.262  0.5545 -0.3299  0.0566
 6395SOL    HW130818   0.251   2.111   6.343 -0.3259 -2.0910 -1.1921
 6395SOL    HW230819   0.203   2.153   6.199 -0.3208  1.7099  0.9312
 6396SOL     OW30820   1.879   4.167   3.635 -0.3976 -0.4981 -0.0806
 6396SOL    HW130821   1.947   4.137   3.695  0.0116  0.0313 -0.2766
 6396SOL    HW230822   1.906   4.257   3.616 -0.8992 -0.4924 -0.7657
 6397SOL     OW30823   0.096   3.928   2.553  0.0794  0.0712 -0.0256
 6397SOL    HW130824   0.177   3.878   2.550 -0.0446 -0.2073  1.4563
 6397SOL    HW230825   0.075   3.930   2.646  1.5360 -0.3433  0.3175
 6398SOL     OW30826   4.576   0.812   6.867  0.0786 -0.0655 -0.5993
 6398SOL    HW130827   4.650   0.751   6.862  0.2614 -0.0502  1.7605
 6398SOL    HW230828   4.526   0.767   6.935 -1.1984  1.3490 -0.6037
 6399SOL     OW30829   2.062   0.662   5.401  0.9807 -0.1060  0.5111
 6399SOL    HW130830   2.091   0.585   5.449  0.8622  0.5388  1.6020
 6399SOL    HW230831   2.008   0.615   5.337 -0.6611  1.0085  1.0875
 6400SOL     OW30832   3.848   4.026   8.481  0.0191  0.7038 -0.2999
 6400SOL    HW130833   3.798   3.946   8.467 -0.5817  1.5130 -2.7496
 6400SOL    HW230834   3.830   4.051   8.572 -5.6451 -0.0571 -1.2140
 6401SOL     OW30835   1.797   0.089   7.069  0.1787 -0.2625  0.1460
 6401SOL    HW130836   1.717   0.039   7.051  0.1741 -0.1740 -0.0775
 6401SOL    HW230837   1.759   0.146   7.135  0.7855  1.4140 -0.9660
 6402SOL     OW30838   1.979   1.926  14.944 -0.6701  0.0183 -0.0693
 6402SOL    HW130839   1.950   1.969  14.863 -0.6771 -1.5838 -0.9284
 6402SOL    HW230840   1.966   1.834  14.922  2.0576 -0.0772 -1.3882
 6403SOL     OW30841   2.307   3.974   2.550  0.9291  0.3291  0.3883
 6403SOL    HW130842   2.314   3.999   2.642 -0.8056 -1.3104  0.9710
 6403SOL    HW230843   2.286   4.052   2.498  0.0728  1.1312  1.9193
 6404SOL     OW30844   2.273   1.696   1.365  0.6058 -0.1214  1.1238
 6404SOL    HW130845   2.360   1.727   1.390  0.3516  1.0831  0.5145
 6404SOL    HW230846   2.286   1.606   1.394 -0.6671 -1.3961 -2.2477
 6405SOL     OW30847   3.296   1.746   9.870  0.1792  0.2178 -0.1503
 6405SOL    HW130848   3.241   1.798   9.929  1.2298 -0.4330  1.3936
 6405SOL    HW230849   3.265   1.659   9.894 -1.1123  0.5833 -0.4892
 6406SOL     OW30850   1.695   0.427  13.346 -0.1696  0.0108  0.6646
 6406SOL    HW130851   1.752   0.428  13.423  0.6257  1.8219  0.0661
 6406SOL    HW230852   1.751   0.437  13.269 -2.0911  1.2623 -0.5619
 6407SOL     OW30853   1.478   2.471   4.127 -0.2096  0.2270  0.2814
 6407SOL    HW130854   1.530   2.527   4.185 -0.6368  2.4586 -1.5170
 6407SOL    HW230855   1.434   2.419   4.195  0.7671 -0.2514  0.5488
 6408SOL     OW30856   0.058   4.678   8.366  0.1324 -0.1773 -0.1690
 6408SOL    HW130857   4.711   4.645   8.334  0.7761 -2.3029  0.2982
 6408SOL    HW230858   0.034   0.015   8.423 -1.0619 -1.7280  1.3410
 6409SOL     OW30859   3.353   0.576   9.946  0.9236  0.4546 -0.1368
 6409SOL    HW130860   3.430   0.554   9.998 -1.3323 -2.1570  2.0773
 6409SOL    HW230861   3.385   0.644   9.886  1.6799  1.1112  1.0221
 6410SOL     OW30862   4.633   1.293   7.240 -0.3611 -0.5161 -0.0986
 6410SOL    HW130863   4.669   1.214   7.199  1.8644  1.1708 -1.4012
 6410SOL    HW230864   4.664   1.360   7.179  0.4059 -0.7382  0.0512
 6411SOL     OW30865   4.339   1.378   1.008 -0.0696 -0.1751 -0.0514
 6411SOL    HW130866   4.421   1.353   1.049 -0.4740  0.8685  1.3945
 6411SOL    HW230867   4.375   1.448   0.955 -0.4791 -0.9823 -1.3974
 6412SOL     OW30868   2.584   4.252   8.349 -0.0004 -0.4850 -0.0970
 6412SOL    HW130869   2.504   4.306   8.349  0.9201  0.8901 -1.3121
 6412SOL    HW230870   2.633   4.296   8.279  2.8713 -0.6594  1.7923
 6413SOL     OW30871   4.169   2.332   2.615  0.6328  0.0951 -0.2414
 6413SOL    HW130872   4.160   2.280   2.694  0.1114  1.0028  0.2960
 6413SOL    HW230873   4.139   2.420   2.638 -0.5375 -0.7795  1.5326
 6414SOL     OW30874   0.507   2.233   1.843  0.4315  0.8243 -0.2990
 6414SOL    HW130875   0.588   2.190   1.869  1.3177  2.6100 -0.0781
 6414SOL    HW230876   0.459   2.159   1.807 -1.7919  0.9517  2.4386
 6415SOL     OW30877   3.514   2.507  16.875 -0.0977 -0.2791  0.5505
 6415SOL    HW130878   3.484   2.556  16.952  0.1258 -0.6317  0.8603
 6415SOL    HW230879   3.605   2.487  16.896 -0.1993 -0.2493  1.0287
 6416SOL     OW30880   1.576   2.755   6.552 -0.2331 -0.2331  0.6134
 6416SOL    HW130881   1.580   2.841   6.594 -0.4058  0.4619 -0.8067
 6416SOL    HW230882   1.662   2.754   6.509 -0.8526 -1.7527 -0.5946
 6417SOL     OW30883   0.807   3.816   8.681  0.2897  0.7752 -0.0619
 6417SOL    HW130884   0.792   3.784   8.593  0.3005  0.4482  0.0561
 6417SOL    HW230885   0.901   3.796   8.683  0.1283 -0.1015 -1.5028
 6418SOL     OW30886   2.252   0.761   9.310  0.2206 -0.4819 -0.3581
 6418SOL    HW130887   2.343   0.756   9.339  0.2155 -2.6415 -0.7028
 6418SOL    HW230888   2.242   0.669   9.286 -1.6996 -0.3777  0.1211
 6419SOL     OW30889   3.492   3.700   1.938  0.1586  0.1574  0.0231
 6419SOL    HW130890   3.449   3.694   1.853 -1.0762 -2.2336  0.8056
 6419SOL    HW230891   3.470   3.616   1.977  1.5181 -1.4847 -2.7360
 6420SOL     OW30892   0.324   1.340  14.840  0.3773  0.1235  0.4667
 6420SOL    HW130893   0.331   1.244  14.845 -1.7551 -0.1952 -2.8757
 6420SOL    HW230894   0.253   1.352  14.902  0.5064  0.6113  0.5162
 6421SOL     OW30895   3.427   1.170  13.095  0.6360 -0.0518 -0.2491
 6421SOL    HW130896   3.436   1.256  13.053  3.0117 -0.6029 -0.8320
 6421SOL    HW230897   3.425   1.199  13.186 -0.2472  0.2359 -0.3555
 6422SOL     OW30898   1.124   3.502   8.857 -0.0750  0.3570 -0.1319
 6422SOL    HW130899   1.219   3.508   8.852 -0.0416 -1.1303 -1.3724
 6422SOL    HW230900   1.100   3.593   8.842  0.2720  0.4656 -0.0127
 6423SOL     OW30901   1.585   4.238   3.149  0.2802 -0.3548 -0.7289
 6423SOL    HW130902   1.632   4.159   3.121 -2.1295 -2.1035  0.1762
 6423SOL    HW230903   1.502   4.203   3.182  0.1623 -0.0512 -0.7078
 6424SOL     OW30904   3.382   1.392   9.448  0.5999  0.1320  0.2029
 6424SOL    HW130905   3.326   1.381   9.371  0.5403  0.6405  0.1741
 6424SOL    HW230906   3.317   1.411   9.516  0.5818  0.2998  0.1376
 6425SOL     OW30907   2.240   3.709   2.611 -0.1040 -0.6350  0.0012
 6425SOL    HW130908   2.260   3.797   2.578  0.8282 -0.8664 -0.0707
 6425SOL    HW230909   2.311   3.658   2.572  0.6703  0.2693  0.2176
 6426SOL     OW30910   0.532   3.107   3.766 -0.1159 -0.3831  0.1262
 6426SOL    HW130911   0.606   3.120   3.707  0.4793 -2.1667  0.4555
 6426SOL    HW230912   0.468   3.057   3.715 -0.6101  0.8885 -0.4809
 6427SOL     OW30913   0.356   4.333  13.679 -0.4028  0.4388  0.3809
 6427SOL    HW130914   0.436   4.317  13.728  0.2105 -1.1193 -1.1321
 6427SOL    HW230915   0.369   4.420  13.641  1.5803  0.3145  0.8088
 6428SOL     OW30916   3.678   1.976   9.562 -0.2548  0.3836  0.0756
 6428SOL    HW130917   3.601   2.000   9.615 -0.5305  2.1715 -1.1444
 6428SOL    HW230918   3.634   1.934   9.488 -0.3556  0.6162  0.0057
 6429SOL     OW30919   0.887   4.522  14.553 -0.3135 -0.4945  0.0105
 6429SOL    HW130920   0.915   4.610  14.578  0.0870 -1.0724  1.6065
 6429SOL    HW230921   0.942   4.467  14.610  1.4831 -1.4364 -2.6499
 6430SOL     OW30922   1.109   0.328   4.247 -0.1275 -0.6939  0.1544
 6430SOL    HW130923   1.087   0.339   4.154  2.4509  0.7517 -0.2872
 6430SOL    HW230924   1.094   0.414   4.284  1.0560 -0.1936 -0.5263
 6431SOL     OW30925   2.104   3.591   4.715  0.0118 -0.5754  0.6536
 6431SOL    HW130926   2.019   3.546   4.708 -0.5728  0.3277  2.1437
 6431SOL    HW230927   2.081   3.655   4.782  0.3004 -2.7036  2.7898
 6432SOL     OW30928   3.693   1.534   7.287 -0.6283  0.2360 -0.1967
 6432SOL    HW130929   3.609   1.579   7.286 -0.5590  0.3896  2.6563
 6432SOL    HW230930   3.666   1.443   7.300 -0.4509  0.0338 -1.1894
 6433SOL     OW30931   2.520   2.102   0.357  0.3691 -0.3406 -0.2553
 6433SOL    HW130932   2.518   2.116   0.262 -2.4749  0.0838 -0.1273
 6433SOL    HW230933   2.477   2.177   0.398 -1.6753 -0.8495 -1.4508
 6434SOL     OW30934   1.649   0.808   3.851  0.4882  0.0472  0.5300
 6434SOL    HW130935   1.603   0.754   3.787 -1.6727  0.3143  1.8764
 6434SOL    HW230936   1.643   0.891   3.803 -1.2868 -0.5665 -0.3180
 6435SOL     OW30937   1.371   0.439   7.024 -0.0080 -0.3421  0.1897
 6435SOL    HW130938   1.460   0.406   7.009  0.3665  0.3397  0.9052
 6435SOL    HW230939   1.327   0.424   6.940  1.6772 -0.1245 -0.7487
 6436SOL     OW30940   4.068   0.030   6.659 -0.1508 -0.2580 -0.6623
 6436SOL    HW130941   3.980   0.003   6.686  0.2128 -1.1308 -0.3437
 6436SOL    HW230942   4.088   4.698   6.595 -0.8011 -1.6428  0.6236
 6437SOL     OW30943   1.526   1.399   1.860  0.3109 -0.3524 -0.1365
 6437SOL    HW130944   1.466   1.466   1.894  0.2917 -0.8343  0.8000
 6437SOL    HW230945   1.612   1.438   1.877 -0.7835  2.7083 -1.7324
 6438SOL     OW30946   3.276   1.347   7.888 -0.2746 -0.9490  0.1261
 6438SOL    HW130947   3.254   1.415   7.952  2.7782  1.9668 -1.9275
 6438SOL    HW230948   3.213   1.278   7.912 -1.0504 -0.5005 -0.6170
 6439SOL     OW30949   4.514   0.418   0.919  0.1191  0.1742  0.1250
 6439SOL    HW130950   4.487   0.424   0.828 -1.8301  1.0493  0.7441
 6439SOL    HW230951   4.501   0.325   0.939  1.3835 -0.3303 -1.4947
 6440SOL     OW30952   2.053   4.555   4.532 -0.3611  0.5966 -0.4024
 6440SOL    HW130953   1.993   4.481   4.540  1.4851 -0.9875 -1.3179
 6440SOL    HW230954   2.103   4.547   4.614 -1.9376  1.2534  0.6287
 6441SOL     OW30955   4.207   2.059   6.678 -0.6730 -0.2534 -0.2934
 6441SOL    HW130956   4.208   2.087   6.769 -2.9457 -0.0892 -0.3288
 6441SOL    HW230957   4.293   2.020   6.662  1.1202  2.0485  3.7716
 6442SOL     OW30958   1.626   1.569   0.361 -0.0339 -0.1115 -0.2787
 6442SOL    HW130959   1.697   1.604   0.416 -2.5519 -0.0645  2.9164
 6442SOL    HW230960   1.651   1.620   0.284 -3.8225  3.2613  0.7337
 6443SOL     OW30961   4.569   2.033   3.974 -0.2522 -0.3532  0.0288
 6443SOL    HW130962   4.535   2.087   3.903  3.1122  0.9015 -0.6183
 6443SOL    HW230963   4.660   2.061   3.966 -0.9188  2.5531  2.6109
 6444SOL     OW30964   2.510   3.320   9.658  0.0701 -0.6124  0.0304
 6444SOL    HW130965   2.546   3.232   9.646  2.5920  0.4843 -0.4849
 6444SOL    HW230966   2.498   3.323   9.753  1.8455  2.6389  0.1571
 6445SOL     OW30967   4.190   1.179   4.525  0.0299 -0.8486 -0.1726
 6445SOL    HW130968   4.157   1.125   4.453 -0.1949 -0.1896 -0.5652
 6445SOL    HW230969   4.227   1.113   4.584 -0.2448 -1.0801 -0.2592
 6446SOL     OW30970   1.981   2.440   2.232  0.3613  0.3764 -0.4294
 6446SOL    HW130971   1.936   2.479   2.306  2.7328 -0.3142  1.3585
 6446SOL    HW230972   2.070   2.473   2.244  1.1525 -0.9775 -2.4321
 6447SOL     OW30973   1.084   3.080   7.560  0.1948  0.5844 -0.0642
 6447SOL    HW130974   1.175   3.091   7.586  0.8535  0.3747 -2.2600
 6447SOL    HW230975   1.052   3.031   7.636  0.7558 -1.8398 -1.3734
 6448SOL     OW30976   0.179   2.165   7.456  0.0475 -0.6169 -0.5017
 6448SOL    HW130977   0.260   2.113   7.450 -0.6414 -1.7003 -0.3363
 6448SOL    HW230978   0.145   2.148   7.543  1.6411 -1.9372 -0.1299
 6449SOL     OW30979   1.656   0.512  12.995  0.2444 -0.9133 -0.2094
 6449SOL    HW130980   1.715   0.476  13.061  1.9853  3.6597  0.7873
 6449SOL    HW230981   1.694   0.475  12.916 -0.1022 -1.6308 -0.0379
 6450SOL     OW30982   2.379   1.459   1.417 -0.1940 -0.0568  0.1041
 6450SOL    HW130983   2.363   1.390   1.481  2.4525 -0.9820 -0.2358
 6450SOL    HW230984   2.465   1.433   1.384  0.1981 -0.1630  1.2009
 6451SOL     OW30985   4.409   1.713   7.390 -0.6063  0.1972  0.3497
 6451SOL    HW130986   4.449   1.790   7.430  0.0472  0.3452 -0.5779
 6451SOL    HW230987   4.319   1.747   7.386 -0.1311  1.4095 -0.1651
 6452SOL     OW30988   2.148   1.981   6.204 -0.5973  0.8792  0.3175
 6452SOL    HW130989   2.236   2.005   6.174 -0.6600  1.0284  0.2545
 6452SOL    HW230990   2.121   1.935   6.125  2.0896  2.0963 -1.3218
 6453SOL     OW30991   3.612   1.467   5.613  0.1725 -0.5294  0.0146
 6453SOL    HW130992   3.664   1.542   5.642 -1.6480  1.0665 -0.8609
 6453SOL    HW230993   3.654   1.390   5.653 -1.2111  0.6262  3.7018
 6454SOL     OW30994   1.430   1.653   6.356  0.4421 -0.2028  0.4224
 6454SOL    HW130995   1.381   1.652   6.439  0.2647 -0.5647  0.3132
 6454SOL    HW230996   1.432   1.748   6.343  1.7336  0.0125  2.1284
 6455SOL     OW30997   4.474   4.519   6.602 -0.6158 -0.5068  0.2463
 6455SOL    HW130998   4.462   4.504   6.509  3.9072  2.1876 -0.7573
 6455SOL    HW230999   4.388   4.488   6.631 -1.6225  0.5479 -1.6029
 6456SOL     OW31000   1.515   2.194  15.127  0.3065  0.5178 -0.9866
 6456SOL    HW131001   1.495   2.255  15.198 -0.1243  1.0655 -1.5878
 6456SOL    HW231002   1.571   2.138  15.182 -0.2222  1.1304  0.1789
 6457SOL     OW31003   0.705   3.070   5.122 -0.0572 -0.0685  0.3430
 6457SOL    HW131004   0.618   3.100   5.148 -0.5580  0.8238 -2.2817
 6457SOL    HW231005   0.686   3.008   5.051 -0.6318  0.3099  0.1667
 6458SOL     OW31006   0.706   2.445  10.736 -0.4083 -0.1273  0.5493
 6458SOL    HW131007   0.662   2.368  10.698  2.9336 -1.3294 -0.8400
 6458SOL    HW231008   0.713   2.498  10.657  0.4613  0.0353  0.7417
 6459SOL     OW31009   2.822   3.821  17.100  0.2124  0.5058  0.0615
 6459SOL    HW131010   2.775   3.790  17.177  3.9655 -1.2339  1.6292
 6459SOL    HW231011   2.907   3.786  17.127 -0.2942  0.6849  1.8565
 6460SOL     OW31012   4.630   2.672  15.954 -0.1719  0.0655 -0.4998
 6460SOL    HW131013   4.545   2.715  15.962 -0.8169 -0.9964 -1.5943
 6460SOL    HW231014   4.647   2.685  15.861 -3.9174 -1.1665 -1.3629
 6461SOL     OW31015   1.552   4.608  10.992 -0.2725 -0.1965  0.3402
 6461SOL    HW131016   1.469   4.657  10.988 -0.0135  0.0057 -2.4724
 6461SOL    HW231017   1.577   4.614  11.084 -0.0613  1.2614  0.1812
 6462SOL     OW31018   1.601   1.825   3.364 -0.9704  0.8994 -0.1169
 6462SOL    HW131019   1.536   1.820   3.293 -1.3261  0.6574  0.2277
 6462SOL    HW231020   1.573   1.762   3.429 -0.6107  0.7033 -0.1500
 6463SOL     OW31021   4.315   2.337   2.296 -0.2384 -0.0294 -0.4552
 6463SOL    HW131022   4.364   2.293   2.366 -2.0825 -2.5161 -0.7167
 6463SOL    HW231023   4.235   2.285   2.283 -0.6562  0.4795  0.1213
 6464SOL     OW31024   4.521   0.009   5.866  0.7499 -0.0160 -0.3883
 6464SOL    HW131025   4.465   0.054   5.929 -0.9312 -2.9074  0.2026
 6464SOL    HW231026   4.467   4.668   5.851 -0.8766  1.0245  0.0937
 6465SOL     OW31027   1.695   0.851   5.145  0.0643 -0.0898 -0.1811
 6465SOL    HW131028   1.698   0.853   5.050 -0.7129  1.1660 -0.1730
 6465SOL    HW231029   1.640   0.776   5.168  0.4553 -0.2823  0.1320
 6466SOL     OW31030   3.592   4.451   6.397  0.4587 -0.0999  0.2009
 6466SOL    HW131031   3.610   4.473   6.306 -1.8074  0.5024 -0.0954
 6466SOL    HW231032   3.565   4.538   6.427  1.1592 -0.2960  1.4182
 6467SOL     OW31033   0.506   3.465   4.753  0.0398  0.2347  0.0524
 6467SOL    HW131034   0.442   3.475   4.682  1.0800  1.0463 -0.7774
 6467SOL    HW231035   0.455   3.481   4.832  1.3779 -0.8245  1.1429
 6468SOL     OW31036   0.394   2.612   9.337  0.0499 -0.3495  0.2376
 6468SOL    HW131037   0.299   2.597   9.346 -0.4058  3.4202  1.9523
 6468SOL    HW231038   0.402   2.634   9.244 -1.8842  1.3646  0.4626
 6469SOL     OW31039   4.565   4.276   2.195  0.1690 -0.1317 -0.4333
 6469SOL    HW131040   4.541   4.357   2.149 -0.0282 -0.4149 -0.8280
 6469SOL    HW231041   4.641   4.295   2.250  0.3297  2.0567 -1.3865
 6470SOL     OW31042   1.588   3.081   0.031 -0.8944  0.1001 -0.3137
 6470SOL    HW131043   1.552   2.997   0.004 -0.7739  0.3292 -1.1858
 6470SOL    HW231044   1.679   3.052   0.024 -0.0250  1.9915  3.0092
 6471SOL     OW31045   2.413   0.616   5.489  0.1236  0.6315  0.9082
 6471SOL    HW131046   2.384   0.550   5.552 -1.1630  0.4072  0.0953
 6471SOL    HW231047   2.508   0.608   5.485 -0.1746 -1.3106 -2.2178
 6472SOL     OW31048   4.338   0.594  16.212 -0.0137 -0.9539  0.6806
 6472SOL    HW131049   4.327   0.655  16.286  0.6620 -4.1145  3.4039
 6472SOL    HW231050   4.363   0.650  16.139 -1.8103  0.5778  1.2461
 6473SOL     OW31051   4.047   0.301   4.676 -0.1729 -0.0950 -0.1415
 6473SOL    HW131052   3.964   0.297   4.724 -0.1445  3.3675  0.2050
 6473SOL    HW231053   4.073   0.388   4.705 -1.0319 -0.0496  0.5263
 6474SOL     OW31054   1.169   1.191  17.402  0.1338 -0.0970  0.0615
 6474SOL    HW131055   1.169   1.287  17.400 -0.8322 -0.0859  0.6887
 6474SOL    HW231056   1.229   1.166  17.332  1.5145  0.6661  0.9463
 6475SOL     OW31057   0.631   0.519   5.355  0.3441 -0.0614  0.6083
 6475SOL    HW131058   0.690   0.579   5.308 -2.1801  3.3286  1.7181
 6475SOL    HW231059   0.546   0.562   5.343 -1.7420 -3.6961  2.2977
 6476SOL     OW31060   0.148   3.323   4.353  0.1227 -0.3320 -0.3947
 6476SOL    HW131061   0.155   3.409   4.312 -0.1410  0.9838  2.3185
 6476SOL    HW231062   0.084   3.334   4.424  0.8555  3.7182 -0.3330
 6477SOL     OW31063   3.433   3.853   8.565 -0.0234 -0.1696  0.5896
 6477SOL    HW131064   3.432   3.789   8.494 -0.2047  0.8978 -0.3738
 6477SOL    HW231065   3.411   3.938   8.525 -2.4433 -1.7362 -1.3727
 6478SOL     OW31066   3.037   3.809   1.146  0.1884  0.7963  0.1117
 6478SOL    HW131067   2.953   3.809   1.192  0.3448  1.4104  0.3990
 6478SOL    HW231068   3.043   3.904   1.137 -1.0868  0.8410 -0.3009
 6479SOL     OW31069   1.741   3.030  16.579  0.1085 -0.5450 -0.1386
 6479SOL    HW131070   1.666   3.026  16.520  0.2794  0.6877 -0.4368
 6479SOL    HW231071   1.708   3.087  16.648 -4.4474 -0.7166 -2.1562
 6480SOL     OW31072   0.647   0.628   3.650 -0.0309 -0.0657  0.4218
 6480SOL    HW131073   0.597   0.619   3.732 -1.8442 -2.7638 -0.9676
 6480SOL    HW231074   0.659   0.537   3.623 -2.3076 -0.3479  0.3025
 6481SOL     OW31075   1.619   0.158   4.125  0.3147 -0.2281  0.2229
 6481SOL    HW131076   1.622   0.062   4.122  1.3956 -0.2435  1.8450
 6481SOL    HW231077   1.528   0.174   4.148 -0.4953 -2.6833 -1.2906
 6482SOL     OW31078   3.829   1.965   9.038 -0.2348  0.2200 -0.0599
 6482SOL    HW131079   3.878   2.029   9.089 -0.8273  0.8956 -0.3383
 6482SOL    HW231080   3.838   1.879   9.079  0.0713  0.0596 -0.4577
 6483SOL     OW31081   3.487   4.357  13.109  0.5581  0.2608  0.5968
 6483SOL    HW131082   3.473   4.421  13.178  0.5481  2.2768 -1.2584
 6483SOL    HW231083   3.559   4.403  13.066  1.1014 -1.0589  0.0870
 6484SOL     OW31084   2.310   0.076   8.370 -0.4744 -0.2584 -0.2217
 6484SOL    HW131085   2.229   0.024   8.368 -0.7933  0.2231  0.2925
 6484SOL    HW231086   2.286   0.145   8.432  2.0391  0.7828 -0.4356
 6485SOL     OW31087   0.576   0.973   1.194 -0.1651  0.4341  0.0262
 6485SOL    HW131088   0.652   1.030   1.179 -0.6699  1.2805  0.6783
 6485SOL    HW231089   0.565   0.972   1.289  1.4578  0.8554  0.2143
 6486SOL     OW31090   2.050   0.907   9.166  0.0158 -0.3773 -0.1518
 6486SOL    HW131091   2.103   0.861   9.230  0.1518  0.6571  0.4795
 6486SOL    HW231092   2.100   0.906   9.084  2.1720  1.6803  1.1177
 6487SOL     OW31093   0.697   1.275  13.890  0.0376 -0.1688 -0.8901
 6487SOL    HW131094   0.701   1.194  13.941 -1.1156  0.5246  0.3041
 6487SOL    HW231095   0.751   1.340  13.934  0.2881 -0.4526 -0.7774
 6488SOL     OW31096   0.683   1.499   8.794 -0.5249  0.2323  0.3238
 6488SOL    HW131097   0.696   1.545   8.710 -0.1546  0.6033  0.5831
 6488SOL    HW231098   0.736   1.422   8.777  1.8264  1.4643  2.1011
 6489SOL     OW31099   2.593   0.805   2.241 -0.0187  0.1925 -0.0867
 6489SOL    HW131100   2.660   0.840   2.182 -1.7997 -1.6882 -3.1704
 6489SOL    HW231101   2.549   0.739   2.188 -0.2806 -0.1283  0.5376
 6490SOL     OW31102   3.366   3.467   1.692 -0.8573  0.1181  0.3898
 6490SOL    HW131103   3.316   3.459   1.611 -1.6308  0.1022  0.8687
 6490SOL    HW231104   3.406   3.382   1.673  0.7187  1.1248 -0.7949
 6491SOL     OW31105   0.469   0.357   1.800  0.3536  0.0680  0.5921
 6491SOL    HW131106   0.383   0.334   1.836 -0.3714  0.0011 -1.1765
 6491SOL    HW231107   0.499   0.441   1.833 -0.9280  1.7046 -2.3630
 6492SOL     OW31108   0.203   3.573   6.261  0.6040 -0.1091  0.0070
 6492SOL    HW131109   0.199   3.615   6.175  2.0249 -0.8716 -0.4262
 6492SOL    HW231110   0.165   3.643   6.315  0.6227  0.8663 -1.2454
 6493SOL     OW31111   0.005   0.249   4.874 -0.1419  0.1315 -0.3540
 6493SOL    HW131112   0.046   0.245   4.788  0.7529 -0.6580  0.1122
 6493SOL    HW231113   0.013   0.159   4.906 -1.0024  0.1339 -0.1110
 6494SOL     OW31114   3.187   3.071   5.170  0.2138  0.5879 -0.0871
 6494SOL    HW131115   3.249   3.021   5.116 -1.1568 -1.3111  0.0987
 6494SOL    HW231116   3.107   3.063   5.118 -0.1676 -1.1993  0.7881
 6495SOL     OW31117   3.956   3.550   2.327 -0.2604 -0.5647  0.1594
 6495SOL    HW131118   3.877   3.557   2.275  1.2405 -2.7734 -2.3862
 6495SOL    HW231119   3.998   3.467   2.305  1.3774  0.1912  0.3537
 6496SOL     OW31120   4.509   0.481  10.327 -0.3390  0.0586 -0.3018
 6496SOL    HW131121   4.468   0.500  10.412  1.2835  0.5409  0.3759
 6496SOL    HW231122   4.438   0.443  10.276 -1.5154  1.2807  0.4430
 6497SOL     OW31123   0.663   3.081   7.153 -0.2172 -0.1399  0.1575
 6497SOL    HW131124   0.574   3.055   7.176 -0.0367  0.5335  1.5781
 6497SOL    HW231125   0.710   3.064   7.234  0.3450  0.2620 -0.0880
 6498SOL     OW31126   0.364   1.302   3.736 -0.4594  0.1245 -0.7173
 6498SOL    HW131127   0.323   1.388   3.742  0.9119  0.7088  0.1910
 6498SOL    HW231128   0.422   1.315   3.661 -0.6143  2.0504 -0.5187
 6499SOL     OW31129   2.106   2.827  13.035 -0.1981 -0.0110  0.0258
 6499SOL    HW131130   2.184   2.795  12.989 -1.4162 -0.4350 -1.7464
 6499SOL    HW231131   2.147   2.889  13.094 -0.4143 -2.0707  2.3417
 6500SOL     OW31132   3.547   3.481   2.131  0.4414  0.0253 -0.4159
 6500SOL    HW131133   3.524   3.488   2.224  1.2256 -0.9391 -0.1520
 6500SOL    HW231134   3.629   3.531   2.129 -0.6407  1.8374 -0.1902
 6501SOL     OW31135   3.408   2.450  14.770 -0.6699  0.0926  0.0700
 6501SOL    HW131136   3.497   2.427  14.799 -0.4039 -0.6573 -1.3785
 6501SOL    HW231137   3.421   2.540  14.742 -1.6074  0.8904  2.2063
 6502SOL     OW31138   3.188   4.397   2.062 -0.1020  0.1718  0.1557
 6502SOL    HW131139   3.118   4.430   2.118  0.3986  0.7799  0.4329
 6502SOL    HW231140   3.177   4.443   1.979  0.9535 -1.4619 -0.8902
 6503SOL     OW31141   2.748   1.352   3.645 -0.3646  0.0154 -0.2891
 6503SOL    HW131142   2.771   1.310   3.728  0.9224  1.5377  0.1326
 6503SOL    HW231143   2.659   1.319   3.649 -0.8355  1.2428 -0.6808
 6504SOL     OW31144   0.359   0.343   6.418  0.1646  0.0585 -0.3509
 6504SOL    HW131145   0.322   0.255   6.409  0.9556  0.0060 -2.9781
 6504SOL    HW231146   0.374   0.369   6.327  1.0500 -0.3814 -0.3328
 6505SOL     OW31147   3.348   2.503   5.172  0.0592 -0.1227  0.4998
 6505SOL    HW131148   3.285   2.435   5.151  0.0458 -0.1582  0.6551
 6505SOL    HW231149   3.357   2.542   5.085 -4.5193  1.0194  0.5188
 6506SOL     OW31150   3.253   3.249   0.711 -0.3802 -0.0896  0.6328
 6506SOL    HW131151   3.336   3.235   0.666 -1.0299 -0.1069 -0.5559
 6506SOL    HW231152   3.193   3.286   0.647  0.5199 -1.6700 -1.1171
 6507SOL     OW31153   1.769   3.960  14.078 -0.0029  0.4799  0.7087
 6507SOL    HW131154   1.733   4.012  14.006 -0.6060 -0.4351  0.3552
 6507SOL    HW231155   1.693   3.953  14.136 -0.6536 -1.1015 -0.3353
 6508SOL     OW31156   1.322   2.160   4.147  0.5839 -0.2429  0.0404
 6508SOL    HW131157   1.263   2.228   4.115 -0.3849  0.3758  3.1497
 6508SOL    HW231158   1.381   2.197   4.212 -2.3623 -1.5084  3.4226
 6509SOL     OW31159   4.259   2.468  11.030 -0.3543  0.0224 -0.4911
 6509SOL    HW131160   4.250   2.563  11.042  0.8790  0.1378 -0.5626
 6509SOL    HW231161   4.210   2.438  11.107 -2.0183  0.8940 -1.1977
 6510SOL     OW31162   1.973   0.010   9.935  0.2736 -0.0119  0.2595
 6510SOL    HW131163   1.965   0.101   9.963  1.0860 -0.1158  0.8215
 6510SOL    HW231164   2.007   4.710  10.017 -1.5521 -0.9896  0.5917
 6511SOL     OW31165   3.397   2.614   7.021 -0.0737  0.3917 -0.1170
 6511SOL    HW131166   3.309   2.633   7.053 -0.9468  0.8639 -2.8012
 6511SOL    HW231167   3.447   2.677   7.072  1.4965 -1.5265  0.7458
 6512SOL     OW31168   0.950   3.752   3.209  0.4490  0.0911  0.5054
 6512SOL    HW131169   0.877   3.810   3.233  1.3607  1.3720  0.1953
 6512SOL    HW231170   0.905   3.701   3.141  1.6599 -0.5479  0.1801
 6513SOL     OW31171   1.177   4.143  15.626  0.1759  0.0460  0.0364
 6513SOL    HW131172   1.156   4.050  15.637  0.4500  0.2257  2.0042
 6513SOL    HW231173   1.216   4.140  15.539  0.7933  0.9468  0.2780
 6514SOL     OW31174   1.718   1.317   3.100  0.4370 -0.2651  0.4847
 6514SOL    HW131175   1.805   1.296   3.133  0.4153 -1.3375 -0.1186
 6514SOL    HW231176   1.692   1.383   3.163 -0.3105  1.6173 -1.7892
 6515SOL     OW31177   2.294   1.275   1.672 -0.0566 -0.2160 -0.0020
 6515SOL    HW131178   2.222   1.230   1.630 -0.6102  0.6915 -0.0318
 6515SOL    HW231179   2.328   1.211   1.735  2.2863  1.1470  0.1071
 6516SOL     OW31180   3.358   2.002   9.056 -0.4520  0.3896 -0.2540
 6516SOL    HW131181   3.425   2.070   9.064  1.1158 -1.0370 -1.2923
 6516SOL    HW231182   3.314   2.021   9.139  0.7964  2.5734 -0.0867
 6517SOL     OW31183   3.599   1.839   5.879  0.0709 -0.5283 -0.1035
 6517SOL    HW131184   3.513   1.867   5.847  1.0274 -1.8242 -3.6959
 6517SOL    HW231185   3.619   1.919   5.928  2.0294 -1.1516  0.1058
 6518SOL     OW31186   4.697   3.405  14.205 -0.3387 -0.3009 -0.4564
 6518SOL    HW131187   4.734   3.476  14.257 -0.5915 -1.1720  0.9003
 6518SOL    HW231188   4.662   3.452  14.130 -1.1350 -1.9864 -1.1293
 6519SOL     OW31189   3.228   4.063   8.685  0.0567  0.2264 -0.0509
 6519SOL    HW131190   3.260   3.999   8.621  0.3194 -0.5441  0.8441
 6519SOL    HW231191   3.157   4.109   8.641 -0.7651 -1.5433 -0.6022
 6520SOL     OW31192   3.433   0.007   7.084 -0.4496  0.6148  0.1975
 6520SOL    HW131193   3.346   4.733   7.122 -0.3828 -0.5989 -0.0037
 6520SOL    HW231194   3.453   4.660   7.043 -1.7857  1.2353 -1.6989
 6521SOL     OW31195   0.138   1.167   5.465 -0.6030 -0.2030  0.2471
 6521SOL    HW131196   0.194   1.123   5.530  1.2768 -0.1845 -1.3734
 6521SOL    HW231197   0.067   1.210   5.512 -0.2821  0.5342  0.0615
 6522SOL     OW31198   1.225   3.403   5.779  0.3699 -0.8619 -0.5082
 6522SOL    HW131199   1.316   3.377   5.767  0.8865  1.8121 -2.3580
 6522SOL    HW231200   1.200   3.347   5.853  2.3112 -1.9069 -0.6540
 6523SOL     OW31201   4.416   1.348   4.679 -0.1306 -0.3954 -0.0274
 6523SOL    HW131202   4.472   1.270   4.676  0.3170 -0.1174  1.5226
 6523SOL    HW231203   4.474   1.413   4.718  1.4410 -1.7720 -0.0343
 6524SOL     OW31204   4.066   3.410   3.986  1.0096  0.5059  1.0864
 6524SOL    HW131205   3.980   3.368   3.997  0.2595  1.7300 -0.0931
 6524SOL    HW231206   4.034   3.497   3.963 -1.2242 -0.7326 -0.5269
 6525SOL     OW31207   1.593   4.481   6.738  0.6134 -0.1028 -0.8127
 6525SOL    HW131208   1.523   4.504   6.677 -0.1742  1.5576  0.7147
 6525SOL    HW231209   1.660   4.445   6.680  0.5034 -1.1776 -0.2656
 6526SOL     OW31210   3.769   3.215  15.450 -0.6620 -0.2754 -0.6938
 6526SOL    HW131211   3.789   3.126  15.479  0.9281  0.8592  1.6597
 6526SOL    HW231212   3.705   3.190  15.383  1.2112  0.2141 -2.6731
 6527SOL     OW31213   3.298   3.653   9.483 -0.3729 -0.3507  0.2912
 6527SOL    HW131214   3.290   3.634   9.389 -0.0333  1.7589 -0.1462
 6527SOL    HW231215   3.345   3.572   9.505  1.4389  0.8340  0.7667
 6528SOL     OW31216   0.105   0.459   6.222 -0.5179 -0.1224 -0.4929
 6528SOL    HW131217   0.100   0.548   6.188  0.1963 -0.7140 -2.1340
 6528SOL    HW231218   0.199   0.447   6.211 -0.3555 -1.0817  1.8697
 6529SOL     OW31219   2.061   0.265  10.020  0.7872  0.2770 -0.2239
 6529SOL    HW131220   2.127   0.331  10.043 -1.2059  3.1305 -2.6608
 6529SOL    HW231221   2.000   0.326   9.978  1.0258 -0.1800 -1.2518
 6530SOL     OW31222   4.581   0.316   9.394 -0.2776 -0.4112  0.5046
 6530SOL    HW131223   4.499   0.317   9.346 -0.3883  0.0765  0.7042
 6530SOL    HW231224   4.602   0.409   9.397  0.5362 -0.6323  2.1143
 6531SOL     OW31225   3.205   1.849  12.620  0.2653  0.0936  0.0430
 6531SOL    HW131226   3.300   1.840  12.607  0.0536 -0.0342 -1.3789
 6531SOL    HW231227   3.177   1.759  12.601 -0.4117 -0.1071  2.0383
 6532SOL     OW31228   3.623   3.376   9.281  0.0604  0.3350  0.5409
 6532SOL    HW131229   3.718   3.381   9.277  0.0899 -2.1501 -1.6686
 6532SOL    HW231230   3.601   3.465   9.252  2.1742  0.0346 -1.9693
 6533SOL     OW31231   3.760   0.218  15.855  0.2368  0.2977  0.1449
 6533SOL    HW131232   3.835   0.271  15.880  2.1241 -1.3356 -2.0255
 6533SOL    HW231233   3.703   0.282  15.812  2.5141  1.4746 -1.1219
 6534SOL     OW31234   1.250   3.776  14.495 -0.2118 -0.1997  0.0402
 6534SOL    HW131235   1.162   3.757  14.529 -0.0968 -0.3013  0.2790
 6534SOL    HW231236   1.241   3.831  14.417 -0.0878 -3.1618 -2.0502
 6535SOL     OW31237   2.205   3.533   6.618  0.5751  0.3302 -0.2998
 6535SOL    HW131238   2.227   3.625   6.631 -2.0547  0.9325 -0.2043
 6535SOL    HW231239   2.162   3.509   6.700  0.8868 -1.2630 -0.5955
 6536SOL     OW31240   3.085   3.589  14.306 -0.2707 -0.3509 -0.3614
 6536SOL    HW131241   3.039   3.596  14.222 -1.0821  0.0148  0.1172
 6536SOL    HW231242   3.132   3.506  14.294  1.4474 -0.0504  4.3316
 6537SOL     OW31243   4.677   4.589   7.758  0.4159  0.2298 -0.1045
 6537SOL    HW131244   0.021   4.574   7.708  0.2759  2.0156 -0.8628
 6537SOL    HW231245   4.700   4.567   7.848 -0.3468  1.1617  0.3108
 6538SOL     OW31246   1.250   4.116   2.202 -0.2836 -0.5560  0.0426
 6538SOL    HW131247   1.206   4.194   2.170  1.2442 -0.1195 -0.9896
 6538SOL    HW231248   1.166   4.080   2.231 -1.3534  1.6444 -0.3812
 6539SOL     OW31249   2.446   0.613   6.745  0.6563  0.7970 -0.5173
 6539SOL    HW131250   2.399   0.536   6.775  1.4749  0.9567  1.1570
 6539SOL    HW231251   2.537   0.587   6.754 -0.0310 -1.2912  0.2183
 6540SOL     OW31252   2.855   1.818   4.255  0.4489 -0.0618 -0.0965
 6540SOL    HW131253   2.855   1.904   4.212 -1.6291 -1.2949 -2.5289
 6540SOL    HW231254   2.766   1.788   4.239  1.0771 -1.4345 -1.0199
 6541SOL     OW31255   0.093   0.325   6.830  0.1895 -0.1429  0.3472
 6541SOL    HW131256   0.063   0.323   6.739  1.8914 -1.5191 -0.1674
 6541SOL    HW231257   0.044   0.250   6.864 -0.6774  0.3134  0.1276
 6542SOL     OW31258   2.643   4.127   8.034 -0.5025 -0.2501  0.1957
 6542SOL    HW131259   2.548   4.139   8.045 -0.3366  1.0196  0.2705
 6542SOL    HW231260   2.665   4.219   8.052  0.4677 -0.5561  0.5754
 6543SOL     OW31261   0.384   2.161  12.835 -0.2853 -0.1503 -0.0872
 6543SOL    HW131262   0.417   2.154  12.925  1.1161  1.2389 -0.4746
 6543SOL    HW231263   0.348   2.073  12.830  0.0978 -0.2781 -0.6261
 6544SOL     OW31264   2.569   3.847  15.259 -0.2839  0.5670 -0.3115
 6544SOL    HW131265   2.558   3.875  15.168 -2.8277 -0.5877 -0.3824
 6544SOL    HW231266   2.558   3.929  15.307  1.4695  0.2777  0.5500
 6545SOL     OW31267   1.729   3.215   5.944 -0.5061 -0.2011  0.0500
 6545SOL    HW131268   1.785   3.220   5.866 -0.8456 -4.4075 -0.4467
 6545SOL    HW231269   1.788   3.266   6.000 -1.2478 -1.9272  2.3934
 6546SOL     OW31270   4.489   4.604   8.348  0.1612  0.4716  0.0450
 6546SOL    HW131271   4.537   4.524   8.328  1.7346  1.5344 -0.4087
 6546SOL    HW231272   4.483   4.647   8.262  0.1708  2.2637  0.9389
 6547SOL     OW31273   0.219   4.714   5.656  0.2194  0.3523  0.0538
 6547SOL    HW131274   0.165   0.048   5.621  1.7422  2.3661  1.7406
 6547SOL    HW231275   0.204   4.642   5.595 -0.2391 -0.7704  1.4743
 6548SOL     OW31276   0.517   1.045   4.135 -0.2666  0.3322  0.6836
 6548SOL    HW131277   0.496   0.954   4.156  3.7025 -0.9136 -0.7702
 6548SOL    HW231278   0.477   1.063   4.050 -0.9615 -0.6787  0.7988
 6549SOL     OW31279   3.379   4.306   5.784 -0.2755  0.3017 -0.3636
 6549SOL    HW131280   3.389   4.212   5.770  0.3535 -0.2048  3.5948
 6549SOL    HW231281   3.411   4.344   5.702 -0.1796 -2.2534 -1.4874
 6550SOL     OW31282   0.924   1.660   4.379 -0.1274  0.1902  0.3331
 6550SOL    HW131283   0.868   1.738   4.375 -0.4643  0.0063  1.3730
 6550SOL    HW231284   0.851   1.602   4.359 -0.4372 -0.0769  2.1843
 6551SOL     OW31285   0.524   3.002  12.652  0.5244  0.2143  0.0672
 6551SOL    HW131286   0.498   2.955  12.573  2.5310 -0.0221 -0.4527
 6551SOL    HW231287   0.617   3.014  12.634  0.6513  0.4578  0.9129
 6552SOL     OW31288   0.256   3.683   6.009  0.5432  0.2130  0.2505
 6552SOL    HW131289   0.280   3.770   6.042 -1.2962  1.0130 -0.5429
 6552SOL    HW231290   0.308   3.675   5.929  0.3070 -0.6015  0.1788
 6553SOL     OW31291   4.658   1.969   5.914  0.0441  0.8074 -0.2062
 6553SOL    HW131292   4.729   1.912   5.942 -1.3447 -0.5561  0.5326
 6553SOL    HW231293   4.604   1.903   5.871 -0.5403  2.5080 -2.0887
 6554SOL     OW31294   3.133   3.607  15.481  0.1803  0.0648 -0.5492
 6554SOL    HW131295   3.154   3.515  15.498  2.4669  0.5748 -0.5832
 6554SOL    HW231296   3.182   3.615  15.398 -2.1482  1.3329 -1.7976
 6555SOL     OW31297   3.540   0.277   8.584 -0.3145 -0.2381 -0.1693
 6555SOL    HW131298   3.469   0.327   8.623 -0.9755  0.0599 -1.7551
 6555SOL    HW231299   3.545   0.210   8.652  0.3484 -1.5873 -1.5286
 6556SOL     OW31300   3.019   4.689   6.658  0.0745  1.1011 -0.4853
 6556SOL    HW131301   2.973   0.036   6.654  0.9685  1.5931 -0.6346
 6556SOL    HW231302   2.970   4.642   6.591  1.7988 -0.6001 -0.5497
 6557SOL     OW31303   4.615   4.605   9.675  0.0957 -0.0260 -0.0359
 6557SOL    HW131304   4.539   4.627   9.621  0.3764 -0.9726 -0.8118
 6557SOL    HW231305   4.587   4.517   9.701  0.7762 -0.1297  0.3363
 6558SOL     OW31306   4.695   3.688  11.262 -0.0168 -0.0024  0.2420
 6558SOL    HW131307   4.649   3.722  11.339  0.5375  0.9047  0.1744
 6558SOL    HW231308   4.614   3.669  11.214  0.7941 -3.9540  0.4773
 6559SOL     OW31309   0.737   3.864   6.096 -0.1122  0.2770 -0.2160
 6559SOL    HW131310   0.829   3.879   6.120 -0.1755  1.1860 -0.5504
 6559SOL    HW231311   0.714   3.826   6.181 -1.1563 -1.6162 -1.3609
 6560SOL     OW31312   3.035   4.125   7.224  0.1795  0.1531 -0.1279
 6560SOL    HW131313   2.965   4.190   7.230  0.6412  0.5271  1.3798
 6560SOL    HW231314   3.116   4.175   7.236 -1.5169  2.6444  1.1566
 6561SOL     OW31315   2.724   0.642   4.103  0.0372  0.6172  0.0452
 6561SOL    HW131316   2.810   0.640   4.060  0.6280  0.3503  1.2217
 6561SOL    HW231317   2.752   0.688   4.183 -2.5655  2.5259 -0.1296
 6562SOL     OW31318   3.026   1.269   4.137 -0.5282 -0.8172 -0.0376
 6562SOL    HW131319   3.049   1.291   4.227  2.2128 -1.0194 -0.7061
 6562SOL    HW231320   3.029   1.358   4.103 -1.0042 -1.5600 -2.0148
 6563SOL     OW31321   3.904   3.825   0.739  0.0146  0.7625  0.1977
 6563SOL    HW131322   3.894   3.751   0.679  0.5150 -0.6891  1.8829
 6563SOL    HW231323   3.995   3.853   0.728 -0.2726  1.6428  0.1333
 6564SOL     OW31324   1.211   4.368   3.239  0.2935 -0.5083  0.5598
 6564SOL    HW131325   1.238   4.284   3.202 -3.2117 -1.2096 -0.3808
 6564SOL    HW231326   1.120   4.356   3.215  0.9208 -1.4884 -1.2984
 6565SOL     OW31327   3.147   1.131   8.597  0.3552  0.4217  0.4398
 6565SOL    HW131328   3.240   1.146   8.609  0.5677 -0.4212 -0.0992
 6565SOL    HW231329   3.143   1.104   8.505  1.9169 -0.2049  0.5494
 6566SOL     OW31330   0.603   2.963  17.222  0.8843  0.7564 -0.7732
 6566SOL    HW131331   0.584   2.870  17.215  0.4376  0.3531  5.7727
 6566SOL    HW231332   0.527   3.006  17.183 -0.4968 -0.1048  0.9889
 6567SOL     OW31333   1.403   2.545   6.983 -0.3463 -0.1826 -0.2247
 6567SOL    HW131334   1.380   2.638   6.980  0.4006 -0.0307 -1.4572
 6567SOL    HW231335   1.437   2.539   6.893  1.8618 -1.5679  0.7193
 6568SOL     OW31336   1.324   0.381  15.140  0.1394 -0.5734  0.5012
 6568SOL    HW131337   1.279   0.392  15.224 -0.4364  1.8636 -0.1401
 6568SOL    HW231338   1.411   0.372  15.179  0.1603  0.6460  0.7449
 6569SOL     OW31339   1.799   2.993   2.129  0.3522 -0.1921 -0.4527
 6569SOL    HW131340   1.862   3.065   2.133 -0.6946  0.6873  0.3374
 6569SOL    HW231341   1.813   2.957   2.217 -2.1370  0.7843  0.3474
 6570SOL     OW31342   0.606   1.357  10.909 -0.4269  0.1296  0.2400
 6570SOL    HW131343   0.664   1.298  10.861 -1.9312 -0.9179 -0.2719
 6570SOL    HW231344   0.524   1.307  10.911  0.3603 -1.1977 -0.5954
 6571SOL     OW31345   1.087   1.997   4.185 -0.2477  0.2087  0.3535
 6571SOL    HW131346   0.995   2.013   4.164  0.0545  0.8204 -0.5204
 6571SOL    HW231347   1.133   2.069   4.142 -0.7269  0.6883  0.6325
 6572SOL     OW31348   1.506   2.388   1.078  0.4641  0.6390  0.4994
 6572SOL    HW131349   1.439   2.435   1.028 -0.6395 -1.0980  0.3613
 6572SOL    HW231350   1.452   2.322   1.121  1.8228  0.1369  1.4119
 6573SOL     OW31351   4.630   0.771   8.022 -0.4248  0.3701  0.4011
 6573SOL    HW131352   4.604   0.849   7.973 -2.1626  0.3637  1.3089
 6573SOL    HW231353   4.622   0.701   7.958 -0.4064  0.3803  0.3874
 6574SOL     OW31354   1.608   4.311   4.777  0.0582 -0.3088 -0.3076
 6574SOL    HW131355   1.570   4.246   4.837  1.7160 -1.1774 -0.1938
 6574SOL    HW231356   1.612   4.390   4.831 -1.2834 -0.9665  0.7573
 6575SOL     OW31357   0.396   3.674  10.985 -0.4425  0.3802 -0.3484
 6575SOL    HW131358   0.330   3.716  11.040 -0.3259 -1.1459  0.9709
 6575SOL    HW231359   0.407   3.737  10.914  3.9602  1.2014  1.0303
 6576SOL     OW31360   3.321   3.190  10.426 -0.4573 -0.1280 -0.0459
 6576SOL    HW131361   3.275   3.181  10.510  1.4534 -2.7964  0.7067
 6576SOL    HW231362   3.300   3.111  10.377  1.0063 -1.0315  0.7770
 6577SOL     OW31363   1.772   1.103  17.622  0.1163  0.0195 -0.5317
 6577SOL    HW131364   1.821   1.035  17.577 -0.5830 -0.9710  0.1833
 6577SOL    HW231365   1.847   1.147  17.662 -0.1141 -1.6853  1.7955
 6578SOL     OW31366   0.265   0.731   3.468  0.1159  0.0684 -0.5657
 6578SOL    HW131367   0.301   0.758   3.553 -1.5294 -2.8111  1.0524
 6578SOL    HW231368   0.292   0.640   3.460 -2.0491 -0.5032 -1.4083
 6579SOL     OW31369   3.600   1.161  14.973 -0.6580 -0.3745  0.2992
 6579SOL    HW131370   3.546   1.125  14.903 -1.5114 -2.5324  2.0312
 6579SOL    HW231371   3.681   1.127  14.935 -1.2978 -2.5198  0.8500
 6580SOL     OW31372   4.307   2.901   6.668  0.2653 -0.0760  0.2517
 6580SOL    HW131373   4.336   2.878   6.580 -0.1218 -2.4546  0.7657
 6580SOL    HW231374   4.369   2.969   6.696  0.7630 -1.5353  2.6384
 6581SOL     OW31375   1.419   2.795   9.045 -0.3983  0.0970 -0.1317
 6581SOL    HW131376   1.362   2.761   8.976 -0.5040  0.9532 -0.4638
 6581SOL    HW231377   1.403   2.739   9.121  2.0268 -0.1649  0.1910
 6582SOL     OW31378   3.001   3.315   2.181 -0.2936  0.2516  0.4885
 6582SOL    HW131379   3.069   3.352   2.236 -0.2534 -2.1487  2.0640
 6582SOL    HW231380   2.990   3.234   2.232  1.8436 -0.4395 -0.1646
 6583SOL     OW31381   0.369   3.628   3.203 -0.2596 -0.5760  0.2127
 6583SOL    HW131382   0.386   3.718   3.173  1.2407 -1.0957 -0.4703
 6583SOL    HW231383   0.453   3.586   3.189  0.1619  0.3661 -0.0963
 6584SOL     OW31384   4.340   2.839   4.272 -0.9399 -0.3421 -0.6342
 6584SOL    HW131385   4.257   2.876   4.302  0.7327  0.2206  3.3275
 6584SOL    HW231386   4.338   2.747   4.300  2.0003 -0.4860 -0.9693
 6585SOL     OW31387   2.497   2.868   8.289 -0.6214  0.2082  0.4159
 6585SOL    HW131388   2.464   2.884   8.377 -1.0451 -0.3086  0.3510
 6585SOL    HW231389   2.582   2.911   8.296  0.0293 -0.8886 -0.7822
 6586SOL     OW31390   2.266   4.701   5.456 -0.2554  0.0667 -0.3255
 6586SOL    HW131391   2.203   0.036   5.454  1.0193  1.2812  2.7890
 6586SOL    HW231392   2.334   4.734   5.398 -0.6067 -2.5629 -2.2406
 6587SOL     OW31393   2.631   2.319   8.321 -0.2925  0.3964 -0.3425
 6587SOL    HW131394   2.598   2.409   8.312 -2.2445 -0.0583  2.3086
 6587SOL    HW231395   2.711   2.311   8.270  0.3902  0.6326  0.6904
 6588SOL     OW31396   2.931   3.033  15.654  0.5751 -0.3146 -0.4828
 6588SOL    HW131397   2.992   2.960  15.643  1.4263  0.4911 -1.1308
 6588SOL    HW231398   2.986   3.090  15.707 -0.0279  0.3214 -0.5367
 6589SOL     OW31399   4.246   3.206   6.375 -0.2889  0.1437  0.1657
 6589SOL    HW131400   4.242   3.255   6.293 -0.2746 -0.3737 -0.1451
 6589SOL    HW231401   4.341   3.193   6.374 -0.2785  0.1654  0.8441
 6590SOL     OW31402   3.997   3.357   5.033  0.0393 -0.3476 -0.2366
 6590SOL    HW131403   3.995   3.263   5.051  0.6552 -0.7119 -1.9885
 6590SOL    HW231404   4.036   3.386   5.115  1.0275  1.8642 -1.4775
 6591SOL     OW31405   1.017   4.667   2.590 -0.2957 -0.0194  0.2263
 6591SOL    HW131406   1.111   4.652   2.590 -0.0941  1.2856  0.0927
 6591SOL    HW231407   1.020   0.019   2.626 -0.2518 -0.6459  1.7678
 6592SOL     OW31408   3.681   2.397   7.550  0.1300 -0.2381  0.0969
 6592SOL    HW131409   3.663   2.330   7.615  1.9440  0.0891  0.9305
 6592SOL    HW231410   3.632   2.475   7.576  0.3552  0.1032 -0.4985
 6593SOL     OW31411   4.519   3.768   3.733 -0.7711  0.5274 -0.4330
 6593SOL    HW131412   4.600   3.726   3.704 -0.1805  0.6816  1.0312
 6593SOL    HW231413   4.550   3.850   3.771 -1.1449  1.0717 -1.2895
 6594SOL     OW31414   2.403   1.738   0.949  0.0796  0.3819  0.3817
 6594SOL    HW131415   2.494   1.709   0.955  0.1421  0.3147 -1.0920
 6594SOL    HW231416   2.390   1.718   0.857 -0.5888 -0.6501  0.6970
 6595SOL     OW31417   3.465   1.834   2.159  0.0371  0.2938  0.2410
 6595SOL    HW131418   3.482   1.740   2.168  1.7029  0.6046  0.2337
 6595SOL    HW231419   3.518   1.859   2.084  1.5468 -1.9200  0.5619
 6596SOL     OW31420   3.041   2.266   7.050 -0.1205 -0.6106 -0.5028
 6596SOL    HW131421   3.033   2.278   7.144  0.1540 -0.8634 -0.4494
 6596SOL    HW231422   2.990   2.186   7.061  1.1733 -1.1462  1.6381
 6597SOL     OW31423   4.369   0.855   8.944 -0.3053 -0.0627  0.2690
 6597SOL    HW131424   4.275   0.851   8.923 -0.9047 -1.4563  3.1647
 6597SOL    HW231425   4.406   0.898   8.867 -0.5829 -0.8818 -0.3228
 6598SOL     OW31426   3.789   4.185  16.243  0.0044  0.3311 -0.4252
 6598SOL    HW131427   3.864   4.242  16.227  0.7020 -0.4838 -0.1104
 6598SOL    HW231428   3.730   4.251  16.279 -0.2067 -1.0528  1.8065
 6599SOL     OW31429   3.056   4.610  17.359 -0.2704 -0.1319  0.4383
 6599SOL    HW131430   2.992   4.679  17.378  1.5667  1.3896  1.1548
 6599SOL    HW231431   3.002   4.574  17.288  1.7702  0.5580 -1.4837
 6600SOL     OW31432   1.521   0.363   5.011  0.0371  0.2410 -0.3062
 6600SOL    HW131433   1.532   0.296   5.078 -1.3606 -0.1067 -0.4150
 6600SOL    HW231434   1.452   0.325   4.958  0.7488 -0.8161 -0.4656
 6601SOL     OW31435   4.626   3.833   8.044 -0.6581 -0.4933  0.0969
 6601SOL    HW131436   4.585   3.901   7.991 -0.6383  0.1690  0.9315
 6601SOL    HW231437   4.560   3.766   8.060 -0.6564 -0.6116 -0.3798
 6602SOL     OW31438   1.286   3.099  10.458 -0.6220  0.1393 -0.0619
 6602SOL    HW131439   1.242   3.169  10.506  0.1656 -0.3417  1.3494
 6602SOL    HW231440   1.240   3.021  10.488  1.2469 -0.0441  2.3573
 6603SOL     OW31441   2.485   1.608   3.606 -0.6141 -0.1276  0.3935
 6603SOL    HW131442   2.528   1.670   3.665  0.7045 -1.0466  0.4139
 6603SOL    HW231443   2.561   1.574   3.557 -0.9230 -0.8467  0.4192
 6604SOL     OW31444   4.305   1.974   4.552  0.5247  0.4642  0.3456
 6604SOL    HW131445   4.369   1.930   4.608 -0.4035 -1.9465 -0.4895
 6604SOL    HW231446   4.290   1.902   4.490 -1.2934  1.7098 -0.6593
 6605SOL     OW31447   1.085   3.604   2.807  0.5926  0.1712  0.5502
 6605SOL    HW131448   1.130   3.522   2.828  1.3055  0.2190 -0.7767
 6605SOL    HW231449   1.094   3.623   2.713 -0.8911 -0.5704  0.2544
 6606SOL     OW31450   4.050   0.891   6.407 -0.3702  0.7201  0.2552
 6606SOL    HW131451   4.133   0.932   6.381 -1.1651 -0.1807 -3.7122
 6606SOL    HW231452   4.037   0.947   6.483 -0.0379  2.0753 -0.6801
 6607SOL     OW31453   2.163   0.959  12.154  0.3471  0.6266 -0.0958
 6607SOL    HW131454   2.209   0.958  12.070  3.5846 -2.8477  1.7288
 6607SOL    HW231455   2.089   0.898  12.146 -0.5070  1.4114  1.7639
 6608SOL     OW31456   1.418   2.105   3.842 -0.0438 -0.7386 -0.1677
 6608SOL    HW131457   1.349   2.097   3.776  0.7894 -0.6313 -1.0472
 6608SOL    HW231458   1.379   2.183   3.882 -0.0063  0.3457 -2.2210
 6609SOL     OW31459   0.524   3.248   9.389  0.1132 -0.4400 -0.0772
 6609SOL    HW131460   0.438   3.239   9.430 -0.8957  2.0298 -1.5960
 6609SOL    HW231461   0.540   3.165   9.345 -0.2895 -1.2002  1.2039
 6610SOL     OW31462   4.063   1.405   4.025 -0.4225 -0.2735  0.3803
 6610SOL    HW131463   3.972   1.433   4.019 -0.1415  0.6888  0.6111
 6610SOL    HW231464   4.100   1.475   3.971  0.2719 -0.9237  0.0120
 6611SOL     OW31465   3.867   3.503   8.739 -0.3567 -0.0594  0.2157
 6611SOL    HW131466   3.925   3.485   8.665 -1.6950 -0.3318 -0.7695
 6611SOL    HW231467   3.931   3.530   8.806 -0.0931  0.7969 -0.3778
 6612SOL     OW31468   4.495   2.407   2.725 -0.1238  0.0527  0.1690
 6612SOL    HW131469   4.589   2.421   2.737 -0.3292  1.6763 -0.0442
 6612SOL    HW231470   4.476   2.365   2.809  1.6131  1.4880  1.2684
 6613SOL     OW31471   3.215   0.967   4.674  0.7549 -0.6120 -0.9112
 6613SOL    HW131472   3.131   1.013   4.682  1.4484 -0.0541  3.3431
 6613SOL    HW231473   3.260   1.032   4.729 -0.7703 -0.0018 -0.3740
 6614SOL     OW31474   0.588   0.795   2.787  0.4028  0.2746 -0.5849
 6614SOL    HW131475   0.665   0.748   2.755  0.9548  1.0004 -0.3166
 6614SOL    HW231476   0.567   0.744   2.866 -1.2270  2.6702  0.5433
 6615SOL     OW31477   1.182   1.258   5.906  0.0104 -0.1111 -0.1422
 6615SOL    HW131478   1.097   1.302   5.899 -0.2164 -0.3169  1.3548
 6615SOL    HW231479   1.248   1.328   5.901 -0.8230  0.7031  0.1555
 6616SOL     OW31480   2.393   4.388   2.974  0.4465  0.7409  0.1914
 6616SOL    HW131481   2.355   4.321   3.031 -0.0357  0.2145 -0.7342
 6616SOL    HW231482   2.314   4.435   2.948 -0.5326 -0.5236  0.8786
 6617SOL     OW31483   0.770   1.109   6.751 -0.0200  0.2376 -0.2041
 6617SOL    HW131484   0.679   1.134   6.742 -0.0054 -0.5074 -2.5698
 6617SOL    HW231485   0.803   1.145   6.668 -1.0906 -3.7639 -2.3868
 6618SOL     OW31486   0.194   0.976   4.070  0.0795  0.6253  0.1400
 6618SOL    HW131487   0.248   0.901   4.092  0.2432  0.7363  0.1225
 6618SOL    HW231488   0.251   1.012   4.002 -1.4244  2.0255 -0.4009
 6619SOL     OW31489   0.731   2.894   5.948  0.2208 -0.5013  0.0350
 6619SOL    HW131490   0.822   2.920   5.931  0.5814 -1.8875 -0.1461
 6619SOL    HW231491   0.714   2.834   5.875  1.2696  1.4288 -1.8066
 6620SOL     OW31492   0.198   0.102   6.375 -0.2569 -0.3755 -0.5503
 6620SOL    HW131493   0.164   0.060   6.296  0.5905  1.4205 -1.8699
 6620SOL    HW231494   0.124   0.093   6.435  1.4130  1.8696  1.8339
 6621SOL     OW31495   2.680   2.280   9.464 -0.1901  0.4037  0.1209
 6621SOL    HW131496   2.632   2.204   9.496 -0.2520  0.8945  1.1943
 6621SOL    HW231497   2.676   2.286   9.369 -0.2160 -0.0235  0.0961
 6622SOL     OW31498   0.095   2.372   7.773  0.6518  0.0508 -0.4055
 6622SOL    HW131499   0.137   2.288   7.754  1.5785  0.7769 -1.5608
 6622SOL    HW231500   0.030   2.355   7.841 -0.9331  0.4151 -1.8306
 6623SOL     OW31501   2.161   3.328   3.659 -0.5427  0.3284  0.1583
 6623SOL    HW131502   2.094   3.336   3.591 -0.0478 -0.3783 -0.4240
 6623SOL    HW231503   2.186   3.236   3.645 -0.7715  0.4693 -1.1773
 6624SOL     OW31504   2.371   3.734   2.234  0.1405  0.5045  0.3055
 6624SOL    HW131505   2.299   3.673   2.249  0.6158  0.2000  1.3866
 6624SOL    HW231506   2.335   3.820   2.254  0.9785  0.9750 -0.2173
 6625SOL     OW31507   3.165   2.796  14.682 -0.1794  0.1862 -0.5905
 6625SOL    HW131508   3.085   2.783  14.631  0.6374  0.8364 -2.0382
 6625SOL    HW231509   3.134   2.860  14.746  1.9655  2.3520 -1.7000
 6626SOL     OW31510   0.913   0.912  14.876  0.1489 -0.2856  0.2172
 6626SOL    HW131511   0.922   0.834  14.931 -0.0241 -1.2922 -1.2078
 6626SOL    HW231512   0.923   0.871  14.791  0.0547  0.1120  0.0120
 6627SOL     OW31513   1.522   3.031   5.968 -0.8081 -0.4121  0.0591
 6627SOL    HW131514   1.595   2.989   5.922 -1.3874 -0.3582 -0.9107
 6627SOL    HW231515   1.569   3.106   6.006 -1.2439  0.2963 -0.7976
 6628SOL     OW31516   3.138   1.796  10.550 -0.6423 -1.0129 -0.2330
 6628SOL    HW131517   3.185   1.713  10.556 -0.5427 -1.0086 -0.8653
 6628SOL    HW231518   3.046   1.773  10.568 -1.4927  1.4035 -1.4007
 6629SOL     OW31519   1.479   2.909   4.548  0.2533  0.6240 -0.1593
 6629SOL    HW131520   1.475   2.886   4.455  1.0899  0.2346 -0.1056
 6629SOL    HW231521   1.502   2.826   4.588  1.2724  0.2224 -1.5618
 6630SOL     OW31522   2.898   0.623   3.521  0.1747 -0.0474 -0.3106
 6630SOL    HW131523   2.874   0.535   3.493  0.8936 -0.0978 -0.7560
 6630SOL    HW231524   2.887   0.620   3.616 -0.8622  3.7599 -0.2937
 6631SOL     OW31525   1.133   1.831   6.714  0.3116 -0.3452 -0.8881
 6631SOL    HW131526   1.051   1.782   6.709  1.0266 -1.4881 -1.3451
 6631SOL    HW231527   1.176   1.797   6.792  2.5510 -0.3410 -2.1271
 6632SOL     OW31528   2.483   4.629  17.044 -0.1945  0.6961  0.4132
 6632SOL    HW131529   2.477   4.545  16.998 -1.8852 -0.2642  2.3992
 6632SOL    HW231530   2.468   4.689  16.971 -3.3287 -0.4663  0.1131
 6633SOL     OW31531   1.204   0.066   4.571 -0.2249  0.2641  0.0055
 6633SOL    HW131532   1.235   0.155   4.590  0.4472 -0.2071  1.1572
 6633SOL    HW231533   1.154   0.055   4.652  0.1208 -1.5088 -0.0317
 6634SOL     OW31534   1.129   2.264   7.786  0.0311  0.1461  0.5357
 6634SOL    HW131535   1.111   2.335   7.724 -0.1500  1.8228  2.5015
 6634SOL    HW231536   1.180   2.316   7.848 -1.7044  0.0986  1.9872
 6635SOL     OW31537   4.616   2.415  11.601  0.0041  0.4597  0.1135
 6635SOL    HW131538   4.671   2.386  11.529  0.7104  1.2591  0.3378
 6635SOL    HW231539   4.665   2.392  11.679 -0.5049 -0.8264  0.0627
 6636SOL     OW31540   2.248   3.660  10.566  0.7133 -0.0239  0.2415
 6636SOL    HW131541   2.342   3.659  10.584  0.9415 -1.9426 -1.0160
 6636SOL    HW231542   2.207   3.630  10.647  1.4930 -1.5103  0.0881
 6637SOL     OW31543   4.719   4.658   7.120  0.0318  0.0774 -0.1777
 6637SOL    HW131544   4.658   4.588   7.099 -2.1793  2.0527 -0.3349
 6637SOL    HW231545   0.060   4.616   7.083 -1.0154 -0.9565 -1.1845
 6638SOL     OW31546   3.410   4.254   0.423  0.2573  0.2447  0.3019
 6638SOL    HW131547   3.466   4.276   0.349 -0.4640 -0.5798 -0.4890
 6638SOL    HW231548   3.331   4.285   0.378 -0.0452 -0.8953  0.0264
 6639SOL     OW31549   3.435   3.072  13.478  0.7220 -0.4742 -0.8031
 6639SOL    HW131550   3.382   3.124  13.539 -0.0406  0.0645 -1.9249
 6639SOL    HW231551   3.434   3.132  13.404 -0.1119  0.7474  0.1835
 6640SOL     OW31552   1.096   0.877   8.062 -0.3851  0.5747  0.2470
 6640SOL    HW131553   1.155   0.822   8.010 -1.3289 -1.9365  1.7970
 6640SOL    HW231554   1.063   0.942   8.000  0.2448  1.5276  0.9293
 6641SOL     OW31555   1.708   3.004   9.274  0.3217 -0.0235  0.8249
 6641SOL    HW131556   1.636   3.058   9.241 -0.6018 -1.4338  0.5127
 6641SOL    HW231557   1.671   2.948   9.342  0.1454 -1.6866 -0.6448
 6642SOL     OW31558   2.788   2.331  11.499  0.3188  0.6738  0.6271
 6642SOL    HW131559   2.725   2.362  11.564  0.7932  0.3476  1.2430
 6642SOL    HW231560   2.843   2.268  11.547  1.1146  0.9991  0.1239
 6643SOL     OW31561   2.179   4.138   6.185 -0.2375 -0.2458  0.4142
 6643SOL    HW131562   2.178   4.148   6.090  0.2396  0.7068  0.5166
 6643SOL    HW231563   2.109   4.074   6.201 -1.7194  1.2637 -0.0653
 6644SOL     OW31564   4.165   0.037   8.160 -0.4282 -0.1344 -0.1626
 6644SOL    HW131565   4.109   0.114   8.154 -3.0684 -1.9732  0.7699
 6644SOL    HW231566   4.245   0.088   8.163 -0.0012 -0.9923  2.9616
 6645SOL     OW31567   0.376   0.314  12.236 -0.3359  0.3007 -0.4575
 6645SOL    HW131568   0.284   0.309  12.209 -0.6669 -0.4899  0.7931
 6645SOL    HW231569   0.426   0.298  12.156 -0.9984 -0.7686 -0.6543
 6646SOL     OW31570   0.840   1.153   7.773 -0.4329 -0.7503 -0.6170
 6646SOL    HW131571   0.812   1.082   7.715 -1.7965 -0.5739 -0.1627
 6646SOL    HW231572   0.898   1.197   7.711  2.0299  1.7015  3.4666
 6647SOL     OW31573   2.677   3.218  10.149 -0.1336 -0.2908  0.2273
 6647SOL    HW131574   2.673   3.314  10.157 -1.6168 -0.2962 -0.4587
 6647SOL    HW231575   2.753   3.209  10.207 -1.7907 -0.4176  2.3931
 6648SOL     OW31576   1.076   1.417   7.099  0.0749  0.2110 -0.4417
 6648SOL    HW131577   1.068   1.331   7.058 -1.5969  0.6811 -1.0794
 6648SOL    HW231578   1.114   1.387   7.182 -1.3130 -0.1978  0.0372
 6649SOL     OW31579   2.116   1.833   7.818  0.5789  0.0063  0.2491
 6649SOL    HW131580   2.196   1.856   7.865  0.3313 -0.5233  0.9170
 6649SOL    HW231581   2.149   1.746   7.793 -0.2419 -0.9413  2.4571
 6650SOL     OW31582   2.606   4.550   2.182  0.3560 -0.0721 -0.5095
 6650SOL    HW131583   2.564   4.616   2.127  0.5844  0.8144  0.3730
 6650SOL    HW231584   2.555   4.569   2.261 -0.4319 -0.3313 -0.9523
 6651SOL     OW31585   4.029   2.898   5.649  0.0492 -0.5524  0.2600
 6651SOL    HW131586   3.955   2.844   5.677 -0.8516  0.1453 -0.7808
 6651SOL    HW231587   4.072   2.910   5.734 -1.9058  0.7121  1.0687
 6652SOL     OW31588   3.206   1.711  14.578 -0.0477  0.1240  0.3177
 6652SOL    HW131589   3.237   1.636  14.629 -1.0306 -1.7667 -1.8359
 6652SOL    HW231590   3.216   1.783  14.640 -2.5279  1.1802 -0.5228
 6653SOL     OW31591   4.446   0.878   2.868  0.2538  0.3768 -0.3134
 6653SOL    HW131592   4.496   0.882   2.787 -0.0358  0.6000 -0.4800
 6653SOL    HW231593   4.381   0.813   2.841  2.0236 -1.3629 -0.3601
 6654SOL     OW31594   2.586   2.936   6.488  0.3628 -0.4554  0.0967
 6654SOL    HW131595   2.537   2.889   6.420  1.3765 -1.2917 -0.0500
 6654SOL    HW231596   2.617   3.006   6.430 -3.6825  1.0796 -0.2737
 6655SOL     OW31597   4.156   1.571   0.232 -0.1199 -0.4983  0.2498
 6655SOL    HW131598   4.103   1.583   0.311 -0.8250  0.9491 -0.4448
 6655SOL    HW231599   4.201   1.656   0.235  0.2085 -0.6748  0.4136
 6656SOL     OW31600   2.203   2.498   7.216 -0.3269 -0.4062  0.4159
 6656SOL    HW131601   2.178   2.464   7.302 -0.1180  1.2418  1.1339
 6656SOL    HW231602   2.225   2.585   7.249 -2.2146  0.7703 -1.4025
 6657SOL     OW31603   3.739   2.551   5.465  0.2542 -0.0021 -0.2649
 6657SOL    HW131604   3.830   2.566   5.488  0.2969 -1.6588  0.6273
 6657SOL    HW231605   3.701   2.636   5.485 -0.2063 -0.6044  1.4371
 6658SOL     OW31606   1.817   2.444  15.069  0.1255  0.4493  0.3560
 6658SOL    HW131607   1.722   2.440  15.077  0.3185  1.2947  3.0565
 6658SOL    HW231608   1.843   2.352  15.067  0.7123  0.6392 -0.8702
 6659SOL     OW31609   2.202   0.628   2.828  0.1446  0.3762  0.9829
 6659SOL    HW131610   2.147   0.559   2.790 -1.9904  2.1568  0.8248
 6659SOL    HW231611   2.228   0.667   2.744  0.8536 -0.9518  0.5878
 6660SOL     OW31612   1.784   3.164   5.101 -0.2170  0.4591 -0.3938
 6660SOL    HW131613   1.814   3.194   5.187 -1.1847  3.3226 -1.0525
 6660SOL    HW231614   1.703   3.208   5.077 -0.2370  1.1343  0.8719
 6661SOL     OW31615   4.695   3.030   7.784  0.3467  0.1093  0.1438
 6661SOL    HW131616   4.713   3.120   7.758  1.6375  0.0314  0.7326
 6661SOL    HW231617   0.007   2.989   7.712 -0.9560  1.6577 -1.6037
 6662SOL     OW31618   1.926   3.920   1.500  0.7850  0.3778 -0.1122
 6662SOL    HW131619   1.954   3.885   1.415 -0.6127  0.3579 -0.5629
 6662SOL    HW231620   1.908   3.838   1.545  2.2662  0.6320  0.9325
 6663SOL     OW31621   1.547   3.880   4.578  0.2264 -0.8491  0.0866
 6663SOL    HW131622   1.599   3.953   4.610 -1.6592  0.5381  0.0400
 6663SOL    HW231623   1.554   3.811   4.644  0.5328  0.5139  1.4517
 6664SOL     OW31624   4.228   1.125  15.245 -0.1359  0.0441 -0.3747
 6664SOL    HW131625   4.198   1.140  15.334  1.7460 -0.7316  0.3836
 6664SOL    HW231626   4.157   1.071  15.210 -0.0738 -0.2023 -0.1131
 6665SOL     OW31627   4.616   4.635   3.840  0.0841 -1.0165  0.1671
 6665SOL    HW131628   4.609   4.696   3.767 -0.2923 -1.5064 -0.2090
 6665SOL    HW231629   4.550   4.667   3.901 -1.2812 -0.3926 -1.6659
 6666SOL     OW31630   0.628   0.393   3.506  0.2204  0.0105  0.3733
 6666SOL    HW131631   0.635   0.299   3.495 -0.4218  0.1484 -1.2034
 6666SOL    HW231632   0.537   0.419   3.489 -0.1364 -1.5073 -0.0078
 6667SOL     OW31633   4.326   2.989   3.436 -0.1090 -0.2951 -0.3160
 6667SOL    HW131634   4.257   3.020   3.494 -1.2848 -0.4275 -1.6550
 6667SOL    HW231635   4.351   2.904   3.474 -1.7105 -0.6372 -0.0394
 6668SOL     OW31636   1.500   1.982  12.075  0.0341 -0.4340 -0.2222
 6668SOL    HW131637   1.405   1.989  12.089  0.2125 -0.7667  1.0901
 6668SOL    HW231638   1.492   1.962  11.981 -0.4049 -0.2701 -0.2187
 6669SOL     OW31639   3.931   3.276   8.930  0.0747 -0.0290  0.2934
 6669SOL    HW131640   4.024   3.298   8.928  0.8395 -3.5144 -0.9275
 6669SOL    HW231641   3.908   3.305   9.019  0.9691  2.7619 -0.3817
 6670SOL     OW31642   1.584   2.616   1.274  0.1761 -0.3499 -0.3836
 6670SOL    HW131643   1.562   2.547   1.211 -0.8773  0.0709 -0.4749
 6670SOL    HW231644   1.652   2.571   1.324 -0.7638 -0.5086  0.7354
 6671SOL     OW31645   1.839   2.411   5.773  0.3399 -0.1423 -0.0004
 6671SOL    HW131646   1.846   2.378   5.683 -1.7628  2.1935 -1.0236
 6671SOL    HW231647   1.860   2.503   5.755  1.7861 -0.5215 -0.2685
 6672SOL     OW31648   1.210   3.338   7.135 -0.2003 -0.1768  0.5336
 6672SOL    HW131649   1.225   3.246   7.159  0.3354 -0.6215 -1.5367
 6672SOL    HW231650   1.270   3.379   7.197 -0.5018  0.7333  0.2208
 6673SOL     OW31651   4.693   4.273   2.800  0.0824  0.0543 -0.2815
 6673SOL    HW131652   4.618   4.278   2.742 -0.3213 -0.7611  0.1710
 6673SOL    HW231653   4.684   4.341   2.867 -0.4004 -2.1783  1.9113
 6674SOL     OW31654   2.669   0.170  15.323 -0.2954  0.5531 -0.0144
 6674SOL    HW131655   2.658   0.117  15.244 -0.5041  0.6444 -0.0470
 6674SOL    HW231656   2.615   0.242  15.291  0.3442  0.7829 -0.5575
 6675SOL     OW31657   1.671   1.620   4.286  1.0294  0.5212 -0.2297
 6675SOL    HW131658   1.744   1.578   4.331  0.2033  0.6216  1.2148
 6675SOL    HW231659   1.691   1.708   4.317  0.9084  0.0912  1.0513
 6676SOL     OW31660   1.659   1.414   5.958 -0.2439  0.2912  0.3583
 6676SOL    HW131661   1.683   1.323   5.938 -0.8942  0.2219 -0.0801
 6676SOL    HW231662   1.646   1.450   5.871 -0.6347  0.4387  0.4808
 6677SOL     OW31663   0.658   3.075   0.823 -0.5985 -0.2943 -0.0253
 6677SOL    HW131664   0.584   3.118   0.780 -1.8802 -0.6721  1.7882
 6677SOL    HW231665   0.619   2.988   0.832 -1.1129  0.0932  1.4892
 6678SOL     OW31666   0.625   1.989  12.566 -0.4097  0.9843 -0.3501
 6678SOL    HW131667   0.535   1.960  12.554  0.3437 -1.5219  0.0462
 6678SOL    HW231668   0.652   1.965  12.654 -2.0012 -0.5719 -0.2885
 6679SOL     OW31669   3.099   3.695   6.953 -0.6696 -0.7249  0.3345
 6679SOL    HW131670   3.171   3.705   6.890 -0.4210  0.3827  0.7944
 6679SOL    HW231671   3.144   3.721   7.033  0.5015  3.1584 -1.6068
 6680SOL     OW31672   2.942   3.035   1.838 -0.5556 -0.1888 -0.3250
 6680SOL    HW131673   2.907   3.124   1.832  0.1149 -0.0854 -3.1635
 6680SOL    HW231674   3.036   3.050   1.838 -0.3282 -1.6164 -0.0716
 6681SOL     OW31675   4.020   2.394   5.355  0.5645 -0.0829  0.5327
 6681SOL    HW131676   4.077   2.441   5.295  1.0397 -2.1550 -0.6537
 6681SOL    HW231677   3.989   2.473   5.399  2.5059  1.2561 -0.5300
 6682SOL     OW31678   1.578   2.901  12.384 -0.2807  0.3935  0.0113
 6682SOL    HW131679   1.528   2.821  12.367 -0.2159  0.6465 -1.3647
 6682SOL    HW231680   1.655   2.886  12.329 -0.6971 -2.9348  0.3053
 6683SOL     OW31681   0.136   0.551   4.432 -0.2491 -0.5066 -0.0407
 6683SOL    HW131682   0.081   0.629   4.433 -0.2693 -0.5176 -0.2068
 6683SOL    HW231683   0.123   0.537   4.338 -3.8273 -1.0778  0.5350
 6684SOL     OW31684   2.545   4.526   4.391  0.4045  0.0676 -0.1824
 6684SOL    HW131685   2.567   4.434   4.399 -0.3808 -0.2496 -1.6966
 6684SOL    HW231686   2.610   4.564   4.450 -0.4104 -0.9079  1.3266
 6685SOL     OW31687   3.001   0.641   4.150 -0.1005 -0.1572 -0.5716
 6685SOL    HW131688   2.990   0.638   4.245  0.8912  2.1734 -0.3633
 6685SOL    HW231689   3.057   0.565   4.132  0.7822  0.8872 -2.2802
 6686SOL     OW31690   1.059   1.053   1.652  0.4361 -0.6477 -0.1203
 6686SOL    HW131691   0.975   1.094   1.632  0.1535 -0.6654  1.0522
 6686SOL    HW231692   1.118   1.127   1.663  0.1373 -0.8599  2.8131
 6687SOL     OW31693   3.155   3.920   5.706 -0.1237 -0.4866  0.1709
 6687SOL    HW131694   3.160   3.824   5.703  0.3226 -0.4562  0.0518
 6687SOL    HW231695   3.145   3.947   5.614  1.3071 -1.2110 -0.1989
 6688SOL     OW31696   3.828   3.337  12.783 -0.0303 -0.2896  0.2624
 6688SOL    HW131697   3.801   3.372  12.868 -0.1719 -3.5669  1.5446
 6688SOL    HW231698   3.766   3.367  12.716 -1.1652  1.3968  2.0521
 6689SOL     OW31699   3.029   0.824   9.002  0.2522 -0.2796 -0.2381
 6689SOL    HW131700   3.084   0.901   9.002 -0.6653  0.3779  0.6866
 6689SOL    HW231701   3.057   0.783   8.920  1.4679  1.6774 -0.7944
 6690SOL     OW31702   1.936   0.683   2.488  0.2906  0.0982  0.2428
 6690SOL    HW131703   1.976   0.636   2.561  0.7191  0.0490 -0.0257
 6690SOL    HW231704   1.926   0.763   2.539  1.4393  0.8691 -0.7499
 6691SOL     OW31705   3.076   1.013   6.922 -0.6011 -0.4445 -0.4735
 6691SOL    HW131706   3.109   1.074   6.987  0.7188 -1.4774 -0.1618
 6691SOL    HW231707   3.069   1.077   6.851  0.2686  1.3067  1.0492
 6692SOL     OW31708   3.111   2.042   4.841 -0.4637  0.7693  0.1695
 6692SOL    HW131709   3.093   1.950   4.861  1.3430  0.4431  0.3801
 6692SOL    HW231710   3.195   2.061   4.883  0.0339  0.2974 -0.5850
 6693SOL     OW31711   3.601   1.853   7.764 -0.2185 -0.0640  0.1890
 6693SOL    HW131712   3.621   1.792   7.694  0.7493 -1.0860  1.3524
 6693SOL    HW231713   3.683   1.902   7.772  0.2757 -0.7250 -0.7804
 6694SOL     OW31714   4.687   3.530   1.293  1.0268  0.0154 -0.3192
 6694SOL    HW131715   4.630   3.605   1.274 -0.9491 -0.9540  1.8612
 6694SOL    HW231716   4.634   3.496   1.364  1.3825 -1.1791 -0.6342
 6695SOL     OW31717   3.094   2.381   8.008  0.3854  0.6484 -0.1558
 6695SOL    HW131718   3.069   2.389   7.916  0.8745 -0.3931 -0.3815
 6695SOL    HW231719   3.022   2.422   8.056  0.2856  1.3285 -0.8901
 6696SOL     OW31720   2.763   4.422  12.079  0.1351  0.0373 -0.3645
 6696SOL    HW131721   2.710   4.498  12.102 -0.2178  0.3528 -2.2752
 6696SOL    HW231722   2.768   4.432  11.984  0.9631 -0.9466 -0.4292
 6697SOL     OW31723   1.941   2.208   5.576 -0.0682 -0.8155 -0.6485
 6697SOL    HW131724   1.905   2.255   5.502  1.3390  0.6781 -0.3724
 6697SOL    HW231725   1.862   2.159   5.598 -1.9809  0.9476 -3.7716
 6698SOL     OW31726   1.485   1.717   2.700 -0.5370  0.5415  0.4512
 6698SOL    HW131727   1.435   1.786   2.744 -2.2292 -0.0043 -0.6195
 6698SOL    HW231728   1.546   1.765   2.644  0.8329 -0.1879  1.3040
 6699SOL     OW31729   0.458   1.723   2.067  0.1106 -0.7923 -0.3537
 6699SOL    HW131730   0.392   1.712   2.135 -0.3581  1.7004 -0.4033
 6699SOL    HW231731   0.502   1.800   2.104  0.0644 -0.2961 -1.3059
 6700SOL     OW31732   2.249   2.517   2.385  0.3675 -0.0487 -0.4386
 6700SOL    HW131733   2.270   2.433   2.345  2.0708 -0.4269  1.2273
 6700SOL    HW231734   2.314   2.575   2.345  0.5407  0.3295  0.3849
 6701SOL     OW31735   4.657   1.913   8.540  0.4077  0.0785  0.1222
 6701SOL    HW131736   4.618   1.841   8.589  0.1713 -0.5867 -1.0359
 6701SOL    HW231737   4.662   1.978   8.610 -1.9116 -0.6027  0.9273
 6702SOL     OW31738   1.751   0.761   8.103 -0.4885 -0.0684 -0.1845
 6702SOL    HW131739   1.806   0.757   8.025 -0.2723  1.9463 -0.1492
 6702SOL    HW231740   1.694   0.837   8.088  1.5137  1.7312  1.2332
 6703SOL     OW31741   4.185   2.264   8.794  0.1800  0.0172 -0.4284
 6703SOL    HW131742   4.240   2.187   8.795 -2.7298 -2.0657 -1.8639
 6703SOL    HW231743   4.100   2.226   8.816  0.8651 -1.0314  0.3849
 6704SOL     OW31744   0.794   1.535   5.631  0.1577 -0.0563 -0.4997
 6704SOL    HW131745   0.752   1.609   5.675  0.1577  0.3293 -1.1577
 6704SOL    HW231746   0.885   1.560   5.615 -0.2346  2.0250  0.4634
 6705SOL     OW31747   1.815   3.543   5.410 -0.1498 -0.0300  0.2059
 6705SOL    HW131748   1.907   3.569   5.416  0.2253 -1.1215 -0.8655
 6705SOL    HW231749   1.786   3.611   5.350  0.9094 -0.5411 -0.8883
 6706SOL     OW31750   2.730   3.636  16.142 -1.0280 -0.2904  0.1403
 6706SOL    HW131751   2.751   3.698  16.212  0.3315 -0.4004 -0.1736
 6706SOL    HW231752   2.805   3.662  16.089  1.3921  0.6096  4.0067
 6707SOL     OW31753   0.769   2.124  17.683  0.2043  0.5115  0.0620
 6707SOL    HW131754   0.785   2.115   0.032 -0.5362 -0.9634  0.0505
 6707SOL    HW231755   0.708   2.052  17.667  2.8817 -1.3798 -1.7023
 6708SOL     OW31756   2.679   3.570   6.726 -0.3448 -0.1232 -0.0721
 6708SOL    HW131757   2.762   3.607   6.755  0.1328  0.8521 -2.7273
 6708SOL    HW231758   2.708   3.483   6.698 -0.1022  0.0476 -0.3484
 6709SOL     OW31759   0.576   1.256   1.555 -0.3809 -0.1978 -0.0006
 6709SOL    HW131760   0.555   1.296   1.639  0.4753 -1.5479  0.8418
 6709SOL    HW231761   0.488   1.246   1.519 -0.3348  0.4386 -0.2983
 6710SOL     OW31762   1.151   4.377  16.949 -0.4037 -0.5350 -0.4220
 6710SOL    HW131763   1.072   4.353  16.900  2.0875 -2.6566 -3.3475
 6710SOL    HW231764   1.126   4.351  17.038  2.7396  0.6514  0.7992
 6711SOL     OW31765   2.677   3.159   6.383 -0.3121  0.3315 -0.3702
 6711SOL    HW131766   2.769   3.133   6.389 -0.7143 -0.7415  0.9303
 6711SOL    HW231767   2.669   3.193   6.293  1.2262  1.3516 -0.1260
 6712SOL     OW31768   0.075   1.800   6.660  0.4568 -0.0970 -0.0642
 6712SOL    HW131769   0.088   1.887   6.698  1.4283  0.3187 -1.3534
 6712SOL    HW231770   4.717   1.785   6.669  0.5807 -0.0153  1.4501
 6713SOL     OW31771   4.175   0.875   5.088  0.5287 -0.3405  0.4783
 6713SOL    HW131772   4.149   0.917   5.006 -0.6703 -1.4244  0.3038
 6713SOL    HW231773   4.268   0.865   5.068  1.0132  2.0606  1.5770
 6714SOL     OW31774   2.128   1.375  11.857 -0.1071 -0.5261 -0.1843
 6714SOL    HW131775   2.051   1.320  11.840 -0.3481  0.2782 -1.7245
 6714SOL    HW231776   2.140   1.436  11.784 -0.0939  0.0967  0.3415
 6715SOL     OW31777   2.847   1.855  10.753 -0.5173  0.6185 -0.6969
 6715SOL    HW131778   2.876   1.939  10.717 -2.0223  1.2373 -0.4940
 6715SOL    HW231779   2.814   1.886  10.837  0.9046  1.6154 -0.4989
 6716SOL     OW31780   2.353   4.196   2.026 -0.1936 -0.0753 -0.3123
 6716SOL    HW131781   2.384   4.234   2.109 -0.6953  0.0552 -0.1871
 6716SOL    HW231782   2.277   4.252   2.014  1.1802  1.8251 -0.2653
 6717SOL     OW31783   0.289   0.932   0.852  0.0777 -0.2195  0.1194
 6717SOL    HW131784   0.235   0.948   0.775 -0.3016  1.8682  0.8155
 6717SOL    HW231785   0.339   1.014   0.852  0.9411 -0.7528 -0.8095
 6718SOL     OW31786   0.734   0.256   5.280 -0.0939  0.5396 -0.2522
 6718SOL    HW131787   0.719   0.347   5.309  1.0452  0.6064  0.1241
 6718SOL    HW231788   0.781   0.216   5.353 -2.1475  2.3998  2.1256
 6719SOL     OW31789   2.215   0.465   3.182  0.2236 -0.3559 -0.0782
 6719SOL    HW131790   2.259   0.476   3.266  1.8640  0.2043 -1.0238
 6719SOL    HW231791   2.180   0.376   3.182  1.1855 -0.7286  1.2634
 6720SOL     OW31792   4.398   0.384   2.767  0.3054  0.9955 -0.2329
 6720SOL    HW131793   4.341   0.307   2.758  0.6798  0.6647  0.1759
 6720SOL    HW231794   4.456   0.375   2.691 -0.1803  1.4321 -0.6530
 6721SOL     OW31795   1.276   2.275   5.994  0.1136 -0.1331 -0.2789
 6721SOL    HW131796   1.313   2.284   6.082 -0.1049 -0.1973 -0.1814
 6721SOL    HW231797   1.194   2.231   6.017  0.4119 -1.3782 -1.6119
 6722SOL     OW31798   3.767   0.202   4.314 -0.2131 -0.1931 -0.0041
 6722SOL    HW131799   3.827   0.276   4.319 -0.3054 -0.0535 -1.0067
 6722SOL    HW231800   3.726   0.222   4.230 -1.2544 -3.3274 -0.2531
 6723SOL     OW31801   0.224   0.437   7.405  0.2768 -0.7161 -0.3690
 6723SOL    HW131802   0.216   0.532   7.405 -0.6025 -0.7909 -0.8343
 6723SOL    HW231803   0.240   0.412   7.314 -1.7177  0.4545 -1.0323
 6724SOL     OW31804   2.888   4.680   3.159 -0.5930  0.1037  0.5263
 6724SOL    HW131805   2.812   4.691   3.102  0.2426  1.5984 -0.3230
 6724SOL    HW231806   2.960   4.683   3.095 -1.7252 -0.6258 -0.7723
 6725SOL     OW31807   2.303   4.050   2.924  0.1925 -0.1785 -0.0581
 6725SOL    HW131808   2.238   3.980   2.916  0.1410 -0.0597 -0.7629
 6725SOL    HW231809   2.253   4.115   2.974  0.1161 -0.6298  0.4489
 6726SOL     OW31810   3.528   2.942   0.350 -0.8645 -0.6714 -0.8796
 6726SOL    HW131811   3.520   3.034   0.323  1.1474  0.1402  1.3038
 6726SOL    HW231812   3.467   2.942   0.424 -0.6206 -0.1824 -0.6766
 6727SOL     OW31813   1.865   2.012   4.968 -0.1649  0.3120 -0.3422
 6727SOL    HW131814   1.778   2.050   4.958  0.7073  2.3517 -0.1590
 6727SOL    HW231815   1.896   2.015   4.877 -1.0993 -0.1490 -0.6791
 6728SOL     OW31816   1.024   3.925   7.991 -0.1221 -0.3221  0.2642
 6728SOL    HW131817   1.035   3.983   7.916  1.8738 -1.2486 -0.1424
 6728SOL    HW231818   0.934   3.953   8.011  0.5420  2.2545 -0.3572
 6729SOL     OW31819   4.182   4.588   4.461 -0.2006 -0.3269 -0.2675
 6729SOL    HW131820   4.174   4.499   4.427 -0.0905 -1.1913  2.0065
 6729SOL    HW231821   4.182   4.643   4.382  2.1573 -0.3884 -0.3005
 6730SOL     OW31822   2.092   0.447   6.812 -0.2515  0.0565 -0.4349
 6730SOL    HW131823   2.068   0.539   6.822  1.3891  0.4344  0.1452
 6730SOL    HW231824   2.033   0.402   6.871  0.0204  2.2753  1.5370
 6731SOL     OW31825   0.712   1.267  14.316  0.1098 -0.0257  0.7743
 6731SOL    HW131826   0.635   1.212  14.326 -1.3179  1.8572  0.2351
 6731SOL    HW231827   0.687   1.334  14.379 -1.1025  1.9894 -1.8211
 6732SOL     OW31828   4.165   3.691   7.745 -0.3962 -0.0178 -0.1579
 6732SOL    HW131829   4.123   3.708   7.661 -1.7102 -0.5028  0.3978
 6732SOL    HW231830   4.255   3.680   7.714 -0.5405  0.5885 -0.7876
 6733SOL     OW31831   4.620   4.638   5.092  0.3340 -0.1530  0.7178
 6733SOL    HW131832   4.592   4.555   5.053 -1.1213  0.8272 -0.3225
 6733SOL    HW231833   4.535   4.682   5.100  1.3541  1.7536  1.2466
 6734SOL     OW31834   1.248   1.289  14.698  0.4413 -0.0074  0.4056
 6734SOL    HW131835   1.263   1.199  14.724  0.2280  0.1436  1.0597
 6734SOL    HW231836   1.236   1.283  14.604  0.9580 -3.2485  0.5676
 6735SOL     OW31837   1.533   3.287   3.225  0.3688 -0.0008 -0.0240
 6735SOL    HW131838   1.584   3.261   3.301  1.3060  0.3855 -0.5179
 6735SOL    HW231839   1.584   3.243   3.157 -0.8249 -2.4494  0.7003
 6736SOL     OW31840   1.209   3.275   0.444  0.0089  0.1469  0.1268
 6736SOL    HW131841   1.268   3.314   0.509  0.1955 -0.4244  0.2955
 6736SOL    HW231842   1.248   3.319   0.368  2.0863 -1.2566  0.3827
 6737SOL     OW31843   4.446   2.419   1.107  0.3851 -0.4007 -0.4378
 6737SOL    HW131844   4.525   2.375   1.138 -0.3534 -0.1487  1.8017
 6737SOL    HW231845   4.487   2.497   1.071 -2.5702  0.7418 -1.3795
 6738SOL     OW31846   0.860   1.750   5.175 -0.4934 -0.5291 -0.6272
 6738SOL    HW131847   0.847   1.659   5.148  1.8034 -0.9937 -0.1355
 6738SOL    HW231848   0.884   1.782   5.087 -1.9757 -1.2498 -1.2866
 6739SOL     OW31849   1.708   1.767  12.449 -0.0346  0.0004  0.2447
 6739SOL    HW131850   1.799   1.766  12.477  0.4416  0.3373 -1.2695
 6739SOL    HW231851   1.713   1.775  12.353  2.2820  0.2385  0.3866
 6740SOL     OW31852   1.854   4.183   0.085  0.0149  0.4719 -0.0939
 6740SOL    HW131853   1.832   4.213  17.741 -1.6630 -1.6933 -0.4041
 6740SOL    HW231854   1.772   4.152   0.124 -0.8352  2.5355 -0.2146
 6741SOL     OW31855   2.653   3.411   5.079 -0.8965  0.0696  0.4875
 6741SOL    HW131856   2.655   3.495   5.035  0.8107 -0.7363 -0.9896
 6741SOL    HW231857   2.747   3.389   5.076 -1.2311 -1.1363 -1.0617
 6742SOL     OW31858   1.284   3.006  13.446 -0.2584  0.0182  0.1904
 6742SOL    HW131859   1.200   3.030  13.484 -0.9500 -0.7065 -0.8842
 6742SOL    HW231860   1.330   2.998  13.530  2.1144 -1.5655 -1.2662
 6743SOL     OW31861   3.895   1.512  12.841  0.2135  0.3719  0.2858
 6743SOL    HW131862   3.974   1.533  12.791  0.7078  0.3563  1.0591
 6743SOL    HW231863   3.919   1.435  12.891  0.6973 -0.4030 -1.1254
 6744SOL     OW31864   4.272   3.319   2.344  0.4557  0.6162 -0.2899
 6744SOL    HW131865   4.354   3.275   2.366 -0.8438 -1.2156  0.8279
 6744SOL    HW231866   4.252   3.259   2.272  0.8965  2.4147 -1.9174
 6745SOL     OW31867   4.634   4.633   2.802 -0.1574 -0.6128 -0.5582
 6745SOL    HW131868   4.707   4.591   2.756  0.5409  0.8625 -0.8007
 6745SOL    HW231869   4.683   4.670   2.875  1.2495 -0.3064 -1.6385
 6746SOL     OW31870   1.172   4.030   1.859  0.2964 -0.1211  0.0728
 6746SOL    HW131871   1.224   3.998   1.933 -0.4881 -2.5829 -0.4353
 6746SOL    HW231872   1.194   3.975   1.784 -0.0449 -1.2078  0.7711
 6747SOL     OW31873   3.479   0.579   6.277 -0.6979 -0.1141  0.1426
 6747SOL    HW131874   3.387   0.583   6.252 -0.3009  2.3800 -0.9342
 6747SOL    HW231875   3.481   0.489   6.311  2.5258 -0.8517 -1.9727
 6748SOL     OW31876   0.212   4.644   3.587 -0.4523  0.2297 -0.6123
 6748SOL    HW131877   0.300   4.677   3.570  0.1950 -2.0889 -1.7914
 6748SOL    HW231878   0.188   4.623   3.496  0.5954 -1.0015 -0.5985
 6749SOL     OW31879   3.863   4.296  17.730  0.4503  0.0267  0.5471
 6749SOL    HW131880   3.830   4.356  17.663 -0.8070  0.4272  1.5335
 6749SOL    HW231881   3.927   4.354   0.026  1.5004 -0.7535  0.0072
 6750SOL     OW31882   2.090   2.397   1.522  0.2411  0.1415  0.4465
 6750SOL    HW131883   2.050   2.432   1.601  0.3022 -1.3790  1.1546
 6750SOL    HW231884   2.137   2.474   1.489 -0.1033  0.4328  0.6338
 6751SOL     OW31885   1.568   4.535   5.318 -0.1610 -0.5481 -0.2657
 6751SOL    HW131886   1.480   4.566   5.336  0.4702  1.1462 -0.0686
 6751SOL    HW231887   1.550   4.468   5.253 -0.3122 -0.9170  0.1595
 6752SOL     OW31888   3.603   1.021  15.515  0.1952 -0.4391  0.0881
 6752SOL    HW131889   3.615   1.010  15.421 -0.0943  0.3281 -0.0425
 6752SOL    HW231890   3.577   1.113  15.506 -1.0457 -0.7717  0.3023
 6753SOL     OW31891   0.476   1.780   6.914 -0.4776  0.0178  0.4631
 6753SOL    HW131892   0.542   1.849   6.926 -0.3731  0.0712 -0.4083
 6753SOL    HW231893   0.400   1.830   6.945 -0.8420  1.1397 -2.2522
 6754SOL     OW31894   0.841   0.060   2.803  0.0471 -0.0454  0.4040
 6754SOL    HW131895   0.853   0.029   2.892 -0.7899 -0.9098  0.2216
 6754SOL    HW231896   0.912   0.122   2.790  0.0714 -0.5789 -2.1515
 6755SOL     OW31897   2.779   2.637  17.354 -0.2056 -0.0309 -0.2940
 6755SOL    HW131898   2.787   2.586  17.434  0.4722 -1.0548 -1.0214
 6755SOL    HW231899   2.684   2.637  17.350 -0.2040 -1.3016 -0.0474
 6756SOL     OW31900   2.284   1.977   2.538 -0.6434  0.6224  0.1928
 6756SOL    HW131901   2.291   1.913   2.609  0.5595  0.1319 -0.3615
 6756SOL    HW231902   2.375   2.005   2.526 -0.2531 -0.7059  0.0581
 6757SOL     OW31903   2.397   4.251   8.068  0.2446 -0.4780  0.1738
 6757SOL    HW131904   2.321   4.240   8.125  0.2894  0.9241  0.5052
 6757SOL    HW231905   2.385   4.339   8.033  0.2940  0.0336  1.4520
 6758SOL     OW31906   3.169   3.644   4.327 -0.2807 -0.1842  0.4944
 6758SOL    HW131907   3.164   3.709   4.256 -2.6519 -0.1369  0.6988
 6758SOL    HW231908   3.078   3.614   4.325  0.2700 -1.7465 -0.9521
 6759SOL     OW31909   3.968   4.631   7.663  0.1095 -0.0905  0.5656
 6759SOL    HW131910   3.942   4.687   7.589  0.2994 -0.7238  0.0178
 6759SOL    HW231911   4.032   4.573   7.622 -1.6679 -0.9350 -1.0228
 6760SOL     OW31912   1.470   4.626  16.290 -0.4776 -0.1323 -0.2873
 6760SOL    HW131913   1.519   4.708  16.289 -0.7980  0.0560 -1.6198
 6760SOL    HW231914   1.511   4.568  16.226  0.1924  1.3490 -1.1950
 6761SOL     OW31915   2.273   0.289  11.215 -0.2083  0.2720  0.4482
 6761SOL    HW131916   2.331   0.263  11.144  2.0121 -2.0525  3.1356
 6761SOL    HW231917   2.340   0.338  11.262  0.7456  1.3804 -2.1063
 6762SOL     OW31918   4.282   0.779   1.491  0.6067  1.5004 -0.0964
 6762SOL    HW131919   4.285   0.869   1.522 -0.3277  2.0304 -1.5558
 6762SOL    HW231920   4.306   0.788   1.399  0.9607 -2.4967 -0.4115
 6763SOL     OW31921   0.552   0.333   5.769 -0.1163 -0.2292 -0.3349
 6763SOL    HW131922   0.574   0.426   5.773 -0.6008 -0.1516  0.5647
 6763SOL    HW231923   0.625   0.304   5.715  1.6047 -1.5391  2.6986
 6764SOL     OW31924   0.925   1.226   8.385 -0.7782 -0.2755 -0.2412
 6764SOL    HW131925   0.939   1.315   8.352 -1.3218 -0.5900 -1.3423
 6764SOL    HW231926   1.013   1.195   8.362 -0.3463  1.6591 -1.2128
 6765SOL     OW31927   0.942   1.852  11.407 -0.2138  0.3034 -0.0839
 6765SOL    HW131928   0.881   1.801  11.459  0.0539  1.8186  1.7028
 6765SOL    HW231929   1.022   1.817  11.447  0.8705  2.2325 -0.5444
 6766SOL     OW31930   2.573   1.622   5.716  0.2253 -0.0759 -0.6613
 6766SOL    HW131931   2.652   1.676   5.716  2.2410 -3.0334 -0.4433
 6766SOL    HW231932   2.506   1.690   5.730 -0.6246 -1.0143 -0.1512
 6767SOL     OW31933   0.446   1.081  13.895  0.5161  0.3773  0.3153
 6767SOL    HW131934   0.502   1.127  13.832 -3.5114  2.0766 -1.9797
 6767SOL    HW231935   0.380   1.144  13.924 -0.8053  0.3721 -2.5990
 6768SOL     OW31936   2.790   4.634   8.378  0.2606 -0.1349  0.1971
 6768SOL    HW131937   2.700   4.628   8.411  0.0558 -0.9641 -0.5323
 6768SOL    HW231938   2.778   4.678   8.294 -1.4150 -0.6288  0.1808
 6769SOL     OW31939   2.618   3.714   5.886 -0.7055  0.0582 -0.1649
 6769SOL    HW131940   2.633   3.807   5.872 -0.8462 -0.1207 -1.5332
 6769SOL    HW231941   2.534   3.721   5.931  0.2304 -2.6835  2.0172
 6770SOL     OW31942   4.119   0.848  11.549 -0.4697 -0.1442 -0.0578
 6770SOL    HW131943   4.162   0.763  11.542  1.1373  0.9941 -3.7728
 6770SOL    HW231944   4.128   0.864  11.643 -0.9696 -2.1361  0.3454
 6771SOL     OW31945   3.773   0.258  17.041 -0.4266  0.1197  0.0346
 6771SOL    HW131946   3.800   0.273  16.950 -2.0613 -0.4035 -0.5309
 6771SOL    HW231947   3.832   0.313  17.093 -0.5821 -0.0094  0.3443
 6772SOL     OW31948   4.407   2.331   7.812  0.0019  0.3697  0.3123
 6772SOL    HW131949   4.420   2.289   7.726 -2.4273  1.3829 -0.5472
 6772SOL    HW231950   4.338   2.391   7.784  1.0477 -0.1084 -3.3186
 6773SOL     OW31951   1.054   4.392   6.385  0.4985  0.0322 -0.0923
 6773SOL    HW131952   1.062   4.398   6.480  2.3112  0.0021 -0.2327
 6773SOL    HW231953   1.018   4.306   6.367  0.6676 -0.0268 -0.1478
 6774SOL     OW31954   4.630   2.609   6.137  0.2402  0.5077 -0.2375
 6774SOL    HW131955   4.537   2.632   6.139 -0.2127 -1.2960 -0.5655
 6774SOL    HW231956   4.626   2.514   6.131  0.6747  0.6329 -2.6955
 6775SOL     OW31957   1.991   3.581   1.007  0.4450 -0.0357 -0.1997
 6775SOL    HW131958   2.079   3.544   1.015  0.2953 -0.5226 -0.7707
 6775SOL    HW231959   1.937   3.502   1.004 -1.3035  1.0978  1.7799
 6776SOL     OW31960   2.875   3.365   6.053  0.8574 -0.3319  0.0141
 6776SOL    HW131961   2.882   3.452   6.013 -0.7965  0.4284  1.3554
 6776SOL    HW231962   2.966   3.350   6.076  0.9622  0.3141  0.0103
 6777SOL     OW31963   0.357   1.933   5.978 -0.0587 -0.1094  0.2855
 6777SOL    HW131964   0.277   1.881   5.986 -0.7388  0.5781 -2.1197
 6777SOL    HW231965   0.328   2.008   5.927  2.1900 -0.8949 -2.1217
 6778SOL     OW31966   2.339   0.420   9.579  0.7043  0.0596  0.3990
 6778SOL    HW131967   2.330   0.388   9.669  0.5005 -0.9583  0.0186
 6778SOL    HW231968   2.333   0.515   9.588 -1.2400  0.3082 -3.3584
 6779SOL     OW31969   1.959   4.236   2.892 -0.5309 -0.3207  0.3892
 6779SOL    HW131970   1.971   4.242   2.987  2.1263 -1.2794  0.1332
 6779SOL    HW231971   1.890   4.170   2.882 -1.3338  0.6709 -0.6271
 6780SOL     OW31972   4.068   4.423   5.571  0.0311  0.3752  0.1076
 6780SOL    HW131973   4.015   4.346   5.591 -0.7963  0.5628 -1.3570
 6780SOL    HW231974   3.998   4.488   5.568  1.8824  2.3688  0.2263
 6781SOL     OW31975   1.685   3.247   8.956 -0.2809  0.4511  0.1771
 6781SOL    HW131976   1.608   3.191   8.964 -0.2807  0.0820 -2.4967
 6781SOL    HW231977   1.649   3.332   8.930 -0.2185  1.4888  3.4639
 6782SOL     OW31978   3.679   3.453   3.048 -0.1115 -0.4175 -0.3399
 6782SOL    HW131979   3.690   3.541   3.084  1.2147  0.4969 -2.9774
 6782SOL    HW231980   3.771   3.441   3.023 -0.8330 -2.2718 -2.1297
 6783SOL     OW31981   1.369   2.466   1.485 -0.1395  0.1794  0.2673
 6783SOL    HW131982   1.287   2.429   1.518 -0.3503  0.0361 -0.4083
 6783SOL    HW231983   1.332   2.517   1.413  0.0206 -2.4871 -1.7037
 6784SOL     OW31984   0.285   0.776   6.555 -0.5165 -0.0778  0.1700
 6784SOL    HW131985   0.236   0.694   6.545 -0.3457 -0.1612  0.0281
 6784SOL    HW231986   0.254   0.816   6.637 -0.3881  2.7963 -1.1738
 6785SOL     OW31987   3.670   3.442   6.122 -0.0457  0.4895  0.0650
 6785SOL    HW131988   3.643   3.395   6.043  0.0765 -1.1899  1.0398
 6785SOL    HW231989   3.637   3.386   6.192  0.6806  1.0033  0.8093
 6786SOL     OW31990   3.546   0.758   6.474  1.0416 -0.2056 -0.6562
 6786SOL    HW131991   3.513   0.676   6.437  1.3766 -0.4061 -0.5143
 6786SOL    HW231992   3.632   0.770   6.433  1.5846  0.6514  0.7586
 6787SOL     OW31993   0.545   1.277   4.871 -0.1966  0.1319 -0.2304
 6787SOL    HW131994   0.539   1.188   4.837 -1.3440  0.7433 -1.6475
 6787SOL    HW231995   0.547   1.321   4.786 -0.6259  2.6924  1.0715
 6788SOL     OW31996   3.746   0.272   7.686  0.3102  0.8178 -0.5976
 6788SOL    HW131997   3.719   0.252   7.776  1.8217  0.6407 -0.1803
 6788SOL    HW231998   3.703   0.356   7.672  0.5012  1.0494  0.1600
 6789SOL     OW31999   0.257   4.164   7.422 -0.0928 -0.0055 -0.4832
 6789SOL    HW132000   0.277   4.241   7.370 -2.2216  0.2258 -0.9592
 6789SOL    HW232001   0.324   4.179   7.489  0.7810 -1.4671 -1.0244
 6790SOL     OW32002   2.810   2.935  17.680  0.5866  0.1220  0.1398
 6790SOL    HW132003   2.866   2.883  17.737  1.1302  0.0349 -0.4633
 6790SOL    HW232004   2.742   2.868  17.676 -1.3808  2.0211  1.9786
 6791SOL     OW32005   2.049   2.420   2.682 -0.3646 -0.4435 -0.1547
 6791SOL    HW132006   2.089   2.411   2.769  1.0012 -0.9044 -0.8276
 6791SOL    HW232007   2.082   2.339   2.645  0.1652  0.3845 -1.4793
 6792SOL     OW32008   2.466   2.028   7.365 -0.7413  0.0275  0.3208
 6792SOL    HW132009   2.473   1.970   7.289  0.5071 -0.5109  0.8566
 6792SOL    HW232010   2.392   2.085   7.345 -0.9347 -0.1583  0.5069
 6793SOL     OW32011   4.390   2.700   6.835  0.3006  0.4928 -0.0075
 6793SOL    HW132012   4.349   2.714   6.921 -0.9930 -1.7194 -0.2773
 6793SOL    HW232013   4.356   2.776   6.787 -1.2391 -0.3947 -0.3088
 6794SOL     OW32014   1.710   3.568   6.121  0.1249 -0.6101  0.3298
 6794SOL    HW132015   1.719   3.663   6.116 -2.4593 -0.4010 -0.6936
 6794SOL    HW232016   1.797   3.534   6.139  0.5906  0.0097 -0.7919
 6795SOL     OW32017   0.466   4.238   2.507 -0.0536 -0.0235 -0.5121
 6795SOL    HW132018   0.448   4.160   2.559 -0.7856  0.9294  0.6568
 6795SOL    HW232019   0.492   4.200   2.423 -0.1712  0.4221 -0.7496
 6796SOL     OW32020   0.778   4.614   1.762  0.0938  0.2928 -0.3620
 6796SOL    HW132021   0.773   4.596   1.668  2.7134  0.9533 -0.6325
 6796SOL    HW232022   0.719   4.689   1.760  0.6551  0.8029  2.1767
 6797SOL     OW32023   3.548   3.220   3.007  0.1835 -0.0868  0.3126
 6797SOL    HW132024   3.587   3.306   3.019 -2.3407  1.0170  0.6723
 6797SOL    HW232025   3.629   3.171   2.998  1.5010  2.0247  0.7674
 6798SOL     OW32026   4.137   3.733   5.104 -0.7808  0.3102 -0.1641
 6798SOL    HW132027   4.152   3.784   5.183  0.1192 -0.2756  0.0502
 6798SOL    HW232028   4.042   3.730   5.114 -0.6036 -2.2520  0.8787
 6799SOL     OW32029   0.205   0.013   8.126 -0.4882  0.1694 -0.5104
 6799SOL    HW132030   0.290   0.005   8.169 -1.8235 -1.2838  1.8819
 6799SOL    HW232031   0.162   0.005   8.211 -0.1788  0.3965 -0.3330
 6800SOL     OW32032   1.541   2.241   1.408 -0.7448 -0.2215  0.1958
 6800SOL    HW132033   1.465   2.293   1.437  0.1964  0.2973  1.7180
 6800SOL    HW232034   1.494   2.205   1.333  0.1174 -1.3484  0.2000
 6801SOL     OW32035   1.520   4.490   7.196 -0.0783  0.0494 -0.4817
 6801SOL    HW132036   1.433   4.493   7.237 -0.2830 -0.8332 -0.8517
 6801SOL    HW232037   1.572   4.541   7.258 -2.7690  1.3581  0.6738
 6802SOL     OW32038   0.759   4.263   7.256  0.0577  0.2640 -0.5247
 6802SOL    HW132039   0.695   4.198   7.225 -0.1536 -0.0399  0.5331
 6802SOL    HW232040   0.828   4.247   7.193  0.8752  2.4893 -0.1721
 6803SOL     OW32041   0.443   0.481   4.339 -0.2917  0.4870  0.0115
 6803SOL    HW132042   0.529   0.439   4.335 -1.0490 -1.2449  1.7459
 6803SOL    HW232043   0.420   0.479   4.432 -1.9319 -0.3278 -0.4015
 6804SOL     OW32044   3.792   2.001   7.418  0.0492  0.0737 -0.4225
 6804SOL    HW132045   3.870   1.963   7.378 -2.1193 -1.6564 -2.9718
 6804SOL    HW232046   3.793   1.977   7.510 -0.6188 -1.2384 -0.7575
 6805SOL     OW32047   1.341   0.770   5.921 -0.2972  0.0322 -0.1032
 6805SOL    HW132048   1.347   0.865   5.923 -1.3424  0.0749  0.6543
 6805SOL    HW232049   1.433   0.754   5.901 -0.5967  1.3873 -2.6396
 6806SOL     OW32050   3.970   0.645  14.247  0.0514 -0.3425 -0.3075
 6806SOL    HW132051   4.064   0.634  14.261  0.3254 -1.6109 -3.1750
 6806SOL    HW232052   3.963   0.592  14.168  0.5638  1.2706 -1.4306
 6807SOL     OW32053   1.478   0.727   7.611 -0.1405 -0.0673  0.4765
 6807SOL    HW132054   1.566   0.763   7.597  0.8229 -2.3053  0.8611
 6807SOL    HW232055   1.477   0.665   7.538  0.4544 -2.3701  2.4387
 6808SOL     OW32056   3.619   1.176   9.016 -0.7925  0.5865  0.0860
 6808SOL    HW132057   3.565   1.255   9.011 -1.7067  0.0134  1.0420
 6808SOL    HW232058   3.574   1.146   9.095  1.3510  2.0988  1.8766
 6809SOL     OW32059   3.761   1.151   2.048 -0.8935 -0.7420  0.0104
 6809SOL    HW132060   3.733   1.194   1.967 -2.9665 -1.1470  0.5069
 6809SOL    HW232061   3.818   1.087   2.006  0.2135  0.2213  0.0632
 6810SOL     OW32062   4.723   1.427   3.212 -0.2174 -0.0087  0.8676
 6810SOL    HW132063   0.003   1.364   3.282 -0.4248 -2.6964 -1.4960
 6810SOL    HW232064   0.054   1.494   3.224  0.1088  0.0109 -1.0521
 6811SOL     OW32065   0.551   4.376  11.681 -0.4497 -0.0314  0.4197
 6811SOL    HW132066   0.561   4.357  11.775  0.6722 -0.0939  0.2839
 6811SOL    HW232067   0.471   4.331  11.654 -1.5092  1.9473  0.2747
 6812SOL     OW32068   4.364   4.663   7.892 -0.0149  0.2994 -0.3594
 6812SOL    HW132069   4.276   4.629   7.907 -0.3364  1.2604 -0.0426
 6812SOL    HW232070   4.336   0.001   7.839 -1.1787  0.4321  0.4355
 6813SOL     OW32071   1.978   2.237   3.165  0.5489  0.2954  0.2567
 6813SOL    HW132072   1.967   2.270   3.254  0.6341  1.5885 -0.2112
 6813SOL    HW232073   1.891   2.239   3.125  1.3874 -1.0288 -1.6655
 6814SOL     OW32074   2.882   3.340  14.106  0.1786 -0.3581 -0.0192
 6814SOL    HW132075   2.926   3.421  14.083  0.8954 -0.2151  1.8714
 6814SOL    HW232076   2.789   3.360  14.093  0.8523  0.4235 -3.7639
 6815SOL     OW32077   2.205   0.116   4.027  0.1918  0.0832 -0.1710
 6815SOL    HW132078   2.208   0.208   4.054 -1.6567 -0.2363  1.1002
 6815SOL    HW232079   2.122   0.086   4.065  0.4226  0.6815  0.8215
 6816SOL     OW32080   1.389   3.453   7.298  0.9356 -0.1064 -0.1777
 6816SOL    HW132081   1.419   3.432   7.387  1.6920 -1.9332 -0.8561
 6816SOL    HW232082   1.423   3.542   7.295  0.9013 -0.1926 -3.2514
 6817SOL     OW32083   3.023   2.841   8.399  0.1955 -0.4023 -0.2744
 6817SOL    HW132084   3.059   2.899   8.466 -0.6588  1.4192 -1.3923
 6817SOL    HW232085   3.000   2.770   8.458  2.6548 -1.1017 -0.1653
 6818SOL     OW32086   4.725   2.693   7.338  0.2668 -0.4421 -0.4221
 6818SOL    HW132087   0.015   2.660   7.424 -1.3256  0.8993  0.5698
 6818SOL    HW232088   4.631   2.675   7.340  0.3035 -0.2817  2.3607
 6819SOL     OW32089   4.245   1.267   5.151  0.1135  0.1442 -0.1340
 6819SOL    HW132090   4.332   1.254   5.112 -0.3587 -0.2694 -1.0278
 6819SOL    HW232091   4.262   1.260   5.245  1.1381  4.2485 -0.0019
 6820SOL     OW32092   0.728   1.965  15.400  0.4215  0.0026 -0.5088
 6820SOL    HW132093   0.769   1.977  15.486 -1.0944  1.3699  0.0139
 6820SOL    HW232094   0.666   2.038  15.403  0.0045 -0.4301  1.3135
 6821SOL     OW32095   2.778   4.544   2.405 -0.5103 -0.2946 -0.2434
 6821SOL    HW132096   2.730   4.517   2.327 -1.6728  0.3082  0.2658
 6821SOL    HW232097   2.744   4.632   2.419 -1.7598 -0.8427  0.1956
 6822SOL     OW32098   4.227   0.490   2.947  0.1796  0.8208 -0.3184
 6822SOL    HW132099   4.303   0.460   2.897 -1.1156 -1.5917 -0.8336
 6822SOL    HW232100   4.151   0.442   2.913 -0.6611  1.2694  0.9223
 6823SOL     OW32101   1.191   4.568   2.028 -0.6433  0.1698 -0.4389
 6823SOL    HW132102   1.224   4.638   2.084  2.0249 -0.5416 -1.0949
 6823SOL    HW232103   1.123   4.617   1.982 -1.1792 -0.4872 -0.3444
 6824SOL     OW32104   1.113   2.200   1.235 -0.6708  0.0458  0.4050
 6824SOL    HW132105   1.194   2.199   1.287  0.0153 -2.4011 -0.7481
 6824SOL    HW232106   1.058   2.260   1.287 -2.1791 -1.4822  0.5491
 6825SOL     OW32107   3.337   3.193   7.725  0.1617 -0.4350  0.7507
 6825SOL    HW132108   3.404   3.222   7.663  0.4165 -1.1060  0.7126
 6825SOL    HW232109   3.390   3.214   7.802  0.9301 -2.0292  0.6642
 6826SOL     OW32110   4.694   2.099  14.644 -0.3509  0.3848 -0.1200
 6826SOL    HW132111   0.015   2.142  14.581  0.3264  0.5115  0.5943
 6826SOL    HW232112   4.615   2.152  14.633 -0.3558  0.3971 -0.0283
 6827SOL     OW32113   4.294   0.698   2.738 -0.4188 -0.0574  0.4713
 6827SOL    HW132114   4.289   0.616   2.688  3.7964  0.3024 -0.5670
 6827SOL    HW232115   4.200   0.699   2.752 -0.6149  0.4553 -0.8968
 6828SOL     OW32116   3.304   2.945  10.944  0.3831  0.5168  0.2446
 6828SOL    HW132117   3.232   2.886  10.920  1.3791  0.4255 -2.5922
 6828SOL    HW232118   3.373   2.900  10.895 -0.2350  0.8026 -0.9013
 6829SOL     OW32119   4.562   0.565   8.704  0.1935  0.3951  0.1597
 6829SOL    HW132120   4.522   0.487   8.666 -0.8748 -0.3610  2.8503
 6829SOL    HW232121   4.535   0.557   8.795 -3.6323 -1.7298 -1.1548
 6830SOL     OW32122   3.923   1.172  13.024 -0.0337 -0.1972 -0.0142
 6830SOL    HW132123   3.849   1.113  13.035 -0.5930  0.6088  0.6211
 6830SOL    HW232124   3.883   1.245  13.072 -0.2433  0.9502 -1.9321
 6831SOL     OW32125   3.931   3.448  17.071 -0.1792 -0.2064  0.5591
 6831SOL    HW132126   3.896   3.527  17.111  1.4318  0.8452 -0.0774
 6831SOL    HW232127   3.882   3.385  17.123 -0.2686  1.4506  2.4640
 6832SOL     OW32128   1.859   0.790   3.578  0.3490 -0.1566 -0.4339
 6832SOL    HW132129   1.896   0.708   3.610 -0.3952 -0.3234  0.0173
 6832SOL    HW232130   1.797   0.761   3.512  1.1175  2.1670 -2.1700
 6833SOL     OW32131   2.539   0.231   5.124  0.2524  0.4266  0.2552
 6833SOL    HW132132   2.480   0.208   5.052  0.6177  0.2819  0.0019
 6833SOL    HW232133   2.506   0.314   5.158 -0.0149 -0.4339  2.0855
 6834SOL     OW32134   0.990   1.620   1.231 -0.4835  0.2220 -0.1813
 6834SOL    HW132135   1.016   1.627   1.139  1.1901 -1.7376  0.1492
 6834SOL    HW232136   1.073   1.607   1.276 -0.9715 -0.7584  0.4305
 6835SOL     OW32137   2.292   4.521  10.127 -0.2070  0.4637  0.4736
 6835SOL    HW132138   2.197   4.514  10.120 -0.3462  3.0472 -0.3584
 6835SOL    HW232139   2.307   4.509  10.221 -1.4730 -0.4132  0.5650
 6836SOL     OW32140   4.557   3.154  14.172  0.2466 -0.4903  0.3384
 6836SOL    HW132141   4.538   3.178  14.081  1.1035 -2.0882 -0.2718
 6836SOL    HW232142   4.610   3.228  14.203  0.9948 -0.9212  0.1119
 6837SOL     OW32143   2.846   1.913  14.944  0.1893 -0.2414 -0.2409
 6837SOL    HW132144   2.911   1.843  14.955 -0.0347 -0.1138  1.8190
 6837SOL    HW232145   2.910   1.982  14.928  0.7734 -0.7057  0.0840
 6838SOL     OW32146   0.909   4.673   9.049  0.4925  0.4815 -0.0061
 6838SOL    HW132147   0.846   4.653   8.979  0.5376 -0.7113  0.2906
 6838SOL    HW232148   0.932   4.587   9.085  0.5627  1.2369  1.7463
 6839SOL     OW32149   0.342   0.964   1.634 -0.2111  0.1991 -0.0153
 6839SOL    HW132150   0.259   0.917   1.638 -0.2334  0.4203  2.4931
 6839SOL    HW232151   0.328   1.045   1.683 -1.2369 -0.4428  0.7529
 6840SOL     OW32152   2.530   0.307   5.571  0.5118 -1.1532  0.1677
 6840SOL    HW132153   2.618   0.307   5.535  0.6515  0.8887  0.5108
 6840SOL    HW232154   2.554   0.336   5.659 -0.5766  0.9253 -0.1989
 6841SOL     OW32155   3.974   3.374  14.964  0.1249 -0.1224 -0.2860
 6841SOL    HW132156   3.949   3.288  14.929 -0.3776 -0.0632 -0.0720
 6841SOL    HW232157   4.030   3.395  14.889 -0.7253  1.0155 -0.5978
 6842SOL     OW32158   3.447   2.619   1.503  0.1123  0.2998 -0.1380
 6842SOL    HW132159   3.504   2.645   1.430  0.4418 -0.7089 -0.2523
 6842SOL    HW232160   3.368   2.662   1.473  0.2306  0.7005  0.1330
 6843SOL     OW32161   4.635   1.251   5.590  0.0449  0.5748 -0.1772
 6843SOL    HW132162   4.629   1.186   5.659 -1.0797  0.6541 -0.2046
 6843SOL    HW232163   4.560   1.304   5.615  0.5536  1.4317 -0.4467
 6844SOL     OW32164   4.067   1.914  10.036 -0.4077 -0.3108 -0.2744
 6844SOL    HW132165   4.147   1.882  10.077  0.9405  1.4827 -1.5047
 6844SOL    HW232166   4.055   1.852   9.964  3.7261 -0.5146 -0.7586
 6845SOL     OW32167   3.882   3.003  15.187  0.2316  0.7392 -0.6364
 6845SOL    HW132168   3.865   2.939  15.119 -0.8010 -0.7495  1.0098
 6845SOL    HW232169   3.794   3.035  15.209  0.2370  1.4756 -1.7015
 6846SOL     OW32170   3.363   1.356   5.054 -0.0432  0.4140 -0.1198
 6846SOL    HW132171   3.378   1.435   5.002  1.6642 -0.5163 -1.0361
 6846SOL    HW232172   3.332   1.397   5.135  0.8351 -0.2836  0.5627
 6847SOL     OW32173   0.409   1.405  13.831 -0.2594  0.4859  0.6546
 6847SOL    HW132174   0.476   1.445  13.886  1.0897  0.5778 -1.0500
 6847SOL    HW232175   0.347   1.371  13.895 -0.0925 -1.0573 -0.0020
 6848SOL     OW32176   1.842   1.084   3.425 -0.2020  0.0645  0.2063
 6848SOL    HW132177   1.760   1.100   3.377  0.4883 -1.3524 -1.4605
 6848SOL    HW232178   1.796   1.051   3.502  0.6586  0.2715  0.8075
 6849SOL     OW32179   3.515   4.308   7.551  0.3117  0.0056 -0.0950
 6849SOL    HW132180   3.526   4.374   7.482  4.1280  0.2925  0.7658
 6849SOL    HW232181   3.597   4.261   7.540 -0.9219 -2.4451  1.2551
 6850SOL     OW32182   4.591   3.119  15.332 -0.1220  0.3818 -0.1475
 6850SOL    HW132183   4.682   3.091  15.322 -0.1044  0.6619 -0.7894
 6850SOL    HW232184   4.567   3.073  15.412  0.8320 -0.5375 -0.3974
 6851SOL     OW32185   2.456   4.559  14.381 -0.1864 -0.3885 -0.2411
 6851SOL    HW132186   2.543   4.520  14.388 -0.4651 -0.9382  0.1147
 6851SOL    HW232187   2.407   4.526  14.456  0.9059 -0.3203  0.5064
 6852SOL     OW32188   1.146   3.046   5.222 -0.2110  0.0343 -0.5078
 6852SOL    HW132189   1.227   2.999   5.203  1.1453  1.5275  1.6153
 6852SOL    HW232190   1.089   2.979   5.260 -0.9340  0.3722 -0.9769
 6853SOL     OW32191   2.016   4.715   1.514  0.2859  0.3981 -0.0190
 6853SOL    HW132192   2.054   4.635   1.480 -2.1740 -1.3103  1.1884
 6853SOL    HW232193   1.962   0.006   1.440  0.8848 -0.5343 -0.7838
 6854SOL     OW32194   4.352   4.654   9.559  0.9585  0.2090 -0.1026
 6854SOL    HW132195   4.345   4.613   9.645 -0.3630 -0.4011 -0.4915
 6854SOL    HW232196   4.288   4.725   9.560 -0.0289 -0.6844  0.0360
 6855SOL     OW32197   1.017   3.478  14.221  0.5427  0.0131 -0.1638
 6855SOL    HW132198   0.996   3.386  14.235  0.6066 -0.0349 -0.3729
 6855SOL    HW232199   1.105   3.481  14.260  0.4223  0.9854  0.0334
 6856SOL     OW32200   4.409   0.364   6.565  0.5803 -0.3238 -0.2210
 6856SOL    HW132201   4.393   0.316   6.646 -0.9587  1.0448  0.2938
 6856SOL    HW232202   4.410   0.457   6.587  0.1447 -0.2405 -0.5377
 6857SOL     OW32203   3.359   0.402   4.363  0.4601  0.1988 -0.7428
 6857SOL    HW132204   3.345   0.369   4.274  4.3044  0.6698 -1.5276
 6857SOL    HW232205   3.274   0.399   4.407  0.1261  0.2450 -1.3712
 6858SOL     OW32206   0.136   2.621   5.597  0.3211  0.1361  0.6159
 6858SOL    HW132207   0.044   2.597   5.609  0.4578 -0.4040  0.5565
 6858SOL    HW232208   0.127   2.681   5.523  3.4359  1.6925  1.4973
 6859SOL     OW32209   2.706   4.640   4.568  0.1620 -0.2523 -0.3401
 6859SOL    HW132210   2.665   4.674   4.648  0.7104 -1.2042  0.3579
 6859SOL    HW232211   2.799   4.641   4.592  0.0814 -0.0017 -0.0327
 6860SOL     OW32212   0.159   2.711  16.458 -0.0475 -0.0644  1.0131
 6860SOL    HW132213   0.075   2.669  16.474 -1.6349  2.4736 -0.7255
 6860SOL    HW232214   0.208   2.676  16.532 -2.4551 -2.1705  1.5903
 6861SOL     OW32215   4.437   3.622   8.070  0.1327 -0.0415 -0.0765
 6861SOL    HW132216   4.351   3.607   8.031 -0.2342 -2.3988  1.6578
 6861SOL    HW232217   4.477   3.543   8.034  0.3594  1.1302 -2.3819
 6862SOL     OW32218   2.002   3.162   1.487 -0.0830  0.2548 -0.1600
 6862SOL    HW132219   2.072   3.097   1.492  0.5221  1.2249  3.4505
 6862SOL    HW232220   1.984   3.161   1.581 -2.1348 -0.4506 -0.5634
 6863SOL     OW32221   3.824   1.703   6.043  0.2239 -0.6206 -0.5169
 6863SOL    HW132222   3.800   1.736   5.956 -0.5950 -0.8766 -0.3922
 6863SOL    HW232223   3.823   1.787   6.087  0.1749 -0.8145 -0.1452
 6864SOL     OW32224   0.630   0.817   7.456  0.0704 -0.6336 -0.1223
 6864SOL    HW132225   0.634   0.759   7.380  1.6118  1.4259 -1.6142
 6864SOL    HW232226   0.544   0.857   7.442 -0.8643 -2.3650  0.6550
 6865SOL     OW32227   3.319   3.932   2.611  0.4818  0.0680 -0.3029
 6865SOL    HW132228   3.303   4.019   2.573 -1.5904  0.2759  1.0931
 6865SOL    HW232229   3.372   3.955   2.687 -0.1789 -1.6044  0.6532
 6866SOL     OW32230   1.550   1.831   3.802  0.0537 -0.1308  0.1356
 6866SOL    HW132231   1.516   1.915   3.832 -0.6923 -0.4509  0.1941
 6866SOL    HW232232   1.573   1.783   3.882 -2.0910  0.1395  0.9113
 6867SOL     OW32233   2.965   3.868   7.191  0.0536 -0.6669  0.1681
 6867SOL    HW132234   2.874   3.881   7.216  0.3529  0.8400  0.4705
 6867SOL    HW232235   2.995   3.959   7.196  1.2717 -0.9886 -0.9668
 6868SOL     OW32236   4.402   0.154  15.611 -0.4428 -0.4795  0.1637
 6868SOL    HW132237   4.458   0.084  15.578  1.7193  1.1059  0.4688
 6868SOL    HW232238   4.435   0.149  15.700  0.8696  1.1780 -0.2369
 6869SOL     OW32239   3.235   3.760   6.270 -0.4351  0.3104  0.6229
 6869SOL    HW132240   3.327   3.737   6.286 -0.2629  0.4305 -0.2239
 6869SOL    HW232241   3.239   3.847   6.229 -0.7007 -0.1948 -0.4576
 6870SOL     OW32242   0.391   3.023   7.170 -0.6196 -0.2183  0.2618
 6870SOL    HW132243   0.356   2.955   7.227 -0.3207 -0.0881  0.6043
 6870SOL    HW232244   0.349   3.106   7.194  0.9740  0.8185 -0.4961
 6871SOL     OW32245   2.673   2.694   3.959  0.3036 -0.4924  0.4036
 6871SOL    HW132246   2.605   2.634   3.990  0.4516 -0.0872  1.5242
 6871SOL    HW232247   2.725   2.708   4.039 -1.1388  1.7878  0.9272
 6872SOL     OW32248   0.868   1.694   7.924 -0.2921 -0.2404  0.4103
 6872SOL    HW132249   0.940   1.683   7.986 -0.9335  0.8533  1.3360
 6872SOL    HW232250   0.859   1.789   7.931  0.0960 -0.0156 -2.2456
 6873SOL     OW32251   4.226   3.646   5.459 -0.0282  0.1188  0.2700
 6873SOL    HW132252   4.315   3.670   5.432 -0.0054 -0.2757  0.0086
 6873SOL    HW232253   4.163   3.706   5.419  1.8576  0.5684 -2.0221
 6874SOL     OW32254   1.639   1.741   7.835  0.0435  0.2416 -0.1250
 6874SOL    HW132255   1.642   1.670   7.898 -0.0315  0.9542  0.6875
 6874SOL    HW232256   1.544   1.753   7.825 -0.1241 -1.2758 -0.3416
 6875SOL     OW32257   0.562   2.145  13.959  0.2144  0.6837 -0.6849
 6875SOL    HW132258   0.593   2.173  14.045 -1.9232  0.5670  0.1189
 6875SOL    HW232259   0.495   2.212  13.946 -1.2359 -0.1857  2.4048
 6876SOL     OW32260   3.607   0.170   9.187 -0.3832  0.3649 -0.4959
 6876SOL    HW132261   3.532   0.175   9.129 -1.0526  0.0259  0.3402
 6876SOL    HW232262   3.633   0.084   9.155 -0.1907 -0.0832  0.8609
 6877SOL     OW32263   0.377   3.800   3.463 -0.0712 -0.2761  0.7257
 6877SOL    HW132264   0.450   3.738   3.467  0.0300  0.1568  5.6779
 6877SOL    HW232265   0.379   3.823   3.370  1.7877 -1.9748  0.3570
 6878SOL     OW32266   1.898   3.311   6.145 -0.6122  0.2362 -0.0187
 6878SOL    HW132267   1.986   3.294   6.179 -0.4691  2.0582  0.5553
 6878SOL    HW232268   1.845   3.278   6.218  0.9229  0.3829  1.1704
 6879SOL     OW32269   0.943   1.853   8.716 -0.0981  0.0565  0.3166
 6879SOL    HW132270   1.000   1.928   8.731 -1.7762  0.9935  2.1400
 6879SOL    HW232271   0.884   1.871   8.790 -0.2790  0.0954  0.1618
 6880SOL     OW32272   1.062   0.062   4.332 -0.3669 -0.1505  0.0749
 6880SOL    HW132273   1.091   0.144   4.292  0.6354 -0.5212  0.0523
 6880SOL    HW232274   1.112   0.071   4.413 -0.3605 -0.5684  0.1160
 6881SOL     OW32275   0.861   2.260   4.099  0.0698  0.2980 -0.6781
 6881SOL    HW132276   0.857   2.187   4.162  0.8024  1.3218  0.5370
 6881SOL    HW232277   0.882   2.198   4.029  0.7526  1.0941 -1.1677
 6882SOL     OW32278   4.333   3.932   8.383  0.0026 -0.0357  0.0211
 6882SOL    HW132279   4.241   3.954   8.394  0.9372  2.8819  2.2234
 6882SOL    HW232280   4.323   3.837   8.375  1.2785  0.0424 -2.4658
 6883SOL     OW32281   2.182   3.868   4.293  0.1165  0.1885  0.0308
 6883SOL    HW132282   2.107   3.928   4.292 -0.7910 -0.8716  4.0569
 6883SOL    HW232283   2.223   3.925   4.227 -0.3477 -0.6293 -0.9523
 6884SOL     OW32284   3.914   0.398   1.711  0.4533  0.4907 -0.5228
 6884SOL    HW132285   3.937   0.306   1.703  2.3744  1.0801 -1.8068
 6884SOL    HW232286   3.998   0.432   1.741  1.0997 -0.9143 -0.7654
 6885SOL     OW32287   1.489   0.771   4.670 -0.5138  0.1605  0.0200
 6885SOL    HW132288   1.537   0.763   4.752  0.9825  2.1366 -0.6607
 6885SOL    HW232289   1.526   0.854   4.639 -0.9017 -0.1559 -1.2933
 6886SOL     OW32290   3.389   3.055  15.479 -0.5745 -0.2570  0.6059
 6886SOL    HW132291   3.462   3.039  15.538  0.4668 -1.0271 -0.8895
 6886SOL    HW232292   3.314   3.030  15.533 -0.7840  1.8638  1.3236
 6887SOL     OW32293   4.271   0.448   3.676  0.8027 -0.0988 -0.1459
 6887SOL    HW132294   4.301   0.531   3.712 -1.8317  0.6188  0.4187
 6887SOL    HW232295   4.326   0.384   3.721  2.3649  1.0677 -0.4002
 6888SOL     OW32296   1.599   0.699   7.062  0.2029  0.3242  0.2186
 6888SOL    HW132297   1.651   0.671   6.987 -0.7021 -0.3142 -0.1773
 6888SOL    HW232298   1.548   0.618   7.074 -2.8284  2.1883 -0.0563
 6889SOL     OW32299   4.386   4.461   6.358  0.0514  0.5102 -0.1938
 6889SOL    HW132300   4.310   4.515   6.379 -0.3886 -0.2109  0.0692
 6889SOL    HW232301   4.367   4.373   6.391  0.3357  0.8528  0.8915
 6890SOL     OW32302   1.630   4.446  14.200 -0.1551 -0.2228  0.3197
 6890SOL    HW132303   1.592   4.514  14.145  1.8794 -1.0290 -2.1067
 6890SOL    HW232304   1.647   4.494  14.281  0.0351 -0.6106  0.5109
 6891SOL     OW32305   2.449   0.309   2.931  0.8638  0.5575  0.2284
 6891SOL    HW132306   2.361   0.338   2.955 -0.6519 -1.5566 -2.7092
 6891SOL    HW232307   2.487   0.389   2.894 -1.1917 -0.1021 -3.3209
 6892SOL     OW32308   3.775   3.272   3.378  0.0782  0.0408 -1.0915
 6892SOL    HW132309   3.740   3.313   3.300 -0.5955  0.8035 -0.3921
 6892SOL    HW232310   3.865   3.243   3.363  0.7647  2.1041 -0.8634
 6893SOL     OW32311   4.594   4.145   6.219 -0.4254  0.6644 -0.1840
 6893SOL    HW132312   4.684   4.114   6.228 -0.2841  1.1348  0.0084
 6893SOL    HW232313   4.546   4.062   6.216 -1.8240  1.4310  1.2628
 6894SOL     OW32314   1.076   4.202  10.140 -0.4676  0.3238  0.1880
 6894SOL    HW132315   1.107   4.232  10.225 -1.4435  1.6509  0.0905
 6894SOL    HW232316   1.133   4.251  10.081 -2.3243  1.4219 -0.7345
 6895SOL     OW32317   2.846   1.978   5.996  0.4343  0.2696  0.1290
 6895SOL    HW132318   2.802   1.991   5.912 -1.0232  1.0283  1.0082
 6895SOL    HW232319   2.940   1.979   5.978  0.3263 -1.7578 -0.5459
 6896SOL     OW32320   1.452   1.821  12.542  0.0129  0.3555 -0.0012
 6896SOL    HW132321   1.541   1.794  12.518  0.0122 -0.8499  1.3658
 6896SOL    HW232322   1.458   1.913  12.515  1.3721  0.4368  0.5568
 6897SOL     OW32323   4.305   3.418   3.633 -0.2893 -0.0435  0.6861
 6897SOL    HW132324   4.381   3.364   3.609  1.0961  3.0584 -1.8945
 6897SOL    HW232325   4.276   3.453   3.548  1.0303 -0.7819 -0.0711
 6898SOL     OW32326   2.992   1.836   2.471  0.3358 -0.0743  0.5329
 6898SOL    HW132327   3.050   1.810   2.543  1.2422  0.4955  0.0125
 6898SOL    HW232328   3.014   1.928   2.486 -0.7955  0.5307 -1.5032
 6899SOL     OW32329   4.317   0.824   8.252 -0.0261 -0.2098 -0.1248
 6899SOL    HW132330   4.272   0.892   8.302 -1.7075 -1.4987  0.1340
 6899SOL    HW232331   4.407   0.856   8.255  0.5490 -1.7857 -0.4074
 6900SOL     OW32332   1.116   2.071   7.069 -0.4333  0.5635  0.1879
 6900SOL    HW132333   1.186   2.015   7.034 -3.9001 -3.0213 -1.0811
 6900SOL    HW232334   1.128   2.142   7.006  0.3063  1.2970  1.1639
 6901SOL     OW32335   1.031   1.272  16.812  0.2753  0.1815 -0.1034
 6901SOL    HW132336   1.048   1.179  16.797 -0.1774 -0.1521  1.4576
 6901SOL    HW232337   0.989   1.301  16.731  0.1287  1.4659  0.4288
 6902SOL     OW32338   2.782   2.394   2.959  0.4529  0.0466 -0.5970
 6902SOL    HW132339   2.811   2.483   2.936  1.8639  0.2470  1.9612
 6902SOL    HW232340   2.701   2.400   2.908  0.3727  0.5648 -0.4143
 6903SOL     OW32341   1.943   3.656   9.358 -0.5076  0.2974  0.0291
 6903SOL    HW132342   1.903   3.743   9.363  0.6791  0.8199  0.5564
 6903SOL    HW232343   2.033   3.684   9.342 -0.9911  1.6491 -0.2712
 6904SOL     OW32344   1.494   4.304   2.097 -0.2535  0.2073  0.2983
 6904SOL    HW132345   1.564   4.338   2.152 -0.6732  0.2702  0.7854
 6904SOL    HW232346   1.426   4.308   2.164 -1.6525  0.2041 -1.1229
 6905SOL     OW32347   2.199   2.871   6.962 -0.1250  0.0780 -0.2547
 6905SOL    HW132348   2.204   2.921   7.043  1.7249 -1.0498  0.3124
 6905SOL    HW232349   2.206   2.937   6.893  1.5074 -0.0985 -0.2571
 6906SOL     OW32350   3.264   3.330   5.642  0.2585 -0.2185 -0.1274
 6906SOL    HW132351   3.192   3.349   5.702 -0.8000  2.6114 -2.3041
 6906SOL    HW232352   3.331   3.324   5.711 -0.9417  0.4498  1.1057
 6907SOL     OW32353   0.121   1.301  15.843  0.2070 -0.2012  0.0056
 6907SOL    HW132354   0.066   1.352  15.784 -1.7877 -2.7688 -0.3434
 6907SOL    HW232355   0.161   1.372  15.893  0.2923  0.1113 -0.5009
 6908SOL     OW32356   3.141   4.606   8.684 -0.1393  0.0520 -0.2189
 6908SOL    HW132357   3.206   4.535   8.689 -0.9810 -0.6630  0.7437
 6908SOL    HW232358   3.059   4.571   8.719 -0.8001  0.0055 -1.8100
 6909SOL     OW32359   3.136   1.827   9.144  0.0595 -0.6516 -0.3996
 6909SOL    HW132360   3.186   1.850   9.066  1.6481 -2.1937  0.1654
 6909SOL    HW232361   3.117   1.911   9.185  0.4697 -0.2778 -0.9933
 6910SOL     OW32362   4.256   3.458  11.987  0.6403  0.2508 -0.4917
 6910SOL    HW132363   4.255   3.477  11.893 -0.7983  1.9712 -0.1277
 6910SOL    HW232364   4.186   3.517  12.016  0.7918  0.4778 -0.5910
 6911SOL     OW32365   1.097   0.700   1.132  0.8402 -0.3808 -0.4636
 6911SOL    HW132366   1.009   0.726   1.103  1.8134  2.1728 -1.1548
 6911SOL    HW232367   1.138   0.777   1.091  3.1085 -0.3049  1.9445
 6912SOL     OW32368   3.498   3.556   4.054 -0.0637  0.1766 -0.2001
 6912SOL    HW132369   3.484   3.467   4.086 -0.4940  1.3130  2.8140
 6912SOL    HW232370   3.557   3.536   3.982  0.6158  1.6084 -0.0413
 6913SOL     OW32371   0.074   1.333   1.742 -0.2661  0.3060  0.1144
 6913SOL    HW132372   0.001   1.393   1.758  1.1953  1.5383  2.1929
 6913SOL    HW232373   0.138   1.392   1.703 -1.7313  0.7952 -1.5678
 6914SOL     OW32374   2.276   1.444   0.344  0.0837  0.2726 -0.3744
 6914SOL    HW132375   2.258   1.534   0.317  2.1789  0.6691 -0.4562
 6914SOL    HW232376   2.231   1.376   0.294 -2.3074  0.4479  1.5176
 6915SOL     OW32377   1.883   0.750   7.865 -0.3434  0.0373 -0.1771
 6915SOL    HW132378   1.972   0.743   7.832 -0.0978 -0.4801  0.5936
 6915SOL    HW232379   1.872   0.842   7.840 -0.1906 -0.2653 -1.3424
 6916SOL     OW32380   2.065   1.894   1.769  0.0834 -0.2260  0.0957
 6916SOL    HW132381   2.058   1.981   1.728 -2.3854 -0.4493  0.0767
 6916SOL    HW232382   2.064   1.836   1.693  2.0432  1.1853 -1.0052
 6917SOL     OW32383   3.727   3.870   4.310  0.3352  0.4408 -0.0977
 6917SOL    HW132384   3.777   3.835   4.383 -1.0637  1.4750  1.3463
 6917SOL    HW232385   3.784   3.853   4.235  0.9141  2.2393 -0.0741
 6918SOL     OW32386   1.457   3.712   0.909  0.0953  0.2094  0.2466
 6918SOL    HW132387   1.473   3.618   0.917  3.3338  0.5861 -1.7138
 6918SOL    HW232388   1.376   3.720   0.959 -0.4294 -3.3810 -0.0246
 6919SOL     OW32389   4.368   4.061   2.714 -0.5907 -0.1318 -0.1532
 6919SOL    HW132390   4.285   4.055   2.668 -1.8760  1.0597  1.9721
 6919SOL    HW232391   4.402   4.148   2.690 -0.3550 -0.3132 -0.4645
 6920SOL     OW32392   1.208   4.522   4.245  0.2716  0.4338  0.6655
 6920SOL    HW132393   1.146   4.592   4.224  0.0417  0.4707  1.4840
 6920SOL    HW232394   1.260   4.561   4.314  0.4364 -0.0582  0.8233
 6921SOL     OW32395   2.215   1.653   5.833  0.3703  0.4649  0.2922
 6921SOL    HW132396   2.254   1.575   5.871 -1.4816 -1.2688 -1.3786
 6921SOL    HW232397   2.278   1.701   5.780 -0.6832  0.2392 -1.1689
 6922SOL     OW32398   1.499   3.482   7.983  0.3628 -0.4896 -0.4819
 6922SOL    HW132399   1.584   3.488   8.025  0.4750  0.2166 -0.8088
 6922SOL    HW232400   1.449   3.415   8.030 -1.1722  0.7963 -0.2742
 6923SOL     OW32401   2.436   0.903  12.720  0.3069 -0.2493  0.8781
 6923SOL    HW132402   2.395   0.830  12.675 -1.0292  1.5278 -0.8220
 6923SOL    HW232403   2.365   0.923  12.781 -0.8716 -0.8243 -0.3174
 6924SOL     OW32404   3.197   3.190   9.228  0.5401  0.1346  0.1077
 6924SOL    HW132405   3.115   3.208   9.274  0.3910 -0.0685 -0.0769
 6924SOL    HW232406   3.167   3.202   9.138  1.0504 -0.0081 -0.0790
 6925SOL     OW32407   4.387   0.573   7.631 -0.6107  0.1702  0.4640
 6925SOL    HW132408   4.427   0.651   7.670 -1.0159  0.6441 -0.0886
 6925SOL    HW232409   4.296   0.600   7.621 -0.8351 -1.6298 -2.2389
 6926SOL     OW32410   4.244   0.991  10.645 -0.5989 -0.2668  0.2743
 6926SOL    HW132411   4.161   1.031  10.668  0.2056  0.8357  1.2429
 6926SOL    HW232412   4.232   0.996  10.550  0.0638 -0.8182  0.1568
 6927SOL     OW32413   4.432   1.085  14.915 -0.4038  0.1316 -0.3224
 6927SOL    HW132414   4.407   1.021  14.848  0.4724  1.1593 -1.6124
 6927SOL    HW232415   4.475   1.150  14.860 -1.1314 -0.3046 -1.4152
 6928SOL     OW32416   2.866   0.353  14.486  0.0674  0.1851 -0.1939
 6928SOL    HW132417   2.933   0.287  14.504 -1.1723 -0.6393  1.3340
 6928SOL    HW232418   2.914   0.410  14.426  0.1173  1.4524  1.0529
 6929SOL     OW32419   3.850   2.032   5.752  0.1354 -0.0865 -0.0317
 6929SOL    HW132420   3.770   2.012   5.704  1.4714 -2.8483 -1.1105
 6929SOL    HW232421   3.866   2.118   5.713 -0.0992  0.8213  1.8905
 6930SOL     OW32422   0.815   0.074  15.444  0.0639 -0.0708 -0.1637
 6930SOL    HW132423   0.753   0.003  15.464 -2.1969  2.0504  0.2639
 6930SOL    HW232424   0.769   0.155  15.466  2.5246  1.9924 -2.6772
 6931SOL     OW32425   1.797   1.120   6.251 -0.5141 -0.0297 -0.3475
 6931SOL    HW132426   1.756   1.176   6.317 -0.1668  0.5803 -0.6438
 6931SOL    HW232427   1.730   1.103   6.185 -0.9441 -0.5590  0.2282
 6932SOL     OW32428   0.204   2.122   4.739  0.1076 -0.0494  0.4382
 6932SOL    HW132429   0.232   2.041   4.696 -2.1422 -1.1215  0.9899
 6932SOL    HW232430   0.276   2.139   4.800  0.9554 -1.1930 -0.2232
 6933SOL     OW32431   4.141   1.930   1.199  1.3462 -0.0878  0.4079
 6933SOL    HW132432   4.132   2.025   1.207 -2.1313 -0.7044  3.3572
 6933SOL    HW232433   4.107   1.909   1.112  0.3983  1.4930  0.4101
 6934SOL     OW32434   3.203   2.179   3.502  0.3037 -0.4177  0.5276
 6934SOL    HW132435   3.263   2.107   3.519  1.4109 -0.1437 -2.1517
 6934SOL    HW232436   3.146   2.192   3.578 -0.7886  0.3274 -0.4036
 6935SOL     OW32437   1.867   3.725   1.978 -0.4216 -0.0230  0.5229
 6935SOL    HW132438   1.948   3.775   1.995  0.2812 -0.9391 -0.1203
 6935SOL    HW232439   1.802   3.784   2.016  0.4238 -0.2928  2.3622
 6936SOL     OW32440   0.243   1.960   3.727  0.0212  0.0030  0.5559
 6936SOL    HW132441   0.228   2.031   3.666 -0.1034  0.6001  1.2847
 6936SOL    HW232442   0.337   1.942   3.718  0.2327  0.9300  0.9742
 6937SOL     OW32443   1.649   4.035   3.780 -0.1690  0.0956 -0.0693
 6937SOL    HW132444   1.677   4.040   3.871 -1.1840  0.8195  0.2084
 6937SOL    HW232445   1.696   4.103   3.732  1.8817 -2.6041 -1.8571
 6938SOL     OW32446   3.420   3.485   2.692 -0.7435  0.1162 -0.1384
 6938SOL    HW132447   3.392   3.542   2.763  0.1219  0.8996 -0.4330
 6938SOL    HW232448   3.505   3.525   2.674 -0.6290 -0.6471 -1.3199
 6939SOL     OW32449   4.274   1.553  12.128  0.5248 -0.2318 -0.0054
 6939SOL    HW132450   4.281   1.617  12.058 -1.1118  1.5606  1.4531
 6939SOL    HW232451   4.317   1.606  12.195  1.5682 -0.0780 -0.8078
 6940SOL     OW32452   1.239   4.595   8.262 -0.1123  0.4122  0.5167
 6940SOL    HW132453   1.273   4.639   8.340 -0.3729  0.1094  0.7997
 6940SOL    HW232454   1.156   4.637   8.240 -1.5350 -2.6983 -0.1216
 6941SOL     OW32455   1.878   3.176   9.119 -0.1096  0.0601  0.1856
 6941SOL    HW132456   1.827   3.119   9.176 -0.7903  2.1475  1.6537
 6941SOL    HW232457   1.809   3.221   9.071 -1.5369 -0.8154  1.4288
 6942SOL     OW32458   1.870   3.552  14.864  0.3794  0.4154  0.0408
 6942SOL    HW132459   1.794   3.585  14.913  0.9351 -1.1064  1.9166
 6942SOL    HW232460   1.920   3.633  14.859 -0.0147  0.6018 -0.8679
 6943SOL     OW32461   1.351   0.140  16.877 -0.7524 -0.0815  0.4405
 6943SOL    HW132462   1.303   0.075  16.928  0.7733 -1.9833 -0.5429
 6943SOL    HW232463   1.353   0.099  16.791  1.8733  2.5025 -0.6969
 6944SOL     OW32464   0.733   2.494   6.965  0.2297  0.2299  0.1080
 6944SOL    HW132465   0.693   2.553   6.901  0.3157 -1.9350 -1.9197
 6944SOL    HW232466   0.827   2.508   6.958  0.9169 -2.7949  3.5631
 6945SOL     OW32467   4.392   3.310  13.507 -0.5216  0.0158 -0.1039
 6945SOL    HW132468   4.471   3.353  13.474 -1.1593  1.0355 -0.3044
 6945SOL    HW232469   4.358   3.368  13.575 -1.2670 -1.1449  0.4963
 6946SOL     OW32470   1.454   4.131  15.007  0.3603 -0.0682  0.3299
 6946SOL    HW132471   1.507   4.078  15.066  1.3447  0.3752 -0.1469
 6946SOL    HW232472   1.514   4.127  14.933 -0.2846 -0.1280 -0.1900
 6947SOL     OW32473   0.231   1.415   8.146  0.4479 -0.0976 -0.5450
 6947SOL    HW132474   0.228   1.341   8.206  0.8464  0.9076  0.7066
 6947SOL    HW232475   0.305   1.470   8.171 -0.5984  0.2749  1.7236
 6948SOL     OW32476   4.136   1.696   2.305  0.6293  0.3450  0.6125
 6948SOL    HW132477   4.092   1.781   2.299  2.9419  1.3718 -1.8909
 6948SOL    HW232478   4.209   1.716   2.364 -0.0341  0.9404  1.2322
 6949SOL     OW32479   1.865   1.040   7.392 -0.1394 -0.2092  0.5845
 6949SOL    HW132480   1.948   1.036   7.345 -0.2060  0.9931  0.3642
 6949SOL    HW232481   1.869   1.129   7.426  0.9942 -0.8840  2.2367
 6950SOL     OW32482   1.206   1.505   5.583  0.0003  0.2382  0.0398
 6950SOL    HW132483   1.181   1.414   5.568 -0.0392  0.3297 -0.4442
 6950SOL    HW232484   1.120   1.546   5.571  0.9657  1.8671 -1.2465
 6951SOL     OW32485   1.546   3.136   2.626  0.6458  0.5755 -0.4057
 6951SOL    HW132486   1.491   3.161   2.552 -0.6260 -1.1899 -0.0651
 6951SOL    HW232487   1.545   3.041   2.629 -0.2412  0.5409 -1.9229
 6952SOL     OW32488   2.838   4.001   3.147  0.1246 -0.1563 -0.8289
 6952SOL    HW132489   2.870   4.091   3.143 -1.5140  0.4182 -1.3084
 6952SOL    HW232490   2.745   4.024   3.157  0.0272 -1.8628  2.1377
 6953SOL     OW32491   1.132   2.507   6.380  0.3103 -0.8012  0.2864
 6953SOL    HW132492   1.210   2.558   6.358  0.1991 -0.4227  0.7634
 6953SOL    HW232493   1.169   2.433   6.428  3.1043  1.1721  1.1883
 6954SOL     OW32494   3.055   2.016   8.835 -0.1168  0.3198  0.4069
 6954SOL    HW132495   2.969   2.046   8.863 -1.7030 -1.6818 -2.3208
 6954SOL    HW232496   3.114   2.089   8.853  0.2182  0.4604 -1.2964
 6955SOL     OW32497   1.389   3.453   8.875  0.0722 -0.0932 -0.7209
 6955SOL    HW132498   1.425   3.415   8.794  2.5626 -1.0580  0.8404
 6955SOL    HW232499   1.439   3.535   8.873 -3.2707  1.9154 -0.8325
 6956SOL     OW32500   0.565   3.594   4.432 -0.3406  0.2650 -0.2460
 6956SOL    HW132501   0.530   3.658   4.370  1.9751 -0.9516 -2.8477
 6956SOL    HW232502   0.486   3.565   4.477  0.0176 -2.8578 -1.6192
 6957SOL     OW32503   1.081   1.145  14.972 -0.2347 -0.1681 -0.1572
 6957SOL    HW132504   1.015   1.194  14.924  0.9961  2.1669  0.5307
 6957SOL    HW232505   1.047   1.056  14.977  1.5738 -0.8529  0.2508
 6958SOL     OW32506   3.374   1.587   1.030 -0.1736  0.1762  0.0162
 6958SOL    HW132507   3.394   1.635   1.110  0.4628  0.9359 -0.5960
 6958SOL    HW232508   3.280   1.583   1.049 -0.5134 -0.1449 -1.6907
 6959SOL     OW32509   1.071   1.061   5.003  0.5337  0.2942  0.0925
 6959SOL    HW132510   0.988   1.085   4.962  1.4953  0.8306 -1.5573
 6959SOL    HW232511   1.121   1.105   4.934  1.3371  2.4397  2.0572
 6960SOL     OW32512   3.924   2.310   6.285 -0.2750  0.3330  0.0702
 6960SOL    HW132513   3.946   2.401   6.304  4.9759 -0.1678 -3.5463
 6960SOL    HW232514   3.846   2.321   6.230 -0.7777 -0.0962  0.7036
 6961SOL     OW32515   4.053   2.523  12.929 -0.1090 -0.9394 -0.0519
 6961SOL    HW132516   4.147   2.508  12.931  0.2819  1.7143  0.4042
 6961SOL    HW232517   4.018   2.469  13.000  0.9158 -0.1778  1.0281
 6962SOL     OW32518   0.841   3.954   3.890 -0.4880  0.6140 -0.0184
 6962SOL    HW132519   0.887   3.918   3.965 -1.6918 -1.1597 -0.1093
 6962SOL    HW232520   0.754   3.961   3.929 -0.8192  1.9612 -1.0056
 6963SOL     OW32521   3.879   0.733   6.635  0.0268  0.0334 -0.0720
 6963SOL    HW132522   3.896   0.639   6.649  0.5689  0.4180  1.9454
 6963SOL    HW232523   3.833   0.733   6.551  0.0732  2.5884 -0.1013
 6964SOL     OW32524   2.522   0.500   3.274 -0.4113 -0.1523  0.6892
 6964SOL    HW132525   2.435   0.496   3.315 -1.6261 -1.2211 -1.9828
 6964SOL    HW232526   2.504   0.572   3.214 -0.0767 -0.3026  0.4121
 6965SOL     OW32527   4.109   4.352   2.152  0.4232 -0.3498 -0.3282
 6965SOL    HW132528   4.165   4.328   2.077 -0.6934 -1.2277 -0.8758
 6965SOL    HW232529   4.090   4.271   2.199  2.8465  0.3400  1.8461
 6966SOL     OW32530   2.801   0.439   3.376 -0.1609 -1.0547  0.8346
 6966SOL    HW132531   2.737   0.462   3.309  0.0331 -1.3160  0.5619
 6966SOL    HW232532   2.851   0.371   3.332 -1.8200 -0.5425 -1.8402
 6967SOL     OW32533   1.354   3.206   6.340  0.2280 -0.2865  0.0786
 6967SOL    HW132534   1.379   3.290   6.301 -1.1728 -0.0896 -0.4052
 6967SOL    HW232535   1.295   3.176   6.271  1.3189  0.5618 -1.2260
 6968SOL     OW32536   3.523   1.277   6.127  0.3424 -0.2022 -0.3843
 6968SOL    HW132537   3.455   1.210   6.123  1.9639 -1.7971 -0.8485
 6968SOL    HW232538   3.483   1.349   6.176 -1.7654 -2.3356  1.0217
 6969SOL     OW32539   0.621   0.991   3.823  0.0482  0.6477  0.1153
 6969SOL    HW132540   0.711   0.962   3.806 -0.3895 -1.1670  0.9511
 6969SOL    HW232541   0.617   1.069   3.768 -0.6802  0.8356  0.4387
 6970SOL     OW32542   0.021   4.101   7.274  0.0313  0.0012  0.1281
 6970SOL    HW132543   0.102   4.134   7.312  1.3259  0.3526 -2.9249
 6970SOL    HW232544   4.724   4.055   7.351 -1.1955 -0.0728 -0.4429
 6971SOL     OW32545   0.955   2.215  13.284 -0.0741 -0.3222 -0.1211
 6971SOL    HW132546   0.982   2.282  13.348  0.7462 -1.0533  0.2975
 6971SOL    HW232547   0.994   2.134  13.316 -1.4861 -0.6674  0.7782
 6972SOL     OW32548   1.653   3.578   0.241  0.2621  0.3437 -0.2715
 6972SOL    HW132549   1.697   3.530   0.171  1.1935  0.2366  0.3808
 6972SOL    HW232550   1.717   3.634   0.285  0.0134  0.7933 -0.4947
 6973SOL     OW32551   0.588   3.929   9.740 -0.0155  0.4274 -0.0055
 6973SOL    HW132552   0.609   3.979   9.819  1.2778 -0.0157 -0.0647
 6973SOL    HW232553   0.513   3.977   9.704 -1.9146 -1.3845  1.5227
 6974SOL     OW32554   4.649   0.470   3.849 -0.1179  0.0743 -0.5784
 6974SOL    HW132555   4.565   0.427   3.836  0.7213 -2.1921  1.5653
 6974SOL    HW232556   4.679   0.425   3.928 -1.3577  0.1681 -0.0596
 6975SOL     OW32557   1.174   2.636   4.121  0.0193 -0.0228  0.4734
 6975SOL    HW132558   1.119   2.713   4.108 -0.0749 -0.5025 -1.9313
 6975SOL    HW232559   1.245   2.651   4.058 -0.9214 -0.1284 -0.6026
 6976SOL     OW32560   4.516   1.947   6.991  0.3818 -0.1425  0.6933
 6976SOL    HW132561   4.428   1.927   7.022  0.4765  0.5884  1.4486
 6976SOL    HW232562   4.552   1.987   7.071  2.4359  0.8127 -0.7032
 6977SOL     OW32563   4.003   4.606   2.935 -0.3768  0.2699  0.0563
 6977SOL    HW132564   4.050   4.613   2.852  1.3323 -1.4681  0.8475
 6977SOL    HW232565   3.921   4.655   2.936  0.3794  1.5531 -1.7930
 6978SOL     OW32566   3.473   3.852   1.334 -0.4823  0.3388 -0.0494
 6978SOL    HW132567   3.504   3.855   1.424  1.2206  0.8366 -0.6501
 6978SOL    HW232568   3.552   3.809   1.300 -0.2990  0.6491 -0.0107
 6979SOL     OW32569   3.627   0.471   4.448 -0.0442 -0.2876 -0.2767
 6979SOL    HW132570   3.578   0.447   4.527 -0.2264 -0.9942 -0.6069
 6979SOL    HW232571   3.562   0.460   4.378 -1.7480  0.5442  1.1733
 6980SOL     OW32572   4.190   4.323   4.384 -0.4053 -0.3987 -0.1268
 6980SOL    HW132573   4.126   4.258   4.357 -1.4337  0.9278 -0.8916
 6980SOL    HW232574   4.260   4.264   4.409  0.5069  1.7191  2.3264
 6981SOL     OW32575   1.482   4.123   2.356 -0.9269  0.4575  0.1557
 6981SOL    HW132576   1.531   4.042   2.367 -1.2889  0.4366  1.5533
 6981SOL    HW232577   1.400   4.097   2.313 -0.8544 -0.9206  0.8850
 6982SOL     OW32578   1.600   2.473   8.350  0.0373  0.1159 -0.6325
 6982SOL    HW132579   1.505   2.457   8.351  0.4666 -2.2819  3.6224
 6982SOL    HW232580   1.605   2.567   8.334 -3.2672  0.2058 -1.1322
 6983SOL     OW32581   2.668   4.566  11.712  0.3901  0.6588 -0.6867
 6983SOL    HW132582   2.703   4.617  11.640 -1.5650  2.0286 -0.6614
 6983SOL    HW232583   2.743   4.510  11.729 -0.6015 -0.5326 -0.2250
 6984SOL     OW32584   2.364   2.805   3.366  0.5267 -0.3128 -0.3593
 6984SOL    HW132585   2.422   2.795   3.290  0.0639 -0.4015 -0.6998
 6984SOL    HW232586   2.407   2.739   3.421 -1.2503 -3.0038 -2.1695
 6985SOL     OW32587   2.589   1.987   3.508 -0.0985  0.3935 -0.5097
 6985SOL    HW132588   2.564   1.937   3.431 -0.2170  3.0420 -2.1844
 6985SOL    HW232589   2.645   2.056   3.473 -0.9074  0.9348 -0.7257
 6986SOL     OW32590   1.138   1.873   4.403 -0.6879 -0.1612  0.2807
 6986SOL    HW132591   1.085   1.939   4.449 -0.1847  0.4238  0.0198
 6986SOL    HW232592   1.123   1.912   4.317 -1.4317 -0.6751  0.1770
 6987SOL     OW32593   3.893   3.689   7.632  0.0155  0.3802 -0.3444
 6987SOL    HW132594   3.869   3.715   7.721 -1.6679  1.5347 -1.1373
 6987SOL    HW232595   3.879   3.766   7.578  4.2791  1.0029 -0.5733
 6988SOL     OW32596   4.355   3.832  12.181 -0.1113 -0.5332  0.4262
 6988SOL    HW132597   4.316   3.764  12.237 -1.7085  0.5991  0.7030
 6988SOL    HW232598   4.319   3.912  12.220  0.7073  1.7385 -3.5760
 6989SOL     OW32599   0.919   4.305  15.042 -0.3869  0.4683 -0.2215
 6989SOL    HW132600   0.922   4.374  15.108  0.3440  0.4917 -0.2838
 6989SOL    HW232601   0.867   4.230  15.072  1.7018 -0.8870  0.0214
 6990SOL     OW32602   2.386   1.819   5.713 -0.3841 -0.6230 -0.4960
 6990SOL    HW132603   2.357   1.863   5.633 -1.1179  1.8074  1.1143
 6990SOL    HW232604   2.328   1.876   5.763 -0.5130 -0.9050 -0.3245
 6991SOL     OW32605   2.322   1.515   9.216 -0.3171  0.0256  0.0910
 6991SOL    HW132606   2.305   1.441   9.275  0.2978 -0.2281 -0.0408
 6991SOL    HW232607   2.241   1.519   9.166  0.1820 -3.4256 -0.9705
 6992SOL     OW32608   2.055   1.619  14.165  0.1770  0.4222 -0.1919
 6992SOL    HW132609   1.969   1.654  14.144 -0.4393 -0.2639  1.2194
 6992SOL    HW232610   2.101   1.702  14.151  0.0947  0.4571 -0.2594
 6993SOL     OW32611   2.631   0.283  15.696  0.3114 -0.2420 -0.5359
 6993SOL    HW132612   2.633   0.371  15.734  1.5636 -0.0406 -1.0858
 6993SOL    HW232613   2.536   0.270  15.688  0.4547 -0.7495 -1.4219
 6994SOL     OW32614   2.323   1.998   1.052  0.0314  0.2726 -0.5895
 6994SOL    HW132615   2.302   1.912   1.016  0.4949  0.2171 -0.7265
 6994SOL    HW232616   2.412   2.006   1.016  0.3586  1.4435  0.4592
 6995SOL     OW32617   2.311   3.793   7.500 -0.1002  0.6246  0.2106
 6995SOL    HW132618   2.241   3.805   7.563  0.9835 -3.0377  2.1516
 6995SOL    HW232619   2.355   3.711   7.523  0.0098  0.4097 -0.7665
 6996SOL     OW32620   3.948   0.143   7.973  0.1350  0.0178 -0.9758
 6996SOL    HW132621   3.877   0.084   7.947  0.3429 -1.0616  0.8806
 6996SOL    HW232622   3.913   0.193   8.046  1.3700  1.3804 -1.3181
 6997SOL     OW32623   2.343   3.492   5.661  0.0802 -0.5480 -0.0409
 6997SOL    HW132624   2.337   3.529   5.749  1.4324 -1.1608  0.3124
 6997SOL    HW232625   2.410   3.553   5.631  0.3773 -1.6822 -1.7011
 6998SOL     OW32626   3.825   2.799   5.800 -0.1366  0.1191 -0.1602
 6998SOL    HW132627   3.798   2.740   5.871 -4.8638  3.1346  0.5263
 6998SOL    HW232628   3.768   2.761   5.733  0.6133 -1.7351  0.2439
 6999SOL     OW32629   3.794   4.491   6.572  0.0919 -0.0266 -0.1272
 6999SOL    HW132630   3.811   4.553   6.501  0.0494  2.2115  1.8311
 6999SOL    HW232631   3.708   4.463   6.542  0.8425 -0.2959 -2.0068
 7000SOL     OW32632   1.675   3.624   2.686 -0.2716 -0.0626 -0.6226
 7000SOL    HW132633   1.755   3.574   2.698 -0.3365 -0.0899 -0.3254
 7000SOL    HW232634   1.616   3.552   2.708 -0.6859 -0.1308 -1.9075
 7001SOL     OW32635   4.251   3.769   9.142  0.2727 -0.2088  0.1565
 7001SOL    HW132636   4.312   3.780   9.069  0.5491  0.9703  0.5566
 7001SOL    HW232637   4.254   3.857   9.179 -0.0238  0.2608 -0.9233
 7002SOL     OW32638   2.382   3.329   3.345  0.3854  0.6359 -0.0772
 7002SOL    HW132639   2.297   3.366   3.321 -0.6715 -0.3881  2.0457
 7002SOL    HW232640   2.393   3.261   3.278 -2.3934  0.5668 -0.4387
 7003SOL     OW32641   0.937   0.453   7.638  0.5274 -0.2015  0.3620
 7003SOL    HW132642   0.931   0.380   7.700 -1.1101 -2.1128 -2.0410
 7003SOL    HW232643   1.028   0.462   7.612  0.2086 -1.0861 -1.0845
 7004SOL     OW32644   0.861   1.972   7.997  0.2180  1.0635 -0.0556
 7004SOL    HW132645   0.946   2.012   8.018  1.0976 -1.3273  0.9737
 7004SOL    HW232646   0.850   2.009   7.910 -0.0892  0.0313 -0.4604
 7005SOL     OW32647   2.683   4.287   3.790  0.0246 -0.0966 -0.1622
 7005SOL    HW132648   2.691   4.250   3.702  1.7951  0.2966 -0.1786
 7005SOL    HW232649   2.627   4.364   3.775  0.9337  0.3261 -1.3923
 7006SOL     OW32650   2.799   1.869  16.949 -0.1221 -0.3094  0.5698
 7006SOL    HW132651   2.839   1.784  16.968 -1.6202 -1.5906 -2.0397
 7006SOL    HW232652   2.745   1.843  16.874 -0.7152 -0.5507  1.0765
 7007SOL     OW32653   2.427   3.393   3.019 -0.1935  0.2809 -0.4724
 7007SOL    HW132654   2.333   3.388   3.035  0.2546 -2.6953  1.2770
 7007SOL    HW232655   2.444   3.299   3.008 -0.0943  0.2282  0.1370
 7008SOL     OW32656   0.673   0.535  10.140 -0.1348 -0.1638 -0.7886
 7008SOL    HW132657   0.745   0.557  10.199 -1.2736  4.0131 -0.9318
 7008SOL    HW232658   0.709   0.571  10.059 -0.4548 -2.0603 -1.7758
 7009SOL     OW32659   2.389   0.926   2.373  0.1952  0.1085  0.6208
 7009SOL    HW132660   2.444   0.889   2.304 -0.1235  2.0257 -0.6397
 7009SOL    HW232661   2.425   1.014   2.385 -0.0346  0.4898 -1.4428
 7010SOL     OW32662   2.531   2.810   9.640 -0.2575  0.5428  0.4655
 7010SOL    HW132663   2.535   2.735   9.581  0.4148  0.2159  0.9244
 7010SOL    HW232664   2.529   2.776   9.729 -1.4526  0.3308  0.3570
 7011SOL     OW32665   1.894   3.540  17.528  0.0329 -0.5406 -0.5548
 7011SOL    HW132666   1.816   3.537  17.473 -1.1820  0.3356  1.1107
 7011SOL    HW232667   1.952   3.470  17.501 -0.6935 -1.7001  0.8648
 7012SOL     OW32668   0.452   1.060   6.834 -0.0142 -0.1051  0.2204
 7012SOL    HW132669   0.497   1.041   6.916 -2.4088  0.2924  1.6146
 7012SOL    HW232670   0.405   0.982   6.805 -0.0085 -0.2498  0.6009
 7013SOL     OW32671   1.214   1.201   3.654 -0.6733  0.5760 -0.4564
 7013SOL    HW132672   1.196   1.186   3.561 -2.1004  1.2320 -0.2858
 7013SOL    HW232673   1.304   1.229   3.637 -1.6391  2.7337 -2.0453
 7014SOL     OW32674   1.330   3.910   2.045 -0.3842  0.2797  0.3314
 7014SOL    HW132675   1.390   3.983   2.031 -1.4214  0.9228 -0.7333
 7014SOL    HW232676   1.292   3.930   2.131  1.3497 -0.2983  1.2450
 7015SOL     OW32677   3.258   2.928   6.731  0.0477 -0.1596  0.1020
 7015SOL    HW132678   3.218   2.872   6.797 -0.3803 -1.2330 -1.0466
 7015SOL    HW232679   3.217   2.885   6.655 -1.6063 -1.8271  1.9390
 7016SOL     OW32680   4.272   1.004   6.312  0.5314  0.0648  0.5414
 7016SOL    HW132681   4.343   0.975   6.369  1.4771  1.1408 -0.0884
 7016SOL    HW232682   4.260   1.093   6.345 -1.2252  0.4529 -1.1125
 7017SOL     OW32683   3.202   1.423   8.161  0.0292 -0.0736  0.5243
 7017SOL    HW132684   3.232   1.338   8.191  4.0342  0.6812 -1.2899
 7017SOL    HW232685   3.109   1.428   8.181 -0.2229  0.9100 -0.8396
 7018SOL     OW32686   2.397   2.533  14.830  0.2925 -0.0539 -0.5861
 7018SOL    HW132687   2.476   2.479  14.830 -0.3054 -0.9422 -0.1335
 7018SOL    HW232688   2.334   2.477  14.784 -1.5042  0.0704  1.7180
 7019SOL     OW32689   3.202   0.536   6.282 -0.3598 -0.4087  0.1219
 7019SOL    HW132690   3.156   0.619   6.292 -0.4444 -0.5589  1.0326
 7019SOL    HW232691   3.132   0.471   6.284  0.9037 -1.8105 -1.2737
 7020SOL     OW32692   0.189   2.374   5.965  0.0888  0.6487  0.7877
 7020SOL    HW132693   0.285   2.369   5.960  0.1704  2.5456  0.2112
 7020SOL    HW232694   0.172   2.401   6.055 -0.7639  0.6312  0.6273
 7021SOL     OW32695   2.154   2.301   5.726  0.2493  0.1359  0.9662
 7021SOL    HW132696   2.119   2.378   5.771  0.6655  1.3203 -0.7028
 7021SOL    HW232697   2.082   2.261   5.677  0.6089 -0.5975  1.0385
 7022SOL     OW32698   3.607   2.934   3.809 -0.3698  0.0526 -0.1444
 7022SOL    HW132699   3.555   2.978   3.742 -1.0623 -0.9264 -0.2528
 7022SOL    HW232700   3.657   3.008   3.844 -0.0422 -0.3135  0.1694
 7023SOL     OW32701   3.426   3.190  15.094 -0.1714  0.1790  0.0609
 7023SOL    HW132702   3.343   3.229  15.123 -0.6904 -0.6006 -0.3714
 7023SOL    HW232703   3.472   3.273  15.081 -0.8342  0.5144 -0.1897
 7024SOL     OW32704   0.069   2.436   0.013  0.5422 -0.3746 -0.2232
 7024SOL    HW132705   0.075   2.341   0.012  1.1835 -0.3250 -0.6159
 7024SOL    HW232706   0.024   2.467  17.679  0.0188 -2.4829 -0.7451
 7025SOL     OW32707   1.040   0.195   7.789  0.0667 -0.7452  0.3713
 7025SOL    HW132708   1.084   0.116   7.757  0.7531 -0.5140  0.7412
 7025SOL    HW232709   1.069   0.214   7.879 -3.6234  2.7039  0.8462
 7026SOL     OW32710   1.074   1.315   1.525 -0.1375  0.4193 -0.2717
 7026SOL    HW132711   1.126   1.342   1.601  0.4318  0.2404 -0.5961
 7026SOL    HW232712   1.138   1.261   1.478  0.0135  0.1901  0.1981
 7027SOL     OW32713   4.673   2.104   9.385  0.0349  0.0739 -0.1016
 7027SOL    HW132714   4.666   2.013   9.357  1.0655  0.0178 -0.1850
 7027SOL    HW232715   4.610   2.144   9.326 -0.8493  1.3011  1.6668
 7028SOL     OW32716   0.974   2.768   0.774 -0.0317  0.1463 -0.3596
 7028SOL    HW132717   0.987   2.832   0.703 -0.4908  0.4321 -0.1918
 7028SOL    HW232718   0.885   2.733   0.769  0.6076 -1.3744 -0.7403
 7029SOL     OW32719   2.180   1.787   5.438  0.2085  0.3189 -0.4315
 7029SOL    HW132720   2.184   1.709   5.382  0.6942  0.4559 -0.5930
 7029SOL    HW232721   2.118   1.758   5.505 -1.9884  0.5303 -2.3886
 7030SOL     OW32722   1.506   3.513   5.432  0.4087 -0.0661 -0.0953
 7030SOL    HW132723   1.420   3.536   5.398  0.6485  2.2153  0.8054
 7030SOL    HW232724   1.559   3.593   5.427 -1.0425  0.9904  1.2677
 7031SOL     OW32725   3.443   0.626   8.040  0.2457 -0.2514  0.1656
 7031SOL    HW132726   3.448   0.720   8.058  0.2540 -0.2408  0.1099
 7031SOL    HW232727   3.486   0.586   8.115  1.0459 -0.4467 -0.3932
 7032SOL     OW32728   1.119   2.844   5.461 -0.1777  0.3226 -0.1412
 7032SOL    HW132729   1.135   2.831   5.554 -1.5295  1.1685  0.2169
 7032SOL    HW232730   1.131   2.762   5.412 -4.9198 -1.0200  0.9404
 7033SOL     OW32731   2.151   3.391  11.286 -1.2661  0.7849  0.1504
 7033SOL    HW132732   2.084   3.447  11.247 -1.2168 -0.3196 -1.5202
 7033SOL    HW232733   2.162   3.325  11.218 -0.2557 -1.5650  2.5913
 7034SOL     OW32734   1.851   1.343  11.629 -0.2009 -0.4638 -0.4810
 7034SOL    HW132735   1.919   1.276  11.621 -0.6314 -0.7533 -1.7853
 7034SOL    HW232736   1.877   1.390  11.550 -1.3591 -2.0561 -1.8166
 7035SOL     OW32737   0.486   2.866   9.714  0.0184 -0.0599  0.4517
 7035SOL    HW132738   0.423   2.799   9.741 -0.2907  0.0284 -0.0447
 7035SOL    HW232739   0.488   2.915   9.796  1.0960  3.2506 -1.5407
 7036SOL     OW32740   2.547   0.233   4.736  0.1239 -0.7819  0.0625
 7036SOL    HW132741   2.503   0.171   4.794  0.6571 -1.9902 -0.8323
 7036SOL    HW232742   2.494   0.209   4.659  0.1972  0.0038 -0.2424
 7037SOL     OW32743   2.996   0.276   6.848 -0.1164 -0.2395  0.4150
 7037SOL    HW132744   3.031   0.339   6.785 -0.4830  0.0055  0.4604
 7037SOL    HW232745   3.071   0.238   6.894  0.6226 -1.4558 -1.7884
 7038SOL     OW32746   2.695   2.005   1.897  0.4164  0.2180  0.6783
 7038SOL    HW132747   2.673   1.970   1.983  0.6619  2.3518  1.5939
 7038SOL    HW232748   2.719   1.922   1.856 -0.0169 -0.0005  0.8655
 7039SOL     OW32749   1.531   0.369   4.591  0.1713 -0.9039 -0.1135
 7039SOL    HW132750   1.472   0.414   4.531 -1.1016 -1.8277  0.4500
 7039SOL    HW232751   1.531   0.289   4.539 -0.1880 -2.1588  1.8257
 7040SOL     OW32752   4.195   2.156   5.504 -0.2176 -0.0558  0.6317
 7040SOL    HW132753   4.160   2.075   5.540  2.0167 -0.1278  2.6658
 7040SOL    HW232754   4.166   2.154   5.413  1.7547 -1.7253  0.0525
 7041SOL     OW32755   2.276   4.507  10.396  0.1689  0.4667  0.1751
 7041SOL    HW132756   2.189   4.482  10.430 -0.7176 -0.7686 -3.0636
 7041SOL    HW232757   2.336   4.472  10.461 -1.6531 -0.3077  1.4670
 7042SOL     OW32758   0.050   3.112  15.720 -0.3823 -0.4479  0.0727
 7042SOL    HW132759   0.055   3.111  15.816  1.3667 -0.1625 -0.0238
 7042SOL    HW232760   4.696   3.144  15.715 -0.4569 -0.3760  1.6538
 7043SOL     OW32761   0.631   3.661   9.788  0.1074  0.5926  0.4578
 7043SOL    HW132762   0.614   3.747   9.748 -0.2987  0.2670 -0.0741
 7043SOL    HW232763   0.723   3.674   9.809  0.5894  1.9924 -2.5577
 7044SOL     OW32764   3.167   0.985   4.350 -0.2997  0.8534 -0.0216
 7044SOL    HW132765   3.261   0.985   4.364 -0.3584 -2.0138  0.3241
 7044SOL    HW232766   3.144   1.063   4.402 -0.2705  0.0614  1.1924
 7045SOL     OW32767   0.001   0.956  11.003  0.5638 -1.1011  0.0792
 7045SOL    HW132768   4.727   0.967  10.909  0.8992 -3.7389 -0.2562
 7045SOL    HW232769   4.694   0.872  11.017 -0.9832 -0.3347 -0.0145
 7046SOL     OW32770   1.747   2.052   7.557 -0.5372  0.1828 -0.3454
 7046SOL    HW132771   1.761   1.963   7.524  3.8294  0.7693 -0.1091
 7046SOL    HW232772   1.826   2.069   7.609 -0.9843 -0.1924  0.4578
 7047SOL     OW32773   1.052   3.752   0.904 -0.2215 -0.5359 -0.2579
 7047SOL    HW132774   1.104   3.673   0.884  1.8380  0.8623 -0.4098
 7047SOL    HW232775   1.014   3.762   0.817  0.0323 -0.9543 -0.4202
 7048SOL     OW32776   4.536   0.911  10.543 -0.1315 -0.4283  0.2988
 7048SOL    HW132777   4.543   0.868  10.458  2.9249  1.9849 -0.6681
 7048SOL    HW232778   4.440   0.919  10.547 -0.2536 -1.8840  0.5431
 7049SOL     OW32779   0.238   4.499   4.357 -0.3057  0.0686 -0.5609
 7049SOL    HW132780   0.264   4.563   4.291  1.0691 -3.2257 -3.2185
 7049SOL    HW232781   0.317   4.458   4.391  0.8278  2.1054 -0.7291
 7050SOL     OW32782   1.670   1.411  11.854  0.0211  0.8205  0.2508
 7050SOL    HW132783   1.713   1.347  11.912 -1.2501  0.6794  1.0353
 7050SOL    HW232784   1.742   1.410  11.791 -0.2126  3.0440 -0.0388
 7051SOL     OW32785   0.608   0.371   2.549  0.4108 -0.3806  0.0412
 7051SOL    HW132786   0.566   0.328   2.474 -0.0798 -1.8751  1.1668
 7051SOL    HW232787   0.650   0.444   2.505 -0.6206 -0.1286 -0.5210
 7052SOL     OW32788   4.184   3.375   0.425  0.3504 -0.1161 -0.1410
 7052SOL    HW132789   4.269   3.387   0.468 -0.1320  0.4103  0.6575
 7052SOL    HW232790   4.207   3.436   0.355 -1.1112 -0.1415 -0.6394
 7053SOL     OW32791   1.996   2.765  14.060 -0.8336 -0.2200  0.3343
 7053SOL    HW132792   2.067   2.702  14.053 -1.5932 -1.3030  2.3093
 7053SOL    HW232793   1.958   2.753  14.148  1.8278 -1.1663  1.3356
 7054SOL     OW32794   0.099   2.068  16.384  0.0903 -0.1807  0.4533
 7054SOL    HW132795   0.055   1.983  16.388  0.9494 -0.7021 -1.1727
 7054SOL    HW232796   0.078   2.097  16.295 -0.5929  0.9930  1.0043
 7055SOL     OW32797   3.180   4.178   6.823  0.5248  0.3155 -0.4478
 7055SOL    HW132798   3.169   4.265   6.786 -2.2789  0.6811  1.2539
 7055SOL    HW232799   3.259   4.196   6.873 -0.5889  0.5164  1.2429
 7056SOL     OW32800   0.310   0.276  16.645 -0.5901  0.2416 -0.3538
 7056SOL    HW132801   0.365   0.332  16.589 -0.9392  0.3356 -0.5985
 7056SOL    HW232802   0.269   0.340  16.703 -0.2214 -0.5945  0.8444
 7057SOL     OW32803   3.968   1.604   2.608 -0.0537  0.2644 -0.1653
 7057SOL    HW132804   3.932   1.529   2.655 -0.6253 -1.0046 -2.5969
 7057SOL    HW232805   3.931   1.590   2.521  1.3224  0.3859 -0.7705
 7058SOL     OW32806   3.146   0.230   6.550  0.2139  0.0375 -0.4014
 7058SOL    HW132807   3.072   0.207   6.605  0.6957  0.6243  0.4891
 7058SOL    HW232808   3.156   0.321   6.577 -1.4336  0.4719 -1.2499
 7059SOL     OW32809   2.228   0.010   2.764 -0.0130 -0.3672  0.0550
 7059SOL    HW132810   2.141   0.048   2.749  0.6423  0.8391 -0.6456
 7059SOL    HW232811   2.204   4.665   2.807 -2.8510 -0.1700 -1.1599
 7060SOL     OW32812   4.575   4.267  17.058  0.2662  0.2330 -0.4387
 7060SOL    HW132813   4.482   4.262  17.081  0.1951 -0.3323 -0.8458
 7060SOL    HW232814   4.607   4.311  17.137  1.7372 -1.9470  0.1788
 7061SOL     OW32815   3.388   4.351  11.346  0.3805  0.1997  0.7203
 7061SOL    HW132816   3.371   4.284  11.412 -2.7774  0.8891  0.5784
 7061SOL    HW232817   3.367   4.427  11.399 -0.7149  0.5169 -0.1712
 7062SOL     OW32818   2.839   4.526   5.171 -0.1582  0.1804 -0.1472
 7062SOL    HW132819   2.749   4.559   5.169 -0.9814 -2.1632 -2.3128
 7062SOL    HW232820   2.886   4.600   5.132 -0.3043  0.0264 -0.6206
 7063SOL     OW32821   2.917   0.588  16.588 -0.5567  0.1406  0.1061
 7063SOL    HW132822   2.866   0.646  16.531  0.8168  1.2680  0.0410
 7063SOL    HW232823   3.000   0.634  16.573 -1.4145  1.2820 -1.1171
 7064SOL     OW32824   0.488   0.087   6.796  0.2351  0.0456 -0.2431
 7064SOL    HW132825   0.428   0.074   6.722  1.0036 -0.9150 -0.6903
 7064SOL    HW232826   0.562   0.040   6.758  0.6390  0.6269 -0.1778
 7065SOL     OW32827   3.524   4.479   7.333  0.7460  0.5149 -0.2717
 7065SOL    HW132828   3.609   4.494   7.292 -0.1819  0.4263 -2.2091
 7065SOL    HW232829   3.469   4.554   7.312 -1.9693 -1.0693  1.2327
 7066SOL     OW32830   2.220   1.904   2.915  0.2599  0.2776 -0.1111
 7066SOL    HW132831   2.285   1.861   2.860 -0.0397  2.9748 -2.5527
 7066SOL    HW232832   2.222   1.994   2.884  0.0313  1.0079  2.0378
 7067SOL     OW32833   3.018   1.952   0.971 -0.1716 -0.0866  0.1945
 7067SOL    HW132834   3.018   1.857   0.984 -1.4065 -0.3647 -1.8861
 7067SOL    HW232835   3.006   1.954   0.876  1.9787  0.2391 -0.0734
 7068SOL     OW32836   1.930   3.997  11.078  0.2658 -0.1406  0.6600
 7068SOL    HW132837   2.020   4.022  11.059 -0.5813  0.2654 -2.6901
 7068SOL    HW232838   1.904   3.954  10.997 -0.1904  0.2483  0.5987
 7069SOL     OW32839   2.233   2.361  14.729  0.4635  0.0985 -0.1959
 7069SOL    HW132840   2.139   2.341  14.732  0.7887 -1.6071 -2.0023
 7069SOL    HW232841   2.269   2.286  14.682  1.1503  1.8807 -2.5093
 7070SOL     OW32842   0.739   1.944   3.638  0.0021  0.5786  0.1965
 7070SOL    HW132843   0.770   1.872   3.692 -0.5093  1.1053  1.1886
 7070SOL    HW232844   0.774   1.911   3.555  1.5981  1.5934  0.4577
 7071SOL     OW32845   4.724   3.358  13.500  0.0156  0.3333 -0.2390
 7071SOL    HW132846   0.056   3.421  13.478  2.5342 -1.9265  1.2308
 7071SOL    HW232847   0.032   3.275  13.517  1.0647  1.2093  1.3230
 7072SOL     OW32848   1.411   2.762   2.388 -0.0105  0.4980 -0.4895
 7072SOL    HW132849   1.377   2.674   2.373 -0.9418  0.9103 -0.8189
 7072SOL    HW232850   1.502   2.772   2.360 -0.3134  1.2253 -1.2016
 7073SOL     OW32851   1.939   0.005  14.443 -0.2721 -0.0099 -0.5323
 7073SOL    HW132852   1.876   0.075  14.423 -0.7294  0.2655  1.9398
 7073SOL    HW232853   1.940   4.676  14.373  1.2657 -1.7549  1.1037
 7074SOL     OW32854   4.478   1.483  10.958 -0.0871 -0.3795 -0.3188
 7074SOL    HW132855   4.448   1.483  11.048  0.5871 -0.7417 -0.0942
 7074SOL    HW232856   4.514   1.572  10.957  0.3657 -0.5723 -1.6741
 7075SOL     OW32857   2.364   0.916   7.752  0.4818  0.3298  0.1998
 7075SOL    HW132858   2.359   1.009   7.777  2.1127  1.1394 -2.4937
 7075SOL    HW232859   2.300   0.924   7.682  0.6702  1.4330  0.1412
 7076SOL     OW32860   4.721   3.155   9.448  0.6280  0.2216 -0.0553
 7076SOL    HW132861   4.675   3.227   9.404  1.8896  0.4274 -1.0471
 7076SOL    HW232862   4.706   3.089   9.380 -0.4194  2.0424 -1.5980
 7077SOL     OW32863   4.153   2.704   5.893  0.1662 -0.4855  0.3458
 7077SOL    HW132864   4.225   2.650   5.861  2.5500  3.1881 -0.4644
 7077SOL    HW232865   4.075   2.649   5.886 -0.9572  1.0080  0.9747
 7078SOL     OW32866   3.496   3.117   8.963  0.0126  0.0594  0.0677
 7078SOL    HW132867   3.420   3.085   8.914 -0.3184 -0.0102  0.6312
 7078SOL    HW232868   3.563   3.078   8.907  1.6986 -0.6880  2.6357
 7079SOL     OW32869   2.356   1.905   8.251  0.3906  0.0464 -0.3244
 7079SOL    HW132870   2.281   1.948   8.291 -0.4790 -1.0428 -0.7790
 7079SOL    HW232871   2.408   1.984   8.239  0.8439 -0.4009 -1.2746
 7080SOL     OW32872   0.728   2.198   9.790 -0.2441 -0.4692  0.1306
 7080SOL    HW132873   0.645   2.153   9.776  0.8530 -2.4132 -0.0863
 7080SOL    HW232874   0.698   2.284   9.761  0.6006 -0.8466 -1.8635
 7081SOL     OW32875   2.640   3.436  14.741  0.2209  0.0164  0.6326
 7081SOL    HW132876   2.648   3.435  14.836  1.0196 -1.6048  0.5423
 7081SOL    HW232877   2.548   3.415  14.722  0.2606  1.3741 -1.0420
 7082SOL     OW32878   3.841   0.812   9.628 -0.0301  0.1764 -0.6456
 7082SOL    HW132879   3.775   0.801   9.696  0.4310  1.5499  0.0264
 7082SOL    HW232880   3.878   0.723   9.632 -0.9343 -0.1459  0.4839
 7083SOL     OW32881   1.308   0.582   7.266  0.0950  0.0949  0.0874
 7083SOL    HW132882   1.364   0.563   7.341  1.7940 -1.7629 -1.6301
 7083SOL    HW232883   1.349   0.532   7.195  0.7987  1.6867 -0.6442
 7084SOL     OW32884   0.030   2.463   9.120  0.2927  0.9910  0.2012
 7084SOL    HW132885   0.094   2.467   9.190 -0.3309 -0.1748  0.8443
 7084SOL    HW232886   4.695   2.451   9.183  0.1117  1.4243  0.0774
 7085SOL     OW32887   0.322   3.455   7.302 -0.3777  0.4326  0.0797
 7085SOL    HW132888   0.325   3.381   7.241  0.2036  0.8887 -0.4439
 7085SOL    HW232889   0.359   3.527   7.251  3.7297 -0.9437  1.1245
 7086SOL     OW32890   2.127   2.683   8.202  0.4416  0.1498 -0.2139
 7086SOL    HW132891   2.060   2.633   8.249  0.2856 -0.2063 -0.8023
 7086SOL    HW232892   2.179   2.615   8.159  1.0554  1.4880 -1.5887
 7087SOL     OW32893   3.959   0.993   9.840 -0.1134 -0.3042  0.3631
 7087SOL    HW132894   3.943   0.976   9.747 -0.2785  0.5829  0.2224
 7087SOL    HW232895   4.015   1.070   9.831 -0.0083 -0.4694 -0.4647
 7088SOL     OW32896   3.321   1.827   5.465 -0.2619 -0.3359 -0.2830
 7088SOL    HW132897   3.235   1.868   5.465 -0.1471 -0.0907 -1.1094
 7088SOL    HW232898   3.377   1.905   5.465  1.6219 -1.6840 -2.1785
 7089SOL     OW32899   3.664   0.507   1.709 -0.1805 -0.1643 -0.4712
 7089SOL    HW132900   3.754   0.477   1.695  0.1749 -0.7621  3.0752
 7089SOL    HW232901   3.625   0.443   1.768  2.3742 -1.9821 -0.7266
 7090SOL     OW32902   4.578   1.831   8.277 -0.2583  0.8450  0.7251
 7090SOL    HW132903   4.645   1.858   8.214 -1.0194 -1.0414 -0.8926
 7090SOL    HW232904   4.621   1.844   8.362  0.7114  1.0240  0.2117
 7091SOL     OW32905   2.506   3.429  14.397  0.2571  0.1504 -0.3503
 7091SOL    HW132906   2.573   3.372  14.436  2.0453  2.4701 -0.0612
 7091SOL    HW232907   2.429   3.372  14.402  0.4163 -0.1058 -0.8324
 7092SOL     OW32908   3.738   4.181   0.190  0.4040  0.0240  0.0812
 7092SOL    HW132909   3.658   4.234   0.188  0.1010 -0.4977 -1.3196
 7092SOL    HW232910   3.789   4.209   0.115  1.5292 -0.6460  0.5994
 7093SOL     OW32911   3.784   0.568   6.985  0.1446  0.3441 -0.3187
 7093SOL    HW132912   3.838   0.511   6.930 -1.1797 -1.1383 -0.0901
 7093SOL    HW232913   3.699   0.526   6.976 -0.0007  0.7106 -0.6484
 7094SOL     OW32914   1.993   1.294   4.235  1.1848 -0.5683 -0.6683
 7094SOL    HW132915   1.946   1.323   4.313  1.3758  1.1884 -1.2195
 7094SOL    HW232916   1.998   1.198   4.240 -0.6549 -0.7331 -2.2231
 7095SOL     OW32917   2.856   0.983   7.107 -0.2766 -0.1207 -0.1354
 7095SOL    HW132918   2.934   1.022   7.066 -0.3171  0.0027 -0.0934
 7095SOL    HW232919   2.893   0.950   7.189 -0.5967 -0.0824  0.0247
 7096SOL     OW32920   0.998   4.420   9.038  0.0774 -0.3156 -0.2242
 7096SOL    HW132921   1.005   4.425   8.943  0.8295 -2.1617 -0.2707
 7096SOL    HW232922   1.018   4.328   9.057  1.0217  0.1353  1.0075
 7097SOL     OW32923   1.227   1.558   3.312 -0.0198 -0.6004 -0.2717
 7097SOL    HW132924   1.147   1.553   3.261  0.8467 -2.6677 -1.4362
 7097SOL    HW232925   1.281   1.612   3.254  0.2842 -0.0219  0.5516
 7098SOL     OW32926   0.364   0.012   6.553  0.4248 -0.0150 -0.6485
 7098SOL    HW132927   0.305   0.053   6.490  0.3632  1.2521  0.2383
 7098SOL    HW232928   0.385   4.668   6.505 -2.8065 -0.9727 -0.5250
 7099SOL     OW32929   3.325   2.151   4.479  0.2506  0.1583 -0.2090
 7099SOL    HW132930   3.244   2.198   4.498  1.4791  2.1134  0.1223
 7099SOL    HW232931   3.358   2.206   4.409 -0.3796 -0.4761 -1.0098
 7100SOL     OW32932   0.626   0.986  10.868  0.5189 -0.4168  0.0851
 7100SOL    HW132933   0.638   1.073  10.829 -1.1167 -0.1301  0.2259
 7100SOL    HW232934   0.672   0.923  10.813 -2.0447 -2.3235  0.1839
 7101SOL     OW32935   1.108   0.580  12.496 -0.0462  0.5378 -0.1623
 7101SOL    HW132936   1.133   0.528  12.572  1.8613 -0.6178 -1.5630
 7101SOL    HW232937   1.019   0.598  12.527  0.5906 -0.1388  2.0449
 7102SOL     OW32938   2.892   0.160   3.937  0.4678  0.3052 -0.5911
 7102SOL    HW132939   2.861   0.169   4.027  0.5177  0.0481 -0.5477
 7102SOL    HW232940   2.852   0.078   3.908  1.5998 -0.3032 -0.4623
 7103SOL     OW32941   1.184   3.378   7.940 -1.0367 -0.3058 -0.0562
 7103SOL    HW132942   1.105   3.374   7.886  0.3079  1.4534 -2.2002
 7103SOL    HW232943   1.215   3.463   7.909  0.8939 -1.1162 -0.3466
 7104SOL     OW32944   1.765   3.023  14.027  0.6778 -0.2609  0.2103
 7104SOL    HW132945   1.839   2.994  13.974 -0.3165 -0.1427 -1.2501
 7104SOL    HW232946   1.795   3.114  14.031 -0.8825  0.2115  1.0751
 7105SOL     OW32947   3.870   0.317  10.441  1.1527  0.3763  0.0991
 7105SOL    HW132948   3.954   0.313  10.394  0.1821 -0.1102 -1.5869
 7105SOL    HW232949   3.813   0.250  10.404  2.0424 -0.7600  0.7971
 7106SOL     OW32950   0.022   1.148   1.546  0.3585  0.5564 -0.7996
 7106SOL    HW132951   0.008   1.073   1.604  0.3593 -0.9455 -2.7247
 7106SOL    HW232952   0.030   1.222   1.606 -1.0642 -0.3462  0.5081
 7107SOL     OW32953   3.873   2.051   4.377  0.4549 -0.6693 -0.0481
 7107SOL    HW132954   3.917   1.991   4.317 -1.5751 -2.9908  0.7924
 7107SOL    HW232955   3.789   2.005   4.386 -1.2728  2.3423 -0.5175
 7108SOL     OW32956   1.050   1.208   9.664 -1.1415  0.0863  0.4525
 7108SOL    HW132957   1.063   1.147   9.736 -2.2437 -1.1173 -0.3844
 7108SOL    HW232958   1.073   1.289   9.710 -0.7327  0.2851 -0.0994
 7109SOL     OW32959   1.735   4.715   5.140  0.3356  0.3533 -0.1794
 7109SOL    HW132960   1.704   4.677   5.058  0.2165  0.1965 -0.0605
 7109SOL    HW232961   1.690   4.659   5.203  0.7944  3.3116  2.7563
 7110SOL     OW32962   3.685   4.345   1.789 -0.2301  0.5596  0.5803
 7110SOL    HW132963   3.678   4.402   1.865 -3.6429  2.9128 -1.4964
 7110SOL    HW232964   3.747   4.282   1.825  0.5283  0.5953 -0.6795
 7111SOL     OW32965   3.626   0.151   6.935  0.1469  0.0840 -0.0394
 7111SOL    HW132966   3.698   0.138   6.998  0.1873  1.2927  0.1523
 7111SOL    HW232967   3.557   0.107   6.984  0.4453  1.5543  1.6933
 7112SOL     OW32968   1.743   3.663   3.965  0.2306 -0.0188 -0.5357
 7112SOL    HW132969   1.673   3.728   3.971  0.9525  0.7594 -0.6829
 7112SOL    HW232970   1.801   3.686   4.037 -0.3903  0.8387 -0.3125
 7113SOL     OW32971   3.279   2.043   8.388  0.0450 -0.3743  0.6596
 7113SOL    HW132972   3.219   2.005   8.453 -0.1157 -1.6136 -0.1981
 7113SOL    HW232973   3.222   2.023   8.314 -0.8761  2.9366  0.4934
 7114SOL     OW32974   4.686   1.445   5.373 -0.0936 -0.4585 -0.1652
 7114SOL    HW132975   4.616   1.500   5.409 -0.7104 -2.2842  1.4001
 7114SOL    HW232976   4.686   1.372   5.434 -0.7578 -0.8963 -0.6856
 7115SOL     OW32977   1.271   3.377   2.602 -0.3742  0.3737  0.5324
 7115SOL    HW132978   1.273   3.337   2.515 -0.9044  2.3323 -0.3901
 7115SOL    HW232979   1.243   3.466   2.583 -1.2813 -0.2671 -1.1278
 7116SOL     OW32980   0.533   1.164   8.073  0.2459 -0.1718 -0.1137
 7116SOL    HW132981   0.515   1.220   8.148  1.0073 -1.8763  1.3555
 7116SOL    HW232982   0.476   1.202   8.006 -1.3715  2.4049  2.7498
 7117SOL     OW32983   1.269   3.684   5.235  0.1974 -0.2821 -0.4360
 7117SOL    HW132984   1.268   3.611   5.173 -1.7776 -0.1127 -0.6177
 7117SOL    HW232985   1.325   3.740   5.181 -0.4984 -0.3777 -1.2587
 7118SOL     OW32986   3.553   0.526  10.108  0.0943 -0.0656  0.8098
 7118SOL    HW132987   3.555   0.609  10.156  0.9252  0.3149  0.1111
 7118SOL    HW232988   3.645   0.523  10.082 -0.7550  2.7193 -2.4430
 7119SOL     OW32989   1.654   2.008  10.566 -0.2839 -0.1192 -0.3726
 7119SOL    HW132990   1.664   1.919  10.600 -2.1481  0.0376  0.5794
 7119SOL    HW232991   1.658   2.052  10.651 -1.4418  0.0005 -0.3815
 7120SOL     OW32992   4.088   0.388   1.978 -0.0598  0.2061 -0.0185
 7120SOL    HW132993   4.167   0.425   2.017 -0.3949  0.4376  0.4423
 7120SOL    HW232994   4.118   0.359   1.892 -0.8703  0.5160 -0.4075
 7121SOL     OW32995   1.586   3.872  14.867  0.0852 -0.1897 -0.2941
 7121SOL    HW132996   1.576   3.864  14.772  1.6293  0.3298 -0.5018
 7121SOL    HW232997   1.620   3.961  14.872 -0.2970 -0.0989  0.6320
 7122SOL     OW32998   3.521   2.298   4.683  0.2042 -0.5738 -0.0868
 7122SOL    HW132999   3.543   2.391   4.683 -1.0685 -0.2755 -0.0354
 7122SOL    HW233000   3.428   2.298   4.660  0.6025 -2.3231 -1.7082
 7123SOL     OW33001   2.967   2.818   7.244 -0.4229 -0.1261  0.1318
 7123SOL    HW133002   2.980   2.907   7.276  1.4037 -0.4693  0.3625
 7123SOL    HW233003   2.934   2.841   7.158 -0.9977 -3.1919 -0.4881
 7124SOL     OW33004   0.866   2.072  16.990 -0.3530  0.1013  0.6645
 7124SOL    HW133005   0.891   2.163  16.979  0.6288 -0.3991 -1.3170
 7124SOL    HW233006   0.821   2.079  17.075  0.5336  0.1378  1.1280
 7125SOL     OW33007   2.222   0.790   2.576  0.0552  0.0309 -0.0058
 7125SOL    HW133008   2.273   0.827   2.504  1.9148  0.4292  1.5137
 7125SOL    HW233009   2.149   0.852   2.575 -0.1309 -0.2461 -3.1419
 7126SOL     OW33010   3.885   1.290   6.481 -0.4940 -0.1967 -0.7636
 7126SOL    HW133011   3.890   1.358   6.414 -0.5820  0.5160 -0.0533
 7126SOL    HW233012   3.829   1.225   6.439 -0.1537 -0.1788 -1.2331
 7127SOL     OW33013   0.105   4.172  10.906 -0.1343  0.1518  0.2746
 7127SOL    HW133014   0.177   4.147  10.964 -1.3357  0.9828  2.1694
 7127SOL    HW233015   0.109   4.096  10.849 -0.1726  0.6435 -0.3745
 7128SOL     OW33016   0.140   0.179  12.738 -0.0493 -0.1425  0.5749
 7128SOL    HW133017   0.199   0.193  12.664 -0.1250 -1.2331  0.2996
 7128SOL    HW233018   0.062   0.222  12.704  0.3393  1.0810  1.2328
 7129SOL     OW33019   3.544   4.496   3.867  0.2073  0.1552  0.1622
 7129SOL    HW133020   3.557   4.579   3.821  0.7802 -0.4331 -0.7472
 7129SOL    HW233021   3.521   4.431   3.800  3.5270 -0.4870 -0.3640
 7130SOL     OW33022   0.671   1.270   1.103  0.3732  0.1041 -0.0873
 7130SOL    HW133023   0.722   1.303   1.177 -0.4951  0.5448  0.3097
 7130SOL    HW233024   0.669   1.355   1.059 -0.5140  0.5979  0.9163
 7131SOL     OW33025   2.831   2.867   5.111 -0.1267  0.5602 -0.1408
 7131SOL    HW133026   2.914   2.819   5.116  0.1129  0.9221 -0.5677
 7131SOL    HW233027   2.763   2.801   5.121 -0.2278  0.7024  0.1227
 7132SOL     OW33028   4.580   1.742   3.782  0.1939 -0.0076  0.5828
 7132SOL    HW133029   4.607   1.680   3.849  0.0959  0.6882  1.2564
 7132SOL    HW233030   4.563   1.822   3.831  0.7635 -0.0109  0.7819
 7133SOL     OW33031   3.610   0.708   3.081 -0.1824 -0.1008  0.1473
 7133SOL    HW133032   3.653   0.793   3.086 -0.1106 -0.2691  2.4273
 7133SOL    HW233033   3.570   0.693   3.167  1.2119 -2.3319  0.3913
 7134SOL     OW33034   1.282   0.964  12.829  0.0698 -0.4498  0.4133
 7134SOL    HW133035   1.246   0.898  12.889 -1.9620  1.6782  1.5621
 7134SOL    HW233036   1.358   0.924  12.787  0.4106 -0.2762  0.8559
 7135SOL     OW33037   2.210   1.338   1.164  0.2979  0.1805 -0.4724
 7135SOL    HW133038   2.230   1.397   1.236 -1.2318  0.4580 -0.2802
 7135SOL    HW233039   2.289   1.340   1.109  0.2543  1.4598 -0.5049
 7136SOL     OW33040   3.135   2.280  12.666 -0.5711 -0.2455 -0.1833
 7136SOL    HW133041   3.198   2.242  12.605  1.3403  1.5015  0.7202
 7136SOL    HW233042   3.194   2.301  12.738 -0.5057 -1.2011  0.0497
 7137SOL     OW33043   2.381   0.371   8.293 -0.0440 -0.7132  0.3055
 7137SOL    HW133044   2.377   0.399   8.201  0.5905 -1.7030 -0.0262
 7137SOL    HW233045   2.293   0.337   8.308 -0.1061 -1.5100 -1.9133
 7138SOL     OW33046   1.636   2.435  12.534 -0.2224  0.4487 -0.0558
 7138SOL    HW133047   1.679   2.349  12.538 -2.1839 -0.5716 -0.8558
 7138SOL    HW233048   1.674   2.470  12.614 -0.7867 -0.1387  0.4707
 7139SOL     OW33049   3.103   0.917   4.972 -0.0535  0.0857 -0.1288
 7139SOL    HW133050   3.056   0.951   5.048 -1.7294  0.5688 -1.3703
 7139SOL    HW233051   3.155   0.996   4.957 -0.6579  0.2688 -1.2713
 7140SOL     OW33052   4.029   2.781  13.621 -0.0751 -0.7601  0.1094
 7140SOL    HW133053   3.939   2.751  13.629 -0.3694 -0.1031 -0.7550
 7140SOL    HW233054   4.037   2.829  13.704  0.8340  0.7286 -0.8315
 7141SOL     OW33055   4.226   4.011   3.148  0.0006 -0.3884 -0.0616
 7141SOL    HW133056   4.165   4.058   3.091 -0.4911 -2.3282 -1.1402
 7141SOL    HW233057   4.181   3.932   3.176 -0.8806  0.1631  0.0539
 7142SOL     OW33058   4.523   4.365   1.855 -0.1520 -0.4418  0.0680
 7142SOL    HW133059   4.594   4.362   1.791 -1.6381  3.2794 -1.7308
 7142SOL    HW233060   4.544   4.426   1.926  1.2505  1.5508 -2.0548
 7143SOL     OW33061   2.730   3.055   1.215 -0.1631 -0.1128  0.0660
 7143SOL    HW133062   2.815   3.096   1.197 -0.1219  0.5737  1.8785
 7143SOL    HW233063   2.674   3.086   1.143  1.2551 -1.1763 -1.5107
 7144SOL     OW33064   0.854   3.386   1.979  0.4228  0.6868 -0.0687
 7144SOL    HW133065   0.874   3.295   2.002  1.4228  0.4122 -2.0116
 7144SOL    HW233066   0.816   3.379   1.892  0.4846 -2.8048  0.1879
 7145SOL     OW33067   3.037   0.961   3.319 -0.1965  0.2605  0.0901
 7145SOL    HW133068   3.071   0.931   3.404  0.9352  0.6441 -0.2261
 7145SOL    HW233069   3.030   1.053   3.343 -0.8574  0.5895 -1.4043
 7146SOL     OW33070   0.086   2.987  15.219 -0.0509 -0.0533  0.4265
 7146SOL    HW133071   0.141   3.040  15.161  1.4933 -0.7585  1.2441
 7146SOL    HW233072   0.152   2.945  15.275  0.1200 -0.1518  0.1533
 7147SOL     OW33073   1.276   1.613   6.589 -0.1548 -0.0870  0.0336
 7147SOL    HW133074   1.194   1.659   6.603  0.3937  1.4187 -1.5703
 7147SOL    HW233075   1.305   1.589   6.677  0.1471  1.2357  0.2941
 7148SOL     OW33076   3.791   4.493  16.692 -0.4048  0.5669 -0.0151
 7148SOL    HW133077   3.747   4.578  16.685 -0.1240  0.7579  0.5645
 7148SOL    HW233078   3.853   4.506  16.763 -0.3798 -1.5576  0.3463
 7149SOL     OW33079   2.402   3.223   6.339 -0.1398 -0.4934 -0.0580
 7149SOL    HW133080   2.496   3.217   6.327  0.0326 -0.6438  1.3794
 7149SOL    HW233081   2.380   3.130   6.343  1.4757 -0.8427  0.3866
 7150SOL     OW33082   0.078   4.044  17.666 -0.0284  0.2274 -0.1086
 7150SOL    HW133083   0.066   3.998   0.004  0.7465  0.2587  0.0239
 7150SOL    HW233084   0.163   4.017  17.632  1.2633  1.0641  2.4404
 7151SOL     OW33085   0.578   0.580   6.785 -0.4678 -0.0640  0.3789
 7151SOL    HW133086   0.596   0.515   6.853 -0.1247  1.1606  1.4598
 7151SOL    HW233087   0.485   0.571   6.765 -0.1705 -0.8275 -0.6607
 7152SOL     OW33088   1.188   4.626  12.567 -0.3624 -0.1801 -0.2015
 7152SOL    HW133089   1.163   4.557  12.506  1.4332 -0.7500 -0.2847
 7152SOL    HW233090   1.264   4.586  12.610  0.0748  0.4957 -0.3421
 7153SOL     OW33091   1.926   2.725   4.849 -0.3599 -0.5986  0.3979
 7153SOL    HW133092   1.992   2.684   4.793  0.3013 -0.1803  0.8654
 7153SOL    HW233093   1.975   2.752   4.927  1.8300  0.4877 -1.3600
 7154SOL     OW33094   4.519   2.316   8.533  0.2614  0.0885  0.1420
 7154SOL    HW133095   4.514   2.356   8.619 -3.0418 -0.3959  0.1809
 7154SOL    HW233096   4.518   2.402   8.491 -0.3123 -0.4968 -1.0517
 7155SOL     OW33097   4.422   2.096   8.813 -0.2502  0.4621 -0.0974
 7155SOL    HW133098   4.443   2.004   8.798 -3.2316 -0.4399  1.3119
 7155SOL    HW233099   4.508   2.126   8.785  1.3373 -2.2031  1.9918
 7156SOL     OW33100   1.651   0.803  12.846  0.6217  0.1188  0.2018
 7156SOL    HW133101   1.651   0.717  12.889 -2.2708  0.3106  0.5382
 7156SOL    HW233102   1.677   0.861  12.918  0.0039 -2.3551  2.4411
 7157SOL     OW33103   2.457   3.327   7.593 -0.4257  0.1234 -0.1760
 7157SOL    HW133104   2.551   3.344   7.588  0.0596 -3.1342 -2.5204
 7157SOL    HW233105   2.424   3.411   7.624  2.3800  1.2464 -0.2566
 7158SOL     OW33106   4.055   4.591   8.721 -0.2651 -0.1730 -0.1341
 7158SOL    HW133107   3.978   4.622   8.673  0.4260 -0.2061 -1.2869
 7158SOL    HW233108   4.080   4.511   8.674 -2.2094 -0.9641  0.2022
 7159SOL     OW33109   1.395   4.160   4.409  0.2288 -0.2481  0.3426
 7159SOL    HW133110   1.376   4.129   4.320  1.7553  1.5199 -0.6164
 7159SOL    HW233111   1.324   4.117   4.456  1.9053 -1.7254  1.5273
 7160SOL     OW33112   0.887   2.347   7.949  0.6162  0.5359  0.1412
 7160SOL    HW133113   0.864   2.269   7.900  1.1145 -0.1947  1.0704
 7160SOL    HW233114   0.882   2.411   7.878 -1.9452 -0.8662 -0.9217
 7161SOL     OW33115   1.132   4.325   2.090 -0.3706  0.0353 -0.0438
 7161SOL    HW133116   1.180   4.401   2.056  1.0508 -0.4919  0.8002
 7161SOL    HW233117   1.059   4.328   2.028  2.4956  0.9451 -3.4063
 7162SOL     OW33118   2.688   3.777   6.521  0.5443  0.9312 -0.4808
 7162SOL    HW133119   2.686   3.704   6.582  1.5179  0.1599 -1.3734
 7162SOL    HW233120   2.611   3.819   6.558 -0.4371  0.8661 -2.4386
 7163SOL     OW33121   1.356   3.228   5.555 -0.5695 -0.9635  0.2367
 7163SOL    HW133122   1.308   3.254   5.476  1.7179  1.7138 -0.2606
 7163SOL    HW233123   1.438   3.189   5.526 -0.5392  0.6205 -1.7994
 7164SOL     OW33124   2.153   1.750   6.412  0.0790 -0.1310  0.2454
 7164SOL    HW133125   2.187   1.834   6.379 -0.7204 -0.6242 -1.8390
 7164SOL    HW233126   2.074   1.732   6.361 -0.9960  0.8535  1.5780
 7165SOL     OW33127   3.596   0.206   1.470 -0.9869  0.6407 -0.2256
 7165SOL    HW133128   3.643   0.167   1.545 -0.4507  0.7106 -0.5241
 7165SOL    HW233129   3.529   0.259   1.512 -0.6707 -1.0767  2.4559
 7166SOL     OW33130   0.860   3.209   8.843 -0.0318  0.3011 -0.0458
 7166SOL    HW133131   0.943   3.194   8.798 -0.8785 -0.4172 -1.3635
 7166SOL    HW233132   0.875   3.287   8.896  2.4808  0.7417 -1.4254
 7167SOL     OW33133   0.010   0.025  12.312  0.3475  0.1008  0.7731
 7167SOL    HW133134   4.715   0.114  12.329 -0.4897  0.1281 -0.8488
 7167SOL    HW233135   0.098   0.028  12.348  0.3937 -3.0495  0.9248
 7168SOL     OW33136   3.046   0.919   4.115 -0.0256 -0.3701 -0.2436
 7168SOL    HW133137   3.080   0.964   4.193 -0.6433 -1.2411  0.5161
 7168SOL    HW233138   3.054   0.825   4.124  2.2703 -0.1398  0.0773
 7169SOL     OW33139   2.270   3.036   2.284  0.4236 -0.0732  0.3892
 7169SOL    HW133140   2.266   3.129   2.305  1.6588 -0.1836  1.1513
 7169SOL    HW233141   2.364   3.020   2.273 -0.2252 -3.3953 -0.3652
 7170SOL     OW33142   4.500   0.751  11.306 -0.9378 -0.0239 -0.2389
 7170SOL    HW133143   4.579   0.803  11.291  0.1670 -0.5256  3.7616
 7170SOL    HW233144   4.427   0.786  11.256 -0.4211 -0.5540 -1.3693
 7171SOL     OW33145   4.343   4.532   8.879 -0.0549 -0.1866  0.1670
 7171SOL    HW133146   4.274   4.597   8.862 -0.0349 -0.4909 -1.0270
 7171SOL    HW233147   4.413   4.548   8.816  2.3437 -4.4719  1.7280
 7172SOL     OW33148   0.129   0.952   8.361 -0.5870  0.9404  0.0984
 7172SOL    HW133149   0.174   0.905   8.290 -1.4084  2.5262 -1.4531
 7172SOL    HW233150   0.063   0.886   8.385  1.9567 -1.6339  0.0875
 7173SOL     OW33151   1.815   2.126   1.222 -0.2975  0.0901  0.2625
 7173SOL    HW133152   1.794   2.161   1.135  0.4591 -0.0906  0.0127
 7173SOL    HW233153   1.879   2.192   1.247 -1.5206  1.3322  0.1273
 7174SOL     OW33154   0.651   4.440   5.560 -0.4547 -0.3144 -0.5349
 7174SOL    HW133155   0.663   4.354   5.601  1.0394 -0.1352 -0.5783
 7174SOL    HW233156   0.596   4.481   5.626 -1.1101 -1.8253 -0.1397
 7175SOL     OW33157   1.347   2.582   9.877 -0.2787 -0.4652 -0.0121
 7175SOL    HW133158   1.284   2.649   9.853 -0.3577 -1.1074 -1.5603
 7175SOL    HW233159   1.295   2.533   9.942 -0.6521  0.4762  0.4015
 7176SOL     OW33160   2.484   0.590   7.840  0.1545 -0.2574 -0.6620
 7176SOL    HW133161   2.444   0.648   7.775  0.5887  0.9940  0.1853
 7176SOL    HW233162   2.574   0.623   7.830  0.2188 -0.0056  0.7155
 7177SOL     OW33163   0.559   3.020  13.383 -0.2612  0.2803  0.2428
 7177SOL    HW133164   0.480   3.060  13.421  0.4755  2.1915 -0.2324
 7177SOL    HW233165   0.520   2.993  13.300 -1.3760 -2.6938  1.7483
 7178SOL     OW33166   1.570   2.080   3.517  0.1499  0.6427 -0.3543
 7178SOL    HW133167   1.565   2.012   3.450  0.2385  0.2869  0.0016
 7178SOL    HW233168   1.654   2.054   3.556  1.1144  2.5542 -1.1446
 7179SOL     OW33169   2.201   2.227   8.092 -0.5140 -0.3087  0.4026
 7179SOL    HW133170   2.193   2.307   8.039 -0.6467 -0.9843 -0.5806
 7179SOL    HW233171   2.289   2.242   8.128 -1.8525  0.1334  3.5282
 7180SOL     OW33172   0.831   2.141   7.779 -0.3416  0.0574 -0.3021
 7180SOL    HW133173   0.759   2.167   7.722 -0.7622  0.1158  0.2629
 7180SOL    HW233174   0.899   2.130   7.712  1.7081 -0.2206  1.8304
 7181SOL     OW33175   0.770   3.029   8.286  0.4013  0.0182 -0.0946
 7181SOL    HW133176   0.856   3.005   8.321  1.0224 -2.0891 -3.0504
 7181SOL    HW233177   0.709   2.992   8.350 -0.4657  1.8184  0.1178
 7182SOL     OW33178   4.648   3.983  15.688 -0.0185  0.3264  0.0028
 7182SOL    HW133179   4.668   3.930  15.766  0.1775  1.1389  0.4982
 7182SOL    HW233180   4.667   3.921  15.617  0.9517 -1.3912  1.7521
 7183SOL     OW33181   0.001   3.544   6.012 -0.0744 -0.6374  0.8468
 7183SOL    HW133182   4.724   3.457   6.050  1.1227 -1.4851 -0.6957
 7183SOL    HW233183   0.081   3.518   5.968 -0.5176  1.1177 -0.9640
 7184SOL     OW33184   1.987   0.148   2.701 -0.6381  0.8003 -0.1047
 7184SOL    HW133185   2.029   0.194   2.629  0.4642  0.0523  0.0630
 7184SOL    HW233186   1.934   0.086   2.652  0.8593  1.1914 -2.2349
 7185SOL     OW33187   4.273   4.250  17.546  0.6408 -0.2719  0.0511
 7185SOL    HW133188   4.225   4.329  17.523  2.1405  0.3559 -0.9340
 7185SOL    HW233189   4.269   4.211  17.458 -1.3628  0.5312 -0.2144
 7186SOL     OW33190   2.143   1.049   4.562 -0.1888 -0.1444 -0.1312
 7186SOL    HW133191   2.129   1.144   4.554 -2.2708 -0.3351  1.2979
 7186SOL    HW233192   2.221   1.043   4.507  0.4202 -1.4997  0.8787
 7187SOL     OW33193   1.136   3.630   2.529 -0.5836 -0.6458  0.2474
 7187SOL    HW133194   1.103   3.625   2.439 -0.1780 -0.6958  0.1032
 7187SOL    HW233195   1.112   3.721   2.547 -0.8696 -0.7548  0.4319
 7188SOL     OW33196   3.003   2.924  16.023 -0.2770 -0.2953  0.2117
 7188SOL    HW133197   2.952   2.844  16.022  0.2460 -0.5989 -2.6867
 7188SOL    HW233198   3.042   2.898  16.106 -0.9593  0.3544  0.7302
 7189SOL     OW33199   0.686   4.046   6.824 -0.3009  0.1151  0.0675
 7189SOL    HW133200   0.635   4.055   6.904  0.1539 -3.8418  0.7650
 7189SOL    HW233201   0.689   3.952   6.810  0.4916  0.1029  0.2705
 7190SOL     OW33202   3.435   4.098   7.752 -0.2077  0.3749  0.3151
 7190SOL    HW133203   3.448   4.007   7.777 -3.2160 -0.3161 -0.6112
 7190SOL    HW233204   3.378   4.096   7.675  0.0548  0.0976  0.1283
 7191SOL     OW33205   0.441   0.137   7.947  0.0437 -0.0649  0.2059
 7191SOL    HW133206   0.355   0.097   7.956  0.3589 -1.4458 -3.1653
 7191SOL    HW233207   0.492   0.078   7.890  0.0980  0.5588 -0.3836
 7192SOL     OW33208   0.774   3.524  14.675  0.2053 -0.1248  0.2844
 7192SOL    HW133209   0.823   3.451  14.713 -1.8391 -0.5111  2.1230
 7192SOL    HW233210   0.697   3.475  14.647  0.1333 -0.5259  1.1722
 7193SOL     OW33211   0.171   2.706  16.835 -0.5401 -0.4736 -0.0778
 7193SOL    HW133212   0.131   2.636  16.886 -1.6701 -1.2556 -2.0289
 7193SOL    HW233213   0.228   2.657  16.775  1.1270  0.8449  0.4296
 7194SOL     OW33214   1.214   4.693  14.787  0.1557 -0.4130 -0.0829
 7194SOL    HW133215   1.205   4.598  14.790  0.1904 -0.4376 -0.7327
 7194SOL    HW233216   1.184   4.711  14.876  0.3139 -1.7019  0.2325
 7195SOL     OW33217   0.825   1.533   9.743  0.5373 -0.1254  0.1978
 7195SOL    HW133218   0.809   1.482   9.664  0.3217  1.3458 -0.7208
 7195SOL    HW233219   0.908   1.570   9.712  0.8512 -0.0523  1.1226
 7196SOL     OW33220   2.711   3.301   8.393  0.0736  0.2012 -0.3588
 7196SOL    HW133221   2.654   3.282   8.318  1.3740 -1.7041 -0.8680
 7196SOL    HW233222   2.756   3.372   8.347  0.5422  1.4347  2.0172
 7197SOL     OW33223   1.297   3.948   8.209  0.6620  0.3605  0.0341
 7197SOL    HW133224   1.297   4.039   8.182  3.0774  0.9180  1.9166
 7197SOL    HW233225   1.213   3.910   8.181  1.1589 -1.1120  0.5483
 7198SOL     OW33226   0.025   0.615   6.879  0.0359 -0.1900  0.2160
 7198SOL    HW133227   0.022   0.625   6.974 -0.4287  1.1332  0.0550
 7198SOL    HW233228   0.040   0.521   6.869  2.8650  0.1205  1.6929
 7199SOL     OW33229   0.389   0.262  15.971  0.5202  0.0607  0.0140
 7199SOL    HW133230   0.465   0.311  16.002  0.2145  0.7941 -0.3907
 7199SOL    HW233231   0.358   0.337  15.921  1.4366 -0.7025 -1.7286
 7200SOL     OW33232   3.688   1.504  16.469  0.1833 -0.0921  0.6504
 7200SOL    HW133233   3.685   1.518  16.375  1.6826  0.9213  0.7538
 7200SOL    HW233234   3.642   1.420  16.476  0.3189 -0.2293 -0.1252
 7201SOL     OW33235   0.915   0.398  11.799 -0.4421  0.1336  0.3001
 7201SOL    HW133236   0.991   0.442  11.759  0.1576 -1.3666 -0.2265
 7201SOL    HW233237   0.954   0.364  11.880 -0.1642  0.8819  0.4772
 7202SOL     OW33238   2.979   2.506   8.229  0.1325 -0.1508  0.0191
 7202SOL    HW133239   2.893   2.541   8.252  0.5975  1.2871 -0.4739
 7202SOL    HW233240   2.996   2.439   8.296  1.2325  0.5153  0.4039
 7203SOL     OW33241   4.464   1.100   5.332 -0.0679 -0.2442 -0.6753
 7203SOL    HW133242   4.426   1.022   5.374  1.2669 -1.1843 -1.2420
 7203SOL    HW233243   4.544   1.104   5.385 -0.5698 -1.4044  0.1772
 7204SOL     OW33244   0.863   1.360  16.415 -1.2297  0.4031 -0.5737
 7204SOL    HW133245   0.888   1.321  16.331 -2.2929 -1.3515 -0.0648
 7204SOL    HW233246   0.946   1.401  16.441 -0.5007 -1.8752  0.7447
 7205SOL     OW33247   0.205   3.425   3.843  0.0980 -0.4836  0.1372
 7205SOL    HW133248   0.286   3.402   3.797  0.1740 -1.1976  0.6210
 7205SOL    HW233249   0.218   3.380   3.927 -0.2708  0.8306  0.8934
 7206SOL     OW33250   2.705   2.508  17.578  0.3804  0.2858 -0.0846
 7206SOL    HW133251   2.746   2.448  17.640  0.8717 -0.8977 -1.5487
 7206SOL    HW233252   2.620   2.465  17.567  0.3637  1.0879 -3.1132
 7207SOL     OW33253   3.445   4.138   1.832 -0.1371  0.1775  0.2187
 7207SOL    HW133254   3.462   4.228   1.806  2.1840 -0.4914 -0.5911
 7207SOL    HW233255   3.532   4.105   1.858 -0.2929 -1.3677 -1.1797
 7208SOL     OW33256   3.512   4.586   8.781  0.3495 -0.2932 -0.1867
 7208SOL    HW133257   3.534   4.603   8.689 -0.2092 -1.7365 -0.5893
 7208SOL    HW233258   3.436   4.528   8.772  0.3998 -0.1047 -1.8884
 7209SOL     OW33259   0.137   1.338  10.817 -0.5976 -0.6995  0.0367
 7209SOL    HW133260   0.133   1.432  10.802  0.8068 -0.3129  2.1167
 7209SOL    HW233261   0.052   1.324  10.859  0.0059 -1.4273  1.0059
 7210SOL     OW33262   0.783   2.887  17.513  0.2773 -0.4604 -0.6970
 7210SOL    HW133263   0.747   2.879  17.425 -2.2731 -0.2378  0.2995
 7210SOL    HW233264   0.873   2.911  17.493 -0.6739  1.0543 -3.1311
 7211SOL     OW33265   1.363   1.506   1.183 -0.3269 -0.0573 -0.3486
 7211SOL    HW133266   1.296   1.491   1.116  0.5272  1.7324 -1.5989
 7211SOL    HW233267   1.440   1.487   1.130  1.0457  0.4914  1.4686
 7212SOL     OW33268   0.185   2.536  11.356  0.0904 -0.0971  0.1323
 7212SOL    HW133269   0.241   2.573  11.288  1.8901 -2.0356  0.5592
 7212SOL    HW233270   0.104   2.513  11.309 -0.3352  0.9433  0.3528
 7213SOL     OW33271   0.160   2.936   6.094  0.7058  0.1739 -0.7492
 7213SOL    HW133272   0.170   2.841   6.096  1.0704  0.2476  0.7286
 7213SOL    HW233273   0.126   2.947   6.005  3.3560  1.7024 -1.5687
 7214SOL     OW33274   3.743   1.925   9.986  0.7684  0.1098 -0.1430
 7214SOL    HW133275   3.775   1.846   9.941 -0.4207  0.5102 -1.6840
 7214SOL    HW233276   3.770   1.906  10.076  1.8391 -0.8435 -0.6612
 7215SOL     OW33277   3.639   2.315   8.247 -0.4274 -0.1927  0.5284
 7215SOL    HW133278   3.701   2.249   8.217  0.9933  1.2253  0.3334
 7215SOL    HW233279   3.554   2.275   8.232 -0.7259 -0.3566  2.6823
 7216SOL     OW33280   4.730   2.629   7.628  0.2350  0.1480  0.1173
 7216SOL    HW133281   4.649   2.614   7.677  0.6968  1.1474  1.1851
 7216SOL    HW233282   0.044   2.550   7.649 -2.1604 -1.9828 -2.0596
 7217SOL     OW33283   2.517   2.867   4.639 -0.2846 -0.3161 -0.2550
 7217SOL    HW133284   2.436   2.895   4.684 -1.0031 -2.8274  0.0034
 7217SOL    HW233285   2.517   2.773   4.655 -0.2474  0.0743  2.1552
 7218SOL     OW33286   3.208   0.198   8.840  0.0624 -0.1407  0.0875
 7218SOL    HW133287   3.130   0.193   8.786  1.5082 -1.2158 -1.9260
 7218SOL    HW233288   3.177   0.186   8.930 -1.8077  1.0666 -0.4022
 7219SOL     OW33289   0.372   4.261   9.357 -0.0553  0.2053  0.2812
 7219SOL    HW133290   0.437   4.204   9.315 -0.8207  0.1853 -0.8720
 7219SOL    HW233291   0.323   4.291   9.281  2.6902 -1.2212 -2.0740
 7220SOL     OW33292   4.212   1.139  12.087 -0.1220 -0.2868 -0.0118
 7220SOL    HW133293   4.168   1.127  12.170  1.8183 -1.0073  0.9157
 7220SOL    HW233294   4.254   1.053  12.087  2.1857  0.8423  1.1976
 7221SOL     OW33295   3.251   2.551   9.758 -0.3433 -0.5711  0.5180
 7221SOL    HW133296   3.158   2.534   9.772 -0.5444 -1.1655 -1.5170
 7221SOL    HW233297   3.244   2.609   9.682 -1.9150 -1.8317 -0.3121
 7222SOL     OW33298   2.861   3.276  17.597  0.3435  0.3319  0.2215
 7222SOL    HW133299   2.796   3.320  17.541  0.7017 -1.0871 -1.3084
 7222SOL    HW233300   2.944   3.281  17.548 -0.3132 -0.0988 -0.9337
 7223SOL     OW33301   1.659   2.519  13.317  0.1992  0.6304 -0.3891
 7223SOL    HW133302   1.565   2.534  13.329  0.2348  0.1392  0.5314
 7223SOL    HW233303   1.689   2.545  13.404  0.8550  0.9190 -0.7022
 7224SOL     OW33304   3.895   2.874  10.080 -0.0180  0.1939 -0.4257
 7224SOL    HW133305   3.944   2.799  10.114 -0.9623 -0.1189  0.2481
 7224SOL    HW233306   3.855   2.836  10.002  0.8917 -1.9721  0.1602
 7225SOL     OW33307   2.138   3.997   5.503  0.1345 -0.2342  0.7027
 7225SOL    HW133308   2.043   4.002   5.495  0.2162  0.9949  0.4816
 7225SOL    HW233309   2.163   3.975   5.413 -1.2452  2.4468 -0.3563
 7226SOL     OW33310   4.320   2.181   3.377 -0.1565  0.3340  0.3079
 7226SOL    HW133311   4.400   2.192   3.428 -0.4143  1.7634  0.4068
 7226SOL    HW233312   4.283   2.264   3.407  0.2275  1.2665 -1.7908
 7227SOL     OW33313   3.976   0.355   3.692  1.0855  0.3201 -0.0515
 7227SOL    HW133314   4.067   0.342   3.664  1.6513  2.4037  0.8325
 7227SOL    HW233315   3.987   0.384   3.783  1.3889  0.9860 -0.3001
 7228SOL     OW33316   1.148   2.826   4.995 -0.4014  0.1675 -0.1047
 7228SOL    HW133317   1.064   2.799   4.957  0.2097  0.5041 -1.7073
 7228SOL    HW233318   1.186   2.894   4.939  1.2270  0.5752  1.4961
 7229SOL     OW33319   4.346   2.598  17.575 -0.6302 -0.6761 -0.3113
 7229SOL    HW133320   4.397   2.589  17.656 -1.0460 -2.5867 -0.2658
 7229SOL    HW233321   4.266   2.550  17.596  1.0562 -3.0850  0.6220
 7230SOL     OW33322   2.779   3.844   1.570  0.3205 -0.1804  0.6937
 7230SOL    HW133323   2.850   3.899   1.601 -0.4133  1.7860 -1.0760
 7230SOL    HW233324   2.706   3.905   1.557  0.9368  0.1616 -1.1326
 7231SOL     OW33325   3.759   4.319   3.147 -0.3338  0.3693  0.3666
 7231SOL    HW133326   3.735   4.279   3.063 -0.3721 -1.3185  1.1716
 7231SOL    HW233327   3.699   4.275   3.207 -0.0385 -1.0971 -0.4080
 7232SOL     OW33328   4.727   4.473   9.312  0.0028 -0.3324  0.0550
 7232SOL    HW133329   4.636   4.503   9.320 -0.1355 -0.5680 -0.6215
 7232SOL    HW233330   0.026   4.486   9.400 -0.7745 -0.5644  0.4075
 7233SOL     OW33331   0.288   0.324   5.715  0.7908 -0.0204  0.3877
 7233SOL    HW133332   0.332   0.277   5.643  2.6993  0.1634  1.4236
 7233SOL    HW233333   0.367   0.338   5.767  0.5606  0.5236  0.5853
 7234SOL     OW33334   3.709   0.613   9.385 -0.4562 -0.3935  0.2081
 7234SOL    HW133335   3.720   0.531   9.434  0.3194 -0.4315 -0.0286
 7234SOL    HW233336   3.666   0.567   9.312  3.3665 -1.0598 -1.6472
 7235SOL     OW33337   1.684   3.283   5.372 -0.2904 -0.3452 -0.2303
 7235SOL    HW133338   1.683   3.368   5.415  2.1061  0.0480 -0.9410
 7235SOL    HW233339   1.734   3.228   5.433  1.4485 -0.1570 -1.4922
 7236SOL     OW33340   4.249   2.241  15.694 -0.1293 -0.7270  0.0374
 7236SOL    HW133341   4.178   2.290  15.652  2.1593  0.7424 -2.1314
 7236SOL    HW233342   4.198   2.179  15.745 -2.1777  0.6897 -0.3215
 7237SOL     OW33343   3.033   3.409   6.834 -0.3517 -0.6667 -0.2128
 7237SOL    HW133344   3.127   3.422   6.824 -0.4051 -0.4164 -0.4079
 7237SOL    HW233345   3.010   3.461   6.756 -0.4353  0.6443  0.6765
 7238SOL     OW33346   2.657   1.952   5.744 -0.6984  0.0669 -0.0978
 7238SOL    HW133347   2.601   1.938   5.820  1.0588 -1.8176  0.8716
 7238SOL    HW233348   2.596   1.983   5.677 -0.5770  0.6362  0.0628
 7239SOL     OW33349   0.225   1.019   7.907  0.2035  0.4027 -0.2729
 7239SOL    HW133350   0.281   1.006   7.830  0.8235 -0.6878  0.3638
 7239SOL    HW233351   0.224   1.115   7.912  0.3850  0.2646  2.3099
 7240SOL     OW33352   0.886   4.610  16.813  0.2666  0.3156 -0.5261
 7240SOL    HW133353   0.963   4.555  16.805 -0.1771 -0.4632  0.5970
 7240SOL    HW233354   0.917   4.696  16.784  1.1642  0.6655  1.4596
 7241SOL     OW33355   0.924   4.518   0.527  0.0162  0.1930 -0.8703
 7241SOL    HW133356   0.967   4.436   0.553 -1.5530 -0.5415 -0.6491
 7241SOL    HW233357   0.947   4.581   0.595 -0.8066  0.6962 -1.0573
 7242SOL     OW33358   0.487   1.495  16.567 -0.2374 -0.0271 -0.0012
 7242SOL    HW133359   0.532   1.436  16.628 -0.9818 -1.6685 -1.0440
 7242SOL    HW233360   0.409   1.521  16.616 -0.5987  0.4179 -0.8087
 7243SOL     OW33361   4.085   2.998  12.502  0.1263 -0.4013 -0.3066
 7243SOL    HW133362   4.071   3.077  12.555 -0.9058  0.3177 -1.6644
 7243SOL    HW233363   4.158   3.030  12.448  0.0300 -2.1541 -1.4496
 7244SOL     OW33364   0.471   4.246   6.374  0.5480  0.0674 -0.0545
 7244SOL    HW133365   0.506   4.231   6.461 -1.2770 -1.2766  0.4537
 7244SOL    HW233366   0.435   4.159   6.358 -0.8380  0.5055  0.6248
 7245SOL     OW33367   3.844   1.135   7.468  0.2750  0.3210 -0.3480
 7245SOL    HW133368   3.866   1.042   7.457  0.6475  0.1704  1.7687
 7245SOL    HW233369   3.889   1.150   7.551  0.8378  2.0771 -0.9873
 7246SOL     OW33370   3.886   0.142  15.562  0.2656 -0.4914  0.1957
 7246SOL    HW133371   3.891   0.102  15.648 -0.2140 -2.8288 -0.8505
 7246SOL    HW233372   3.792   0.157  15.554  0.5089  0.8283 -0.2382
 7247SOL     OW33373   3.008   3.552   8.065 -0.3135 -0.0641  0.1878
 7247SOL    HW133374   3.082   3.493   8.050  1.8751  1.9800  2.8574
 7247SOL    HW233375   3.041   3.602   8.140 -1.5397 -0.7190  1.1757
 7248SOL     OW33376   3.872   1.897   8.366  0.0325 -0.4499 -0.3360
 7248SOL    HW133377   3.962   1.929   8.361 -0.5360  1.2269  0.1694
 7248SOL    HW233378   3.891   1.812   8.325 -0.3005  0.0288 -1.4733
 7249SOL     OW33379   3.909   1.350   6.061 -0.3299 -0.2298  0.4141
 7249SOL    HW133380   3.850   1.277   6.044  0.1776 -0.6086  0.2959
 7249SOL    HW233381   3.948   1.361   5.975 -0.6268 -2.1306  0.0483
 7250SOL     OW33382   1.124   2.825   2.764 -0.2493 -0.4246  0.6115
 7250SOL    HW133383   1.146   2.892   2.829  0.5440  0.3566 -0.4788
 7250SOL    HW233384   1.110   2.875   2.684 -1.1825 -2.0465 -0.2383
 7251SOL     OW33385   3.239   4.327   7.996  0.0490  0.0810  0.4444
 7251SOL    HW133386   3.269   4.382   7.924 -1.4171  0.6002  0.2449
 7251SOL    HW233387   3.321   4.314   8.044 -1.1970 -1.0368  2.2535
 7252SOL     OW33388   1.564   3.892   3.317 -0.1671  0.3364  0.2858
 7252SOL    HW133389   1.595   3.975   3.353  0.2148  1.4827 -2.6671
 7252SOL    HW233390   1.597   3.898   3.227 -2.1356 -2.1146 -0.6250
 7253SOL     OW33391   4.229   0.485   0.501 -0.0478  0.7639  0.0340
 7253SOL    HW133392   4.159   0.421   0.515  1.7973 -2.0478 -3.5573
 7253SOL    HW233393   4.255   0.480   0.593  1.2163 -1.0039 -0.4361
 7254SOL     OW33394   0.060   4.199   7.671 -0.0900 -0.6728 -0.4468
 7254SOL    HW133395   0.051   4.138   7.598  0.9089  0.2892 -1.3613
 7254SOL    HW233396   0.101   4.141   7.735  1.7524  0.3907 -0.6682
 7255SOL     OW33397   2.941   4.174   6.497 -0.2693  0.5902 -0.1594
 7255SOL    HW133398   2.866   4.213   6.542 -0.4033 -0.6610  0.6929
 7255SOL    HW233399   2.903   4.094   6.462  0.5884 -0.0183  0.3093
 7256SOL     OW33400   0.885   0.212   1.886  0.2077 -0.4739 -0.3684
 7256SOL    HW133401   0.821   0.243   1.822 -0.0852 -1.3928 -0.5275
 7256SOL    HW233402   0.927   0.292   1.916  0.3876 -1.2299  1.3902
 7257SOL     OW33403   3.917   3.402   6.818  0.9370 -0.6098 -0.1284
 7257SOL    HW133404   3.938   3.309   6.810 -2.2734 -1.3749  0.0078
 7257SOL    HW233405   3.983   3.430   6.881  0.4384  0.9128 -0.2891
 7258SOL     OW33406   0.720   3.786  16.932  0.1462  0.2758  0.0949
 7258SOL    HW133407   0.745   3.776  16.840  0.1913 -0.5245  0.1909
 7258SOL    HW233408   0.650   3.851  16.930 -0.6122 -0.5120  1.1551
 7259SOL     OW33409   2.888   4.367  11.704 -0.1032  0.0156  0.9427
 7259SOL    HW133410   2.867   4.282  11.744  1.0010  0.0472  1.5858
 7259SOL    HW233411   2.973   4.348  11.664 -0.2638 -1.2923  1.2150
 7260SOL     OW33412   1.530   3.526  13.071  0.3342  0.6081  0.0399
 7260SOL    HW133413   1.468   3.593  13.101 -0.0192  0.4529 -0.3362
 7260SOL    HW233414   1.553   3.483  13.153 -2.5294  1.0264  1.0517
 7261SOL     OW33415   0.055   2.820   9.510 -0.8161  0.3436 -0.6385
 7261SOL    HW133416   4.734   2.888   9.474  2.7394  0.8617 -5.2687
 7261SOL    HW233417   0.144   2.849   9.492 -0.2561 -1.0693 -0.0717
 7262SOL     OW33418   2.575   1.016   5.667 -0.5052  0.4015  0.0900
 7262SOL    HW133419   2.607   1.048   5.752  0.7392  2.9464 -1.3410
 7262SOL    HW233420   2.488   0.995   5.700 -0.7923 -2.0902 -2.2431
 7263SOL     OW33421   1.180   4.351   5.944 -0.3697  0.2953 -0.1091
 7263SOL    HW133422   1.086   4.331   5.943 -0.0834 -1.0337  0.3346
 7263SOL    HW233423   1.214   4.272   5.986  2.1110  1.4153 -0.0439
 7264SOL     OW33424   2.534   4.716   5.771 -0.4435  0.1308  0.2970
 7264SOL    HW133425   2.577   4.639   5.733 -2.2889 -0.2827 -0.9158
 7264SOL    HW233426   2.603   0.046   5.770 -1.4930  1.1993 -0.7452
 7265SOL     OW33427   1.553   4.661   6.989 -0.0450 -1.0250 -0.1628
 7265SOL    HW133428   1.553   4.589   7.052  0.6494 -1.0461 -0.1844
 7265SOL    HW233429   1.527   4.624   6.904 -1.2589  2.2928 -1.2230
 7266SOL     OW33430   2.632   4.331   3.399 -0.1863 -0.2906  0.0169
 7266SOL    HW133431   2.671   4.368   3.320 -1.3014  2.3733  0.7122
 7266SOL    HW233432   2.609   4.412   3.444  2.3943 -0.2581  1.2829
 7267SOL     OW33433   4.525   2.754   8.190  0.5485 -0.2837  0.6213
 7267SOL    HW133434   4.608   2.774   8.148 -0.0155 -0.0301 -0.3806
 7267SOL    HW233435   4.537   2.806   8.269 -0.1731  1.1268 -0.1750
 7268SOL     OW33436   0.594   0.927   3.180  0.5951 -0.0283  0.0415
 7268SOL    HW133437   0.551   0.870   3.244 -1.2073  1.2668 -0.0178
 7268SOL    HW233438   0.686   0.902   3.181  1.0122  1.5200 -0.1678
 7269SOL     OW33439   2.696   1.547   2.476  0.4192 -1.0245  0.0790
 7269SOL    HW133440   2.607   1.514   2.473 -1.6376  4.6300 -0.4751
 7269SOL    HW233441   2.746   1.466   2.486  2.3297 -0.1402 -2.0003
 7270SOL     OW33442   3.604   2.198   2.204  0.1662 -0.6308 -0.0779
 7270SOL    HW133443   3.695   2.174   2.218  0.4827  0.4013 -0.3202
 7270SOL    HW233444   3.591   2.256   2.279  1.8092  0.1940 -0.4232
 7271SOL     OW33445   3.442   1.032   4.431 -0.1029  0.7878 -0.0566
 7271SOL    HW133446   3.420   1.022   4.523 -1.0116  0.5178 -0.2944
 7271SOL    HW233447   3.524   1.081   4.431  2.3306 -3.2650  0.1301
 7272SOL     OW33448   3.762   2.593  15.080 -0.0134 -0.7580 -1.1402
 7272SOL    HW133449   3.699   2.628  15.143  0.7674  0.5987 -1.1218
 7272SOL    HW233450   3.807   2.674  15.057  1.2172 -1.0739  0.2029
 7273SOL     OW33451   4.293   0.735   0.418  0.3501 -0.6082 -0.4109
 7273SOL    HW133452   4.377   0.709   0.456  0.7587  0.2901 -0.7017
 7273SOL    HW233453   4.250   0.661   0.461  0.5309 -0.0976  0.6341
 7274SOL     OW33454   2.704   4.232   6.651  0.2324  0.4693 -0.6241
 7274SOL    HW133455   2.701   4.140   6.679  2.7319  1.1760  1.9332
 7274SOL    HW233456   2.645   4.222   6.576  1.0493 -1.9681 -0.9514
 7275SOL     OW33457   0.050   4.332   2.349  0.2769 -0.9090  0.8955
 7275SOL    HW133458   0.105   4.341   2.272  0.9599 -1.4801  1.3185
 7275SOL    HW233459   0.083   4.395   2.413 -0.8354 -0.7641  1.3307
 7276SOL     OW33460   4.619   3.090   7.207  0.5092  0.5011  0.1297
 7276SOL    HW133461   4.590   3.004   7.177 -0.6704  1.0673 -0.3342
 7276SOL    HW233462   4.610   3.146   7.130  4.2810  0.0458 -0.6276
 7277SOL     OW33463   0.608   1.833   1.678 -0.5915 -0.7050 -0.1519
 7277SOL    HW133464   0.653   1.773   1.737 -0.1349 -0.2102  0.0057
 7277SOL    HW233465   0.552   1.770   1.633 -0.1590 -1.2607  0.0919
 7278SOL     OW33466   4.286   0.859  11.985  0.3535 -0.1011 -0.5651
 7278SOL    HW133467   4.356   0.864  12.050 -0.4757  0.8320  0.2722
 7278SOL    HW233468   4.330   0.807  11.919  0.7207 -0.8474  0.2665
 7279SOL     OW33469   3.520   1.612   9.318  0.1941 -0.3635 -0.0573
 7279SOL    HW133470   3.510   1.605   9.223  1.5844  1.3576 -0.3194
 7279SOL    HW233471   3.431   1.593   9.350  0.5625  2.0630  2.3229
 7280SOL     OW33472   2.815   3.064  14.921  0.4820 -0.0751 -0.3624
 7280SOL    HW133473   2.839   3.146  14.964  0.9564  1.3403 -3.3459
 7280SOL    HW233474   2.777   3.005  14.986  1.5680 -0.0172  0.3207
 7281SOL     OW33475   3.968   2.649  14.454  0.4805  0.1112  0.1094
 7281SOL    HW133476   3.950   2.699  14.534  0.8260  1.9775 -0.9625
 7281SOL    HW233477   3.944   2.562  14.484 -2.1659 -0.3642 -3.3170
 7282SOL     OW33478   1.954   4.728   3.278 -0.0973 -0.2005 -0.1661
 7282SOL    HW133479   1.976   4.635   3.282 -0.5499 -0.3139 -0.2789
 7282SOL    HW233480   1.921   0.001   3.367  1.5089  1.0449  0.2957
 7283SOL     OW33481   3.065   3.576   5.367 -0.4583  0.4464 -0.4041
 7283SOL    HW133482   3.044   3.488   5.338  0.0113  0.6106 -1.2332
 7283SOL    HW233483   3.079   3.615   5.281  3.0379 -1.7713 -0.8360
 7284SOL     OW33484   0.947   3.391   8.274 -0.3006 -0.1372  0.1198
 7284SOL    HW133485   0.929   3.393   8.368  0.5474  1.5551  0.2464
 7284SOL    HW233486   0.866   3.350   8.244 -0.3337  0.5346 -0.7035
 7285SOL     OW33487   0.789   4.266   6.086 -0.5497 -0.2357 -0.1840
 7285SOL    HW133488   0.718   4.330   6.084  0.4584  0.8211 -2.0889
 7285SOL    HW233489   0.792   4.253   6.180  0.6062 -0.7928 -0.2930
 7286SOL     OW33490   0.028   0.161   8.554  0.4092  0.5391  1.2435
 7286SOL    HW133491   0.082   0.231   8.518 -1.1118  0.9253 -0.2567
 7286SOL    HW233492   4.678   0.199   8.541  0.2889 -0.3571 -0.4355
 7287SOL     OW33493   2.535   4.657   3.224  0.0336 -0.7775 -0.3589
 7287SOL    HW133494   2.576   4.697   3.147 -1.0115 -0.0888 -0.5563
 7287SOL    HW233495   2.442   4.673   3.207  0.0888  0.0062  0.0537
 7288SOL     OW33496   3.027   3.844  13.215 -0.0652  0.1704 -0.1530
 7288SOL    HW133497   3.060   3.797  13.138  0.7881  2.5044 -1.2197
 7288SOL    HW233498   3.107   3.844  13.267 -0.2504 -1.7651  0.1268
 7289SOL     OW33499   4.167   1.467   3.555  0.0353  0.4602  0.0447
 7289SOL    HW133500   4.252   1.423   3.557  0.2886  0.8599 -1.3253
 7289SOL    HW233501   4.181   1.505   3.468  0.9579  0.3073  0.1301
 7290SOL     OW33502   3.706   4.262   2.612 -0.7876 -0.6663  0.2041
 7290SOL    HW133503   3.758   4.334   2.648 -1.2784 -1.3406  2.2891
 7290SOL    HW233504   3.619   4.300   2.603 -0.4230  0.0493 -0.2411
 7291SOL     OW33505   3.738   0.558   5.744 -0.3541 -0.4543 -0.4322
 7291SOL    HW133506   3.727   0.463   5.754 -0.0519 -0.4870 -0.4157
 7291SOL    HW233507   3.649   0.583   5.719 -0.5035 -0.3708  0.1882
 7292SOL     OW33508   0.845   2.250   3.111  0.1048 -0.8494 -0.2651
 7292SOL    HW133509   0.871   2.234   3.201  1.2284 -0.8952 -0.6007
 7292SOL    HW233510   0.934   2.265   3.079  0.6420 -0.2875  1.4756
 7293SOL     OW33511   1.601   0.077   6.217 -0.2117 -0.4519 -0.8350
 7293SOL    HW133512   1.513   0.053   6.244 -0.3870  1.8493  0.6869
 7293SOL    HW233513   1.583   0.143   6.150 -1.3624  1.8526  1.6907
 7294SOL     OW33514   3.512   4.406   8.093  0.1015  0.1673 -0.3620
 7294SOL    HW133515   3.539   4.315   8.108  1.1915  0.6626  0.6256
 7294SOL    HW233516   3.598   4.446   8.102 -1.0482  2.4829  0.3304
 7295SOL     OW33517   3.221   0.626   7.472 -0.1961 -0.4918  0.5056
 7295SOL    HW133518   3.209   0.677   7.392  1.2373 -1.3499 -0.2631
 7295SOL    HW233519   3.182   0.685   7.537 -0.8384  0.5759 -0.8531
 7296SOL     OW33520   0.239   2.512  11.067 -0.0514 -0.7786  0.2534
 7296SOL    HW133521   0.274   2.601  11.057  3.5525 -2.0152  1.7522
 7296SOL    HW233522   0.146   2.530  11.057 -0.1985 -1.1694  0.9527
 7297SOL     OW33523   0.232   3.240   3.309  0.5889 -0.2802 -0.0224
 7297SOL    HW133524   0.162   3.305   3.302  0.1832 -0.5421  1.4665
 7297SOL    HW233525   0.205   3.176   3.243 -0.3284  0.0746  0.0058
 7298SOL     OW33526   0.026   2.770  11.178 -0.3776 -0.5393 -0.8898
 7298SOL    HW133527   4.691   2.830  11.197 -1.6895 -1.8718 -1.5434
 7298SOL    HW233528   0.005   2.709  11.249 -1.9390  3.8541  2.3543
 7299SOL     OW33529   2.591   4.596   6.519  0.7816  0.1101  0.0991
 7299SOL    HW133530   2.504   4.619   6.550 -0.4398 -1.2752 -2.2756
 7299SOL    HW233531   2.566   4.549   6.439  1.7085 -0.0948 -0.0737
 7300SOL     OW33532   2.731   0.157   5.797 -0.3597  0.6988  0.1359
 7300SOL    HW133533   2.793   0.163   5.724 -1.6489 -1.3385 -1.1477
 7300SOL    HW233534   2.751   0.222   5.865 -0.3654  2.8005 -1.8818
 7301SOL     OW33535   4.367   0.524   7.209  0.1678 -0.3686 -0.2627
 7301SOL    HW133536   4.362   0.509   7.114 -1.0376  2.0583 -0.5701
 7301SOL    HW233537   4.445   0.474   7.235  1.3939  0.7668 -1.7202
 7302SOL     OW33538   0.229   1.522   2.775 -0.1643  0.2688 -0.0036
 7302SOL    HW133539   0.217   1.558   2.687 -2.4807 -0.9111 -0.1809
 7302SOL    HW233540   0.156   1.460   2.772 -0.5990  0.8868 -2.2964
 7303SOL     OW33541   1.045   4.058   4.398 -0.7260  0.3119  0.2497
 7303SOL    HW133542   1.052   4.013   4.314  0.6065  1.1132 -0.0693
 7303SOL    HW233543   1.097   4.006   4.459 -1.1248 -1.1975 -0.6990
 7304SOL     OW33544   1.372   0.251   8.244  0.1398  0.1953  0.7991
 7304SOL    HW133545   1.321   0.210   8.314  0.9987 -1.9725  0.1670
 7304SOL    HW233546   1.443   0.189   8.227  0.3990  0.8484 -0.4838
 7305SOL     OW33547   2.514   0.950   5.279  0.3752 -0.5577  0.2613
 7305SOL    HW133548   2.455   0.979   5.209 -0.4272 -2.5848  0.0945
 7305SOL    HW233549   2.453   0.930   5.349  0.5323 -1.4639  0.1329
 7306SOL     OW33550   0.760   0.552   3.300  0.0001  0.4469 -0.3921
 7306SOL    HW133551   0.788   0.487   3.236  2.1639  0.4075  0.6106
 7306SOL    HW233552   0.713   0.496   3.361  2.1240 -0.5837  0.2786
 7307SOL     OW33553   3.749   2.744  13.603 -0.4123  0.1906  0.3096
 7307SOL    HW133554   3.723   2.822  13.554  2.6734  1.6500  1.0471
 7307SOL    HW233555   3.702   2.755  13.686  0.0460 -0.9929  0.7337
 7308SOL     OW33556   3.217   3.747   3.485  0.1692  0.5853 -0.3190
 7308SOL    HW133557   3.245   3.836   3.465  2.3368 -0.3113 -1.2183
 7308SOL    HW233558   3.213   3.719   3.393  0.8537  0.6192 -0.3575
 7309SOL     OW33559   1.016   2.048   6.575  0.2940 -0.0047  0.7167
 7309SOL    HW133560   1.068   1.975   6.609  0.3973  0.2432  1.0820
 7309SOL    HW233561   1.017   2.108   6.649 -0.7997  1.7582 -0.6964
 7310SOL     OW33562   1.749   3.255   7.007  0.0275 -0.3952  0.8941
 7310SOL    HW133563   1.689   3.294   7.070 -0.5669 -1.5686  1.0606
 7310SOL    HW233564   1.711   3.279   6.922  2.6932  3.1050  0.7055
 7311SOL     OW33565   0.483   1.958  11.531 -0.7848  0.0824 -0.3515
 7311SOL    HW133566   0.422   2.026  11.504  1.4483  1.9639 -0.6564
 7311SOL    HW233567   0.506   1.939  11.440 -1.4002 -1.8991 -0.0878
 7312SOL     OW33568   1.688   0.937   3.090 -0.4385  0.3298 -0.1533
 7312SOL    HW133569   1.610   0.992   3.080 -1.8061 -1.6273 -0.2034
 7312SOL    HW233570   1.716   0.961   3.178  2.3035  1.7474 -1.4030
 7313SOL     OW33571   1.595   0.779   5.775 -0.6977 -0.3104 -0.2046
 7313SOL    HW133572   1.544   0.794   5.696 -1.3898  0.4964  0.4028
 7313SOL    HW233573   1.630   0.695   5.746 -2.2057  0.4817 -4.4002
 7314SOL     OW33574   1.679   0.076  14.608 -0.2575 -0.2653 -0.2046
 7314SOL    HW133575   1.592   0.105  14.635 -0.5092 -2.6260  1.5302
 7314SOL    HW233576   1.706   0.137  14.540 -0.9032  0.1918 -0.0553
 7315SOL     OW33577   2.942   3.218   6.371 -0.1702 -0.8939 -0.1754
 7315SOL    HW133578   3.003   3.225   6.445  0.5543 -0.3365 -0.8170
 7315SOL    HW233579   2.954   3.302   6.327 -0.8338 -0.8150 -0.1994
 7316SOL     OW33580   0.760   2.992   2.301 -0.2317  0.1997 -0.1111
 7316SOL    HW133581   0.738   3.074   2.345 -1.0205  0.3096 -0.7128
 7316SOL    HW233582   0.855   2.997   2.293 -0.2013 -2.4928 -1.3386
 7317SOL     OW33583   2.275   1.532   1.730  0.5953  0.4505  0.2239
 7317SOL    HW133584   2.184   1.546   1.703  0.7459  2.4626  0.7790
 7317SOL    HW233585   2.302   1.445   1.700 -2.1829 -0.1841 -0.5314
 7318SOL     OW33586   2.414   1.399   4.730 -0.0099 -0.5204  0.4513
 7318SOL    HW133587   2.336   1.408   4.784 -0.4010  0.3954 -0.2768
 7318SOL    HW233588   2.389   1.441   4.648 -0.8149 -4.8307 -1.5215
 7319SOL     OW33589   3.132   1.775   2.722 -0.2027 -0.1421 -0.7693
 7319SOL    HW133590   3.163   1.841   2.783  0.1801 -0.3506 -0.7410
 7319SOL    HW233591   3.212   1.731   2.695 -0.9285 -2.0526  0.2044
 7320SOL     OW33592   3.158   1.198   2.358 -0.2589 -0.9756  0.0259
 7320SOL    HW133593   3.129   1.123   2.307 -1.4539 -1.5071  1.4720
 7320SOL    HW233594   3.253   1.196   2.348 -0.3336  2.6152 -1.2755
 7321SOL     OW33595   3.978   1.094  11.110 -0.2116 -0.1674  0.5744
 7321SOL    HW133596   3.917   1.158  11.147  0.7935  0.1889  1.5879
 7321SOL    HW233597   3.924   1.074  11.034  2.9998 -1.0703 -1.4373
 7322SOL     OW33598   0.514   2.561   3.563 -0.4208 -0.4995 -0.1912
 7322SOL    HW133599   0.501   2.635   3.621  0.9020  0.3966 -1.0496
 7322SOL    HW233600   0.609   2.562   3.557 -0.2580 -1.1155  2.2468
 7323SOL     OW33601   4.068   1.135   7.691  0.5719  0.5052 -0.1666
 7323SOL    HW133602   4.067   1.041   7.708  0.3865  1.0304  2.6548
 7323SOL    HW233603   4.157   1.160   7.668 -0.0575  2.3920 -0.6030
 7324SOL     OW33604   2.663   0.640   3.691 -0.0061  0.1941 -0.1005
 7324SOL    HW133605   2.699   0.655   3.603 -2.0510  1.8406 -0.6570
 7324SOL    HW233606   2.742   0.642   3.745  1.5300 -2.5696 -2.2043
 7325SOL     OW33607   1.415   1.405   6.955  0.3300  0.3197 -0.0670
 7325SOL    HW133608   1.340   1.441   7.002  1.0132 -0.0818  1.3638
 7325SOL    HW233609   1.430   1.322   7.002 -2.1932 -0.4052 -0.5601
 7326SOL     OW33610   2.107   0.669   5.774  0.2604  0.8112  0.0152
 7326SOL    HW133611   2.035   0.696   5.716 -0.9672 -0.8598  0.7524
 7326SOL    HW233612   2.055   0.641   5.850 -0.5232 -1.6631 -1.4604
 7327SOL     OW33613   1.168   2.904  11.371 -0.2874 -0.2307  0.4512
 7327SOL    HW133614   1.185   2.985  11.322 -2.2663 -0.5512 -0.7843
 7327SOL    HW233615   1.103   2.864  11.313 -1.0663  2.6692 -0.7200
 7328SOL     OW33616   3.345   2.714   6.307 -0.7897 -0.0601  0.1552
 7328SOL    HW133617   3.426   2.669   6.329  0.8286  1.6348 -2.4424
 7328SOL    HW233618   3.350   2.728   6.213 -2.0738  1.4131  0.3026
 7329SOL     OW33619   4.505   2.251   5.276 -0.6340 -0.5606 -0.4506
 7329SOL    HW133620   4.486   2.335   5.317 -0.1488 -0.3976 -0.5509
 7329SOL    HW233621   4.422   2.233   5.233  0.1107  2.5424 -3.2495
 7330SOL     OW33622   0.943   1.386   5.860  0.1421 -0.3958  0.1896
 7330SOL    HW133623   0.920   1.477   5.881  1.0592 -0.2866  0.7452
 7330SOL    HW233624   0.921   1.376   5.767 -0.1768  1.4710  0.0659
 7331SOL     OW33625   3.475   4.045  13.657 -0.5493 -0.1897  0.3852
 7331SOL    HW133626   3.488   4.020  13.566 -2.1189 -1.3727  0.4689
 7331SOL    HW233627   3.481   4.140  13.662  0.0210 -0.1508 -1.0938
 7332SOL     OW33628   2.886   4.618   0.307 -0.5312  0.2028  0.0576
 7332SOL    HW133629   2.925   4.706   0.305 -0.0315 -0.0154  0.3912
 7332SOL    HW233630   2.859   4.614   0.399  2.1036  0.7728  0.8386
 7333SOL     OW33631   2.499   4.271  17.557 -0.1483  0.5689 -0.0538
 7333SOL    HW133632   2.510   4.177  17.545  1.3803  0.9245 -1.4064
 7333SOL    HW233633   2.501   4.276  17.653  0.1106  2.1006 -0.1446
 7334SOL     OW33634   4.598   3.839   1.886 -0.1662 -0.2076  0.5697
 7334SOL    HW133635   4.555   3.874   1.808 -0.7974  0.4912  1.2301
 7334SOL    HW233636   4.605   3.925   1.928 -0.4399 -0.3476  0.8997
 7335SOL     OW33637   2.474   4.253  15.198  0.1483 -0.2442  0.5835
 7335SOL    HW133638   2.385   4.284  15.217  0.3769 -1.8858  4.2353
 7335SOL    HW233639   2.532   4.324  15.227  0.5970  0.8385 -2.9992
 7336SOL     OW33640   0.944   0.761   2.154 -0.5869 -0.1542  0.6095
 7336SOL    HW133641   0.992   0.706   2.216 -0.6177 -0.6285  0.2095
 7336SOL    HW233642   0.853   0.748   2.183 -1.2860  1.0810 -1.0683
 7337SOL     OW33643   4.538   3.489  16.522  0.5060 -0.8953  0.0164
 7337SOL    HW133644   4.526   3.432  16.446  1.6989  1.6195 -2.0439
 7337SOL    HW233645   4.473   3.551  16.490 -0.6724 -2.2829 -0.2446
 7338SOL     OW33646   4.553   1.226   9.409 -0.1395  0.0031  0.1098
 7338SOL    HW133647   4.635   1.195   9.371 -2.1096 -1.5082 -2.8549
 7338SOL    HW233648   4.503   1.155   9.369  2.9114 -1.6909 -0.7230
 7339SOL     OW33649   3.594   4.064  16.699 -0.0502 -0.5053  0.2735
 7339SOL    HW133650   3.635   4.050  16.614 -0.5209  1.0541 -0.2156
 7339SOL    HW233651   3.502   4.060  16.675  0.3611  0.2860 -1.4591
 7340SOL     OW33652   1.057   0.067  12.740  0.1716  0.0275  0.1999
 7340SOL    HW133653   1.000   0.029  12.807 -0.5857 -0.8827 -0.9680
 7340SOL    HW233654   1.100   4.729  12.700  1.9310  0.6968  0.8238
 7341SOL     OW33655   1.496   0.147   3.593  0.4578  0.2959  0.1521
 7341SOL    HW133656   1.411   0.108   3.613  0.8354  0.2441  1.6190
 7341SOL    HW233657   1.544   0.102   3.662  0.4563 -1.9505 -1.3328
 7342SOL     OW33658   0.177   4.362   5.091  0.0175 -0.1509 -0.2802
 7342SOL    HW133659   0.101   4.385   5.037 -0.2784 -2.2194 -0.7255
 7342SOL    HW233660   0.192   4.450   5.128 -1.9137 -1.1755  2.9583
 7343SOL     OW33661   1.312   0.249  17.508  0.3321 -0.4825  0.2608
 7343SOL    HW133662   1.386   0.225  17.565  0.1691 -0.8520  0.3180
 7343SOL    HW233663   1.360   0.277  17.431  0.0613 -1.2674 -0.1910
 7344SOL     OW33664   2.277   3.351   6.992 -0.0721 -0.2108  0.3211
 7344SOL    HW133665   2.358   3.325   6.949 -0.3410  1.3834 -1.1633
 7344SOL    HW233666   2.208   3.298   6.952 -1.3810  2.4468 -0.9843
 7345SOL     OW33667   2.968   0.540   4.708 -0.0532  0.2415  0.6161
 7345SOL    HW133668   2.900   0.474   4.698 -0.0944  0.5609 -1.2519
 7345SOL    HW233669   2.944   0.587   4.788 -1.6009  1.2444 -0.4295
 7346SOL     OW33670   0.441   0.499   7.052 -0.2448 -0.5878  0.1091
 7346SOL    HW133671   0.458   0.592   7.063  0.5368 -0.5167 -1.6975
 7346SOL    HW233672   0.526   0.462   7.076  1.4420  1.1661 -3.1880
 7347SOL     OW33673   3.299   0.065   6.389  0.3537 -0.1767  0.6502
 7347SOL    HW133674   3.256   0.125   6.450 -2.2426  0.4200 -1.7598
 7347SOL    HW233675   3.235   4.730   6.393  0.9331 -0.6521  1.4406
 7348SOL     OW33676   2.818   2.554  10.881  0.1297  0.5129  0.1011
 7348SOL    HW133677   2.793   2.471  10.921  0.5697 -0.1681 -1.0483
 7348SOL    HW233678   2.768   2.617  10.933 -1.5697  1.7132 -2.9661
 7349SOL     OW33679   4.474   1.174   1.455  0.3790 -0.2366 -0.4484
 7349SOL    HW133680   4.423   1.108   1.503 -1.7499  0.8158 -1.2723
 7349SOL    HW233681   4.555   1.152   1.501  0.4114  0.6996 -0.0567
 7350SOL     OW33682   0.304   4.080  11.087 -0.5953  0.6044  0.3131
 7350SOL    HW133683   0.295   3.985  11.094  0.4727  0.3545 -1.8811
 7350SOL    HW233684   0.369   4.095  11.156  0.9637  0.7707 -1.1822
 7351SOL     OW33685   1.217   0.415  13.681 -0.2561 -0.5664 -0.1460
 7351SOL    HW133686   1.122   0.417  13.692 -0.2161 -3.0340  0.5491
 7351SOL    HW233687   1.241   0.380  13.767 -1.7255  1.2961  1.0128
 7352SOL     OW33688   1.917   1.408   6.106  0.0786  0.0557 -0.5770
 7352SOL    HW133689   1.827   1.385   6.130 -0.0973  0.6920 -0.6061
 7352SOL    HW233690   1.921   1.362   6.022  0.2933 -0.2556 -0.3940
 7353SOL     OW33691   2.814   0.428   4.469 -0.5563  0.5484  0.1424
 7353SOL    HW133692   2.861   0.511   4.471  1.3165 -0.5143  0.1864
 7353SOL    HW233693   2.878   0.371   4.427 -0.7334  0.2126  0.3303
 7354SOL     OW33694   0.730   0.558   2.402 -0.2007 -0.1312  0.1098
 7354SOL    HW133695   0.777   0.540   2.321 -0.3384  2.0714 -0.4568
 7354SOL    HW233696   0.727   0.653   2.396 -0.3870  0.0595  2.8610
 7355SOL     OW33697   2.534   3.492   4.222  0.2098  0.2783  0.1852
 7355SOL    HW133698   2.507   3.574   4.181  1.7111  0.4776 -0.4023
 7355SOL    HW233699   2.609   3.466   4.169  1.4672 -1.9873  3.1084
 7356SOL     OW33700   3.462   2.222   6.801 -0.0302 -0.0544  0.4573
 7356SOL    HW133701   3.526   2.275   6.849  0.2226 -0.1706  0.2466
 7356SOL    HW233702   3.394   2.216   6.867  1.3315  0.8678  1.9549
 7357SOL     OW33703   1.988   2.084   9.309 -0.2541 -0.0997  0.6191
 7357SOL    HW133704   2.002   2.150   9.242 -0.0823 -1.3973 -0.6165
 7357SOL    HW233705   1.993   2.001   9.261  0.8368 -1.7012  3.4519
 7358SOL     OW33706   2.367   1.580  11.994  0.0458  0.0189  0.0921
 7358SOL    HW133707   2.416   1.661  12.009  1.2605 -1.0639  1.9495
 7358SOL    HW233708   2.275   1.600  12.006  0.2309 -0.9075  3.0965
 7359SOL     OW33709   1.537   2.172   2.565  0.1702 -0.2789 -0.6675
 7359SOL    HW133710   1.551   2.179   2.471  2.1007  2.3265 -0.2117
 7359SOL    HW233711   1.453   2.127   2.566 -0.8718  1.7350  1.2875
 7360SOL     OW33712   3.102   0.456   9.377 -0.0810 -0.4518 -0.6771
 7360SOL    HW133713   3.098   0.361   9.362 -1.6811 -0.3250 -1.0229
 7360SOL    HW233714   3.105   0.480   9.285 -1.7299 -0.2218 -0.6587
 7361SOL     OW33715   3.943   1.441  16.561  0.2643 -0.4856 -0.0273
 7361SOL    HW133716   4.010   1.510  16.558 -1.4449  1.1068 -1.5464
 7361SOL    HW233717   3.867   1.485  16.523  0.9662  1.4788  0.8508
 7362SOL     OW33718   1.770   1.329   3.589  0.6871 -0.0089  0.0502
 7362SOL    HW133719   1.824   1.294   3.660  2.6824  1.1161 -0.8955
 7362SOL    HW233720   1.841   1.364   3.535  0.1720 -0.8146 -1.1547
 7363SOL     OW33721   1.050   0.201   2.682 -0.1026 -0.2756 -0.2662
 7363SOL    HW133722   1.120   0.204   2.747  0.6870  1.5433 -1.1969
 7363SOL    HW233723   1.072   0.275   2.625  1.0888 -1.2521 -1.0636
 7364SOL     OW33724   2.478   2.277  15.684  0.3768  0.4637  0.0327
 7364SOL    HW133725   2.430   2.320  15.755 -1.0914 -0.3888 -0.4229
 7364SOL    HW233726   2.406   2.242  15.630  2.1231 -2.2033 -0.5773
 7365SOL     OW33727   2.178   3.270   7.588 -0.4564 -0.8795 -0.9222
 7365SOL    HW133728   2.141   3.355   7.611 -0.9507 -1.7127  1.4320
 7365SOL    HW233729   2.256   3.286   7.535 -0.7054 -0.3113 -1.1124
 7366SOL     OW33730   1.693   2.179   9.263 -0.1285  0.2326  0.4938
 7366SOL    HW133731   1.702   2.145   9.352 -2.1574  1.1301  1.0202
 7366SOL    HW233732   1.626   2.246   9.275  0.7289  1.1905 -0.0748
 7367SOL     OW33733   2.054   3.741   8.912  0.7272  0.2401  0.3489
 7367SOL    HW133734   2.066   3.677   8.982  2.2709 -0.5429 -0.6482
 7367SOL    HW233735   2.084   3.694   8.835 -0.8070 -1.3790  0.7454
 7368SOL     OW33736   4.172   3.775   7.318 -0.1395 -0.1406 -0.2119
 7368SOL    HW133737   4.088   3.742   7.285  0.3361  0.2203 -1.7379
 7368SOL    HW233738   4.199   3.698   7.368 -0.5773  0.1782  0.5169
 7369SOL     OW33739   3.732   1.646   6.491  0.3278 -0.8463 -0.4997
 7369SOL    HW133740   3.783   1.658   6.411  1.5103  1.6659  0.6217
 7369SOL    HW233741   3.797   1.619   6.555 -0.3996 -0.2472  0.4906
 7370SOL     OW33742   1.337   2.239   5.584  0.1801 -0.6845 -0.5210
 7370SOL    HW133743   1.391   2.281   5.652 -0.4052 -2.6119  1.1305
 7370SOL    HW233744   1.393   2.257   5.508  0.7744 -1.4951 -0.2789
 7371SOL     OW33745   2.416   2.644   5.753 -0.0252  0.0756  0.2405
 7371SOL    HW133746   2.484   2.654   5.819  2.0843  0.4325 -2.0067
 7371SOL    HW233747   2.449   2.646   5.663  1.0787  0.4574  0.6542
 7372SOL     OW33748   3.060   4.614   3.866  1.0082 -0.1893  0.5671
 7372SOL    HW133749   3.086   4.552   3.934 -1.3245 -1.3193  0.4256
 7372SOL    HW233750   2.969   4.629   3.889  0.5185 -0.8349 -0.9382
 7373SOL     OW33751   2.726   0.408   2.670  0.5825 -0.0985  0.1135
 7373SOL    HW133752   2.745   0.428   2.579  0.0759  1.1718  0.2893
 7373SOL    HW233753   2.747   0.493   2.709  0.6974 -0.3491  0.5943
 7374SOL     OW33754   2.567   3.030   9.944 -0.0875 -0.4804  0.0017
 7374SOL    HW133755   2.592   3.080  10.023  0.9629 -1.3085  0.1851
 7374SOL    HW233756   2.473   3.031   9.926  0.2070 -0.1172 -1.5238
 7375SOL     OW33757   3.478   1.934   9.770  0.2783 -0.1856 -0.1486
 7375SOL    HW133758   3.418   1.861   9.785  0.3482 -0.9284 -3.4621
 7375SOL    HW233759   3.551   1.923   9.831 -0.3959 -0.9775  0.5105
 7376SOL     OW33760   1.976   0.504  12.295  0.0934 -0.1182 -0.0078
 7376SOL    HW133761   1.999   0.435  12.234 -1.0571  1.1574 -1.8703
 7376SOL    HW233762   1.900   0.541  12.250 -0.0829  0.6842  0.9278
 7377SOL     OW33763   1.998   0.688   4.951  0.0545  0.1481 -0.1533
 7377SOL    HW133764   2.092   0.691   4.931  0.5030 -0.2859  1.9318
 7377SOL    HW233765   1.964   0.721   4.868  3.5950  1.6514 -1.0257
 7378SOL     OW33766   2.579   1.562   9.267  0.1797  0.0065  0.5065
 7378SOL    HW133767   2.630   1.486   9.237  1.0445  1.6128 -2.0954
 7378SOL    HW233768   2.491   1.525   9.265  0.8221 -1.4656 -0.7158
 7379SOL     OW33769   1.152   4.197   9.149  0.4138 -0.4444  0.0054
 7379SOL    HW133770   1.068   4.178   9.190  2.0374 -1.1984  3.0212
 7379SOL    HW233771   1.179   4.271   9.204  0.9129  0.1658 -1.0613
 7380SOL     OW33772   2.645   2.285  16.748  0.1583 -0.1333  0.6147
 7380SOL    HW133773   2.683   2.242  16.825  0.7694 -1.1008 -0.2306
 7380SOL    HW233774   2.653   2.204  16.698 -0.8283 -0.6653  1.3063
 7381SOL     OW33775   1.033   4.356  14.704 -0.0674 -0.1857 -0.3346
 7381SOL    HW133776   1.115   4.367  14.656  0.3028  0.2357  0.3986
 7381SOL    HW233777   1.074   4.334  14.787  0.7872 -0.1308 -0.7448
 7382SOL     OW33778   3.595   1.894   0.961 -0.2958 -0.6651  0.0641
 7382SOL    HW133779   3.611   1.975   1.008 -1.4454 -1.0297  1.0898
 7382SOL    HW233780   3.503   1.888   0.986 -0.1929 -1.9108  0.1622
 7383SOL     OW33781   3.431   3.634  13.891 -0.0430  0.5167  0.0818
 7383SOL    HW133782   3.416   3.686  13.811 -0.1896 -3.7946 -2.6886
 7383SOL    HW233783   3.426   3.703  13.957 -3.0173 -1.0985  1.5253
 7384SOL     OW33784   0.738   2.143   9.103  0.1372 -0.2501 -0.3066
 7384SOL    HW133785   0.698   2.174   9.184 -1.6087  1.6300 -1.9210
 7384SOL    HW233786   0.658   2.104   9.068 -1.1652  1.6623  0.5509
 7385SOL     OW33787   0.271   2.263   2.629  0.5340 -0.0580 -0.4658
 7385SOL    HW133788   0.278   2.229   2.540  0.2144 -1.0615 -0.1090
 7385SOL    HW233789   0.356   2.230   2.658 -0.2013 -0.6812  1.0274
 7386SOL     OW33790   1.347   0.936   8.220  0.9570 -0.5495 -0.2038
 7386SOL    HW133791   1.273   0.905   8.167  1.0857  0.8584 -1.2018
 7386SOL    HW233792   1.364   0.861   8.278  1.0941 -0.5421 -0.2366
 7387SOL     OW33793   0.708   1.646   1.279 -0.5522 -0.2833 -0.0491
 7387SOL    HW133794   0.789   1.602   1.254  1.2126  0.5597  4.1563
 7387SOL    HW233795   0.741   1.731   1.308 -2.4675  0.5892 -0.4349
 7388SOL     OW33796   4.317   0.153  10.269  0.2115 -0.2445 -0.1754
 7388SOL    HW133797   4.346   0.070  10.230  0.8011  0.2710 -0.8360
 7388SOL    HW233798   4.340   0.214  10.199  2.5197  0.0170  0.8002
 7389SOL     OW33799   2.837   4.561   5.449 -0.3779 -0.3122  0.3087
 7389SOL    HW133800   2.815   4.559   5.356 -0.6149  1.0660  0.3388
 7389SOL    HW233801   2.858   4.469   5.464  0.1757 -0.0312  1.2483
 7390SOL     OW33802   2.289   3.666   4.508 -0.3113  0.0806  0.3684
 7390SOL    HW133803   2.236   3.695   4.435 -0.4443  1.1723  0.8985
 7390SOL    HW233804   2.215   3.637   4.561 -0.2776  0.6319  0.7265
 7391SOL     OW33805   0.258   3.305   6.973  0.6259 -0.1692 -0.5704
 7391SOL    HW133806   0.303   3.230   6.934 -1.4154 -3.2812  2.9609
 7391SOL    HW233807   0.221   3.266   7.053 -0.9258 -1.4720 -1.9310
 7392SOL     OW33808   1.701   2.587   0.987  0.5342 -0.4532  0.2035
 7392SOL    HW133809   1.679   2.498   1.013 -0.8810 -0.1718 -0.0604
 7392SOL    HW233810   1.790   2.569   0.957  0.8691  1.5926 -0.0692
 7393SOL     OW33811   2.676   0.621   5.465 -0.1219  0.2067  0.0737
 7393SOL    HW133812   2.719   0.664   5.390 -1.1692  1.4033  0.1471
 7393SOL    HW233813   2.748   0.570   5.500 -1.5737 -2.0114 -0.1831
 7394SOL     OW33814   3.438   3.732   2.847  0.7487  0.7345 -0.2762
 7394SOL    HW133815   3.498   3.806   2.843  0.6856  0.8597  0.8752
 7394SOL    HW233816   3.416   3.736   2.941 -1.9861  0.1978 -0.8927
 7395SOL     OW33817   2.969   3.757   3.958 -0.2051 -0.6741  0.7434
 7395SOL    HW133818   3.006   3.798   4.036 -1.2205 -2.1925  2.0266
 7395SOL    HW233819   3.049   3.708   3.939  0.6152  1.2715 -0.7996
 7396SOL     OW33820   3.904   0.369   8.406 -0.6516 -0.2915  0.1314
 7396SOL    HW133821   3.915   0.460   8.377 -1.3643 -0.1335  0.3454
 7396SOL    HW233822   3.840   0.384   8.476  0.9045  2.3070  0.9847
 7397SOL     OW33823   3.927   1.243  16.870  0.5711 -0.4290  0.2331
 7397SOL    HW133824   3.880   1.177  16.922  0.6680 -0.1881  0.6264
 7397SOL    HW233825   3.873   1.272  16.796 -1.9342 -0.9167  1.8601
 7398SOL     OW33826   1.787   2.634   3.335 -0.1172 -0.2167 -0.1889
 7398SOL    HW133827   1.836   2.613   3.255 -0.4628 -0.6940 -0.2770
 7398SOL    HW233828   1.864   2.634   3.391  1.3830 -0.5484 -2.2161
 7399SOL     OW33829   0.503   0.069   7.541 -0.3388  0.2527  0.2677
 7399SOL    HW133830   0.445   0.131   7.586  0.5676 -0.1101  1.9263
 7399SOL    HW233831   0.460   0.061   7.455 -1.1563 -1.6333  0.8430
 7400SOL     OW33832   3.518   4.480   3.569  0.1181 -0.4067 -0.4107
 7400SOL    HW133833   3.602   4.494   3.527  0.3836  1.1943  0.6534
 7400SOL    HW233834   3.509   4.575   3.583  0.3852 -0.4844  0.2796
 7401SOL     OW33835   4.083   1.019   5.354  0.3292  0.2816 -0.5821
 7401SOL    HW133836   4.075   0.924   5.348 -0.4767  0.1471  2.8059
 7401SOL    HW233837   4.068   1.043   5.262 -1.4711  0.7229 -0.1860
 7402SOL     OW33838   1.413   0.068   5.895  0.1106  0.1836 -0.0738
 7402SOL    HW133839   1.354   0.027   5.958  0.7911 -0.9077 -0.1458
 7402SOL    HW233840   1.486   0.006   5.896  1.0558  1.2620 -1.5420
 7403SOL     OW33841   2.147   3.928  10.746 -0.2890  0.6200  0.3586
 7403SOL    HW133842   2.159   3.975  10.829  0.5027 -1.3682  1.3524
 7403SOL    HW233843   2.239   3.906  10.732 -0.4746  0.7406 -1.0595
 7404SOL     OW33844   1.413   1.888   4.159  0.4215 -0.1410 -0.1783
 7404SOL    HW133845   1.382   1.968   4.117 -1.4567 -0.9169 -0.2529
 7404SOL    HW233846   1.420   1.911   4.251  0.3735 -0.5726 -0.0652
 7405SOL     OW33847   2.293   0.433   4.869 -0.5421 -0.5319  0.2444
 7405SOL    HW133848   2.268   0.438   4.961  0.3421 -0.9073  0.5076
 7405SOL    HW233849   2.265   0.343   4.850 -1.3060  0.1904 -2.1021
 7406SOL     OW33850   0.392   3.147   0.763  0.9440 -0.4111 -0.3808
 7406SOL    HW133851   0.318   3.169   0.821  0.6615 -0.5865 -0.6727
 7406SOL    HW233852   0.340   3.120   0.687  1.3717 -0.3512 -0.6941
 7407SOL     OW33853   3.434   0.131   7.740 -0.2274  0.0282  0.7327
 7407SOL    HW133854   3.517   0.145   7.785  0.2712 -0.2284 -0.1141
 7407SOL    HW233855   3.451   0.146   7.647  1.9530  0.6933  1.2447
 7408SOL     OW33856   1.024   2.348   2.098  0.5273  0.2347  0.2245
 7408SOL    HW133857   1.091   2.366   2.164 -0.8971 -0.5235  1.8650
 7408SOL    HW233858   0.953   2.397   2.140  0.5641 -0.2520  0.8579
 7409SOL     OW33859   0.659   3.487   7.189 -0.0616  0.1986 -0.0923
 7409SOL    HW133860   0.579   3.497   7.138 -1.2155 -0.7248  1.5068
 7409SOL    HW233861   0.653   3.557   7.254 -0.1418 -0.8558  1.0395
 7410SOL     OW33862   3.802   1.838  12.429  0.1961  0.1575 -0.6018
 7410SOL    HW133863   3.772   1.753  12.459  1.2793 -0.9923 -2.7593
 7410SOL    HW233864   3.820   1.832  12.335  1.3122 -1.4897 -0.2802
 7411SOL     OW33865   3.553   1.664   2.544 -0.7841  0.5840  0.3427
 7411SOL    HW133866   3.626   1.721   2.518  0.0284 -0.3236  0.6177
 7411SOL    HW233867   3.481   1.719   2.513 -1.2972 -0.5798 -0.5109
 7412SOL     OW33868   3.468   3.805   5.439  0.6941 -0.5648  0.2343
 7412SOL    HW133869   3.382   3.847   5.437  1.2912  0.7431  1.4325
 7412SOL    HW233870   3.437   3.721   5.472 -0.4110 -0.7754 -1.3181
 7413SOL     OW33871   2.371   3.546  14.956 -0.2546  0.1069  0.5347
 7413SOL    HW133872   2.323   3.612  15.007  2.6252  2.6562 -0.0373
 7413SOL    HW233873   2.455   3.588  14.940 -0.1516  0.3013  1.5617
 7414SOL     OW33874   2.378   0.002   1.896 -0.8032  0.6731 -0.0319
 7414SOL    HW133875   2.432   4.710   1.822 -1.4617  0.3354 -0.3825
 7414SOL    HW233876   2.394   0.096   1.887  1.3462  0.0944 -2.2866
 7415SOL     OW33877   3.918   2.246   8.845  0.4920  0.5011  0.1110
 7415SOL    HW133878   3.921   2.312   8.914  0.9289  0.7302 -0.1286
 7415SOL    HW233879   3.911   2.163   8.891 -0.3030  1.4362  1.6678
 7416SOL     OW33880   1.667   1.037   8.464 -0.1277 -0.2108  0.4562
 7416SOL    HW133881   1.754   1.078   8.471 -0.0118 -0.5926  1.2308
 7416SOL    HW233882   1.676   0.944   8.484  1.8081  0.2262  1.6072
 7417SOL     OW33883   0.522   4.574   3.520  0.2227 -0.2472  0.2751
 7417SOL    HW133884   0.615   4.565   3.500  0.3811  3.8257 -0.7722
 7417SOL    HW233885   0.493   4.559   3.430  0.8671 -1.5364  0.2816
 7418SOL     OW33886   4.318   0.072   5.492  0.4219 -0.1661 -0.1387
 7418SOL    HW133887   4.406   0.049   5.520  0.0899 -2.0754 -0.6331
 7418SOL    HW233888   4.288   0.119   5.570 -1.4883  0.3483 -1.1777
 7419SOL     OW33889   1.674   3.329   2.141 -0.2330 -0.3997  1.0323
 7419SOL    HW133890   1.753   3.294   2.183  0.4364 -0.1767 -0.0270
 7419SOL    HW233891   1.713   3.389   2.076  0.4264 -0.4995  1.3388
 7420SOL     OW33892   2.913   1.695   6.255  0.5235 -0.5980  0.0209
 7420SOL    HW133893   2.945   1.755   6.189  0.1596 -0.2803  0.1330
 7420SOL    HW233894   2.827   1.670   6.221 -0.3804  1.4476  0.7994
 7421SOL     OW33895   4.568   0.717  12.497  0.0899 -0.1198 -0.1837
 7421SOL    HW133896   4.577   0.769  12.418 -0.1584 -1.8852 -1.3690
 7421SOL    HW233897   4.480   0.679  12.498  0.4787 -0.9988  1.1054
 7422SOL     OW33898   1.463   3.057   8.988  0.2098 -0.4440 -0.6358
 7422SOL    HW133899   1.452   2.962   8.999  0.8864 -0.5136 -0.5699
 7422SOL    HW233900   1.426   3.092   9.069  1.8561 -1.4581  0.5685
 7423SOL     OW33901   2.081   1.542   8.244 -0.0283  0.2124  0.1319
 7423SOL    HW133902   2.096   1.491   8.323  0.7214  0.1445 -0.0553
 7423SOL    HW233903   2.049   1.478   8.180 -1.3175 -0.3271  1.3322
 7424SOL     OW33904   0.244   3.474   7.556  0.9193  0.0414  0.4062
 7424SOL    HW133905   0.253   3.462   7.462 -0.4078 -3.1838  0.6879
 7424SOL    HW233906   0.225   3.567   7.570  3.2816  0.4496  0.9415
 7425SOL     OW33907   1.096   0.782   1.657 -0.6696 -1.0323  0.0375
 7425SOL    HW133908   1.187   0.758   1.676 -1.0482 -1.2809  1.5704
 7425SOL    HW233909   1.102   0.877   1.668  1.4308 -1.1779  0.0111
 7426SOL     OW33910   1.027   1.079  10.986  0.4169 -0.3694 -0.0823
 7426SOL    HW133911   0.943   1.098  11.028  1.7127  2.1989  1.3577
 7426SOL    HW233912   1.045   1.161  10.941  0.3233  0.0766  0.6990
 7427SOL     OW33913   2.591   1.667  10.944  0.1390  0.3642 -0.2477
 7427SOL    HW133914   2.616   1.640  10.855  1.4627 -1.3896  0.6397
 7427SOL    HW233915   2.640   1.597  10.987  1.6559  0.2186 -2.2018
 7428SOL     OW33916   2.070   2.722   1.881 -0.1394  0.3404 -0.3586
 7428SOL    HW133917   2.099   2.776   1.954  1.2896 -1.0163  0.0574
 7428SOL    HW233918   2.156   2.724   1.839  0.5467  0.5170  1.0460
 7429SOL     OW33919   2.056   1.523   9.131  0.4267 -0.1415 -0.2455
 7429SOL    HW133920   2.005   1.469   9.192 -0.4058 -1.8917 -2.5063
 7429SOL    HW233921   1.981   1.569   9.095  0.7956  0.3533 -0.3842
 7430SOL     OW33922   3.190   4.332   3.056 -0.5000  0.5279  0.2347
 7430SOL    HW133923   3.097   4.314   3.041 -0.1550  1.8198 -3.5066
 7430SOL    HW233924   3.207   4.396   2.986  1.2476 -0.5956 -0.3654
 7431SOL     OW33925   4.137   4.038   4.557  0.8080  0.5160  0.2565
 7431SOL    HW133926   4.229   4.064   4.547  1.0570  0.7185  3.1015
 7431SOL    HW233927   4.147   3.944   4.572 -1.5508  0.1215 -0.6780
 7432SOL     OW33928   4.128   0.310   9.686  0.2393 -0.4264  0.0471
 7432SOL    HW133929   4.110   0.224   9.649 -1.0113 -0.3429  0.4419
 7432SOL    HW233930   4.119   0.290   9.779 -0.7077  0.8299  0.2365
 7433SOL     OW33931   0.818   4.264   5.216 -0.1753 -0.3386  0.1235
 7433SOL    HW133932   0.869   4.274   5.136  0.5126  0.0230  0.6031
 7433SOL    HW233933   0.733   4.293   5.185 -0.3834 -0.9224  0.1388
 7434SOL     OW33934   2.134   0.290   2.488 -0.2771 -0.5695 -0.7472
 7434SOL    HW133935   2.194   0.365   2.480  0.0649 -1.0633 -2.6813
 7434SOL    HW233936   2.099   0.265   2.403 -1.1921 -0.4418 -0.4089
 7435SOL     OW33937   0.168   3.905  12.765  1.1743 -0.7004  0.5573
 7435SOL    HW133938   0.206   3.988  12.737 -2.6166  1.2541  1.1828
 7435SOL    HW233939   0.080   3.900  12.727  1.8000  1.0690 -1.0896
 7436SOL     OW33940   0.234   1.010   5.680 -0.6738 -0.5007  0.3389
 7436SOL    HW133941   0.192   0.932   5.643  2.6011 -1.4155 -1.4589
 7436SOL    HW233942   0.286   0.980   5.755 -1.8064  0.0609  1.3397
 7437SOL     OW33943   1.420   0.851   5.587  0.3191  0.3558 -0.1527
 7437SOL    HW133944   1.326   0.840   5.575  0.3844  0.4128 -0.7584
 7437SOL    HW233945   1.436   0.938   5.549  2.5804 -0.9564 -2.3049
 7438SOL     OW33946   3.642   1.119  15.229  0.4405 -0.3504  0.8454
 7438SOL    HW133947   3.632   1.208  15.262  0.8330 -0.0950  0.2693
 7438SOL    HW233948   3.611   1.130  15.138 -1.2674  0.8165  1.5538
 7439SOL     OW33949   4.657   1.452   7.737  0.2448  0.8700 -0.1247
 7439SOL    HW133950   0.004   1.413   7.763 -1.3075 -0.6562  2.5721
 7439SOL    HW233951   4.607   1.377   7.704  3.9720 -1.7642  0.1959
 7440SOL     OW33952   1.985   0.779  16.303  0.5065  0.1185 -0.3068
 7440SOL    HW133953   2.079   0.790  16.314  0.3718 -0.4044  1.3293
 7440SOL    HW233954   1.951   0.844  16.363  2.0041  2.3272 -1.8570
 7441SOL     OW33955   0.862   2.107   7.204  1.0000 -0.7716  0.2305
 7441SOL    HW133956   0.929   2.079   7.141  2.0060  1.1414  0.4652
 7441SOL    HW233957   0.807   2.152   7.140  0.1700  0.1471  1.5999
 7442SOL     OW33958   1.929   1.770   2.301 -0.3909  0.1973  0.5124
 7442SOL    HW133959   1.943   1.767   2.396 -1.7759 -0.8390  0.6937
 7442SOL    HW233960   2.004   1.720   2.268 -0.9234 -0.6486  0.5660
 7443SOL     OW33961   3.668   0.268   7.952 -0.4392 -0.5669 -0.0089
 7443SOL    HW133962   3.732   0.261   8.023 -0.7772  0.1679  0.3692
 7443SOL    HW233963   3.591   0.268   8.008  0.2772 -3.1285  0.9515
 7444SOL     OW33964   2.209   2.256   4.740 -0.3015  0.3775  0.3709
 7444SOL    HW133965   2.227   2.217   4.826 -0.0932  1.2426  0.7148
 7444SOL    HW233966   2.286   2.309   4.721  0.6238 -1.1820 -0.3115
 7445SOL     OW33967   1.682   3.343  10.045 -0.7480  0.2063 -0.2361
 7445SOL    HW133968   1.679   3.372  10.137 -0.5896 -1.1683  0.2064
 7445SOL    HW233969   1.613   3.398  10.009  0.7191  0.9201 -1.9557
 7446SOL     OW33970   2.893   0.264   9.075 -0.4696  0.0410 -0.1830
 7446SOL    HW133971   2.832   0.210   9.125  1.3746 -0.6666  1.3266
 7446SOL    HW233972   2.947   0.200   9.028  0.4597  0.5432  0.2063
 7447SOL     OW33973   4.197   3.535   3.405  0.6616 -0.6356 -0.3960
 7447SOL    HW133974   4.263   3.544   3.336 -0.7545 -1.8515 -1.9109
 7447SOL    HW233975   4.203   3.622   3.443  0.6595 -0.7499 -0.1364
 7448SOL     OW33976   4.142   3.012   4.648 -0.2500  0.5013  0.0773
 7448SOL    HW133977   4.192   3.092   4.632 -3.2239  2.5462  1.0165
 7448SOL    HW233978   4.212   2.949   4.629  0.5709  1.7033 -0.9398
 7449SOL     OW33979   4.192   2.197  14.396 -0.0349  0.0936 -0.4005
 7449SOL    HW133980   4.147   2.239  14.323  0.3689  2.2158  0.5777
 7449SOL    HW233981   4.117   2.167  14.447  1.2265  1.1834  2.0895
 7450SOL     OW33982   1.892   2.433   7.397 -0.2878  0.2880 -0.2227
 7450SOL    HW133983   1.826   2.467   7.337 -2.1503 -1.9389  0.5572
 7450SOL    HW233984   1.853   2.448   7.483 -0.1643  0.2170 -0.1528
 7451SOL     OW33985   3.859   0.469   6.060  0.4861 -0.0253  0.0911
 7451SOL    HW133986   3.802   0.436   5.991 -1.1742  1.3742  0.7996
 7451SOL    HW233987   3.917   0.516   6.000 -0.1552  0.1084 -0.4152
 7452SOL     OW33988   4.474   0.443   4.763 -0.2916 -0.5669  0.1711
 7452SOL    HW133989   4.439   0.502   4.829 -0.0317  1.6382 -1.6373
 7452SOL    HW233990   4.558   0.482   4.737  0.2841 -1.7550  0.2442
 7453SOL     OW33991   0.121   3.521  16.315  0.1465 -0.1329  0.2327
 7453SOL    HW133992   0.091   3.431  16.328 -0.8973  0.0985 -0.6133
 7453SOL    HW233993   0.144   3.539  16.406 -0.6617  0.5420  0.3015
 7454SOL     OW33994   1.100   0.529   9.491  0.0445 -0.5401 -0.5735
 7454SOL    HW133995   1.160   0.519   9.417 -0.5855 -0.8089 -1.0499
 7454SOL    HW233996   1.103   0.443   9.532 -1.0076 -0.5959 -0.6204
 7455SOL     OW33997   0.165   2.661   6.100 -0.4789 -0.7716 -0.6326
 7455SOL    HW133998   0.089   2.603   6.104  0.2324 -1.7600 -1.6847
 7455SOL    HW233999   0.214   2.613   6.167  0.2406  0.6642 -0.1225
 7456SOL     OW34000   3.825   3.960   7.555  0.0083 -0.1748 -0.4671
 7456SOL    HW134001   3.760   4.030   7.551 -2.0903 -2.0381  0.9030
 7456SOL    HW234002   3.904   4.011   7.571  1.0719 -2.0571  0.3360
 7457SOL     OW34003   0.564   2.374   2.358 -0.3457  0.4354  0.2135
 7457SOL    HW134004   0.535   2.414   2.440  0.8182  0.5988  0.5475
 7457SOL    HW234005   0.540   2.431   2.285 -4.1142  0.7531  1.6763
 7458SOL     OW34006   3.067   0.555  16.194  0.7563  0.1756  0.0354
 7458SOL    HW134007   3.096   0.646  16.197  2.3297 -0.3678  0.8696
 7458SOL    HW234008   3.136   0.505  16.238  2.4232  1.5165 -1.0645
 7459SOL     OW34009   3.890   0.808   6.931  0.2032  0.4577  0.2650
 7459SOL    HW134010   3.838   0.842   6.858 -1.8521 -1.3557  0.8875
 7459SOL    HW234011   3.825   0.741   6.951  0.5623  0.6035  1.9153
 7460SOL     OW34012   4.060   0.577   4.737 -0.3097 -1.1075 -0.1832
 7460SOL    HW134013   4.017   0.581   4.822 -0.7535  0.0292 -0.4733
 7460SOL    HW234014   3.984   0.597   4.683 -0.2382 -1.8198 -0.5524
 7461SOL     OW34015   4.425   0.726   8.527  0.4815  0.8073  0.0150
 7461SOL    HW134016   4.450   0.662   8.594  2.2071  2.5946  1.0692
 7461SOL    HW234017   4.487   0.718   8.455  1.1258 -2.7994  0.9184
 7462SOL     OW34018   3.627   3.629  12.795  0.3580  0.0744 -0.0738
 7462SOL    HW134019   3.617   3.539  12.764  1.0073 -0.3545  0.9623
 7462SOL    HW234020   3.721   3.642  12.784  0.2251  0.5907 -0.5646
 7463SOL     OW34021   2.240   2.677   7.779 -0.4635 -0.2132  0.0894
 7463SOL    HW134022   2.298   2.719   7.715  1.0596 -2.8636 -0.2834
 7463SOL    HW234023   2.169   2.647   7.723 -1.6450 -1.3373  2.1599
 7464SOL     OW34024   2.605   0.729   4.502 -0.0129 -0.0774 -0.4333
 7464SOL    HW134025   2.612   0.676   4.581 -0.0933 -1.4543 -1.3514
 7464SOL    HW234026   2.512   0.725   4.478 -0.2061 -1.4924  0.5583
 7465SOL     OW34027   0.273   0.992   1.989 -0.0795  0.2727 -0.2938
 7465SOL    HW134028   0.235   0.949   1.912  0.1611 -1.6921  0.6993
 7465SOL    HW234029   0.248   1.084   1.982 -1.0706  0.1039  1.1051
 7466SOL     OW34030   0.486   1.941   4.220 -0.1452  0.0086 -0.2178
 7466SOL    HW134031   0.440   1.965   4.139  1.9491  0.1438 -1.3514
 7466SOL    HW234032   0.565   1.913   4.175 -0.7585  0.0731 -1.3219
 7467SOL     OW34033   1.368   2.379   3.873  0.6278 -0.1893 -0.2033
 7467SOL    HW134034   1.278   2.371   3.906  0.7609 -0.2229  0.1489
 7467SOL    HW234035   1.408   2.408   3.955  0.8477  0.2129 -0.4548
 7468SOL     OW34036   0.316   1.925  10.599  0.2329  0.1283 -0.2068
 7468SOL    HW134037   0.308   1.846  10.654  0.8914  0.9037  0.9989
 7468SOL    HW234038   0.242   1.978  10.629  0.3517 -0.1211  0.5125
 7469SOL     OW34039   1.288   2.699   1.706  0.0737 -0.0212 -0.4451
 7469SOL    HW134040   1.275   2.757   1.782  0.8855 -0.6821  0.2027
 7469SOL    HW234041   1.222   2.731   1.645 -0.0106  1.9951  0.6748
 7470SOL     OW34042   0.979   2.926   6.878 -0.5067 -0.1932  0.2598
 7470SOL    HW134043   0.996   3.015   6.848  1.3477 -0.1466  1.4731
 7470SOL    HW234044   0.966   2.937   6.972 -1.1517 -0.6276  0.2250
 7471SOL     OW34045   0.637   1.080   6.224 -0.4245 -0.1137  0.0055
 7471SOL    HW134046   0.664   1.100   6.314  0.8640 -0.9910 -0.1817
 7471SOL    HW234047   0.699   1.124   6.167  0.5893 -1.8042 -0.2134
 7472SOL     OW34048   1.591   3.361   5.124  0.0760 -0.2897  0.2068
 7472SOL    HW134049   1.593   3.457   5.122 -1.5217 -0.2399  1.1203
 7472SOL    HW234050   1.603   3.345   5.217 -0.9877 -0.7124  0.2717
 7473SOL     OW34051   2.996   1.231   6.789 -0.5060  0.2764 -0.6830
 7473SOL    HW134052   2.930   1.296   6.815  1.1100  1.3490  0.7781
 7473SOL    HW234053   3.022   1.262   6.702  0.8374  0.0693 -0.3630
 7474SOL     OW34054   1.081   4.016   8.392 -0.0972 -0.2190  0.4029
 7474SOL    HW134055   1.057   3.924   8.400  2.2856 -0.9077 -0.4223
 7474SOL    HW234056   0.995   4.058   8.392 -0.3888 -0.8312  1.7062
 7475SOL     OW34057   2.077   1.191   3.997 -0.2423 -0.1579  0.1739
 7475SOL    HW134058   2.070   1.109   4.047 -1.0639  1.3175  2.4545
 7475SOL    HW234059   2.060   1.253   4.067  3.3349  0.9748  0.0715
 7476SOL     OW34060   0.095   2.308  11.496  0.5236 -0.2172 -0.0377
 7476SOL    HW134061   0.146   2.383  11.464  0.1917  0.9609  2.2252
 7476SOL    HW234062   0.159   2.267  11.554  1.2069  2.7528  1.3252
 7477SOL     OW34063   2.338   3.275   2.400  0.0111  0.4801  0.1965
 7477SOL    HW134064   2.420   3.310   2.365  0.8496 -0.9374  0.7386
 7477SOL    HW234065   2.356   3.213   2.471  0.2039  1.0527  0.6553
 7478SOL     OW34066   3.239   1.332   1.328  0.4458 -0.2214 -0.2893
 7478SOL    HW134067   3.188   1.402   1.368 -0.2110 -1.0568  0.3437
 7478SOL    HW234068   3.267   1.275   1.400 -0.8238  1.1982  1.3102
 7479SOL     OW34069   4.058   2.384   7.826  0.1607  0.2879 -0.5231
 7479SOL    HW134070   3.977   2.382   7.876 -0.7210 -4.1108 -2.1632
 7479SOL    HW234071   4.122   2.426   7.884 -1.5319  0.4796  1.2068
 7480SOL     OW34072   4.337   0.863  16.340 -0.2871  0.1214  0.2825
 7480SOL    HW134073   4.326   0.934  16.277  2.0206 -0.9367 -1.3067
 7480SOL    HW234074   4.281   0.897  16.410  0.0582  0.6132  0.3216
 7481SOL     OW34075   4.414   3.576   3.262 -0.0468 -0.1468 -0.6221
 7481SOL    HW134076   4.501   3.568   3.300 -1.1646 -0.5541  1.8272
 7481SOL    HW234077   4.440   3.597   3.172  1.5518  0.8966  0.0984
 7482SOL     OW34078   1.948   0.218   7.592  0.2189  0.9855 -0.7772
 7482SOL    HW134079   1.938   0.128   7.622 -1.4120  1.6103  0.5449
 7482SOL    HW234080   2.021   0.244   7.648  0.5285  2.6076 -1.9333
 7483SOL     OW34081   0.204   1.241  15.327 -0.2628  0.3563 -0.0829
 7483SOL    HW134082   0.257   1.313  15.361  2.1943 -1.2933 -0.4073
 7483SOL    HW234083   0.118   1.280  15.307 -0.3888  0.0910 -0.0608
 7484SOL     OW34084   1.921   3.852   0.504 -0.1781 -0.4546  0.6303
 7484SOL    HW134085   1.857   3.871   0.436 -0.7690  1.4566  1.7107
 7484SOL    HW234086   1.879   3.783   0.554 -0.5873  1.0312  2.3582
 7485SOL     OW34087   3.862   1.080   9.221  0.0251  0.2655 -0.5665
 7485SOL    HW134088   3.785   1.056   9.170 -0.0378  1.0455 -0.8349
 7485SOL    HW234089   3.860   1.018   9.293 -0.4127 -0.7285 -1.4301
 7486SOL     OW34090   0.223   2.591  11.615 -0.5914  0.6236 -0.2128
 7486SOL    HW134091   0.263   2.511  11.651  0.0524  1.9385  2.0164
 7486SOL    HW234092   0.208   2.563  11.525 -0.0923 -0.7531  0.1224
 7487SOL     OW34093   2.491   1.423   8.723 -0.8604 -0.4531 -0.2073
 7487SOL    HW134094   2.439   1.479   8.780  1.0513 -1.4921  2.5126
 7487SOL    HW234095   2.456   1.336   8.744 -1.5135 -0.1217  0.0755
 7488SOL     OW34096   1.324   0.251   4.871 -0.4339  0.0582  0.2484
 7488SOL    HW134097   1.229   0.262   4.868 -0.2499  1.4827 -0.3868
 7488SOL    HW234098   1.339   0.161   4.898  0.5059 -0.2818 -1.4008
 7489SOL     OW34099   3.404   0.721   5.075  0.5198  0.0299  0.3405
 7489SOL    HW134100   3.403   0.766   5.159 -0.1798  2.6088 -1.0469
 7489SOL    HW234101   3.319   0.746   5.038  0.6196  2.1987  1.6212
 7490SOL     OW34102   1.814   0.453   7.140 -0.5675 -0.4694 -0.7410
 7490SOL    HW134103   1.882   0.504   7.183 -3.0661  0.4370  2.0984
 7490SOL    HW234104   1.744   0.455   7.205  1.2050  2.2252  1.0546
 7491SOL     OW34105   3.081   1.865  16.058 -0.3430 -0.4808  0.6936
 7491SOL    HW134106   3.031   1.944  16.036 -0.6365 -0.7228  0.4681
 7491SOL    HW234107   3.068   1.860  16.152  4.8489 -0.8885  1.3440
 7492SOL     OW34108   1.517   0.902  16.463 -0.4977  0.1857  0.1614
 7492SOL    HW134109   1.497   0.977  16.407 -0.4458 -0.5149 -0.7991
 7492SOL    HW234110   1.452   0.838  16.433 -1.2256  0.1578  1.8105
 7493SOL     OW34111   3.669   0.385   4.085  0.3546 -0.0185 -0.1248
 7493SOL    HW134112   3.625   0.300   4.075  0.1424 -0.0637  1.2203
 7493SOL    HW234113   3.697   0.391   3.994 -0.5545  0.3265 -0.3816
 7494SOL     OW34114   3.680   1.157   3.055  0.1093  0.2301  0.8200
 7494SOL    HW134115   3.684   1.121   3.144  1.5123  0.3949  0.8240
 7494SOL    HW234116   3.617   1.227   3.071 -0.0958  0.4370 -0.9017
 7495SOL     OW34117   0.899   4.560   5.630  0.0787  0.1215 -0.2114
 7495SOL    HW134118   0.821   4.510   5.605 -0.0847  0.2848 -0.0314
 7495SOL    HW234119   0.959   4.488   5.612 -2.1383 -1.9117  0.5001
 7496SOL     OW34120   1.074   1.991  13.364 -0.7827  0.6670 -0.1457
 7496SOL    HW134121   1.149   2.017  13.312  1.0933 -2.3283  1.0746
 7496SOL    HW234122   1.072   1.899  13.337  1.9988  0.8214 -0.8255
 7497SOL     OW34123   0.365   2.130   3.042  0.3701 -0.6161 -0.1624
 7497SOL    HW134124   0.347   2.087   2.958  0.2525  3.5008 -2.2826
 7497SOL    HW234125   0.276   2.159   3.063  0.9175  0.0429  1.2141
 7498SOL     OW34126   0.503   0.922   8.172 -0.6972 -0.5684  0.1090
 7498SOL    HW134127   0.497   1.015   8.151  2.4994 -0.1431  0.9659
 7498SOL    HW234128   0.590   0.895   8.141 -1.6379 -0.7535 -2.3630
 7499SOL     OW34129   3.159   1.166  13.219 -0.2581  0.7309  0.4166
 7499SOL    HW134130   3.205   1.248  13.239 -0.3152  0.9324 -0.2475
 7499SOL    HW234131   3.120   1.195  13.136 -0.0786  0.8198  0.3615
 7500SOL     OW34132   0.647   1.182   0.486  0.0821 -0.4144  0.5760
 7500SOL    HW134133   0.636   1.265   0.439 -1.5614 -0.2647  1.2297
 7500SOL    HW234134   0.575   1.126   0.456 -0.3744  0.8547 -0.7085
 7501SOL     OW34135   4.523   0.679  13.048  0.2972  0.0416  0.4962
 7501SOL    HW134136   4.437   0.650  13.079  1.1336 -2.2074  0.7424
 7501SOL    HW234137   4.500   0.736  12.974  1.4511  0.6252  0.5839
 7502SOL     OW34138   3.894   3.142  14.850 -0.6109 -0.4955 -0.2342
 7502SOL    HW134139   3.892   3.069  14.912 -0.7781 -0.0110  0.3368
 7502SOL    HW234140   3.825   3.113  14.791  0.1478 -0.1284 -1.3050
 7503SOL     OW34141   2.197   0.023  14.475 -0.2304  0.2219 -0.1202
 7503SOL    HW134142   2.193   4.673  14.514  1.2077 -1.2007 -3.0956
 7503SOL    HW234143   2.103   0.036  14.462 -0.3196 -1.2305 -0.9609
 7504SOL     OW34144   3.526   3.428   5.614 -0.2122  0.3944  0.0214
 7504SOL    HW134145   3.495   3.371   5.544  0.8565  0.9894 -0.9450
 7504SOL    HW234146   3.480   3.511   5.607 -0.6133 -0.0699 -2.7802
 7505SOL     OW34147   0.731   0.541   5.633 -0.7656  0.1322  0.5680
 7505SOL    HW134148   0.663   0.601   5.666 -1.1352  0.0450 -0.0350
 7505SOL    HW234149   0.707   0.541   5.540  0.8861 -0.6190  0.1453
 7506SOL     OW34150   0.274   2.768  11.123  0.3514  0.5588  0.3458
 7506SOL    HW134151   0.308   2.847  11.166 -0.5768  0.5741  1.0577
 7506SOL    HW234152   0.181   2.765  11.146  0.5510 -0.3153  1.0239
 7507SOL     OW34153   0.031   2.951   2.312 -0.7831 -0.2491 -0.1861
 7507SOL    HW134154   0.104   3.010   2.329 -2.8109  2.1883  0.0863
 7507SOL    HW234155   0.042   2.930   2.220 -0.8577 -2.2702  0.2528
 7508SOL     OW34156   3.994   2.561   4.039  0.4883  0.7346  0.0936
 7508SOL    HW134157   3.909   2.602   4.021  0.1911 -1.0863 -2.7758
 7508SOL    HW234158   3.963   2.471   4.045  1.7941  0.3157  0.5056
 7509SOL     OW34159   4.190   1.395  10.775  0.5883  0.0749 -0.8082
 7509SOL    HW134160   4.204   1.448  10.854 -0.3952 -1.2168  0.2407
 7509SOL    HW234161   4.257   1.327  10.783  0.6303  0.2498  0.3452
 7510SOL     OW34162   0.339   4.173  12.731 -0.2033 -0.0582  0.0284
 7510SOL    HW134163   0.358   4.131  12.647 -3.3906  1.8034 -1.6337
 7510SOL    HW234164   0.419   4.157  12.782  0.4598 -1.3348 -1.4074
 7511SOL     OW34165   4.123   2.578   2.741 -0.1388  0.0542 -0.5803
 7511SOL    HW134166   4.124   2.668   2.706  0.3608  0.9401  1.7316
 7511SOL    HW234167   4.108   2.589   2.835  1.6150  1.0879 -0.4047
 7512SOL     OW34168   1.741   1.588   8.272  0.7912 -0.3496 -0.2327
 7512SOL    HW134169   1.765   1.680   8.266  0.5014 -0.2044  0.7510
 7512SOL    HW234170   1.711   1.569   8.361  0.1311  2.3391  0.1182
 7513SOL     OW34171   3.278   2.239   6.090  0.3319 -0.3439  0.2726
 7513SOL    HW134172   3.335   2.311   6.063 -0.3256 -0.2972 -0.9987
 7513SOL    HW234173   3.335   2.186   6.146 -0.4884 -3.6746 -2.0322
 7514SOL     OW34174   1.222   1.324   2.536  0.2185 -0.6163  0.1227
 7514SOL    HW134175   1.153   1.275   2.582 -1.2527  0.7796 -0.6158
 7514SOL    HW234176   1.173   1.399   2.504 -0.2182 -0.6804  0.6370
 7515SOL     OW34177   1.794   1.899   3.687  0.1720 -0.1523 -0.0502
 7515SOL    HW134178   1.705   1.891   3.723  0.2379 -2.3832 -0.3945
 7515SOL    HW234179   1.798   1.821   3.631 -0.0906 -1.6421  1.9955
 7516SOL     OW34180   4.320   0.160   6.373  0.6104 -0.2433 -0.0439
 7516SOL    HW134181   4.360   0.234   6.419 -3.4909 -0.1338  3.4203
 7516SOL    HW234182   4.402   0.111   6.376  0.6732 -0.0485  1.8517
 7517SOL     OW34183   2.985   4.334   2.494  0.0729 -0.2620 -0.2145
 7517SOL    HW134184   2.944   4.289   2.420  1.4945  0.0956 -1.2120
 7517SOL    HW234185   2.908   4.359   2.546  0.7680  0.4413  0.4843
 7518SOL     OW34186   0.496   0.252  12.735 -0.2138  0.5641  0.8361
 7518SOL    HW134187   0.463   0.202  12.661 -3.1515  0.7208  2.0386
 7518SOL    HW234188   0.497   0.338  12.693  0.7527  0.1138 -0.0398
 7519SOL     OW34189   0.064   0.268   5.862  0.7895 -0.2787 -0.6079
 7519SOL    HW134190   0.145   0.291   5.816  0.9977  0.6568  0.2224
 7519SOL    HW234191   0.098   0.200   5.919  1.4018 -0.8913 -1.7156
 7520SOL     OW34192   2.739   4.202  15.227 -0.3712  0.2587  0.3703
 7520SOL    HW134193   2.671   4.235  15.169 -0.1322 -0.7520 -0.4986
 7520SOL    HW234194   2.819   4.241  15.192  1.0308 -1.9024  1.1554
 7521SOL     OW34195   0.912   1.131   1.959 -0.2762 -0.4817 -0.0833
 7521SOL    HW134196   0.996   1.144   2.003 -0.4541 -0.3175  0.2042
 7521SOL    HW234197   0.942   1.065   1.896  1.6746  1.4566 -1.1720
 7522SOL     OW34198   4.661   2.556  13.550  0.0680  0.0335 -0.2397
 7522SOL    HW134199   4.662   2.468  13.586  2.1717 -0.2137 -0.9250
 7522SOL    HW234200   0.018   2.566  13.533  0.0757  2.5358  1.2939
 7523SOL     OW34201   4.571   2.960   2.575  0.1423 -0.0558  0.0838
 7523SOL    HW134202   4.626   3.012   2.517 -2.3956  2.6993  0.1611
 7523SOL    HW234203   4.592   2.871   2.546 -0.3938 -1.2905  3.3773
 7524SOL     OW34204   0.101   3.932   4.323 -0.4084  0.3707 -0.5257
 7524SOL    HW134205   0.154   3.878   4.382  2.0576  2.9149 -0.3992
 7524SOL    HW234206   0.162   4.002   4.299  2.3190 -0.8401  2.9025
 7525SOL     OW34207   0.124   1.237   5.930 -0.2880 -0.0557  0.1564
 7525SOL    HW134208   0.181   1.212   5.857  1.1639  1.0137  0.9375
 7525SOL    HW234209   0.055   1.172   5.918 -0.1227 -0.6045  2.1703
 7526SOL     OW34210   1.807   1.230   8.618 -0.0937  0.2893  0.4330
 7526SOL    HW134211   1.897   1.211   8.646 -0.3257 -0.8114  0.3989
 7526SOL    HW234212   1.830   1.271   8.535 -0.2781  0.1410  0.3118
 7527SOL     OW34213   4.289   4.623   6.026 -0.1094  0.4877  0.4212
 7527SOL    HW134214   4.312   4.711   6.055 -0.6651  0.9785 -0.5999
 7527SOL    HW234215   4.199   4.614   6.056 -0.7835  0.2549 -1.6229
 7528SOL     OW34216   2.783   4.631   3.900  0.0251  0.3163 -0.3613
 7528SOL    HW134217   2.712   4.616   3.837 -1.0062 -0.1500  0.9099
 7528SOL    HW234218   2.748   4.591   3.979 -0.4006 -1.4641 -1.4594
 7529SOL     OW34219   1.885   1.420   6.972 -0.2508 -0.0639 -0.2781
 7529SOL    HW134220   1.804   1.458   6.940 -0.7571 -1.9695 -1.2627
 7529SOL    HW234221   1.911   1.501   7.016 -1.6137 -0.0973  0.5872
 7530SOL     OW34222   3.198   3.901   8.893 -0.2237 -0.0586  0.6157
 7530SOL    HW134223   3.190   3.951   8.812 -1.9628  0.1134  0.8891
 7530SOL    HW234224   3.132   3.933   8.955 -2.8090 -2.4241 -0.9151
 7531SOL     OW34225   1.037   3.537   0.269 -0.4787 -0.4039 -0.0000
 7531SOL    HW134226   1.068   3.620   0.304 -1.1586 -0.4597  0.7525
 7531SOL    HW234227   1.115   3.483   0.259 -0.4521 -1.0694  3.7113
 7532SOL     OW34228   3.827   0.954   8.587 -0.0873  0.5020  0.3051
 7532SOL    HW134229   3.842   0.871   8.631  2.3687  0.8468  0.1286
 7532SOL    HW234230   3.778   0.929   8.509 -1.1001  0.0498  1.0981
 7533SOL     OW34231   0.742   3.834   7.136  0.2161  1.0912  0.6043
 7533SOL    HW134232   0.717   3.782   7.212  0.5134 -0.1331 -0.1349
 7533SOL    HW234233   0.837   3.832   7.150  0.4665 -1.8199 -1.4438
 7534SOL     OW34234   3.231   2.425   2.492  0.4456  0.1987  0.0091
 7534SOL    HW134235   3.206   2.356   2.432 -2.0288  1.4815 -0.3942
 7534SOL    HW234236   3.250   2.500   2.436  0.5615 -0.4654 -0.8461
 7535SOL     OW34237   1.391   0.454   4.300 -0.4289  0.2255  0.2634
 7535SOL    HW134238   1.305   0.412   4.293  0.1939 -0.9313 -0.2597
 7535SOL    HW234239   1.383   0.520   4.231  3.5442  1.7635  1.3000
 7536SOL     OW34240   2.072   0.462  11.160  0.4918 -0.4772 -0.5178
 7536SOL    HW134241   2.123   0.542  11.142  0.3410 -0.7049 -1.9581
 7536SOL    HW234242   2.144   0.400  11.171  2.4560  1.6400 -1.3265
 7537SOL     OW34243   2.209   4.455   1.175 -0.2337  0.3192 -1.2306
 7537SOL    HW134244   2.152   4.474   1.100 -2.9082 -1.0262  0.4550
 7537SOL    HW234245   2.197   4.361   1.183  0.8202  0.3638  0.8659
 7538SOL     OW34246   2.161   0.190   6.323 -0.2534  1.7815 -0.3184
 7538SOL    HW134247   2.128   0.250   6.256  0.2828  1.1265 -1.1753
 7538SOL    HW234248   2.166   0.242   6.403  1.6996 -0.5153  1.0474
 7539SOL     OW34249   0.436   2.878  16.169 -0.0985 -0.4205  0.2259
 7539SOL    HW134250   0.507   2.837  16.120 -0.3651 -0.2935 -0.2693
 7539SOL    HW234251   0.374   2.868  16.097  0.9811  1.6115 -0.9919
 7540SOL     OW34252   3.697   1.780   4.334 -0.7506 -0.3827  0.4171
 7540SOL    HW134253   3.718   1.706   4.390 -0.3395 -0.2885  0.3874
 7540SOL    HW234254   3.608   1.745   4.326  0.0098 -2.4386  0.8973
 7541SOL     OW34255   3.484   0.879   0.307 -0.1552  0.1519  0.4459
 7541SOL    HW134256   3.466   0.973   0.295 -0.1763  0.3576  2.0243
 7541SOL    HW234257   3.491   0.893   0.402  2.0264  2.1240  0.0131
 7542SOL     OW34258   4.372   3.254   6.830  0.0675 -0.1364 -0.1381
 7542SOL    HW134259   4.436   3.205   6.777 -0.4781  0.2227 -1.1332
 7542SOL    HW234260   4.417   3.338   6.827 -1.1245  0.4568 -1.6863
 7543SOL     OW34261   0.717   3.085   5.709 -0.0735 -0.2007  0.0652
 7543SOL    HW134262   0.795   3.063   5.658 -0.9133 -1.2907 -0.7517
 7543SOL    HW234263   0.732   3.032   5.787 -1.6630  0.5808  0.8925
 7544SOL     OW34264   3.767   4.349   8.857  0.0234  0.3078  0.4377
 7544SOL    HW134265   3.803   4.294   8.786 -1.7840  1.3587 -1.3015
 7544SOL    HW234266   3.719   4.287   8.912  0.3680  0.0330  0.4278
 7545SOL     OW34267   0.478   3.002   5.271  0.3650 -0.4948  0.1906
 7545SOL    HW134268   0.535   2.936   5.310  0.5271 -1.3606 -1.4888
 7545SOL    HW234269   0.399   2.955   5.244  0.5594 -0.3983 -0.5632
 7546SOL     OW34270   3.273   0.411   2.017  0.0645  0.1221 -0.3086
 7546SOL    HW134271   3.321   0.341   1.973  0.3344 -0.3523  0.7562
 7546SOL    HW234272   3.333   0.485   2.027  2.0153 -1.1819 -2.3794
 7547SOL     OW34273   0.366   3.157  13.510 -0.2913  0.6170 -0.4046
 7547SOL    HW134274   0.400   3.139  13.597 -2.8232 -0.3931  0.3675
 7547SOL    HW234275   0.271   3.154  13.524 -0.5405  4.3531 -1.0519
 7548SOL     OW34276   2.438   4.360  16.568  0.0160 -0.0761 -0.2522
 7548SOL    HW134277   2.506   4.395  16.624  2.5900 -2.7822 -1.7049
 7548SOL    HW234278   2.476   4.387  16.485 -1.5327  0.5348 -0.7704
 7549SOL     OW34279   0.032   3.641   3.051  0.1452 -0.4712  0.3512
 7549SOL    HW134280   4.713   3.607   2.980 -0.1229  0.0582  0.3104
 7549SOL    HW234281   0.087   3.705   3.007  2.7119 -1.8327  1.5595
 7550SOL     OW34282   0.722   3.751   2.980 -0.0400  0.3798 -0.3616
 7550SOL    HW134283   0.759   3.680   2.928 -0.3899 -0.5141  0.6245
 7550SOL    HW234284   0.669   3.706   3.045 -2.0712  0.5748 -1.8937
 7551SOL     OW34285   1.775   2.312   5.116 -0.3642 -0.1145  0.3592
 7551SOL    HW134286   1.736   2.259   5.047 -0.2812  1.4984 -0.9183
 7551SOL    HW234287   1.696   2.359   5.144  0.6246  0.3233  2.4165
 7552SOL     OW34288   2.387   3.125   8.780 -0.0053 -0.0055  0.7515
 7552SOL    HW134289   2.300   3.149   8.750  0.1268 -1.1772 -0.6038
 7552SOL    HW234290   2.434   3.167   8.708  0.6928 -1.5324  0.3175
 7553SOL     OW34291   4.695   3.446   9.091 -0.0423  0.1425 -0.1657
 7553SOL    HW134292   4.732   3.417   9.175  0.3687  1.7482  0.2119
 7553SOL    HW234293   4.696   3.541   9.102 -2.1123  0.3723 -2.0060
 7554SOL     OW34294   1.104   4.315  10.378  0.1228 -0.0201 -0.4856
 7554SOL    HW134295   1.068   4.403  10.385 -0.8561 -0.4850  0.3324
 7554SOL    HW234296   1.082   4.267  10.458  0.0704  0.6125 -0.1180
 7555SOL     OW34297   3.504   1.875   3.374 -0.3075 -0.7048 -0.0219
 7555SOL    HW134298   3.422   1.902   3.332 -1.2419 -3.2122  0.2303
 7555SOL    HW234299   3.460   1.828   3.444  1.2512 -0.1741  1.3207
 7556SOL     OW34300   2.989   2.818   0.093  0.2390 -0.0124 -0.5034
 7556SOL    HW134301   3.019   2.779   0.175  0.4661  0.0358 -0.5648
 7556SOL    HW234302   3.072   2.861   0.073  0.4632 -0.6303 -0.9302
 7557SOL     OW34303   1.281   2.101  13.181  0.4685 -0.6536  0.5947
 7557SOL    HW134304   1.284   2.036  13.111  3.0346 -0.4185  0.5048
 7557SOL    HW234305   1.197   2.144  13.162  0.4275 -1.3958 -0.9004
 7558SOL     OW34306   3.218   3.350  15.224 -0.4602  0.6655 -0.3308
 7558SOL    HW134307   3.212   3.337  15.319  0.7370 -2.3623 -0.6673
 7558SOL    HW234308   3.232   3.445  15.216 -2.1746  0.8036 -1.5776
 7559SOL     OW34309   0.221   1.280   7.890  0.6756 -0.3200 -0.4376
 7559SOL    HW134310   0.296   1.317   7.843  0.7348 -2.1176 -1.7742
 7559SOL    HW234311   0.225   1.320   7.976  0.2559  0.2131 -0.6698
 7560SOL     OW34312   2.099   1.421  17.054  0.7173 -0.2111 -0.0866
 7560SOL    HW134313   2.139   1.482  17.116 -0.0007 -1.4425  1.5591
 7560SOL    HW234314   2.092   1.345  17.112  0.9465 -1.1625 -1.3151
 7561SOL     OW34315   0.542   1.567   8.489  0.3287 -0.1713  0.5142
 7561SOL    HW134316   0.624   1.616   8.479  1.1703 -1.7601 -0.4404
 7561SOL    HW234317   0.498   1.596   8.409  1.2050  2.3568  0.9631
 7562SOL     OW34318   4.173   0.771   3.398  0.0001  0.0153  0.1019
 7562SOL    HW134319   4.120   0.691   3.406 -0.2674  0.0244 -1.5242
 7562SOL    HW234320   4.253   0.737   3.358  0.5988  0.6436  0.7683
 7563SOL     OW34321   2.507   1.742   6.622 -0.2716  0.4469  0.0354
 7563SOL    HW134322   2.546   1.658   6.597  0.9109  0.4927  1.7227
 7563SOL    HW234323   2.517   1.788   6.539  2.2288 -2.1952 -1.1314
 7564SOL     OW34324   4.498   2.015   4.959 -0.0229 -0.0245  0.2331
 7564SOL    HW134325   4.509   2.009   4.864 -1.1273 -2.4667  0.2698
 7564SOL    HW234326   4.588   2.018   4.993  0.7460 -2.9183 -1.5575
 7565SOL     OW34327   4.196   1.050  10.394 -0.2063  0.0018  0.0599
 7565SOL    HW134328   4.116   1.098  10.412  0.8722  1.7734  0.1352
 7565SOL    HW234329   4.241   1.108  10.333 -1.0147 -0.5952 -1.0937
 7566SOL     OW34330   4.698   2.831  17.075 -0.2460  0.2400  0.2861
 7566SOL    HW134331   4.614   2.815  17.118 -0.3225 -1.5498 -0.5422
 7566SOL    HW234332   0.022   2.811  17.147 -1.5670 -0.6192  1.1600
 7567SOL     OW34333   1.218   0.011  16.335 -0.1524 -0.1829 -0.2093
 7567SOL    HW134334   1.292   4.687  16.331  0.3272  0.4219 -0.4232
 7567SOL    HW234335   1.151   4.701  16.286  0.5881  2.1684 -3.4261
 7568SOL     OW34336   1.796   3.112  12.537 -0.5416  0.1014 -0.4510
 7568SOL    HW134337   1.820   3.200  12.510 -1.5497  0.0848 -1.4341
 7568SOL    HW234338   1.809   3.120  12.631 -3.1285  0.1627 -0.1175
 7569SOL     OW34339   3.657   0.731   1.937 -0.5406 -0.4924 -0.5763
 7569SOL    HW134340   3.631   0.675   1.863  0.5001 -0.3763 -1.0329
 7569SOL    HW234341   3.703   0.669   1.994  0.1954  1.6572  1.1361
 7570SOL     OW34342   4.028   4.040  10.174 -0.2094  0.0118 -0.1723
 7570SOL    HW134343   3.934   4.025  10.169  0.0883 -0.6861 -3.5798
 7570SOL    HW234344   4.036   4.104  10.245 -0.1501 -0.2733  0.0783
 7571SOL     OW34345   3.701   3.049   7.846  0.1160 -0.3218 -0.2076
 7571SOL    HW134346   3.650   3.109   7.901 -0.6953 -2.4266  1.3176
 7571SOL    HW234347   3.652   2.970   7.867 -2.9382  1.4747 -0.4649
 7572SOL     OW34348   1.537   2.130   2.314 -0.0373 -0.6537 -0.4613
 7572SOL    HW134349   1.556   2.155   2.224 -2.4942 -1.0592 -1.1037
 7572SOL    HW234350   1.595   2.054   2.324 -1.8066 -1.8254  1.0558
 7573SOL     OW34351   3.174   3.836   4.151  0.1602 -0.0686 -0.1690
 7573SOL    HW134352   3.264   3.834   4.117  1.0690  0.3564  2.2053
 7573SOL    HW234353   3.196   3.893   4.225  0.1832  0.0914 -0.2971
 7574SOL     OW34354   0.377   0.063   4.034  0.8451 -0.0811  0.6467
 7574SOL    HW134355   0.376   0.159   4.032 -2.7547 -0.1116  1.4284
 7574SOL    HW234356   0.433   0.044   3.958  1.1582 -0.6611  1.0173
 7575SOL     OW34357   2.850   4.030  13.344  0.6897  0.0634  0.5060
 7575SOL    HW134358   2.798   4.022  13.264  1.0892  1.1536  0.1366
 7575SOL    HW234359   2.922   3.970  13.326 -0.3319  0.0116 -3.3507
 7576SOL     OW34360   1.381   3.768  17.270  0.4184 -0.2287 -0.1750
 7576SOL    HW134361   1.294   3.807  17.264 -0.4369 -2.2867 -1.1061
 7576SOL    HW234362   1.396   3.748  17.177  2.3281  3.8053 -0.7709
 7577SOL     OW34363   2.581   4.025   1.516  0.1803 -0.2651 -0.2418
 7577SOL    HW134364   2.504   4.033   1.572  1.3526 -2.1007  1.5913
 7577SOL    HW234365   2.543   4.084   1.450 -0.1588 -0.9211 -0.6304
 7578SOL     OW34366   0.975   3.981   9.884  0.2654  0.4944  0.1699
 7578SOL    HW134367   1.069   3.992   9.895  0.7872 -2.6933 -1.1429
 7578SOL    HW234368   0.950   4.064   9.843  1.7315  0.4794 -0.7406
 7579SOL     OW34369   1.686   0.357  15.632 -0.2211  0.2866  0.8264
 7579SOL    HW134370   1.767   0.405  15.649 -0.4535  0.5283  1.2454
 7579SOL    HW234371   1.623   0.430  15.633 -2.0497 -1.2550 -1.9806
 7580SOL     OW34372   2.980   2.405   3.308 -0.4818 -0.1608 -0.3299
 7580SOL    HW134373   3.061   2.393   3.357 -0.0924  0.1965 -0.8849
 7580SOL    HW234374   2.984   2.348   3.231 -0.1886 -2.4228  1.3302
 7581SOL     OW34375   0.049   1.068  14.631 -0.1071 -0.5656  0.0303
 7581SOL    HW134376   0.003   1.145  14.663 -1.6191 -1.6558  0.4694
 7581SOL    HW234377   4.732   1.002  14.676 -0.8032 -1.3721 -1.9581
 7582SOL     OW34378   3.458   0.758   4.433  0.2140 -0.5060 -0.2245
 7582SOL    HW134379   3.496   0.843   4.455 -0.7598  0.1270 -0.9741
 7582SOL    HW234380   3.487   0.737   4.345 -2.7473 -2.4788 -0.7166
 7583SOL     OW34381   2.322   4.455   2.602 -0.5848 -0.2849 -0.1786
 7583SOL    HW134382   2.227   4.461   2.611 -0.4239 -0.4851  1.5563
 7583SOL    HW234383   2.333   4.360   2.604 -0.2953 -0.2463  0.0583
 7584SOL     OW34384   0.428   2.211   4.866  0.2570  0.1272 -0.2742
 7584SOL    HW134385   0.467   2.224   4.952  1.4295 -3.8731 -0.2126
 7584SOL    HW234386   0.436   2.299   4.828 -1.3377 -0.3976 -1.8300
 7585SOL     OW34387   1.958   0.186   4.090  0.2608  0.1758 -0.0755
 7585SOL    HW134388   1.945   0.274   4.057 -1.0839  0.6543  1.6782
 7585SOL    HW234389   1.985   0.216   4.177  0.0646 -0.7841  0.3200
 7586SOL     OW34390   4.721   4.267   1.647  0.2216 -0.2664 -0.5882
 7586SOL    HW134391   0.005   4.336   1.585  0.3684  0.1861 -0.0414
 7586SOL    HW234392   4.693   4.194   1.591 -2.7628  0.3027  0.1429
 7587SOL     OW34393   3.415   0.586   8.322  0.5438  0.7551 -0.5640
 7587SOL    HW134394   3.482   0.518   8.317  0.4156  0.6887 -1.3285
 7587SOL    HW234395   3.343   0.526   8.342 -0.1366  1.6744 -0.2466
 7588SOL     OW34396   4.609   0.369   2.558  0.1375 -0.0744 -0.3875
 7588SOL    HW134397   4.697   0.331   2.559  0.8271  1.5074 -0.5696
 7588SOL    HW234398   4.584   0.329   2.475 -2.6703  0.4047  0.2389
 7589SOL     OW34399   2.093   2.919   8.296  0.6343  0.4974 -0.7570
 7589SOL    HW134400   2.100   2.833   8.255  1.1254  0.3431 -0.3458
 7589SOL    HW234401   2.052   2.963   8.222 -0.7772 -1.3209 -1.0620
 7590SOL     OW34402   0.052   1.157   3.061 -0.2450  0.2764 -0.1130
 7590SOL    HW134403   0.002   1.083   3.027  2.4721 -0.9955 -1.3331
 7590SOL    HW234404   0.015   1.166   3.149 -0.5203  0.5369 -0.2548
 7591SOL     OW34405   3.805   1.709   9.094 -0.7820 -0.0773 -0.1856
 7591SOL    HW134406   3.866   1.637   9.106 -0.2824  0.3174 -0.3550
 7591SOL    HW234407   3.791   1.699   9.000  0.0193 -1.2735 -0.1793
 7592SOL     OW34408   2.582   1.864   2.207  0.0266  0.5211  0.1441
 7592SOL    HW134409   2.656   1.877   2.266 -0.1069 -1.4222  0.7564
 7592SOL    HW234410   2.580   1.768   2.210 -1.9484  0.4768 -2.1167
 7593SOL     OW34411   1.707   3.102   4.538 -0.2098 -0.7274  0.0491
 7593SOL    HW134412   1.727   3.153   4.459  1.5994  1.0417  1.6334
 7593SOL    HW234413   1.623   3.067   4.507  0.7981 -1.4710 -1.8130
 7594SOL     OW34414   1.429   1.371   3.040  0.0261 -1.0726 -0.1960
 7594SOL    HW134415   1.485   1.436   2.997 -0.7799 -0.6742 -0.6591
 7594SOL    HW234416   1.450   1.393   3.130  2.9164 -2.0229 -0.6474
 7595SOL     OW34417   2.804   2.354   2.632  0.5211  0.3731  0.6378
 7595SOL    HW134418   2.723   2.356   2.684  1.2555 -0.2439  1.8068
 7595SOL    HW234419   2.857   2.414   2.683  1.4253 -1.6271  2.0420
 7596SOL     OW34420   0.305   4.042   8.242 -0.0644  0.1834  0.0173
 7596SOL    HW134421   0.347   4.127   8.247 -0.0340  0.1071  1.1063
 7596SOL    HW234422   0.349   3.990   8.176  1.6059  2.4285 -0.6211
 7597SOL     OW34423   3.422   3.895   1.669  0.8143  0.1118 -0.5209
 7597SOL    HW134424   3.435   3.965   1.733 -0.1907  1.1590 -1.4778
 7597SOL    HW234425   3.511   3.895   1.635  0.3398  3.0056 -1.7328
 7598SOL     OW34426   0.412   1.831   2.526 -0.0732 -1.0523 -0.6152
 7598SOL    HW134427   0.431   1.913   2.481 -1.9289  0.5427  1.5126
 7598SOL    HW234428   0.319   1.852   2.538  0.5496  0.0492  2.3174
 7599SOL     OW34429   3.672   1.616  12.550 -0.5925 -0.4627  0.3089
 7599SOL    HW134430   3.751   1.586  12.596  0.9877  2.1189 -0.7043
 7599SOL    HW234431   3.631   1.540  12.508 -1.9165 -0.0156  0.8022
 7600SOL     OW34432   3.911   3.712   3.395  0.3222 -0.2065  0.1027
 7600SOL    HW134433   3.942   3.638   3.448  1.5141  0.4621  0.3390
 7600SOL    HW234434   3.881   3.769   3.466  1.4842 -0.3258  0.6895
 7601SOL     OW34435   2.888   3.016   0.744  0.3945 -0.4823 -0.1967
 7601SOL    HW134436   2.895   3.095   0.690  0.0605  0.3065  0.9060
 7601SOL    HW234437   2.820   3.053   0.801  2.2126  1.3147  0.8206
 7602SOL     OW34438   0.406   0.697   8.371  0.4371 -0.2295 -0.3953
 7602SOL    HW134439   0.411   0.767   8.307 -0.0616 -0.4913 -0.7212
 7602SOL    HW234440   0.374   0.625   8.316 -1.5211 -0.1341  0.6129
 7603SOL     OW34441   4.537   1.587   9.754  0.3458  0.0844 -0.0700
 7603SOL    HW134442   4.595   1.639   9.810  0.8983 -1.1740  0.5245
 7603SOL    HW234443   4.597   1.519   9.723  0.4967 -0.4636  1.4378
 7604SOL     OW34444   0.134   3.891   4.654 -0.3646  0.3410 -0.2200
 7604SOL    HW134445   0.043   3.915   4.635  0.2562  2.3654 -0.6597
 7604SOL    HW234446   0.115   3.865   4.744  0.4073  1.7445  0.3462
 7605SOL     OW34447   1.470   1.343   0.244 -0.3408  0.4824 -0.0802
 7605SOL    HW134448   1.518   1.327   0.163  0.7915 -1.5623  1.0093
 7605SOL    HW234449   1.546   1.368   0.296  0.8299 -2.2437 -0.4792
 7606SOL     OW34450   2.215   4.231   3.125 -0.1868  0.3570  0.2524
 7606SOL    HW134451   2.122   4.241   3.148  0.2937  0.6835  2.0531
 7606SOL    HW234452   2.248   4.226   3.214  2.4479  2.0509 -0.6430
 7607SOL     OW34453   0.447   2.466   4.780 -0.3129 -0.2379 -0.0591
 7607SOL    HW134454   0.484   2.503   4.860  0.1380 -0.2857 -0.2431
 7607SOL    HW234455   0.519   2.477   4.718 -2.4494 -2.0049 -2.8726
 7608SOL     OW34456   1.751   1.915   4.373 -0.2457 -0.4728 -0.3100
 7608SOL    HW134457   1.659   1.899   4.395 -0.2716 -0.7287 -0.6114
 7608SOL    HW234458   1.801   1.881   4.448 -2.1721 -0.1804  1.1036
 7609SOL     OW34459   0.088   1.699   2.601  0.7714 -0.1131 -0.2072
 7609SOL    HW134460   0.129   1.764   2.545  0.5880 -1.9685 -2.5250
 7609SOL    HW234461   0.020   1.659   2.547 -0.1379  0.4908  0.4873
 7610SOL     OW34462   3.562   1.542   2.186  0.4206  0.4180  0.6062
 7610SOL    HW134463   3.615   1.482   2.238  1.0743  0.2852 -0.2039
 7610SOL    HW234464   3.563   1.500   2.100  0.4254  3.6872 -0.9833
 7611SOL     OW34465   2.207   3.260  15.551  0.9485 -0.8658  0.3167
 7611SOL    HW134466   2.259   3.184  15.526  0.1785 -0.4874 -2.5097
 7611SOL    HW234467   2.198   3.259  15.646 -0.4532  0.9140  0.2081
 7612SOL     OW34468   3.461   2.799  11.156  0.0534 -0.4052  0.2415
 7612SOL    HW134469   3.461   2.741  11.080  0.5151  0.7761 -0.6642
 7612SOL    HW234470   3.392   2.862  11.136  0.9762  1.2479  2.2848
 7613SOL     OW34471   4.616   1.724  11.023  0.5380 -0.2767  0.1975
 7613SOL    HW134472   4.614   1.811  10.984  0.1396 -0.7998 -0.9540
 7613SOL    HW234473   4.626   1.760  11.111  0.5703 -0.2447  0.1807
 7614SOL     OW34474   0.743   1.925   6.482  0.2621 -0.0784 -0.3180
 7614SOL    HW134475   0.802   1.907   6.555 -0.6395 -0.9757  0.2033
 7614SOL    HW234476   0.776   1.887   6.400  0.3902  0.8218 -0.6852
 7615SOL     OW34477   3.067   3.298   5.268 -0.3202 -0.3132 -0.1669
 7615SOL    HW134478   3.101   3.216   5.304 -0.1631  0.3320  1.1510
 7615SOL    HW234479   2.999   3.273   5.204 -0.4994  2.5913 -1.0855
 7616SOL     OW34480   1.687   3.519   8.831  0.1350  0.1078 -0.0551
 7616SOL    HW134481   1.625   3.588   8.852 -0.7604 -0.9728  0.8487
 7616SOL    HW234482   1.743   3.567   8.770 -0.0326 -2.2205 -2.0607
 7617SOL     OW34483   3.972   0.681   5.171 -0.2519  0.0567  1.0013
 7617SOL    HW134484   4.040   0.739   5.137 -1.0960  1.1385  1.1521
 7617SOL    HW234485   3.898   0.715   5.120  1.4864  4.8420  1.6731
 7618SOL     OW34486   4.006   3.299  16.852 -0.3877 -0.3378  0.1631
 7618SOL    HW134487   4.096   3.330  16.840  0.0959 -1.1281  1.7231
 7618SOL    HW234488   3.986   3.350  16.930  0.9930  1.8636 -0.9309
 7619SOL     OW34489   2.119   4.210   1.182  0.2075 -0.1401  0.3604
 7619SOL    HW134490   2.133   4.182   1.092  0.5100 -0.5101  0.5208
 7619SOL    HW234491   2.135   4.126   1.225  0.1472 -0.4037 -0.1365
 7620SOL     OW34492   1.558   1.050   4.721  0.5169  0.3063  0.3058
 7620SOL    HW134493   1.635   1.094   4.759  1.0157  0.8445 -1.3542
 7620SOL    HW234494   1.546   1.102   4.642 -0.2456  1.8673  1.4252
 7621SOL     OW34495   1.746   3.448  11.263  0.3528  0.4975 -0.3783
 7621SOL    HW134496   1.783   3.365  11.232  1.1377  1.0065 -0.7977
 7621SOL    HW234497   1.654   3.423  11.265  0.2012  1.1465  0.9402
 7622SOL     OW34498   1.404   4.426   1.841  0.6365  0.4571  0.4201
 7622SOL    HW134499   1.471   4.371   1.881 -0.3417 -0.1074  1.2975
 7622SOL    HW234500   1.398   4.488   1.914  1.0950 -0.9214  1.6212
 7623SOL     OW34501   4.609   4.227   9.480 -0.4729 -0.0037 -0.4558
 7623SOL    HW134502   4.686   4.178   9.510  0.2588  1.8235  0.6040
 7623SOL    HW234503   4.613   4.218   9.385 -2.5648  2.5024 -0.7601
 7624SOL     OW34504   0.942   3.876   2.557  0.1453 -0.2143  0.1424
 7624SOL    HW134505   0.936   3.931   2.479 -1.0912 -2.0669 -1.0930
 7624SOL    HW234506   0.887   3.924   2.619  0.3275  0.2412 -0.0541
 7625SOL     OW34507   2.492   0.304  15.141 -0.0677 -0.7373  0.6214
 7625SOL    HW134508   2.473   0.279  15.051 -0.7996 -1.3127  0.9313
 7625SOL    HW234509   2.402   0.332  15.161 -0.2460 -0.6329 -0.3552
 7626SOL     OW34510   1.749   0.779  16.543 -0.5963 -0.5374 -0.3413
 7626SOL    HW134511   1.662   0.810  16.518 -0.8008  0.5810  1.7361
 7626SOL    HW234512   1.809   0.847  16.510  1.0529 -0.6729  2.3634
 7627SOL     OW34513   4.499   3.472   4.324 -0.0016  0.6146  0.2928
 7627SOL    HW134514   4.495   3.565   4.300 -1.7171  0.0024 -1.8149
 7627SOL    HW234515   4.433   3.427   4.271 -2.3291  0.2873  3.4907
 7628SOL     OW34516   3.366   2.620   9.340 -0.3022 -0.1797 -0.5780
 7628SOL    HW134517   3.364   2.711   9.308  0.7632 -0.3593 -1.1563
 7628SOL    HW234518   3.443   2.587   9.293  0.3072  0.8811 -0.3359
 7629SOL     OW34519   1.611   4.616   4.867  0.7253 -0.1500 -0.3855
 7629SOL    HW134520   1.536   4.618   4.807  1.6632  1.0991 -1.5251
 7629SOL    HW234521   1.664   4.685   4.827 -0.0062 -0.9233 -2.6629
 7630SOL     OW34522   4.732   2.191   9.024 -0.1653 -0.2301  0.1381
 7630SOL    HW134523   0.022   2.277   9.057 -1.0839  0.7162 -1.5974
 7630SOL    HW234524   4.638   2.198   9.036 -0.4823 -1.1748 -1.8997
 7631SOL     OW34525   4.557   3.717   8.857  0.0631 -0.5968  0.3221
 7631SOL    HW134526   4.580   3.695   8.767 -1.9542  0.5677 -0.4867
 7631SOL    HW234527   4.485   3.779   8.846  1.5728  0.8240 -1.3699
 7632SOL     OW34528   0.271   2.137   9.160  0.4556  0.0651  0.4222
 7632SOL    HW134529   0.249   2.129   9.252 -0.4064 -1.3588  0.0919
 7632SOL    HW234530   0.187   2.115   9.119  1.0295 -0.0764 -0.6939
 7633SOL     OW34531   1.489   2.048  14.488 -0.0048  0.5244  0.0139
 7633SOL    HW134532   1.551   2.115  14.456  0.7407 -0.0585  0.2313
 7633SOL    HW234533   1.508   2.037  14.581  2.8962 -2.2340 -0.9136
 7634SOL     OW34534   3.009   2.562   2.188  0.2103 -0.1667 -0.3107
 7634SOL    HW134535   2.981   2.543   2.277  0.3389  1.3926  0.0650
 7634SOL    HW234536   3.102   2.570   2.209  0.4327  0.6884 -1.5829
 7635SOL     OW34537   4.524   0.247   5.030 -0.3002 -0.5979 -0.2783
 7635SOL    HW134538   4.601   0.264   4.977  0.7530 -2.0148  0.8024
 7635SOL    HW234539   4.488   0.334   5.046  1.0993 -0.1522  0.3801
 7636SOL     OW34540   1.567   4.528   2.662 -0.2014  0.7882  0.1618
 7636SOL    HW134541   1.616   4.491   2.736  0.9431 -2.5087 -2.2635
 7636SOL    HW234542   1.552   4.459   2.598  1.2729  0.3624  0.2856
 7637SOL     OW34543   1.270   4.523   0.951 -0.1015 -0.1657  0.9016
 7637SOL    HW134544   1.281   4.590   0.883 -0.6551  1.5628  2.5269
 7637SOL    HW234545   1.347   4.469   0.933  0.4031  0.4733  1.1316
 7638SOL     OW34546   3.312   0.188  10.458  0.7159  0.3217 -0.2891
 7638SOL    HW134547   3.349   0.196  10.546 -1.8615 -1.9742  1.0085
 7638SOL    HW234548   3.392   0.223  10.418 -0.8147  1.1576 -2.6343
 7639SOL     OW34549   1.191   2.129   9.113  0.2835 -0.4680 -0.2040
 7639SOL    HW134550   1.109   2.163   9.075 -0.3937  0.6369  2.2357
 7639SOL    HW234551   1.176   2.044   9.156  0.5320 -0.0468  0.7137
 7640SOL     OW34552   2.902   0.952   5.923 -0.1687  0.0855 -0.0076
 7640SOL    HW134553   2.924   0.909   5.841  0.5459 -0.2005  0.3286
 7640SOL    HW234554   2.840   1.019   5.894 -1.5078 -1.9092 -1.7179
 7641SOL     OW34555   1.892   3.330   2.329 -0.4054  0.4100  0.3020
 7641SOL    HW134556   1.954   3.321   2.400 -1.7807 -1.2403  1.2861
 7641SOL    HW234557   1.824   3.390   2.360 -1.3912 -1.1788  1.2011
 7642SOL     OW34558   4.472   2.002  12.362  0.3478 -0.0793  0.3088
 7642SOL    HW134559   4.392   2.038  12.401 -0.5085 -0.1111 -1.4187
 7642SOL    HW234560   4.511   2.075  12.315 -1.6667  0.2970 -0.7968
 7643SOL     OW34561   0.540   3.239   8.487 -0.0442  0.1751 -0.1565
 7643SOL    HW134562   0.510   3.306   8.425  2.1189 -0.2518 -1.6602
 7643SOL    HW234563   0.524   3.157   8.439  1.2294 -0.1043 -0.1016
 7644SOL     OW34564   3.812   0.031   6.455 -0.0766 -0.4871 -0.1198
 7644SOL    HW134565   3.781   0.110   6.500 -0.9145 -0.1998 -1.1910
 7644SOL    HW234566   3.726   0.007   6.420  0.5478 -1.7164 -0.8084
 7645SOL     OW34567   4.056   4.225   9.023 -0.1872  0.2504  0.1387
 7645SOL    HW134568   4.115   4.265   8.958  0.0790 -1.0446 -0.4186
 7645SOL    HW234569   4.026   4.299   9.075 -0.7596 -0.1153  0.3278
 7646SOL     OW34570   2.576   0.798   6.025  0.2523 -0.0759  0.3798
 7646SOL    HW134571   2.523   0.750   5.960 -1.4724  2.4828 -0.1044
 7646SOL    HW234572   2.608   0.733   6.087  0.7013 -0.9263 -0.7442
 7647SOL     OW34573   0.323   4.717   2.326 -0.3052 -0.3389 -0.4946
 7647SOL    HW134574   0.247   4.683   2.372  0.4602 -0.5240  0.6503
 7647SOL    HW234575   0.336   4.655   2.255 -1.0124 -1.8202  0.6818
 7648SOL     OW34576   1.496   4.015   8.425  0.7064  0.3066  0.0330
 7648SOL    HW134577   1.544   4.069   8.362  1.0367  0.1175  0.1241
 7648SOL    HW234578   1.405   4.038   8.405  0.5624  0.1318  0.4829
 7649SOL     OW34579   0.589   2.003  15.990  0.5067 -0.2336  0.1990
 7649SOL    HW134580   0.611   1.932  15.929 -1.0507 -1.0908  0.6138
 7649SOL    HW234581   0.648   1.977  16.061  1.7702  1.3055 -0.2984
 7650SOL     OW34582   3.049   0.747   1.528 -0.2810  0.1324 -0.1103
 7650SOL    HW134583   3.084   0.670   1.573  1.6436  1.6262  0.9522
 7650SOL    HW234584   3.061   0.729   1.435  0.0988 -1.5161  0.2552
 7651SOL     OW34585   4.437   0.333   3.421  0.2918  0.0076  0.4162
 7651SOL    HW134586   4.416   0.243   3.448  0.6990  0.0365  0.8172
 7651SOL    HW234587   4.407   0.338   3.330  1.9568  3.2141  0.0419
 7652SOL     OW34588   0.535   3.288   1.999  0.2400 -0.1799  0.1748
 7652SOL    HW134589   0.612   3.313   1.947  1.5229 -2.4187  0.9880
 7652SOL    HW234590   0.476   3.362   1.986 -0.8841 -1.2401 -0.7585
 7653SOL     OW34591   1.137   1.466   6.312  0.4886 -0.1190  0.1613
 7653SOL    HW134592   1.143   1.382   6.265 -1.5808 -1.1968  1.8720
 7653SOL    HW234593   1.213   1.456   6.369  0.9692  1.8382 -0.1264
 7654SOL     OW34594   1.989   0.704  13.736 -0.1018  0.3390 -0.2195
 7654SOL    HW134595   1.940   0.718  13.817  0.1298 -0.7223  0.0974
 7654SOL    HW234596   1.947   0.775  13.687  0.7634  1.3710  0.5134
 7655SOL     OW34597   2.281   4.261   7.178 -0.4195 -0.6088 -0.2400
 7655SOL    HW134598   2.329   4.272   7.096 -2.0387  0.7623 -0.9985
 7655SOL    HW234599   2.310   4.343   7.217 -0.8041 -0.6371  0.1085
 7656SOL     OW34600   1.219   4.382  11.141 -0.2704  0.4714 -0.1322
 7656SOL    HW134601   1.131   4.417  11.158  0.3011  1.3971  0.9698
 7656SOL    HW234602   1.271   4.437  11.201  0.7126 -0.7712  0.1559
 7657SOL     OW34603   0.572   4.075   7.131  0.8587 -0.3187  0.3265
 7657SOL    HW134604   0.485   4.058   7.094  0.4468  0.8220  0.7744
 7657SOL    HW234605   0.610   3.987   7.126 -0.0131 -0.6475 -0.4524
 7658SOL     OW34606   3.836   0.697  10.452 -0.7500 -0.1558 -0.7065
 7658SOL    HW134607   3.902   0.635  10.423  1.7933  2.2504 -0.0122
 7658SOL    HW234608   3.777   0.630  10.488 -0.5566 -1.2135 -2.3312
 7659SOL     OW34609   0.492   3.451   8.332 -0.5060 -0.2550 -0.0382
 7659SOL    HW134610   0.531   3.536   8.354  0.9630 -0.4904 -1.7861
 7659SOL    HW234611   0.412   3.477   8.285  0.3433  2.1441 -0.1459
 7660SOL     OW34612   0.744   4.282   2.590  0.3968 -0.2517  0.1151
 7660SOL    HW134613   0.727   4.376   2.588 -0.4718 -0.3945  0.8492
 7660SOL    HW234614   0.653   4.258   2.571 -0.0744  1.8578 -0.2986
 7661SOL     OW34615   4.414   2.000   9.308 -0.2717 -0.0223 -0.0992
 7661SOL    HW134616   4.397   2.017   9.215 -1.0803  1.9426  0.3975
 7661SOL    HW234617   4.328   2.028   9.341 -0.7103 -1.9632  0.3933
 7662SOL     OW34618   0.883   3.832  15.175  0.3209 -0.2214  0.3566
 7662SOL    HW134619   0.857   3.825  15.083 -2.7475  1.7108  1.0633
 7662SOL    HW234620   0.928   3.749  15.189 -0.1490 -0.5915 -0.3096
 7663SOL     OW34621   3.778   4.366   8.541 -0.1773  0.2800 -0.2039
 7663SOL    HW134622   3.874   4.362   8.543 -0.1154  1.5065 -0.5416
 7663SOL    HW234623   3.756   4.302   8.474  1.5138 -1.2154  0.6668
 7664SOL     OW34624   4.435   1.782   5.382  0.2077 -0.3934 -0.1218
 7664SOL    HW134625   4.400   1.768   5.294  1.6358 -0.1675 -0.7195
 7664SOL    HW234626   4.441   1.688   5.400  1.8884 -0.5460 -1.4560
 7665SOL     OW34627   1.333   1.127   7.736  0.3836  0.1346 -0.5003
 7665SOL    HW134628   1.385   1.052   7.763  1.8081  1.7881  1.3452
 7665SOL    HW234629   1.356   1.144   7.645  0.3158  0.3154 -0.4835
 7666SOL     OW34630   0.853   1.083   9.497 -0.2964  0.2390  0.4663
 7666SOL    HW134631   0.777   1.051   9.545 -0.2927 -0.0357  0.2908
 7666SOL    HW234632   0.913   1.086   9.572  0.0779 -0.1521  0.1828
 7667SOL     OW34633   1.101   1.702   0.984 -0.2366  0.4617  0.0399
 7667SOL    HW134634   1.129   1.781   1.031  2.8051  0.2723 -1.4376
 7667SOL    HW234635   1.087   1.726   0.892  1.3875 -3.6241 -1.2738
 7668SOL     OW34636   1.405   4.448   5.988 -0.0711 -0.5212 -0.0089
 7668SOL    HW134637   1.382   4.470   6.078  0.7660 -1.0086  0.3205
 7668SOL    HW234638   1.325   4.402   5.962 -2.7064  2.6394  2.4293
 7669SOL     OW34639   1.642   0.892   1.456  0.4012 -0.6163 -0.2010
 7669SOL    HW134640   1.551   0.863   1.466 -0.4644  1.4379 -2.0773
 7669SOL    HW234641   1.638   0.985   1.480 -0.9014 -1.1580  1.6732
 7670SOL     OW34642   4.439   4.489   5.821  0.1422 -0.3013  0.0209
 7670SOL    HW134643   4.361   4.513   5.872  0.3282  1.6726 -0.6517
 7670SOL    HW234644   4.436   4.394   5.834 -1.6551  0.0106  1.8544
 7671SOL     OW34645   2.672   0.538   6.850  0.4985  0.4972 -0.1772
 7671SOL    HW134646   2.670   0.632   6.864 -2.3072  0.1242  1.8494
 7671SOL    HW234647   2.720   0.501   6.924 -0.7645 -2.3107 -0.7568
 7672SOL     OW34648   1.532   2.808   2.665 -0.8568  0.2936 -0.0525
 7672SOL    HW134649   1.463   2.787   2.602 -0.8571 -0.0719  0.0704
 7672SOL    HW234650   1.494   2.819   2.752  0.2643 -1.4854  0.6556
 7673SOL     OW34651   3.702   1.253   9.739 -0.2302  0.2064 -0.2930
 7673SOL    HW134652   3.652   1.308   9.800 -2.6069 -1.9706 -0.2861
 7673SOL    HW234653   3.693   1.306   9.660  0.3461  0.6668 -0.0439
 7674SOL     OW34654   2.047   2.575  12.081  0.4224 -0.4604 -0.3859
 7674SOL    HW134655   1.996   2.611  12.154  1.8988  1.7217 -0.4581
 7674SOL    HW234656   2.006   2.488  12.078 -1.1512  0.2710 -0.1876
 7675SOL     OW34657   2.946   2.883   2.480  0.0871 -0.2208 -0.2647
 7675SOL    HW134658   2.974   2.792   2.491 -0.0289 -0.0865  1.1811
 7675SOL    HW234659   2.952   2.913   2.571 -1.6671 -0.8926  0.0749
 7676SOL     OW34660   3.833   3.827   8.849 -0.0998 -0.2271 -0.0813
 7676SOL    HW134661   3.900   3.764   8.823 -1.1670 -1.1831 -0.4956
 7676SOL    HW234662   3.874   3.875   8.920 -2.0738 -0.2590  1.0607
 7677SOL     OW34663   3.084   2.624  12.915  0.2217  0.3411 -0.6388
 7677SOL    HW134664   3.063   2.578  12.997 -1.2156  0.4359 -0.9493
 7677SOL    HW234665   3.175   2.603  12.897 -0.1144 -1.1553 -0.5436
 7678SOL     OW34666   4.114   3.185   5.484 -0.8347 -0.0866  0.9663
 7678SOL    HW134667   4.056   3.113   5.459  0.2547 -1.0862  1.2771
 7678SOL    HW234668   4.043   3.229   5.530 -1.4591 -1.4162  1.2802
 7679SOL     OW34669   1.811   1.551  17.742 -0.4543  0.4986  0.5727
 7679SOL    HW134670   1.887   1.572   0.051  0.3516  0.2039 -0.4514
 7679SOL    HW234671   1.755   1.617   0.040 -1.5507  1.3691 -2.1430
 7680SOL     OW34672   0.706   0.167  14.447  0.0526  0.0747 -0.4019
 7680SOL    HW134673   0.774   0.158  14.380  1.7685 -1.7889  1.5758
 7680SOL    HW234674   0.662   0.085  14.423 -1.2481  1.1817 -1.7809
 7681SOL     OW34675   0.444   0.346   5.459 -0.3166 -0.1959 -0.0571
 7681SOL    HW134676   0.535   0.375   5.448 -0.4226 -0.2276 -1.0637
 7681SOL    HW234677   0.404   0.431   5.478 -0.1956 -0.1239 -0.1215
 7682SOL     OW34678   0.574   2.803   7.274 -0.2070  0.1830  0.0818
 7682SOL    HW134679   0.631   2.733   7.308  0.2795  0.6102  0.1478
 7682SOL    HW234680   0.489   2.778   7.310 -1.2358  1.5425 -1.4409
 7683SOL     OW34681   4.380   2.006   2.048 -0.5806  0.9419 -0.7915
 7683SOL    HW134682   4.341   2.087   2.015 -1.5697  0.3668 -1.0704
 7683SOL    HW234683   4.324   2.000   2.125  0.6740  1.6790  0.1599
 7684SOL     OW34684   0.839   4.494   4.661 -0.1086 -0.3424  0.2454
 7684SOL    HW134685   0.745   4.509   4.648 -0.4495 -2.4042  0.4406
 7684SOL    HW234686   0.830   4.401   4.678 -0.2105 -1.1066 -4.1390
 7685SOL     OW34687   4.186   1.611  14.377  0.4704 -0.3924  0.5078
 7685SOL    HW134688   4.235   1.563  14.311  0.6655  0.0752  0.3138
 7685SOL    HW234689   4.130   1.542  14.413 -1.0224  0.3194 -0.4316
 7686SOL     OW34690   0.771   4.160   4.457 -0.2172  0.9345  0.3996
 7686SOL    HW134691   0.766   4.127   4.367  1.0619 -2.5306  1.6116
 7686SOL    HW234692   0.856   4.124   4.483 -0.4604 -1.7077 -2.3589
 7687SOL     OW34693   0.758   2.449   9.673 -0.3443 -0.0104  0.2402
 7687SOL    HW134694   0.709   2.485   9.747 -4.2697 -0.9676 -1.9211
 7687SOL    HW234695   0.702   2.484   9.603  1.0180 -0.7964 -1.2336
 7688SOL     OW34696   0.734   4.677   1.263  0.5346 -0.2894  0.0807
 7688SOL    HW134697   0.681   0.006   1.307 -0.5501  0.0554 -1.7018
 7688SOL    HW234698   0.798   0.002   1.226 -0.4693  1.1506  0.7607
 7689SOL     OW34699   2.756   4.451   2.643  0.1806  0.0687  0.3953
 7689SOL    HW134700   2.765   4.498   2.560 -2.9224 -0.6298 -0.3606
 7689SOL    HW234701   2.677   4.475   2.692 -1.8612  0.7975 -3.3211
 7690SOL     OW34702   1.780   2.790   6.373 -0.4453 -0.1411  0.5199
 7690SOL    HW134703   1.746   2.792   6.284  0.1006  3.4648  0.3949
 7690SOL    HW234704   1.846   2.721   6.369  1.4132  1.4506  3.6219
 7691SOL     OW34705   1.437   3.958   2.920 -0.0274  0.6101  0.5649
 7691SOL    HW134706   1.493   3.927   2.849  0.5581  0.9328  0.8912
 7691SOL    HW234707   1.368   3.891   2.927 -1.2081  1.7501 -0.1286
 7692SOL     OW34708   3.275   2.422   3.774  0.3643 -0.2282  0.2143
 7692SOL    HW134709   3.345   2.393   3.715  0.1003 -0.6022  0.0825
 7692SOL    HW234710   3.294   2.370   3.852  2.8085 -1.7200 -1.3523
 7693SOL     OW34711   1.183   2.396   2.339  0.1068  0.0686 -0.8474
 7693SOL    HW134712   1.139   2.469   2.383  0.1009 -0.9460  0.8599
 7693SOL    HW234713   1.275   2.418   2.350  0.3300 -0.6804 -1.2071
 7694SOL     OW34714   4.561   0.298   7.978 -0.0513  0.0018 -0.1598
 7694SOL    HW134715   4.586   0.327   7.891  2.5305  0.9325  0.8658
 7694SOL    HW234716   4.639   0.242   7.987 -1.8364 -2.2281  1.6977
 7695SOL     OW34717   0.807   1.179  16.624 -0.2906  0.8415 -0.2793
 7695SOL    HW134718   0.828   1.253  16.568 -0.7521  2.5579  1.8321
 7695SOL    HW234719   0.730   1.159  16.571  0.1367 -0.1682 -0.5341
 7696SOL     OW34720   1.270   3.785   5.633 -0.7155 -0.5820 -0.0552
 7696SOL    HW134721   1.281   3.746   5.719 -2.5065  0.3151  0.5848
 7696SOL    HW234722   1.243   3.710   5.580  1.5596 -0.6845 -1.0721
 7697SOL     OW34723   3.148   2.699   3.192  0.1453 -0.5150  0.4922
 7697SOL    HW134724   3.129   2.670   3.281  3.9869 -3.6043  0.3071
 7697SOL    HW234725   3.111   2.787   3.186  0.5025 -0.4282 -0.5008
 7698SOL     OW34726   4.291   4.261   8.861 -0.3531  0.1479 -0.2366
 7698SOL    HW134727   4.379   4.237   8.833 -0.5163  0.7844 -1.3173
 7698SOL    HW234728   4.304   4.356   8.865 -0.3930  0.1216  0.5470
 7699SOL     OW34729   3.971   2.796  14.720  0.6383 -0.5778  0.0590
 7699SOL    HW134730   4.050   2.784  14.772  2.2971 -0.5238 -2.4454
 7699SOL    HW234731   3.995   2.878  14.678  0.4659  0.0973  1.2640
 7700SOL     OW34732   1.159   1.246   7.296  0.0307  0.2044  0.1003
 7700SOL    HW134733   1.196   1.176   7.242  0.1836  0.4970 -0.1780
 7700SOL    HW234734   1.088   1.203   7.343  0.4745 -0.4553  0.1630
 7701SOL     OW34735   2.059   0.427   7.991  0.3315  0.0398 -0.2371
 7701SOL    HW134736   1.977   0.475   7.981 -0.2553 -0.8311  0.3873
 7701SOL    HW234737   2.067   0.404   8.084 -0.7022  2.2152  0.3745
 7702SOL     OW34738   4.312   1.153   7.577 -0.9175 -0.1192 -0.1588
 7702SOL    HW134739   4.335   1.241   7.546 -0.2545  0.0103  0.7207
 7702SOL    HW234740   4.345   1.096   7.508  0.7237 -1.6047  1.8952
 7703SOL     OW34741   3.194   2.684   5.609 -0.4441 -0.3932  0.2529
 7703SOL    HW134742   3.190   2.741   5.532  0.5052 -1.4498 -0.5781
 7703SOL    HW234743   3.151   2.606   5.573 -1.6955  0.5780 -0.3691
 7704SOL     OW34744   4.035   4.136  12.918  0.5166 -0.0349  0.4585
 7704SOL    HW134745   4.059   4.202  12.852  2.1476  0.0933  1.1778
 7704SOL    HW234746   4.118   4.147  12.964  0.2892  0.8629  0.6450
 7705SOL     OW34747   4.115   1.924   5.619 -0.1696  0.2499  0.9889
 7705SOL    HW134748   4.046   1.927   5.685 -1.0149  0.6113  0.1043
 7705SOL    HW234749   4.062   1.908   5.540  0.2308  0.5977  0.6495
 7706SOL     OW34750   4.298   4.482   0.644  0.2893 -0.2464  0.1715
 7706SOL    HW134751   4.269   4.401   0.686 -1.3425  0.4372  0.3242
 7706SOL    HW234752   4.352   4.452   0.571  1.2301  0.8295  0.4306
 7707SOL     OW34753   1.191   4.506   7.204 -0.3241  0.1862 -0.6343
 7707SOL    HW134754   1.100   4.534   7.193 -1.3374 -2.0191  2.2048
 7707SOL    HW234755   1.209   4.467   7.118 -1.5063 -0.9245 -0.3861
 7708SOL     OW34756   2.974   2.868   9.868 -0.2253 -0.0718  0.1199
 7708SOL    HW134757   3.025   2.865   9.949 -0.2871  1.3966  0.1984
 7708SOL    HW234758   2.923   2.946   9.888 -1.5794 -1.0840  0.6100
 7709SOL     OW34759   2.775   1.164   5.821 -0.1893 -0.3707 -0.0843
 7709SOL    HW134760   2.697   1.206   5.784 -0.6945 -0.1255  1.2794
 7709SOL    HW234761   2.844   1.191   5.761  0.1260 -1.0859 -0.0409
 7710SOL     OW34762   1.018   3.852  10.936 -0.1217 -0.2923  0.5161
 7710SOL    HW134763   0.945   3.913  10.926 -0.9789 -1.7721 -2.2089
 7710SOL    HW234764   0.978   3.801  11.006 -0.6196 -0.1066  0.3628
 7711SOL     OW34765   1.338   0.916  12.442 -0.1909 -0.0251 -0.9425
 7711SOL    HW134766   1.395   0.984  12.405 -1.3617  2.0580  1.0810
 7711SOL    HW234767   1.390   0.902  12.521 -0.6865  0.4138 -0.5370
 7712SOL     OW34768   1.604   2.459   9.764 -0.2460  0.4388 -0.0586
 7712SOL    HW134769   1.587   2.430   9.854 -0.3743 -0.7219 -0.4564
 7712SOL    HW234770   1.613   2.553   9.781 -1.0623  0.5381 -0.1689
 7713SOL     OW34771   2.367   2.193   4.339  0.0975 -0.0185  0.0335
 7713SOL    HW134772   2.406   2.111   4.306  1.8990  1.0088 -0.4160
 7713SOL    HW234773   2.364   2.234   4.252  2.5168  1.9674  0.9106
 7714SOL     OW34774   3.464   3.045   1.222  0.2123 -0.5342  0.0163
 7714SOL    HW134775   3.379   3.041   1.266 -0.5426  0.2516 -1.3718
 7714SOL    HW234776   3.432   3.089   1.143 -0.4597 -0.3310  0.3996
 7715SOL     OW34777   0.352   3.632   0.959  0.2461  0.2143 -0.2339
 7715SOL    HW134778   0.267   3.592   0.941 -0.5972  1.4453  1.0508
 7715SOL    HW234779   0.405   3.564   0.916  0.6195  0.2305  0.2084
 7716SOL     OW34780   2.948   1.263   5.172  0.4933  0.3391  0.0195
 7716SOL    HW134781   2.953   1.218   5.087 -0.1514  1.4071 -0.5897
 7716SOL    HW234782   2.897   1.198   5.220  0.1739  1.8147  1.6530
 7717SOL     OW34783   1.580   2.514   3.134  0.2289 -0.5284 -0.0677
 7717SOL    HW134784   1.618   2.560   3.209  1.8354 -1.8261 -0.1059
 7717SOL    HW234785   1.634   2.436   3.123  0.0052 -1.1087  2.8922
 7718SOL     OW34786   1.163   0.889   5.500  0.0797 -0.4487 -0.0405
 7718SOL    HW134787   1.088   0.856   5.449 -2.2844 -0.0577  3.2271
 7718SOL    HW234788   1.114   0.949   5.555  1.6245  1.9725 -1.3374
 7719SOL     OW34789   0.493   4.238  13.381 -0.6164 -0.2616 -0.1969
 7719SOL    HW134790   0.412   4.265  13.423  0.0850 -0.7069  1.4657
 7719SOL    HW234791   0.517   4.186  13.458 -1.2841 -1.5666 -0.8704
 7720SOL     OW34792   0.125   1.869   6.302  0.1720 -0.4934  0.2995
 7720SOL    HW134793   0.070   1.795   6.328  0.9345 -1.1469  0.0530
 7720SOL    HW234794   0.215   1.837   6.312  0.4810 -0.2568 -1.7345
 7721SOL     OW34795   3.639   3.640   8.183 -0.1708  0.4226  0.5786
 7721SOL    HW134796   3.643   3.617   8.090  1.7960  1.6989  0.3605
 7721SOL    HW234797   3.712   3.596   8.225 -0.8026  0.2029  1.4490
 7722SOL     OW34798   2.747   0.976   4.895  0.1145  0.3891 -0.1012
 7722SOL    HW134799   2.799   1.050   4.926 -1.0640  1.1696  0.0204
 7722SOL    HW234800   2.766   0.996   4.803 -1.4362  0.4495 -0.4226
 7723SOL     OW34801   4.555   4.499   9.963 -0.1695 -0.2703 -0.4982
 7723SOL    HW134802   4.587   4.422   9.916 -0.0511  0.5140 -1.7312
 7723SOL    HW234803   4.633   4.524  10.011  0.1710 -0.4040 -0.9791
 7724SOL     OW34804   2.191   2.577   9.793 -0.3883  0.6952  0.0111
 7724SOL    HW134805   2.230   2.510   9.737  1.8240  0.6556  1.5913
 7724SOL    HW234806   2.240   2.564   9.874  2.8148 -2.4896 -2.4561
 7725SOL     OW34807   0.555   2.582  14.000  0.6706  0.5386  0.3932
 7725SOL    HW134808   0.580   2.660  14.050  0.8843  0.7249 -0.0056
 7725SOL    HW234809   0.643   2.554  13.975  0.6246  0.2891  0.5053
 7726SOL     OW34810   2.065   0.034   0.322 -0.2159  0.1046 -0.7097
 7726SOL    HW134811   2.076   0.052   0.415 -0.1368  0.0669 -0.7116
 7726SOL    HW234812   2.099   0.113   0.278 -2.1432  2.1203  1.4300
 7727SOL     OW34813   4.472   4.446   4.567  0.4714  0.1285  0.2165
 7727SOL    HW134814   4.524   4.375   4.529  0.9007  1.9297 -2.6111
 7727SOL    HW234815   4.413   4.391   4.618  1.6846 -1.6840 -0.3264
 7728SOL     OW34816   3.688   2.643   7.321  0.3893  0.1105  0.2231
 7728SOL    HW134817   3.765   2.587   7.313 -0.1692 -0.8396  1.3831
 7728SOL    HW234818   3.633   2.603   7.389  1.6439 -1.0658  0.5381
 7729SOL     OW34819   0.880   0.707   4.295 -0.0382  0.3990 -0.0861
 7729SOL    HW134820   0.844   0.680   4.379  1.8452  1.2383  0.9811
 7729SOL    HW234821   0.958   0.652   4.290  0.5093  0.9946  2.2840
 7730SOL     OW34822   3.460   3.423   9.517  0.0422  0.1612  0.3050
 7730SOL    HW134823   3.395   3.354   9.517 -3.0754  3.0901  0.1278
 7730SOL    HW234824   3.519   3.397   9.446 -1.9571 -0.6034 -1.0509
 7731SOL     OW34825   3.773   3.226   2.341 -0.1099  0.2517 -0.0484
 7731SOL    HW134826   3.834   3.246   2.413  2.4498  1.0346 -2.4584
 7731SOL    HW234827   3.718   3.152   2.366 -0.6212  0.5106 -0.4095
 7732SOL     OW34828   0.942   3.488   8.602  0.0667  0.1640 -0.4816
 7732SOL    HW134829   0.902   3.405   8.575 -0.7271 -0.3729  2.2844
 7732SOL    HW234830   0.958   3.469   8.695 -1.0962 -2.8100 -0.8681
 7733SOL     OW34831   4.127   3.538   2.089  0.6783 -0.0176 -0.1589
 7733SOL    HW134832   4.187   3.545   2.163 -1.0246 -0.5421  1.2849
 7733SOL    HW234833   4.139   3.626   2.053  1.7996  0.4712  1.3971
 7734SOL     OW34834   4.060   0.256   8.946  0.4011  0.2695  0.4077
 7734SOL    HW134835   4.012   0.234   9.026 -0.4763  0.0580 -0.1785
 7734SOL    HW234836   4.016   0.339   8.926  2.4970  1.4894  0.8632
 7735SOL     OW34837   4.130   4.039   2.562  0.1225  0.5826  0.7203
 7735SOL    HW134838   4.158   3.957   2.522  1.1645  1.0956  0.3833
 7735SOL    HW234839   4.035   4.039   2.562  0.1360 -0.0738 -1.7442
 7736SOL     OW34840   4.276   1.896   0.565 -0.0515 -0.2603  0.2409
 7736SOL    HW134841   4.366   1.917   0.539  0.1794 -2.2326 -0.5532
 7736SOL    HW234842   4.214   1.932   0.502  2.2953  3.0840 -0.1847
 7737SOL     OW34843   1.649   1.316   7.817 -0.0646 -0.7622  0.0081
 7737SOL    HW134844   1.664   1.340   7.908  1.2046 -1.4693 -0.0218
 7737SOL    HW234845   1.555   1.329   7.803  0.6263  2.1828 -1.8391
 7738SOL     OW34846   1.783   1.469   1.967  0.3008 -0.0274  0.4778
 7738SOL    HW134847   1.840   1.530   1.920 -0.0282  0.3037  0.5142
 7738SOL    HW234848   1.775   1.506   2.055  1.6911  1.1789  0.0982
 7739SOL     OW34849   1.360   3.683  16.956 -0.4272  0.5414  0.3758
 7739SOL    HW134850   1.311   3.625  16.897 -1.4603  1.3141  0.4767
 7739SOL    HW234851   1.447   3.664  16.921 -0.1329  0.1002  1.3708
 7740SOL     OW34852   3.414   1.632   1.738  0.4222 -0.0705 -0.6172
 7740SOL    HW134853   3.323   1.649   1.761  1.3755  1.3460  2.0452
 7740SOL    HW234854   3.456   1.703   1.785  2.4785 -0.8529 -1.2641
 7741SOL     OW34855   0.009   0.589  10.618 -0.4424  0.0032  0.0111
 7741SOL    HW134856   4.724   0.590  10.524 -2.0671 -2.7817  0.3541
 7741SOL    HW234857   4.705   0.505  10.639  1.3637 -1.0704 -0.7414
 7742SOL     OW34858   1.240   2.001  12.019 -0.6892  0.0073  0.3536
 7742SOL    HW134859   1.196   1.950  11.951  0.8372 -2.2485  1.0674
 7742SOL    HW234860   1.184   1.982  12.094 -0.3880 -0.0296  0.5713
 7743SOL     OW34861   3.149   1.089   7.949 -0.8265  0.5077  0.1958
 7743SOL    HW134862   3.187   1.010   7.911  2.2719  0.7014  2.8770
 7743SOL    HW234863   3.059   1.083   7.915  0.4360 -0.8624 -2.8679
 7744SOL     OW34864   0.455   1.685   7.705 -1.0699 -0.3317  0.2522
 7744SOL    HW134865   0.534   1.726   7.672 -0.7238 -0.5958  0.7534
 7744SOL    HW234866   0.480   1.592   7.709 -1.5240 -0.6347 -3.5770
 7745SOL     OW34867   4.324   0.096   4.536 -0.5189  0.4313 -0.5397
 7745SOL    HW134868   4.306   0.009   4.499  2.3155  0.4120 -1.8703
 7745SOL    HW234869   4.398   0.113   4.477  2.0315 -2.9839  1.7064
 7746SOL     OW34870   3.902   3.487   6.381  0.2331  0.5197 -0.7782
 7746SOL    HW134871   3.927   3.503   6.290  1.4861  2.1609 -0.1417
 7746SOL    HW234872   3.978   3.521   6.428 -1.8908  0.9988  2.3122
 7747SOL     OW34873   2.492   3.012  10.942  0.6575  0.1694 -0.4523
 7747SOL    HW134874   2.425   2.955  10.903 -0.5545  2.3124 -1.5586
 7747SOL    HW234875   2.443   3.033  11.021 -0.3477 -1.7967 -0.5586
 7748SOL     OW34876   2.638   3.698   0.289 -0.0307 -0.0327  0.5243
 7748SOL    HW134877   2.667   3.761   0.222  1.8532  0.3631  1.7082
 7748SOL    HW234878   2.693   3.623   0.265  1.0552  0.3471  1.8586
 7749SOL     OW34879   4.356   0.424  10.567 -1.0369 -0.2848  0.3429
 7749SOL    HW134880   4.293   0.439  10.638  0.2387 -0.0041  1.4173
 7749SOL    HW234881   4.417   0.377  10.624 -0.2212 -0.6486 -0.8326
 7750SOL     OW34882   1.232   1.419   2.234 -0.6056  0.7084 -0.0946
 7750SOL    HW134883   1.292   1.346   2.251  1.1172  2.1595  0.0856
 7750SOL    HW234884   1.158   1.374   2.195  0.5805 -0.8291 -0.5710
 7751SOL     OW34885   1.886   1.002   1.743 -0.2167 -0.0696 -0.8057
 7751SOL    HW134886   1.976   0.976   1.723  0.2743  1.3677 -0.4556
 7751SOL    HW234887   1.905   1.038   1.830 -1.1298 -1.1027 -0.1679
 7752SOL     OW34888   1.507   2.662   4.330  0.2967 -0.3598  0.4530
 7752SOL    HW134889   1.547   2.649   4.416  0.5526  0.1776  0.4169
 7752SOL    HW234890   1.413   2.658   4.351  0.2479 -0.0134  0.3068
 7753SOL     OW34891   0.930   3.103  10.364  0.2272 -0.3663 -0.4503
 7753SOL    HW134892   0.927   3.084  10.458 -2.1233  1.0076 -0.2444
 7753SOL    HW234893   0.838   3.110  10.340  0.4463  0.3515 -1.0743
 7754SOL     OW34894   0.624   3.392   0.612  0.0173  0.0589  0.0325
 7754SOL    HW134895   0.633   3.303   0.579 -1.9822 -0.0053 -0.3345
 7754SOL    HW234896   0.679   3.439   0.549  2.3154 -0.9419  1.3017
 7755SOL     OW34897   0.444   4.543   7.454 -0.2516 -0.1241 -0.0302
 7755SOL    HW134898   0.527   4.499   7.470  0.4246  0.8151 -1.0653
 7755SOL    HW234899   0.464   4.636   7.455  0.0808 -0.1948 -0.1128
 7756SOL     OW34900   4.430   2.716  11.850  0.4592  0.6643 -0.0915
 7756SOL    HW134901   4.493   2.787  11.843  0.7821  0.4232  0.4289
 7756SOL    HW234902   4.433   2.678  11.762 -2.6572 -0.1411  0.1503
 7757SOL     OW34903   3.091   1.327  10.728  0.2240 -0.6054  0.6004
 7757SOL    HW134904   3.151   1.401  10.716 -1.8141  1.2010  1.6763
 7757SOL    HW234905   3.007   1.366  10.705 -0.6850 -1.1814  2.9653
 7758SOL     OW34906   4.439   0.812   5.960 -0.1461 -0.5365 -0.0411
 7758SOL    HW134907   4.506   0.811   5.892  0.2427  1.5944  0.3406
 7758SOL    HW234908   4.462   0.726   5.995  1.8313 -0.2788 -0.7263
 7759SOL     OW34909   4.484   3.826  12.448 -0.5279  0.0206 -0.4789
 7759SOL    HW134910   4.400   3.852  12.410 -0.1658  0.3207 -1.0698
 7759SOL    HW234911   4.462   3.735  12.464  2.7847 -0.1771  2.9133
 7760SOL     OW34912   3.644   3.414   3.582  0.2013 -0.0374  0.4670
 7760SOL    HW134913   3.568   3.380   3.534  2.4090 -0.3821 -2.7358
 7760SOL    HW234914   3.706   3.376   3.520 -0.0542 -0.2824  0.3604
 7761SOL     OW34915   2.916   3.945   8.593 -0.6644 -0.5226  0.3300
 7761SOL    HW134916   2.992   3.932   8.650 -2.3502 -0.5316  2.5845
 7761SOL    HW234917   2.959   3.998   8.525  2.7305 -4.8687 -0.9138
 7762SOL     OW34918   0.758   3.948  10.937  0.0600 -0.0159 -0.4611
 7762SOL    HW134919   0.790   3.940  11.027  1.0368 -0.2805 -0.8319
 7762SOL    HW234920   0.692   3.882  10.920 -0.3174  0.8561 -2.4474
 7763SOL     OW34921   1.582   4.084   8.099  0.3870 -0.3243 -0.0032
 7763SOL    HW134922   1.527   4.039   8.034  2.0931 -0.2819 -1.4738
 7763SOL    HW234923   1.648   4.117   8.038 -2.1744  3.5080 -0.7319
 7764SOL     OW34924   3.460   4.024   2.823 -0.2763  0.1364  0.5459
 7764SOL    HW134925   3.442   4.115   2.801  0.5067 -0.2504 -1.7056
 7764SOL    HW234926   3.471   4.038   2.917 -0.5215 -0.9016  0.7282
 7765SOL     OW34927   2.458   3.394   1.183 -0.0356  0.0518  0.5534
 7765SOL    HW134928   2.519   3.385   1.256  0.9316 -0.7060 -0.3456
 7765SOL    HW234929   2.506   3.453   1.124  0.1796 -0.4579  0.2246
 7766SOL     OW34930   2.388   0.471  10.371 -0.8141  0.1561 -0.0077
 7766SOL    HW134931   2.390   0.381  10.405  0.5768 -0.4106 -1.5444
 7766SOL    HW234932   2.316   0.520  10.411 -1.7594 -0.6532 -0.7231
 7767SOL     OW34933   0.621   4.400   8.051  0.1351  0.1799 -0.0518
 7767SOL    HW134934   0.560   4.343   8.096  2.1980 -1.1275  1.0993
 7767SOL    HW234935   0.567   4.412   7.973  0.8409  0.0223 -0.5610
 7768SOL     OW34936   1.940   3.693   6.596  0.0089 -0.1677 -0.3989
 7768SOL    HW134937   1.849   3.702   6.625  0.6387  0.6226  1.3879
 7768SOL    HW234938   1.942   3.600   6.571 -0.7412 -0.5306  0.8797
 7769SOL     OW34939   3.531   2.026   3.057  0.3660  0.4250 -0.2959
 7769SOL    HW134940   3.521   2.017   2.962 -2.5857  0.9055 -0.0476
 7769SOL    HW234941   3.597   1.959   3.071 -1.3986 -0.2278  4.9848
 7770SOL     OW34942   1.010   4.702   8.156 -0.0085  0.1477 -0.1722
 7770SOL    HW134943   0.919   4.693   8.128  0.2608 -1.6598 -0.4207
 7770SOL    HW234944   0.996   0.032   8.225 -1.1143  0.0875 -0.3413
 7771SOL     OW34945   3.418   2.167  11.800 -0.0094  0.1644 -0.0247
 7771SOL    HW134946   3.339   2.190  11.751 -0.2705  0.4098  0.5012
 7771SOL    HW234947   3.482   2.222  11.754 -1.4887  1.2747 -0.7650
 7772SOL     OW34948   3.895   1.561   6.694 -0.3674  0.5031  0.3973
 7772SOL    HW134949   3.836   1.623   6.738  0.1551  1.6410 -0.4999
 7772SOL    HW234950   3.962   1.614   6.649  0.2475  0.3366  1.1227
 7773SOL     OW34951   3.510   3.113   9.223  0.7553 -0.2789  0.3352
 7773SOL    HW134952   3.535   3.204   9.238 -2.3647  0.6328  0.0965
 7773SOL    HW234953   3.491   3.116   9.129 -2.4975  0.6547  1.0263
 7774SOL     OW34954   3.654   4.460   5.027  0.3501 -0.0961 -0.6373
 7774SOL    HW134955   3.698   4.499   5.102 -0.3725  0.3277 -0.4341
 7774SOL    HW234956   3.732   4.440   4.975  0.6056  0.8986 -0.6388
 7775SOL     OW34957   4.418   0.799   7.792  0.5100 -0.5308 -0.1712
 7775SOL    HW134958   4.358   0.859   7.747  0.0941 -0.1740  0.8416
 7775SOL    HW234959   4.372   0.798   7.876 -0.5886 -0.6422 -0.7714
 7776SOL     OW34960   2.006   1.658  14.864 -1.0750  0.2547  0.0240
 7776SOL    HW134961   2.075   1.688  14.805 -0.2156 -3.9653 -1.1717
 7776SOL    HW234962   2.036   1.575  14.901 -3.5415 -0.7839 -0.2746
 7777SOL     OW34963   2.860   1.745  16.557  0.1001  0.0869  0.0725
 7777SOL    HW134964   2.884   1.657  16.584 -2.1387 -0.1299  1.3797
 7777SOL    HW234965   2.801   1.769  16.629 -1.1583 -0.3880 -0.8007
 7778SOL     OW34966   2.015   3.418   8.129 -0.0337  0.0114  0.4770
 7778SOL    HW134967   2.040   3.346   8.186 -2.7438 -0.0467  1.5983
 7778SOL    HW234968   2.084   3.481   8.150  2.1682 -1.5692 -2.0467
 7779SOL     OW34969   3.358   3.187  15.947  0.1368  0.4152 -0.1670
 7779SOL    HW134970   3.390   3.247  16.015 -0.7239  0.4556  0.2061
 7779SOL    HW234971   3.322   3.126  16.012 -0.3850 -0.7267 -1.5359
 7780SOL     OW34972   3.957   1.328   5.491  0.7093  0.0729 -0.1854
 7780SOL    HW134973   4.044   1.327   5.451  0.0908 -0.7957 -1.5060
 7780SOL    HW234974   3.962   1.258   5.556 -1.3265 -0.3749 -0.5250
 7781SOL     OW34975   4.730   1.362   5.007 -0.1056 -0.4925  0.7241
 7781SOL    HW134976   0.050   1.417   4.952 -0.3510 -1.3926 -0.4358
 7781SOL    HW234977   0.045   1.351   5.087 -0.4856  0.7293  1.1379
 7782SOL     OW34978   0.194   0.049   7.759 -0.2772  0.2413 -0.0079
 7782SOL    HW134979   0.176   0.105   7.684 -1.1350  2.3578  1.7811
 7782SOL    HW234980   0.205   4.702   7.714  0.1722  0.8411 -1.0178
 7783SOL     OW34981   0.610   2.657  17.264  0.4512  0.8564  0.1623
 7783SOL    HW134982   0.594   2.620  17.351 -0.3125 -0.1031 -0.3716
 7783SOL    HW234983   0.697   2.622  17.244 -1.3976 -1.3240 -4.1542
 7784SOL     OW34984   3.284   0.303   5.567  0.0800 -0.1619 -0.2535
 7784SOL    HW134985   3.234   0.294   5.648  0.7341  0.9201  0.2640
 7784SOL    HW234986   3.264   0.217   5.531 -1.5642  0.4335 -0.7239
 7785SOL     OW34987   1.526   1.246  11.281  0.5806 -0.9515 -0.4919
 7785SOL    HW134988   1.525   1.307  11.355  2.2361 -1.3064 -0.1798
 7785SOL    HW234989   1.575   1.294  11.215 -1.6679 -0.8574 -2.0739
 7786SOL     OW34990   2.654   3.891   8.590 -0.4513  0.2828  0.2621
 7786SOL    HW134991   2.739   3.935   8.578 -0.1191 -0.4879 -0.1923
 7786SOL    HW234992   2.684   3.803   8.613  1.6927  0.6781 -1.0234
 7787SOL     OW34993   3.367   3.267   7.020 -0.1345 -0.2259 -0.0400
 7787SOL    HW134994   3.417   3.236   6.944  0.4486 -3.4444  1.6772
 7787SOL    HW234995   3.310   3.191   7.034 -0.0449 -0.4204 -0.7129
 7788SOL     OW34996   4.288   2.442   9.192 -0.0250 -0.6110  0.2960
 7788SOL    HW134997   4.226   2.500   9.147 -2.2600 -2.6436  0.7696
 7788SOL    HW234998   4.223   2.396   9.244  1.7125  0.5567  3.4920
 7789SOL     OW34999   2.685   0.453   1.520 -0.8178 -0.0333  0.1796
 7789SOL    HW135000   2.726   0.499   1.593 -1.0940  0.3952  0.0628
 7789SOL    HW235001   2.712   0.361   1.531 -0.3131  0.0376 -0.4195
 7790SOL     OW35002   1.049   0.543   4.616 -0.0315  0.1536  0.4491
 7790SOL    HW135003   0.967   0.494   4.624 -0.6087  0.8197 -1.3066
 7790SOL    HW235004   1.053   0.568   4.708  2.9474 -0.2831  0.4295
 7791SOL     OW35005   4.581   1.930   7.501 -0.2262  0.3808 -0.0120
 7791SOL    HW135006   4.646   1.864   7.526  0.3830  0.7748 -0.5575
 7791SOL    HW235007   4.532   1.945   7.583 -0.8434  2.2186 -0.7146
 7792SOL     OW35008   2.627   1.387   4.194  0.4029 -0.2091 -0.2055
 7792SOL    HW135009   2.705   1.424   4.234 -0.0240  2.5399 -1.9029
 7792SOL    HW235010   2.625   1.428   4.107 -0.7174 -2.2937 -1.1633
 7793SOL     OW35011   3.060   2.921  14.926  0.7215  0.0557  0.3548
 7793SOL    HW135012   2.977   2.970  14.923  0.7844  0.3106  2.5714
 7793SOL    HW235013   3.029   2.830  14.922  2.4587 -0.5634  1.1074
 7794SOL     OW35014   0.202   0.358   8.427 -0.3340 -1.0976 -0.1539
 7794SOL    HW135015   0.219   0.429   8.365  1.9175  0.3122  2.0735
 7794SOL    HW235016   0.267   0.385   8.492 -0.9613  0.9914 -0.3966
 7795SOL     OW35017   2.072   1.289   8.745  0.2138  0.4596  0.1298
 7795SOL    HW135018   2.117   1.352   8.801  0.8344  1.7889 -1.8786
 7795SOL    HW235019   2.059   1.232   8.821 -0.8809  1.8447  0.9759
 7796SOL     OW35020   0.769   0.499  12.403  0.0772 -0.5505 -0.7419
 7796SOL    HW135021   0.795   0.591  12.399 -1.1746 -0.2779 -2.5262
 7796SOL    HW235022   0.787   0.474  12.493 -1.2899  0.3415 -0.2217
 7797SOL     OW35023   4.284   0.174  13.965 -0.0519 -0.0484 -0.1283
 7797SOL    HW135024   4.210   0.117  13.947  0.9671 -0.6730 -2.2788
 7797SOL    HW235025   4.253   0.262  13.943  1.4474  1.0530  2.0709
 7798SOL     OW35026   0.510   3.536  11.366  0.1911 -0.2141  0.4425
 7798SOL    HW135027   0.480   3.501  11.282  1.3072 -0.6756  0.2324
 7798SOL    HW235028   0.445   3.503  11.427  0.0471 -0.2809  0.2542
 7799SOL     OW35029   2.663   3.604   5.632 -0.0103 -0.1573  0.9902
 7799SOL    HW135030   2.653   3.614   5.727  0.1682  0.9716  0.8874
 7799SOL    HW235031   2.683   3.511   5.619  0.9137 -0.0231  1.4572
 7800SOL     OW35032   1.239   3.982   9.947 -0.6976  0.0672  0.4013
 7800SOL    HW135033   1.263   4.049  10.011 -3.6240  1.2166  0.3005
 7800SOL    HW235034   1.222   3.912  10.009  1.7547  0.3182  1.3714
 7801SOL     OW35035   1.894   0.424  11.369 -0.3875  0.4938  0.8833
 7801SOL    HW135036   1.954   0.426  11.295  0.7031  0.2768  1.7606
 7801SOL    HW235037   1.929   0.348  11.417  0.0126  1.2069  1.7241
 7802SOL     OW35038   3.554   2.611   2.809  0.2611 -0.3045  0.4399
 7802SOL    HW135039   3.583   2.521   2.823 -1.2504 -0.2834  3.8445
 7802SOL    HW235040   3.620   2.653   2.865  0.7419 -0.8985  0.3172
 7803SOL     OW35041   1.622   4.429  16.098  0.5421 -0.3710 -0.8711
 7803SOL    HW135042   1.629   4.357  16.036  2.7512 -2.8366  2.2504
 7803SOL    HW235043   1.617   4.501  16.035 -0.2670 -2.6887 -3.4334
 7804SOL     OW35044   0.771   1.814   3.384  0.3169  0.0797  0.0153
 7804SOL    HW135045   0.699   1.821   3.322 -0.3081  0.9503  0.8322
 7804SOL    HW235046   0.759   1.740   3.443 -1.7607  0.3565 -0.0614
 7805SOL     OW35047   2.113   1.050  10.863  0.3046  0.3606 -0.5213
 7805SOL    HW135048   2.167   0.994  10.918  0.6585  1.1316 -0.0754
 7805SOL    HW235049   2.028   1.008  10.854  0.2412 -0.2944  3.2059
 7806SOL     OW35050   3.834   2.825  14.959  0.0195 -0.4941 -0.0301
 7806SOL    HW135051   3.741   2.831  14.939  0.3736  1.5446 -1.0265
 7806SOL    HW235052   3.871   2.813  14.872 -0.1783  1.4895 -0.3680
 7807SOL     OW35053   0.295   0.874   3.236  0.1905 -0.0123  0.1697
 7807SOL    HW135054   0.299   0.962   3.274 -1.1821 -0.1734  0.6665
 7807SOL    HW235055   0.312   0.825   3.316 -0.4399 -1.3536 -0.5067
 7808SOL     OW35056   0.918   4.416   1.888 -0.6567 -0.2661 -0.6483
 7808SOL    HW135057   0.975   4.364   1.831  1.8280  2.2756 -0.5085
 7808SOL    HW235058   0.884   4.476   1.821 -0.4621  0.1176 -0.4033
 7809SOL     OW35059   0.498   0.878  12.556 -0.1102  0.3300 -0.3043
 7809SOL    HW135060   0.411   0.842  12.570  0.4709 -0.4515  1.3122
 7809SOL    HW235061   0.516   0.913  12.644  1.1816  0.3897 -0.5931
 7810SOL     OW35062   4.259   3.966  12.393 -0.1274  0.1338  0.0706
 7810SOL    HW135063   4.247   4.033  12.461 -0.6078  1.2527 -1.1015
 7810SOL    HW235064   4.171   3.933  12.380 -0.9302  1.0332  3.0341
 7811SOL     OW35065   2.320   2.959   4.788 -0.4711  0.2410  0.1949
 7811SOL    HW135066   2.264   3.031   4.760  0.3282  0.0366 -1.9428
 7811SOL    HW235067   2.268   2.940   4.867  0.2246  1.2225  0.8900
 7812SOL     OW35068   1.591   1.500  15.696 -0.3873  0.0477 -0.7500
 7812SOL    HW135069   1.631   1.436  15.754  0.8944  3.7426  2.4681
 7812SOL    HW235070   1.516   1.529  15.747 -1.0206 -1.2801 -0.9291
 7813SOL     OW35071   3.403   4.414   5.179  0.2916 -0.1746 -0.2899
 7813SOL    HW135072   3.489   4.418   5.138  0.8371  1.0165  0.9627
 7813SOL    HW235073   3.397   4.506   5.206  1.7651  0.0908 -0.8339
 7814SOL     OW35074   1.247   2.555   3.064  0.6715 -0.0322 -0.2729
 7814SOL    HW135075   1.252   2.650   3.050  0.4356  0.4075  2.6039
 7814SOL    HW235076   1.279   2.561   3.155  2.0330 -0.0250 -0.7502
 7815SOL     OW35077   4.676   1.167   6.387 -0.0263  0.0868  0.1922
 7815SOL    HW135078   4.614   1.095   6.395  1.3671 -1.1457 -0.0251
 7815SOL    HW235079   4.727   1.144   6.308 -0.9562 -4.0629  0.7867
 7816SOL     OW35080   1.355   4.440   3.456 -0.2096  0.1962 -0.0107
 7816SOL    HW135081   1.389   4.373   3.515  0.3999 -1.3486 -2.1557
 7816SOL    HW235082   1.307   4.393   3.388  0.5769 -0.3873 -0.1557
 7817SOL     OW35083   3.415   4.099   8.405 -0.0802  0.0269  0.7026
 7817SOL    HW135084   3.330   4.125   8.370  1.2191 -0.5971 -2.9115
 7817SOL    HW235085   3.458   4.184   8.416  1.9213 -0.6384 -2.1078
 7818SOL     OW35086   0.732   3.523   0.364 -0.4450  0.0284  0.0497
 7818SOL    HW135087   0.776   3.608   0.360 -0.1512 -0.3273 -4.4415
 7818SOL    HW235088   0.781   3.464   0.307 -2.0810 -0.9896 -0.2876
 7819SOL     OW35089   4.175   0.713  10.554  0.2551 -0.0985 -0.8898
 7819SOL    HW135090   4.167   0.644  10.620 -1.4431  1.6220  0.7241
 7819SOL    HW235091   4.189   0.787  10.613 -2.5409 -1.3168  1.3151
 7820SOL     OW35092   0.233   2.357   1.757 -0.2620  0.0316 -0.3722
 7820SOL    HW135093   0.156   2.406   1.785 -1.2584 -2.4610  1.2148
 7820SOL    HW235094   0.285   2.359   1.837 -1.3062 -2.1398  0.3714
 7821SOL     OW35095   3.834   3.082   0.288  0.0694 -0.2888  0.2439
 7821SOL    HW135096   3.761   3.040   0.244  0.5794 -0.5087 -0.3847
 7821SOL    HW235097   3.829   3.168   0.247  0.3612 -0.5000 -0.2316
 7822SOL     OW35098   3.567   1.462   1.913  0.0136 -0.2310  0.0498
 7822SOL    HW135099   3.641   1.515   1.884 -0.5188  0.6165  0.2688
 7822SOL    HW235100   3.512   1.488   1.839 -0.8595 -1.9203  0.0941
 7823SOL     OW35101   3.269   1.560   3.241  0.0371  0.0366  0.2536
 7823SOL    HW135102   3.341   1.595   3.189  1.6252 -2.5587  0.7300
 7823SOL    HW235103   3.230   1.499   3.179 -0.2574  0.1833  0.2979
 7824SOL     OW35104   0.553   4.355   3.035 -0.4328 -0.2560  0.1516
 7824SOL    HW135105   0.530   4.308   2.955  0.3201 -0.5055  0.0829
 7824SOL    HW235106   0.474   4.357   3.088  0.5190 -0.3100  1.5789
 7825SOL     OW35107   2.877   2.733   9.222  0.1581 -0.3646  0.1851
 7825SOL    HW135108   2.840   2.763   9.305 -0.1722 -0.1083 -0.0557
 7825SOL    HW235109   2.816   2.766   9.156 -1.7674 -3.8003  0.2470
 7826SOL     OW35110   1.566   3.210   4.770 -0.2959  0.0619 -0.1996
 7826SOL    HW135111   1.524   3.217   4.684  0.8975 -0.0708 -0.7866
 7826SOL    HW235112   1.635   3.148   4.746  1.0925  1.2703  0.7119
 7827SOL     OW35113   1.080   3.267   2.826 -0.2246  0.2589 -0.2597
 7827SOL    HW135114   1.036   3.309   2.752 -0.6388 -1.4585 -0.9903
 7827SOL    HW235115   1.166   3.246   2.791 -0.4752 -0.0839 -0.6573
 7828SOL     OW35116   2.787   1.617   7.098 -0.5997 -0.5095 -0.4035
 7828SOL    HW135117   2.801   1.639   7.190  0.3550 -0.2410 -0.6135
 7828SOL    HW235118   2.784   1.705   7.059 -0.4121 -0.9453 -1.4048
 7829SOL     OW35119   1.832   4.376  16.264  0.4005 -0.1741  0.1405
 7829SOL    HW135120   1.775   4.398  16.190 -2.1007 -1.2415  1.7645
 7829SOL    HW235121   1.773   4.328  16.322  2.7319 -4.1738 -0.8030
 7830SOL     OW35122   2.725   2.201  17.199 -0.5398  0.0626  0.0051
 7830SOL    HW135123   2.742   2.202  17.104  1.0092 -1.1552  0.2818
 7830SOL    HW235124   2.721   2.107  17.219  1.0408  0.2456  1.1482
 7831SOL     OW35125   1.806   4.644  14.771  0.1071  0.8711  0.0750
 7831SOL    HW135126   1.738   4.582  14.745  1.4044 -1.8894  3.2008
 7831SOL    HW235127   1.780   4.721  14.721  1.8831  0.4281 -1.5557
 7832SOL     OW35128   2.974   3.680   2.237 -0.2424  0.0973  0.4980
 7832SOL    HW135129   2.985   3.590   2.266  0.3637 -0.0691 -0.2347
 7832SOL    HW235130   3.048   3.691   2.177  0.8056  1.3109  2.0235
 7833SOL     OW35131   1.363   3.176   2.828  0.1352  0.2698 -0.0171
 7833SOL    HW135132   1.404   3.095   2.858 -0.5967 -0.2198 -0.3418
 7833SOL    HW235133   1.394   3.172   2.738 -1.9330 -1.3899 -0.6329
 7834SOL     OW35134   4.488   3.651   3.011 -0.2736 -0.3088 -0.2867
 7834SOL    HW135135   4.475   3.740   2.978 -1.5661 -0.8109 -1.1195
 7834SOL    HW235136   4.442   3.606   2.941 -0.4000  1.8691 -1.5803
 7835SOL     OW35137   3.946   1.973   6.628  0.2707 -0.1070  0.2826
 7835SOL    HW135138   3.906   2.013   6.551  1.0214 -3.1126 -1.6655
 7835SOL    HW235139   4.023   2.029   6.634 -0.6278  1.0316  1.2920
 7836SOL     OW35140   4.669   1.690   7.594  0.3230 -0.2825  0.1869
 7836SOL    HW135141   4.645   1.603   7.627  0.3122 -0.3494  0.0007
 7836SOL    HW235142   0.022   1.706   7.624  1.0270  2.9457 -3.7378
 7837SOL     OW35143   3.688   1.011   9.896 -0.5300 -0.1120 -0.4059
 7837SOL    HW135144   3.673   1.073   9.824  0.3382 -1.8709 -2.0925
 7837SOL    HW235145   3.783   1.007   9.886 -0.1443  1.4829  2.4627
 7838SOL     OW35146   1.053   1.800   3.004  0.4526 -0.0626 -0.0637
 7838SOL    HW135147   1.043   1.868   2.937 -0.1436 -0.6014 -0.5292
 7838SOL    HW235148   0.971   1.752   2.993  1.1194 -1.3818  0.8347
 7839SOL     OW35149   2.968   4.040   2.102 -0.0445  0.5397  0.1829
 7839SOL    HW135150   2.892   4.013   2.051  1.7799  0.5449 -2.5597
 7839SOL    HW235151   3.038   4.021   2.040  0.7668  2.4728  0.5230
 7840SOL     OW35152   0.493   3.848   1.115 -0.4871 -0.4180  0.5883
 7840SOL    HW135153   0.417   3.800   1.081 -0.8082 -0.3503  1.2095
 7840SOL    HW235154   0.484   3.805   1.200  0.4565 -1.9550 -0.0828
 7841SOL     OW35155   0.941   0.357  13.650 -0.5221  0.5801  0.1603
 7841SOL    HW135156   0.878   0.364  13.722 -0.9447 -1.0797 -0.0340
 7841SOL    HW235157   0.881   0.343  13.577 -0.9163 -1.6681  0.9178
 7842SOL     OW35158   1.692   2.156  11.900  0.4643  0.1740 -0.4105
 7842SOL    HW135159   1.598   2.148  11.883  0.3043 -0.9802  1.0535
 7842SOL    HW235160   1.721   2.078  11.947  1.2345  0.7984  0.1610
 7843SOL     OW35161   4.085   4.272   2.719 -0.0333 -0.0157 -0.5625
 7843SOL    HW135162   3.994   4.299   2.724  0.3051  1.3807 -1.9481
 7843SOL    HW235163   4.087   4.187   2.674  1.8693 -0.1836 -0.1893
 7844SOL     OW35164   3.574   3.929   6.248 -0.4663 -0.1756  0.3464
 7844SOL    HW135165   3.646   3.889   6.298  0.6499 -0.1450 -1.2321
 7844SOL    HW235166   3.530   3.983   6.314 -2.0092  0.4182 -1.1821
 7845SOL     OW35167   1.554   2.261   8.969  0.0444 -0.1996 -0.5245
 7845SOL    HW135168   1.579   2.348   8.939 -1.2261  0.6592  0.9786
 7845SOL    HW235169   1.639   2.218   8.957  0.7346  0.2666  2.8278
 7846SOL     OW35170   2.623   2.438   1.574  0.0123  0.2995  0.1812
 7846SOL    HW135171   2.667   2.520   1.596  1.7581 -1.0633  1.7547
 7846SOL    HW235172   2.555   2.434   1.641 -0.9248  2.0966 -0.6687
 7847SOL     OW35173   1.094   0.689  15.988  0.1755  0.1845 -0.0551
 7847SOL    HW135174   1.106   0.775  15.948  1.1331  1.9241  3.9075
 7847SOL    HW235175   1.123   0.697  16.079 -1.8679 -1.8415  0.7845
 7848SOL     OW35176   2.715   4.365  17.405  0.6865 -0.2284  0.4941
 7848SOL    HW135177   2.647   4.342  17.469  0.9919  0.6331  1.1286
 7848SOL    HW235178   2.675   4.444  17.369  1.0415 -0.8790 -1.3430
 7849SOL     OW35179   3.243   4.321   4.740 -0.5416 -0.4492  0.2254
 7849SOL    HW135180   3.242   4.309   4.835 -1.9384 -0.7143  0.1752
 7849SOL    HW235181   3.149   4.324   4.726 -0.2558  2.2336 -1.0586
 7850SOL     OW35182   4.027   3.502   1.792 -0.6397  0.2400 -0.3412
 7850SOL    HW135183   4.027   3.433   1.726 -0.6633 -1.4508  1.4481
 7850SOL    HW235184   4.048   3.457   1.874 -3.1062  2.1100  1.3126
 7851SOL     OW35185   2.876   0.932  13.211 -0.0120 -0.2150 -0.0261
 7851SOL    HW135186   2.918   1.017  13.227 -3.4497  1.7054 -1.1348
 7851SOL    HW235187   2.791   0.940  13.255 -1.4846 -2.0956 -2.5163
 7852SOL     OW35188   3.779   1.190  14.065 -0.8441 -0.3314 -0.3473
 7852SOL    HW135189   3.823   1.112  14.033 -0.1353 -0.2560  0.4653
 7852SOL    HW235190   3.760   1.247  13.990  2.0530  1.6079  0.3876
 7853SOL     OW35191   0.530   1.089  11.112 -0.1066  0.1123  0.4840
 7853SOL    HW135192   0.463   1.144  11.071  0.1103 -0.6806 -0.9637
 7853SOL    HW235193   0.562   1.053  11.029 -1.0835 -1.7306  0.9080
 7854SOL     OW35194   3.750   2.644   6.009 -0.0688  0.0868 -0.5262
 7854SOL    HW135195   3.823   2.656   6.069 -1.6869 -0.6545  1.5676
 7854SOL    HW235196   3.687   2.610   6.072 -0.0838 -1.6874 -1.4930
 7855SOL     OW35197   2.840   2.224   8.169  0.0220  0.4595 -0.0240
 7855SOL    HW135198   2.811   2.195   8.083  0.2535  1.7745 -0.5353
 7855SOL    HW235199   2.930   2.251   8.150 -0.9508  2.7667 -1.2718
 7856SOL     OW35200   2.966   2.223   3.107  0.4455  0.1798  0.0797
 7856SOL    HW135201   3.038   2.272   3.067  0.5276  0.0864  0.1133
 7856SOL    HW235202   2.893   2.243   3.048  0.9129  0.4208 -0.4150
 7857SOL     OW35203   1.998   4.152   9.331 -0.5133  0.3807  0.7479
 7857SOL    HW135204   2.080   4.194   9.307 -1.3939  0.7252 -1.7365
 7857SOL    HW235205   1.993   4.158   9.426 -1.8100 -0.5820  0.7404
 7858SOL     OW35206   0.872   4.309  16.832 -0.3458  0.3735  0.0746
 7858SOL    HW135207   0.822   4.350  16.762 -0.2062  0.7817  0.2149
 7858SOL    HW235208   0.805   4.253  16.872 -0.3290  0.7140  0.5768
 7859SOL     OW35209   0.822   4.554   1.490  0.0667 -0.6085 -0.1364
 7859SOL    HW135210   0.804   4.609   1.413 -1.7361 -1.8817 -0.6390
 7859SOL    HW235211   0.914   4.532   1.480 -0.4513 -2.2498 -1.2120
 7860SOL     OW35212   4.257   1.869  12.817  0.6092 -0.8851  0.3648
 7860SOL    HW135213   4.180   1.893  12.765  0.8451 -0.0669  0.3978
 7860SOL    HW235214   4.333   1.884  12.760  2.3539 -0.2388  2.8642
 7861SOL     OW35215   2.956   0.961  12.820  0.4886 -0.2945 -0.2797
 7861SOL    HW135216   3.014   0.919  12.883  1.5846  0.6477 -0.6773
 7861SOL    HW235217   2.869   0.941  12.856  0.7731 -0.9801  0.0270
 7862SOL     OW35218   0.075   2.677  12.400 -0.1117  0.2125  0.5392
 7862SOL    HW135219   0.090   2.733  12.476  0.9700  0.2017  0.3226
 7862SOL    HW235220   0.126   2.602  12.430 -0.3969 -0.2852 -0.2150
 7863SOL     OW35221   2.494   4.271   6.871  0.6381 -0.4772  0.1896
 7863SOL    HW135222   2.565   4.313   6.823 -0.7649  0.3179 -1.1890
 7863SOL    HW235223   2.529   4.183   6.876  0.9363 -0.3841 -0.2867
 7864SOL     OW35224   1.920   0.590   0.625  0.4841 -0.0503  0.8854
 7864SOL    HW135225   1.992   0.644   0.594 -0.8888  0.0603 -2.0583
 7864SOL    HW235226   1.918   0.612   0.718 -2.4738 -0.4949  0.9339
 7865SOL     OW35227   2.927   1.756   4.528 -0.0157 -0.2620  0.4237
 7865SOL    HW135228   2.914   1.767   4.434  2.5217  1.5159  0.2942
 7865SOL    HW235229   2.875   1.825   4.569  1.0633 -0.3862  1.9848
 7866SOL     OW35230   0.464   3.995   7.776 -0.1053  0.2383 -0.1497
 7866SOL    HW135231   0.370   4.004   7.787 -0.4377  0.7621 -3.3858
 7866SOL    HW235232   0.469   3.920   7.718  0.8708  0.7435 -0.7380
 7867SOL     OW35233   2.052   1.728   2.000  0.4594 -0.2199 -0.0688
 7867SOL    HW135234   2.053   1.785   1.923 -0.4099  1.0557  0.8759
 7867SOL    HW235235   2.026   1.777   2.077 -1.3434  0.2249 -0.9755
 7868SOL     OW35236   1.422   4.336  16.930 -0.3867 -0.4690 -0.2084
 7868SOL    HW135237   1.423   4.267  16.864  0.5248 -1.3552  0.7215
 7868SOL    HW235238   1.328   4.346  16.943 -0.1878  0.3260  0.5778
 7869SOL     OW35239   3.518   4.541   6.918  0.3279 -0.3694 -0.7758
 7869SOL    HW135240   3.529   4.488   6.839 -1.0357 -0.2250 -1.0528
 7869SOL    HW235241   3.587   4.499   6.970 -0.1249  1.0589  0.9861
 7870SOL     OW35242   1.927   3.047   2.958 -0.0420 -0.6989 -0.0404
 7870SOL    HW135243   1.969   3.058   2.873 -0.0704 -1.7341 -0.1940
 7870SOL    HW235244   1.993   3.019   3.021  0.4639 -2.3321 -1.3058
 7871SOL     OW35245   2.199   0.881   3.911  0.4617 -0.1739  0.0648
 7871SOL    HW135246   2.104   0.880   3.920  0.4138  0.5724 -0.3499
 7871SOL    HW235247   2.225   0.806   3.965  1.2667 -1.1658 -1.6535
 7872SOL     OW35248   0.707   2.768   4.514  0.8761 -0.1911  0.4110
 7872SOL    HW135249   0.744   2.826   4.447 -1.3736  0.4293 -0.2806
 7872SOL    HW235250   0.670   2.839   4.565  1.0948  0.1184  0.1427
 7873SOL     OW35251   0.254   2.799  15.955  0.0682  0.1966  0.2300
 7873SOL    HW135252   0.301   2.850  15.889 -0.3162 -0.3154 -0.4465
 7873SOL    HW235253   0.171   2.846  15.947 -0.6956 -1.2380 -0.3044
 7874SOL     OW35254   3.940   4.118   4.977  0.2674  0.2702  0.4197
 7874SOL    HW135255   3.916   4.210   4.990 -2.9379 -0.4920 -0.0001
 7874SOL    HW235256   3.933   4.113   4.882 -1.5307  2.0196  0.4442
 7875SOL     OW35257   3.777   4.383  12.847  0.1019  0.0941  0.2276
 7875SOL    HW135258   3.751   4.440  12.919  0.1626 -1.0617  1.1652
 7875SOL    HW235259   3.708   4.405  12.783  1.0701  2.6190  0.0506
 7876SOL     OW35260   0.188   2.574   4.079  0.6783  0.5448 -0.2527
 7876SOL    HW135261   0.139   2.552   4.000  0.8855 -2.3558  0.4366
 7876SOL    HW235262   0.120   2.569   4.147  1.2909 -1.4141  0.2101
 7877SOL     OW35263   1.819   4.484   1.994 -0.0747 -0.4275  0.2363
 7877SOL    HW135264   1.813   4.536   2.074  0.4301  1.3282 -0.8850
 7877SOL    HW235265   1.915   4.481   1.987 -0.0923  0.1076 -0.1992
 7878SOL     OW35266   4.593   0.128  15.842 -0.4315 -0.0383 -1.0673
 7878SOL    HW135267   4.576   0.218  15.870 -0.6322 -0.0344 -1.1998
 7878SOL    HW235268   4.665   0.119  15.904 -0.8253 -0.2931 -0.6461
 7879SOL     OW35269   1.935   3.211   5.741 -0.2771  0.6299 -0.1318
 7879SOL    HW135270   2.003   3.198   5.808  1.6173 -1.3748 -2.4387
 7879SOL    HW235271   2.001   3.236   5.676  0.6070  0.0492  0.5271
 7880SOL     OW35272   4.732   0.702  15.705 -0.6024  0.2913 -0.4538
 7880SOL    HW135273   0.015   0.793  15.684  1.7741 -0.1820 -0.3619
 7880SOL    HW235274   4.694   0.713  15.792 -2.7717  2.5453 -1.7241
 7881SOL     OW35275   3.888   0.990   3.722 -0.0722 -0.5937 -0.5636
 7881SOL    HW135276   3.911   1.082   3.706 -0.6873 -0.3509 -0.0382
 7881SOL    HW235277   3.834   1.002   3.800  1.2422  1.3952  0.0407
 7882SOL     OW35278   2.841   1.769   4.985  0.4172  0.4013  0.3408
 7882SOL    HW135279   2.833   1.678   5.011  1.8920  0.2955  0.4019
 7882SOL    HW235280   2.936   1.778   4.975  0.2624 -1.1355 -2.6134
 7883SOL     OW35281   2.488   2.379   4.519 -0.1795  0.3774  0.1539
 7883SOL    HW135282   2.410   2.337   4.481  1.4079 -0.1688 -2.4931
 7883SOL    HW235283   2.541   2.305   4.547  1.3955  1.4846  0.0969
 7884SOL     OW35284   3.968   2.898   0.738 -1.0193 -0.2929  0.5230
 7884SOL    HW135285   3.958   2.969   0.675  1.5581 -3.0890 -3.0716
 7884SOL    HW235286   3.894   2.912   0.796  1.2635  4.4063  2.2673
 7885SOL     OW35287   1.508   4.006   1.632  0.1566  0.4405  0.3025
 7885SOL    HW135288   1.469   4.079   1.584  0.1292 -0.4758 -1.0941
 7885SOL    HW235289   1.602   4.023   1.627  0.2926  0.2725  2.3274
 7886SOL     OW35290   2.039   4.426  10.068 -0.1266  0.2280  0.2620
 7886SOL    HW135291   2.073   4.373   9.996  0.1027  0.2588  0.3457
 7886SOL    HW235292   2.014   4.355  10.127  0.1959 -0.7859 -0.8266
 7887SOL     OW35293   3.062   3.224  17.405 -0.1585  0.8285 -0.0960
 7887SOL    HW135294   3.014   3.222  17.322  0.2888  0.3341 -0.3473
 7887SOL    HW235295   3.055   3.136  17.441  0.0508 -0.0258 -2.1566
 7888SOL     OW35296   0.706   2.061   4.885  0.0562 -0.0258 -0.7812
 7888SOL    HW135297   0.679   1.972   4.903 -1.1206  0.3801 -0.5287
 7888SOL    HW235298   0.627   2.088   4.838  1.1409 -1.6365 -3.5180
 7889SOL     OW35299   1.686   2.045  15.781 -0.2587 -0.7808  0.2345
 7889SOL    HW135300   1.624   2.095  15.834  0.5720 -0.2684  0.7231
 7889SOL    HW235301   1.638   2.010  15.706  0.2734  1.9700 -1.3592
 7890SOL     OW35302   0.240   0.341   0.409  0.0632  0.0712  0.1347
 7890SOL    HW135303   0.194   0.420   0.435 -1.7557 -0.2722 -2.0229
 7890SOL    HW235304   0.296   0.326   0.485 -0.1537  0.8103  0.4326
 7891SOL     OW35305   3.250   3.534  11.120 -0.3106 -0.2326  0.2212
 7891SOL    HW135306   3.276   3.448  11.155 -1.4121  0.1267  1.9478
 7891SOL    HW235307   3.329   3.572  11.082 -1.7009  1.6683 -0.7464
 7892SOL     OW35308   3.051   4.379   7.679  0.4062  0.1532 -0.8982
 7892SOL    HW135309   3.123   4.337   7.633 -0.2199 -1.6134 -0.2457
 7892SOL    HW235310   3.005   4.436   7.619 -0.7687  1.2595  1.0412
 7893SOL     OW35311   1.835   3.955   0.943 -0.4743 -0.1677  0.2519
 7893SOL    HW135312   1.752   3.985   0.978 -0.9744  0.4005 -1.4134
 7893SOL    HW235313   1.890   4.029   0.970 -0.0338 -0.7012  0.8199
 7894SOL     OW35314   2.163   0.960   1.820 -0.3689 -0.5510  0.5223
 7894SOL    HW135315   2.157   0.918   1.906  2.7119 -0.6171  0.7021
 7894SOL    HW235316   2.254   0.989   1.812 -0.2705 -1.2595 -1.0845
 7895SOL     OW35317   0.380   3.751   5.589  0.5056  0.0498 -0.7069
 7895SOL    HW135318   0.468   3.730   5.559 -0.3620 -0.6858 -2.7387
 7895SOL    HW235319   0.369   3.674   5.646 -0.5783  1.1086  0.5098
 7896SOL     OW35320   2.099   3.722  11.077  0.0276 -0.5470 -0.0505
 7896SOL    HW135321   2.124   3.772  10.999 -0.5705 -0.3792 -0.1313
 7896SOL    HW235322   2.179   3.734  11.127 -0.0398 -1.9982  0.4123
 7897SOL     OW35323   3.260   2.332   2.764 -0.3218  0.1463 -0.4440
 7897SOL    HW135324   3.274   2.341   2.670 -1.0102 -0.0955 -0.5757
 7897SOL    HW235325   3.295   2.243   2.772  1.9754  1.0839 -0.3425
 7898SOL     OW35326   2.879   0.744   5.314  0.1036 -0.3073  0.7030
 7898SOL    HW135327   2.829   0.749   5.232  1.9563 -0.1053 -0.4105
 7898SOL    HW235328   2.953   0.796   5.284  0.0259 -0.1834  0.7262
 7899SOL     OW35329   1.022   0.870   7.427 -0.5247 -0.8094  0.0971
 7899SOL    HW135330   0.959   0.891   7.496 -0.9910 -1.1798 -0.2115
 7899SOL    HW235331   1.010   0.777   7.410  1.9683 -1.0255 -0.5173
 7900SOL     OW35332   1.180   2.429   8.756 -0.6182 -0.1381  0.0709
 7900SOL    HW135333   1.188   2.402   8.847 -3.3464  0.0873  0.3700
 7900SOL    HW235334   1.149   2.520   8.760  1.5623  0.7295 -2.3166
 7901SOL     OW35335   0.212   1.528  12.428 -0.2326 -0.3596  0.5621
 7901SOL    HW135336   0.212   1.548  12.522  1.7668  1.5371  0.1800
 7901SOL    HW235337   0.304   1.550  12.411 -0.5195 -0.2874 -0.9059
 7902SOL     OW35338   3.426   0.035  10.189  0.2317  0.1578  0.2371
 7902SOL    HW135339   3.429   0.098  10.118 -1.7202  2.6402  2.3353
 7902SOL    HW235340   3.333   0.045  10.208  0.8087  0.7620  2.7992
 7903SOL     OW35341   3.515   1.036   9.270  0.4149  0.1024 -0.4049
 7903SOL    HW135342   3.421   1.031   9.287  0.5954  1.5560  1.0068
 7903SOL    HW235343   3.523   0.949   9.231  3.1462 -0.5183  1.5939
 7904SOL     OW35344   1.387   1.666   6.854  0.5468  0.0832  0.4754
 7904SOL    HW135345   1.446   1.717   6.797 -2.2063  1.6171 -1.0356
 7904SOL    HW235346   1.438   1.589   6.880  0.3817 -0.3675 -0.5206
 7905SOL     OW35347   1.343   2.117  16.713 -0.1958 -0.0901  0.3456
 7905SOL    HW135348   1.269   2.124  16.772  0.1706  1.2557  0.6395
 7905SOL    HW235349   1.420   2.125  16.770 -0.3523  1.9970  0.2648
 7906SOL     OW35350   3.754   3.154  13.188 -0.3587 -0.0044 -0.2832
 7906SOL    HW135351   3.753   3.144  13.093 -0.4479 -1.1443 -0.1639
 7906SOL    HW235352   3.809   3.081  13.215 -2.7283 -2.1394 -1.2478
 7907SOL     OW35353   3.101   1.735   3.662  0.1091  0.2134  0.8174
 7907SOL    HW135354   3.096   1.683   3.582  3.8862  2.3026 -0.7601
 7907SOL    HW235355   3.090   1.666   3.727  1.9400 -1.5584 -0.7851
 7908SOL     OW35356   2.169   0.300  16.747 -0.1470  0.1665  0.5802
 7908SOL    HW135357   2.152   0.318  16.654  0.4400 -1.3076  0.1787
 7908SOL    HW235358   2.261   0.273  16.753  0.6691  3.0961  1.2420
 7909SOL     OW35359   4.451   2.992   4.952 -0.4496  0.3628 -0.2007
 7909SOL    HW135360   4.469   3.020   4.862  0.5966  1.2381  0.2833
 7909SOL    HW235361   4.449   3.078   4.995 -2.9710 -0.7898  1.9878
 7910SOL     OW35362   4.041   2.700  10.243 -0.2114  0.1377 -0.4801
 7910SOL    HW135363   4.101   2.766  10.277 -0.8650  0.5999 -0.2479
 7910SOL    HW235364   4.096   2.621  10.244  1.2654  1.1835  0.4824
 7911SOL     OW35365   2.708   2.141   7.954  0.2874  0.3906 -0.9484
 7911SOL    HW135366   2.641   2.199   7.917  1.7352  2.2851 -0.5924
 7911SOL    HW235367   2.669   2.058   7.927 -1.9225  0.6312  1.4489
 7912SOL     OW35368   1.522   3.614  13.421  0.3983 -0.8345  0.1186
 7912SOL    HW135369   1.439   3.581  13.454  0.5552 -1.0075  0.3381
 7912SOL    HW235370   1.554   3.537  13.375  0.3833 -1.4203  1.0915
 7913SOL     OW35371   4.411   0.023   2.419 -1.0917  0.0028 -0.6405
 7913SOL    HW135372   4.446   0.088   2.359 -2.6866 -1.0625 -2.7239
 7913SOL    HW235373   4.441   0.056   2.504 -4.0597 -0.1241  0.4676
 7914SOL     OW35374   2.705   3.857   5.087 -0.5735 -0.5008 -0.4055
 7914SOL    HW135375   2.686   3.779   5.034 -1.0372  0.1655 -1.2234
 7914SOL    HW235376   2.781   3.823   5.135 -1.1503 -0.7346  0.3400
 7915SOL     OW35377   3.281   1.741   8.083 -0.2688  0.1050 -0.3113
 7915SOL    HW135378   3.188   1.743   8.060 -0.0203 -0.3059 -1.3376
 7915SOL    HW235379   3.270   1.732   8.178  1.5916 -0.9464 -0.1909
 7916SOL     OW35380   0.690   0.224   2.183  0.3180 -0.0930  0.8959
 7916SOL    HW135381   0.716   0.132   2.192  0.0314 -0.4390 -1.7737
 7916SOL    HW235382   0.605   0.225   2.228  0.5438 -1.0201  1.3560
 7917SOL     OW35383   0.638   3.899   9.370  0.1882 -0.1765  0.3279
 7917SOL    HW135384   0.588   3.832   9.416 -0.2792 -0.9882 -1.3621
 7917SOL    HW235385   0.726   3.863   9.357 -0.0744 -0.5597 -0.3560
 7918SOL     OW35386   3.235   0.156  17.624  0.8321  0.0789  0.3059
 7918SOL    HW135387   3.160   0.128  17.676 -0.1151  3.0647  0.5692
 7918SOL    HW235388   3.297   0.185  17.691  0.5691 -0.5746  0.8306
 7919SOL     OW35389   1.471   4.268   2.592  0.2201 -0.4737  0.3111
 7919SOL    HW135390   1.451   4.225   2.509 -2.0730  1.3681 -0.1008
 7919SOL    HW235391   1.383   4.271   2.631 -0.1467  0.6462 -0.5968
 7920SOL     OW35392   2.510   2.242   1.832 -0.3392 -0.3847  0.3719
 7920SOL    HW135393   2.451   2.167   1.832 -0.6200 -0.1646  0.2137
 7920SOL    HW235394   2.586   2.192   1.862  0.2160  0.3443  0.1737
 7921SOL     OW35395   0.062   0.082   1.849  0.1880 -0.3409  0.2536
 7921SOL    HW135396   0.096   0.004   1.804 -0.5531 -2.0543  2.6500
 7921SOL    HW235397   0.149   0.113   1.874 -1.1728  0.8244  3.5094
 7922SOL     OW35398   1.962   4.127  17.498 -0.1555  1.1297 -0.0901
 7922SOL    HW135399   2.011   4.160  17.423  1.6595  0.1577  0.6601
 7922SOL    HW235400   1.926   4.211  17.528  1.0002  1.3795  0.5948
 7923SOL     OW35401   2.945   3.198  10.282 -0.1527 -0.5993 -0.2762
 7923SOL    HW135402   2.945   3.132  10.350 -1.2221 -0.7874 -0.4476
 7923SOL    HW235403   2.979   3.279  10.320 -1.6583  0.6080 -1.4846
 7924SOL     OW35404   3.842   2.825  10.387  0.1495  0.4034 -0.9952
 7924SOL    HW135405   3.802   2.740  10.370 -0.8929  0.4811  1.0592
 7924SOL    HW235406   3.920   2.810  10.334 -0.9081 -0.5351 -2.2679
 7925SOL     OW35407   2.852   0.276   3.121 -0.0904 -0.6742  0.1521
 7925SOL    HW135408   2.899   0.204   3.079  1.5319  0.5496 -0.0921
 7925SOL    HW235409   2.761   0.246   3.123 -0.2498 -0.2601 -1.2849
 7926SOL     OW35410   0.353   3.494   4.964  0.1563 -0.2117 -0.2886
 7926SOL    HW135411   0.281   3.476   5.025  1.2389 -0.5107  0.8988
 7926SOL    HW235412   0.416   3.533   5.025 -1.8233 -0.7660  2.1303
 7927SOL     OW35413   4.638   0.303  16.691 -0.2446  0.0122 -0.2103
 7927SOL    HW135414   4.562   0.338  16.644  1.6473  1.0689 -2.3973
 7927SOL    HW235415   4.676   0.384  16.725 -1.0934  0.3720 -0.0942
 7928SOL     OW35416   4.089   0.512  16.071  0.6474  0.0400 -0.0655
 7928SOL    HW135417   4.041   0.595  16.065 -0.0770 -0.4253 -0.6686
 7928SOL    HW235418   4.161   0.541  16.128  0.2581  1.9710 -0.5326
 7929SOL     OW35419   2.380   4.617   3.992  0.7858 -0.0706 -0.7732
 7929SOL    HW135420   2.466   4.642   4.026  0.3894  1.3327 -0.8173
 7929SOL    HW235421   2.341   4.704   3.998 -1.3350 -1.1524  0.8083
 7930SOL     OW35422   3.352   1.180  10.660  0.8520  0.3963  0.1326
 7930SOL    HW135423   3.304   1.124  10.720 -1.6319  0.8450 -1.4465
 7930SOL    HW235424   3.327   1.269  10.688  0.2931  0.5940 -1.0002
 7931SOL     OW35425   1.028   0.498  15.335  0.7323  0.8370 -0.4020
 7931SOL    HW135426   1.070   0.417  15.366  1.2034 -0.6457 -4.9209
 7931SOL    HW235427   1.057   0.550  15.410 -0.6021  1.1085 -0.0650
 7932SOL     OW35428   0.899   3.520   5.123 -0.0207 -0.3451  0.2056
 7932SOL    HW135429   0.992   3.496   5.114  0.0810  0.0472  0.1973
 7932SOL    HW235430   0.856   3.478   5.049 -1.0536 -0.2697  0.7662
 7933SOL     OW35431   2.678   1.025  14.580  0.4780 -0.2872 -0.3164
 7933SOL    HW135432   2.591   1.039  14.545  0.4115  1.3988  0.5589
 7933SOL    HW235433   2.677   0.935  14.615  0.7815  0.3351  1.2951
 7934SOL     OW35434   2.775   0.317   8.012  0.3765  0.2435  0.4235
 7934SOL    HW135435   2.722   0.388   8.047 -0.5604 -0.5885  0.6672
 7934SOL    HW235436   2.857   0.367   8.008  0.5264  0.1255  2.1006
 7935SOL     OW35437   3.094   1.638   6.924  0.2772 -0.3120 -0.8780
 7935SOL    HW135438   3.157   1.581   6.880  1.1341 -1.2089  1.5213
 7935SOL    HW235439   3.021   1.578   6.908  0.3884 -0.6330 -0.1794
 7936SOL     OW35440   3.860   2.090   2.209 -0.1604 -0.1942  0.4695
 7936SOL    HW135441   3.888   2.027   2.143  0.6213 -0.2014  0.8097
 7936SOL    HW235442   3.901   2.052   2.287  2.1056 -2.0336 -1.5901
 7937SOL     OW35443   1.163   2.725   6.762  0.0058  0.9640 -0.1145
 7937SOL    HW135444   1.112   2.784   6.817 -0.7018 -0.7053  1.0139
 7937SOL    HW235445   1.251   2.732   6.801 -1.0309 -4.2790  3.0938
 7938SOL     OW35446   3.399   2.453   4.049  0.1633 -0.1484  0.2110
 7938SOL    HW135447   3.478   2.491   4.087  0.9926 -1.2517 -0.4367
 7938SOL    HW235448   3.368   2.532   4.005  1.1111  0.7756  1.1987
 7939SOL     OW35449   2.479   3.271   5.557  0.3691 -0.7044 -1.0118
 7939SOL    HW135450   2.431   3.352   5.573  1.5411 -0.4408  1.1621
 7939SOL    HW235451   2.569   3.303   5.554 -0.6488  2.1820 -0.5396
 7940SOL     OW35452   2.127   4.039   7.155 -0.5265  0.0669 -0.4369
 7940SOL    HW135453   2.071   4.085   7.218  0.7596 -0.3826  1.0174
 7940SOL    HW235454   2.206   4.093   7.162 -0.7016  0.4798 -1.6421
 7941SOL     OW35455   2.650   2.584   9.010 -0.2493 -0.1042  0.4679
 7941SOL    HW135456   2.671   2.525   9.083  3.1619 -1.1405 -1.3610
 7941SOL    HW235457   2.604   2.523   8.952 -0.6177  1.2912 -0.7054
 7942SOL     OW35458   2.365   0.118   4.936 -0.3600  0.1943 -0.1156
 7942SOL    HW135459   2.302   0.090   4.870  0.4174  0.1912 -0.8575
 7942SOL    HW235460   2.359   0.038   4.988 -0.5344 -0.0811 -0.5612
 7943SOL     OW35461   4.308   2.422   9.497  0.4295  1.0697 -0.2387
 7943SOL    HW135462   4.247   2.355   9.529  0.7282  1.0067  0.1963
 7943SOL    HW235463   4.385   2.399   9.548 -0.4947 -1.2180  0.1354
 7944SOL     OW35464   1.793   2.251   6.970  0.0537 -0.2916 -0.0178
 7944SOL    HW135465   1.722   2.273   7.031 -0.6929  0.0281 -1.0086
 7944SOL    HW235466   1.789   2.329   6.915  0.8476 -0.8134 -0.8120
 7945SOL     OW35467   0.611   0.773   3.406 -0.0885  0.3369  0.2470
 7945SOL    HW135468   0.683   0.725   3.366  1.0213  0.0179  2.6425
 7945SOL    HW235469   0.607   0.733   3.493 -2.1372 -1.5949 -0.7234
 7946SOL     OW35470   3.826   0.531   8.647  0.0364 -0.8555 -0.3185
 7946SOL    HW135471   3.895   0.597   8.657 -0.9854  0.1670  0.1186
 7946SOL    HW235472   3.808   0.489   8.731 -2.6046 -0.9534 -0.9250
 7947SOL     OW35473   1.979   0.599   1.214 -0.5614 -0.2119  0.7627
 7947SOL    HW135474   1.974   0.690   1.244 -1.1989  0.0992 -0.2872
 7947SOL    HW235475   2.007   0.553   1.293 -2.1950 -0.6446  1.0858
 7948SOL     OW35476   4.008   1.293   2.468 -0.4771  0.2766 -0.1960
 7948SOL    HW135477   3.991   1.361   2.404  0.2920 -0.4548 -1.1694
 7948SOL    HW235478   3.983   1.217   2.415 -0.2973  0.7671 -0.9814
 7949SOL     OW35479   2.434   4.728   7.374  0.1504  0.1388 -0.0035
 7949SOL    HW135480   2.342   0.016   7.361 -0.4012 -2.1830 -0.4705
 7949SOL    HW235481   2.477   0.077   7.371 -0.1027  0.2673  0.0265
 7950SOL     OW35482   2.563   0.220   3.168  0.1555 -0.4744  0.0808
 7950SOL    HW135483   2.571   0.304   3.214 -1.3721  0.3768 -1.1851
 7950SOL    HW235484   2.518   0.246   3.087  0.9199 -1.5375 -0.6732
 7951SOL     OW35485   0.349   1.223   6.578  0.2545 -0.0195  0.4362
 7951SOL    HW135486   0.329   1.242   6.486  0.2506 -0.5276  0.3305
 7951SOL    HW235487   0.362   1.128   6.578 -2.0447 -0.3466  0.6059
 7952SOL     OW35488   1.527   3.158   7.217  0.0922 -0.7869 -0.5238
 7952SOL    HW135489   1.568   3.242   7.238  0.6425 -1.8106  2.3920
 7952SOL    HW235490   1.485   3.131   7.298 -0.2668  1.7020  0.1116
 7953SOL     OW35491   4.222   3.139   2.159  0.6348 -0.2477 -0.3226
 7953SOL    HW135492   4.187   3.190   2.086  1.7190 -0.2452 -0.8431
 7953SOL    HW235493   4.285   3.079   2.118  1.1811 -0.7012  1.1435
 7954SOL     OW35494   4.355   0.908   5.480 -0.0150  0.1982 -0.2331
 7954SOL    HW135495   4.374   0.846   5.550  1.8786  2.0117  0.8337
 7954SOL    HW235496   4.285   0.867   5.429  0.3595  0.2915 -0.8200
 7955SOL     OW35497   1.954   2.909  10.920  0.3449  0.8579  0.1864
 7955SOL    HW135498   1.918   2.849  10.986  0.8670 -1.8628 -2.0387
 7955SOL    HW235499   1.882   2.973  10.918 -0.3380 -0.0117 -2.5750
 7956SOL     OW35500   1.940   0.990   8.304  0.1207 -0.6040 -0.2298
 7956SOL    HW135501   2.015   1.043   8.276 -0.4221  0.4540  0.2839
 7956SOL    HW235502   1.978   0.910   8.339 -0.2569 -0.7631 -0.1899
 7957SOL     OW35503   1.419   2.884   5.574 -0.5302 -0.2782  0.5070
 7957SOL    HW135504   1.361   2.937   5.629 -3.0511 -0.1077 -2.2661
 7957SOL    HW235505   1.451   2.823   5.640 -0.7400 -0.5078  0.3992
 7958SOL     OW35506   4.342   0.524   0.730  0.6243 -0.4367  0.7277
 7958SOL    HW135507   4.312   0.566   0.811  1.6714  0.9474  0.3967
 7958SOL    HW235508   4.390   0.597   0.691  0.3261 -1.0313 -0.7648
 7959SOL     OW35509   0.202   3.342   5.943 -0.2559 -0.3658 -0.1357
 7959SOL    HW135510   0.262   3.283   5.898 -1.4217 -2.0338  0.4930
 7959SOL    HW235511   0.218   3.316   6.034  0.1141 -1.6882 -0.5901
 7960SOL     OW35512   2.328   2.927   6.616 -0.0496 -0.4361  0.1782
 7960SOL    HW135513   2.371   3.010   6.598 -1.9227  0.6920  0.9415
 7960SOL    HW235514   2.356   2.899   6.703 -1.3434  1.3580  1.1561
 7961SOL     OW35515   4.398   0.666   9.430  0.0701 -0.1427 -0.5409
 7961SOL    HW135516   4.336   0.601   9.462 -0.5455  1.9408  2.5755
 7961SOL    HW235517   4.460   0.663   9.504 -0.6436  0.7041  0.0905
 7962SOL     OW35518   2.936   4.094   4.919 -0.3189  0.2816 -0.2227
 7962SOL    HW135519   3.018   4.138   4.940 -1.5292  2.0334  0.8560
 7962SOL    HW235520   2.942   4.013   4.970  1.5057 -1.5288 -3.3131
 7963SOL     OW35521   1.927   4.726   4.352  0.0018 -0.3125  0.1525
 7963SOL    HW135522   1.893   0.067   4.397  1.4032 -0.7065  1.8502
 7963SOL    HW235523   1.971   4.674   4.419 -0.6749  1.3840  1.9185
 7964SOL     OW35524   0.169   1.814   5.425 -0.2734  0.2388 -0.1907
 7964SOL    HW135525   0.185   1.869   5.502 -0.8228  1.9584 -1.2880
 7964SOL    HW235526   0.074   1.830   5.424 -0.2340  0.4858  0.4134
 7965SOL     OW35527   1.245   3.231   0.840  0.1955  0.1257  0.4017
 7965SOL    HW135528   1.169   3.176   0.861  1.5159 -0.5865  3.3126
 7965SOL    HW235529   1.313   3.165   0.827  0.3494  0.3723 -0.0241
 7966SOL     OW35530   2.947   2.798   9.500  0.2184 -0.1509 -0.6791
 7966SOL    HW135531   2.949   2.893   9.484  0.9144  0.1294  1.1096
 7966SOL    HW235532   2.903   2.788   9.585  0.2588 -0.7105 -0.7255
 7967SOL     OW35533   0.249   4.593   2.999 -0.4045  0.4810  0.1199
 7967SOL    HW135534   0.155   4.576   3.010 -0.4155  0.8444  0.5900
 7967SOL    HW235535   0.254   4.570   2.906  1.2303 -0.9250  0.5522
 7968SOL     OW35536   1.940   1.882   2.984 -0.1461 -0.0683 -0.5163
 7968SOL    HW135537   1.927   1.881   3.079 -2.2347 -0.7113 -0.8058
 7968SOL    HW235538   2.034   1.897   2.973 -0.4147  0.7794 -1.7084
 7969SOL     OW35539   4.702   1.169   3.340 -1.1616  0.2337  0.6242
 7969SOL    HW135540   4.615   1.133   3.356 -1.9712  2.2281  0.6511
 7969SOL    HW235541   0.014   1.113   3.400 -1.3517 -0.1140  0.4542
 7970SOL     OW35542   3.288   1.300   3.104  0.2821  0.1549 -0.3210
 7970SOL    HW135543   3.381   1.299   3.125  0.2163  1.2975  0.0303
 7970SOL    HW235544   3.287   1.366   3.035  0.9065  1.5123  0.9691
 7971SOL     OW35545   4.581   2.156   3.543 -0.2289 -0.9587 -0.0465
 7971SOL    HW135546   4.660   2.105   3.527 -0.3596 -1.6780  1.6217
 7971SOL    HW235547   4.556   2.129   3.632  3.0827 -1.8459  0.5852
 7972SOL     OW35548   4.600   1.198  11.736 -0.1474 -0.0471  0.3438
 7972SOL    HW135549   4.514   1.232  11.711  0.9554  0.9888 -2.0844
 7972SOL    HW235550   4.630   1.155  11.656  0.5664 -0.6499  0.9480
 7973SOL     OW35551   0.309   2.193   0.683 -0.9575  0.0715  0.1656
 7973SOL    HW135552   0.335   2.277   0.646 -0.0179 -0.3859 -0.2137
 7973SOL    HW235553   0.374   2.179   0.752 -0.3618 -1.4404 -0.6883
 7974SOL     OW35554   0.398   2.011   1.755  0.6049 -0.1202  0.4082
 7974SOL    HW135555   0.376   2.044   1.668  0.0627 -0.6172  0.3589
 7974SOL    HW235556   0.479   1.963   1.741 -0.6815 -2.3288  0.5140
 7975SOL     OW35557   2.532   2.783  14.823 -0.0122 -0.4479  0.0727
 7975SOL    HW135558   2.583   2.773  14.743 -0.4353 -1.3780 -0.0708
 7975SOL    HW235559   2.496   2.695  14.830 -1.1721  0.0317  0.0979
 7976SOL     OW35560   0.379   2.265   6.852  0.5836  0.5200 -0.4545
 7976SOL    HW135561   0.308   2.294   6.909  0.2155 -0.3557 -0.4732
 7976SOL    HW235562   0.358   2.177   6.821  2.2376 -0.2968  0.7001
 7977SOL     OW35563   0.216   1.550   3.701  0.2946 -0.1734  0.4983
 7977SOL    HW135564   0.124   1.536   3.681  0.1932  0.4539  0.5147
 7977SOL    HW235565   0.202   1.573   3.793 -1.2324  3.9322 -0.7571
 7978SOL     OW35566   1.098   3.310   5.333 -0.2996 -0.1298 -0.2272
 7978SOL    HW135567   1.003   3.295   5.329 -0.2373  0.1409 -2.8258
 7978SOL    HW235568   1.115   3.222   5.300 -1.3202  0.2894 -1.8282
 7979SOL     OW35569   1.956   2.304  14.790  0.1127 -0.1724 -0.0389
 7979SOL    HW135570   1.867   2.316  14.757 -0.0165 -1.2643 -0.1054
 7979SOL    HW235571   1.953   2.209  14.774 -0.0118 -0.4293  1.4610
 7980SOL     OW35572   1.528   3.423  14.199  0.2611 -0.1633  0.2904
 7980SOL    HW135573   1.558   3.464  14.280 -0.0093  0.6825 -0.0369
 7980SOL    HW235574   1.605   3.419  14.142  0.8801 -1.2439  1.1968
 7981SOL     OW35575   1.937   0.570   7.585  0.4160  0.8489  0.0651
 7981SOL    HW135576   2.007   0.506   7.601 -2.2225 -1.6858  1.5726
 7981SOL    HW235577   1.988   0.643   7.551  0.9850  0.5676  0.3247
 7982SOL     OW35578   3.721   1.871   2.466  0.0705  0.0926 -0.1450
 7982SOL    HW135579   3.776   1.923   2.525 -0.1519 -1.7397  1.7023
 7982SOL    HW235580   3.792   1.859   2.403  1.7263 -0.9974  1.8934
 7983SOL     OW35581   3.469   4.674   5.312  0.7116  0.6660 -0.0241
 7983SOL    HW135582   3.515   0.004   5.261 -0.0094  0.1590 -1.3317
 7983SOL    HW235583   3.378   4.688   5.287  0.5290  0.7240  0.6777
 7984SOL     OW35584   1.835   3.964   8.247 -0.6414  0.1799 -0.1357
 7984SOL    HW135585   1.901   4.005   8.302  0.2555 -1.3156 -0.0756
 7984SOL    HW235586   1.783   4.039   8.218  0.6358  0.8540 -0.6992
 7985SOL     OW35587   1.890   3.873  11.774  0.7646  0.1190  0.2075
 7985SOL    HW135588   1.817   3.865  11.835 -1.0993  2.5637 -1.7174
 7985SOL    HW235589   1.840   3.843  11.698  1.3258  0.5095 -0.3163
 7986SOL     OW35590   2.774   0.125   4.339  0.2190 -0.0024 -0.1935
 7986SOL    HW135591   2.862   0.162   4.352  1.0874 -2.4601  0.9236
 7986SOL    HW235592   2.758   0.105   4.432  0.2056  0.4081 -0.1056
 7987SOL     OW35593   2.207   0.602   6.176  0.0266 -0.3513  0.2677
 7987SOL    HW135594   2.201   0.664   6.104  0.5542 -0.0264  0.5018
 7987SOL    HW235595   2.157   0.527   6.146 -0.3422  0.0627 -0.1513
 7988SOL     OW35596   1.480   3.049   8.367  0.3533 -0.0385  0.5380
 7988SOL    HW135597   1.574   3.037   8.378  0.5696  1.8212  0.7573
 7988SOL    HW235598   1.462   3.003   8.285  1.9151  1.6422 -0.7636
 7989SOL     OW35599   2.619   2.651   5.990 -0.1543 -0.0667  0.5092
 7989SOL    HW135600   2.685   2.638   5.922  1.4419  1.1096  1.8586
 7989SOL    HW235601   2.617   2.570   6.040  0.1779  0.2575  1.0398
 7990SOL     OW35602   2.492   2.565  11.862  0.0759 -0.3891  0.1067
 7990SOL    HW135603   2.419   2.626  11.870 -0.2774 -0.7458 -0.3492
 7990SOL    HW235604   2.468   2.508  11.935 -1.4310  0.8164  0.5522
 7991SOL     OW35605   4.685   2.984   9.263 -0.0601 -0.5262 -0.0261
 7991SOL    HW135606   0.033   2.995   9.219  1.2669 -0.0123  2.6485
 7991SOL    HW235607   4.641   2.941   9.190 -0.0877  0.6238 -0.6886
 7992SOL     OW35608   3.735   0.620  14.348  0.0348 -0.1250 -0.0483
 7992SOL    HW135609   3.825   0.631  14.318  0.5552  1.0349  1.9564
 7992SOL    HW235610   3.716   0.703  14.391  2.4840 -0.9070  2.5375
 7993SOL     OW35611   3.026   0.428   8.006 -0.1872  0.0723  0.4604
 7993SOL    HW135612   3.114   0.399   7.984 -1.0834 -0.7261 -2.0089
 7993SOL    HW235613   3.015   0.383   8.090  1.9748 -1.2769  0.0203
 7994SOL     OW35614   1.335   0.079   6.306 -0.1808 -0.3621 -0.1300
 7994SOL    HW135615   1.367   0.079   6.396 -0.8509  0.2054  0.1045
 7994SOL    HW235616   1.241   0.068   6.319 -0.4358  0.4317 -1.3085
 7995SOL     OW35617   1.684   0.002   6.596 -0.0664  0.0817  0.1109
 7995SOL    HW135618   1.744   0.058   6.548 -2.5369  0.7815 -2.1218
 7995SOL    HW235619   1.737   4.725   6.675  0.4357  0.3112 -0.1891
 7996SOL     OW35620   4.030   3.094   4.129  0.5313  0.3550  0.0989
 7996SOL    HW135621   4.078   3.165   4.173 -0.3722 -0.2996  2.1419
 7996SOL    HW235622   4.082   3.014   4.135  1.4256  0.9975  1.0488
 7997SOL     OW35623   3.239   2.884   2.659 -0.7085 -0.4117 -0.6285
 7997SOL    HW135624   3.303   2.945   2.695 -1.5190  0.3284 -0.4352
 7997SOL    HW235625   3.154   2.919   2.683  0.1268  1.7563 -0.8297
 7998SOL     OW35626   1.154   3.530   5.516 -0.3017 -0.6386 -0.3278
 7998SOL    HW135627   1.183   3.481   5.593 -3.0960  1.4199  2.0032
 7998SOL    HW235628   1.131   3.460   5.454  1.2617 -1.4097 -0.0523
 7999SOL     OW35629   4.177   2.354   8.255 -0.2495  0.6869  0.4283
 7999SOL    HW135630   4.176   2.436   8.305  0.7267  0.4301  0.8699
 7999SOL    HW235631   4.094   2.315   8.284 -0.3113  0.8300  0.4459
 8000SOL     OW35632   3.869   1.019   4.641  0.5598 -0.3150  0.3534
 8000SOL    HW135633   3.817   0.941   4.626 -0.3061  0.6214 -1.5089
 8000SOL    HW235634   3.943   0.995   4.586  0.8504  0.7946  0.2508
 8001SOL     OW35635   1.524   2.877   7.143 -0.2755  0.0782 -0.1468
 8001SOL    HW135636   1.505   2.853   7.234 -0.2781 -1.2924 -0.5091
 8001SOL    HW235637   1.546   2.968   7.160 -1.2912  0.5867 -1.5278
 8002SOL     OW35638   4.226   4.245   3.401  0.4198  0.3556  0.5687
 8002SOL    HW135639   4.249   4.332   3.434  1.8240 -0.3236  1.3832
 8002SOL    HW235640   4.306   4.225   3.354  0.9663 -1.3263  2.2436
 8003SOL     OW35641   2.683   3.125   3.955 -0.0668 -0.4396 -0.2963
 8003SOL    HW135642   2.604   3.126   4.007  1.0670 -3.4734  1.4703
 8003SOL    HW235643   2.652   3.164   3.873 -0.6339 -3.1224 -1.3584
 8004SOL     OW35644   4.386   2.215   2.524 -0.4358  0.0943 -0.0440
 8004SOL    HW135645   4.461   2.231   2.582 -0.3922  0.4469 -0.2026
 8004SOL    HW235646   4.311   2.253   2.569  0.6339  1.4434  0.6212
 8005SOL     OW35647   0.431   3.015   8.358 -0.2322  0.5560 -0.2273
 8005SOL    HW135648   0.409   2.951   8.427 -0.0571 -0.9655 -1.5780
 8005SOL    HW235649   0.439   2.955   8.284 -1.1365 -2.2487  1.9013
 8006SOL     OW35650   2.175   1.105   5.201 -0.0457 -0.3400 -0.8769
 8006SOL    HW135651   2.156   1.118   5.294  3.7154  0.8726 -0.2892
 8006SOL    HW235652   2.259   1.059   5.200  0.4300  0.4559  2.7419
 8007SOL     OW35653   2.786   2.122   5.117  0.0571 -0.0015 -0.0961
 8007SOL    HW135654   2.868   2.107   5.165 -0.3453 -1.6596  0.0764
 8007SOL    HW235655   2.723   2.091   5.182 -0.1803  0.7251  0.0267
 8008SOL     OW35656   3.511   3.212   7.972  0.4285  0.1335 -0.4819
 8008SOL    HW135657   3.477   3.271   8.039  1.4349  0.3860 -0.1904
 8008SOL    HW235658   3.475   3.128   8.001  1.9873 -0.0410  0.9421
 8009SOL     OW35659   3.775   0.707   5.451  0.0303 -0.0118 -0.1089
 8009SOL    HW135660   3.865   0.697   5.480  0.3810  0.9132 -0.8660
 8009SOL    HW235661   3.787   0.780   5.389 -0.4150 -1.4221 -1.8727
 8010SOL     OW35662   1.742   1.177   6.893 -0.8299  0.2292 -0.1607
 8010SOL    HW135663   1.801   1.246   6.924  0.7189 -0.3280 -1.9059
 8010SOL    HW235664   1.692   1.220   6.825  0.1073  0.8822 -0.4384
 8011SOL     OW35665   3.486   4.547   5.895 -0.0396  0.6299  0.3161
 8011SOL    HW135666   3.530   4.608   5.836  0.7217 -1.1586 -0.9684
 8011SOL    HW235667   3.469   4.469   5.843  0.0008  0.8927 -0.0861
 8012SOL     OW35668   2.500   1.561   3.918  0.0157  0.6102  0.3717
 8012SOL    HW135669   2.406   1.545   3.912 -0.0832  0.8637  1.2742
 8012SOL    HW235670   2.520   1.519   3.834 -0.2339  1.8302 -0.2882
 8013SOL     OW35671   1.923   0.349   5.720 -0.2721 -0.2995 -0.1135
 8013SOL    HW135672   1.919   0.371   5.627  1.4073  2.5655  0.4845
 8013SOL    HW235673   1.841   0.305   5.742  0.7429 -0.7080  2.8744
 8014SOL     OW35674   0.514   4.635  17.147  0.0701 -0.2845 -0.4116
 8014SOL    HW135675   0.592   4.598  17.107 -0.8362 -0.4615 -2.0386
 8014SOL    HW235676   0.451   4.569  17.117 -0.0224 -0.3742 -0.0097
 8015SOL     OW35677   2.899   3.247   3.657  0.3681 -0.0778 -0.1920
 8015SOL    HW135678   2.803   3.248   3.657  0.3995  1.7612  2.0890
 8015SOL    HW235679   2.916   3.340   3.649 -0.1651 -0.1571 -2.2598
 8016SOL     OW35680   3.266   2.819   2.392  0.0347  0.5671 -0.3252
 8016SOL    HW135681   3.248   2.843   2.483  1.4052 -0.2646  0.1602
 8016SOL    HW235682   3.253   2.900   2.342 -1.0068 -0.6914 -2.0888
 8017SOL     OW35683   3.968   4.514  16.877 -0.1945 -0.3103  0.2440
 8017SOL    HW135684   3.946   4.495  16.968 -1.7173  1.3145  0.2095
 8017SOL    HW235685   4.049   4.563  16.887  0.3593 -0.8381 -1.6654
 8018SOL     OW35686   3.648   0.872   7.476 -0.2059  0.8330 -0.3631
 8018SOL    HW135687   3.709   0.888   7.404 -0.6306 -2.9453 -1.5493
 8018SOL    HW235688   3.623   0.781   7.456 -0.9261  0.2959  2.9157
 8019SOL     OW35689   3.534   4.368   0.155 -0.2194  0.0076  0.2587
 8019SOL    HW135690   3.567   4.457   0.146 -0.5363  0.0964 -0.0308
 8019SOL    HW235691   3.475   4.374   0.080 -3.2387  1.9121  2.8395
 8020SOL     OW35692   2.262   2.095   8.659 -0.1070 -0.2385  0.8281
 8020SOL    HW135693   2.345   2.144   8.663  0.7854 -1.7652  0.9454
 8020SOL    HW235694   2.234   2.110   8.569  1.6534  0.7278  0.4263
 8021SOL     OW35695   1.698   2.911   8.818  0.1418  0.2334  0.2455
 8021SOL    HW135696   1.668   2.922   8.908  0.3368 -3.5392  0.7611
 8021SOL    HW235697   1.733   2.823   8.830  0.1486 -0.0435 -1.7778
 8022SOL     OW35698   3.970   2.307   8.444 -0.1608 -0.6353  0.3257
 8022SOL    HW135699   3.919   2.262   8.512 -0.1206 -1.0895  0.0516
 8022SOL    HW235700   3.900   2.359   8.404  0.5251  0.2167  0.2462
 8023SOL     OW35701   0.676   3.538   3.798 -0.5296 -0.0444  0.1800
 8023SOL    HW135702   0.639   3.594   3.730  0.2238  2.5724  1.9564
 8023SOL    HW235703   0.729   3.596   3.853  1.0506 -1.7045  0.4250
 8024SOL     OW35704   3.987   2.603   3.148  0.5164 -0.1617  0.0631
 8024SOL    HW135705   3.955   2.597   3.238 -0.7223 -1.5370 -0.4669
 8024SOL    HW235706   4.080   2.597   3.169  0.2328 -1.0801  1.0012
 8025SOL     OW35707   2.569   2.408  12.277 -0.3976  0.1438  0.7927
 8025SOL    HW135708   2.579   2.474  12.345  0.0056  0.6939  0.1940
 8025SOL    HW235709   2.475   2.399  12.260 -0.1684 -2.5667  0.8901
 8026SOL     OW35710   1.048   2.425  13.486  0.0271 -1.1416 -0.4301
 8026SOL    HW135711   0.979   2.470  13.534 -0.2818 -1.7188 -0.3393
 8026SOL    HW235712   1.076   2.488  13.419 -0.9308  1.4019  1.5783
 8027SOL     OW35713   2.385   0.521   1.566  0.1944  0.2200  0.4106
 8027SOL    HW135714   2.479   0.527   1.578 -0.0560  1.7200  1.6375
 8027SOL    HW235715   2.368   0.483   1.480 -2.3918 -1.4971  1.6699
 8028SOL     OW35716   2.052   2.511  14.978  0.7214 -0.0716  0.2904
 8028SOL    HW135717   2.062   2.453  14.902  3.7388  1.0010 -0.1383
 8028SOL    HW235718   1.967   2.475  15.005 -0.1660  0.4377 -1.7811
 8029SOL     OW35719   3.346   3.254   2.480 -0.5402 -0.1166  0.3018
 8029SOL    HW135720   3.398   3.334   2.476 -2.3769  1.0053 -1.0256
 8029SOL    HW235721   3.327   3.246   2.573 -0.6981 -1.3631  0.1672
 8030SOL     OW35722   3.288   3.386  14.270  0.2797  0.0655  0.0982
 8030SOL    HW135723   3.296   3.292  14.285  2.8896 -0.0612 -2.1171
 8030SOL    HW235724   3.336   3.393  14.188  0.0586 -0.7729 -0.1035
 8031SOL     OW35725   4.198   1.499   7.621  0.3346  0.4893 -0.1745
 8031SOL    HW135726   4.157   1.584   7.603  1.1631  0.4043 -2.4478
 8031SOL    HW235727   4.181   1.461   7.534  1.3520 -1.6907  0.5769
 8032SOL     OW35728   1.758   1.163   2.589 -0.2088 -0.3044  0.7516
 8032SOL    HW135729   1.670   1.171   2.552  0.3924 -1.8288 -1.0228
 8032SOL    HW235730   1.745   1.205   2.674 -0.3797  1.8384 -0.3369
 8033SOL     OW35731   2.861   2.765   6.896 -0.0528  0.2394  0.3731
 8033SOL    HW135732   2.852   2.683   6.943 -0.1671 -0.3702 -0.7040
 8033SOL    HW235733   2.774   2.762   6.856  0.2152 -2.2838  0.0247
 8034SOL     OW35734   3.136   4.313  12.460 -0.1616 -0.2855  0.3665
 8034SOL    HW135735   3.093   4.343  12.379 -0.2769  0.3236  0.6508
 8034SOL    HW235736   3.057   4.316  12.514  0.1459 -2.0241  0.9007
 8035SOL     OW35737   0.745   2.654   3.214  0.2693  0.4054 -0.1142
 8035SOL    HW135738   0.826   2.616   3.248 -0.0423  0.3427  0.5707
 8035SOL    HW235739   0.775   2.716   3.148 -0.5911 -1.8575 -2.6136
 8036SOL     OW35740   2.102   4.114   1.604 -0.1393  0.3062  0.7680
 8036SOL    HW135741   2.060   4.104   1.690  0.0016  1.5388  0.9727
 8036SOL    HW235742   2.053   4.046   1.557  0.7924 -0.4028  0.8246
 8037SOL     OW35743   3.199   1.208  16.757  0.2386 -0.5689  0.0619
 8037SOL    HW135744   3.203   1.112  16.760  2.4563 -0.5372 -2.0612
 8037SOL    HW235745   3.108   1.220  16.728  0.2639  0.8023  0.5727
 8038SOL     OW35746   2.325   1.488   2.899 -0.2940  0.0270  0.1264
 8038SOL    HW135747   2.396   1.488   2.834 -0.4546  0.1392 -0.0466
 8038SOL    HW235748   2.308   1.395   2.912 -2.1156  0.5386  1.2119
 8039SOL     OW35749   1.655   2.065   6.257  0.3563  0.3274  0.3022
 8039SOL    HW135750   1.681   2.021   6.176 -1.4885 -2.8036  1.3958
 8039SOL    HW235751   1.663   1.997   6.324  1.6832  0.3634  0.1855
 8040SOL     OW35752   3.379   3.503   7.434  0.1749 -0.6020 -0.2511
 8040SOL    HW135753   3.306   3.538   7.383 -0.2891 -1.5370 -0.2149
 8040SOL    HW235754   3.411   3.435   7.376  0.7685  1.7726 -2.6942
 8041SOL     OW35755   1.329   1.759   4.587 -0.3858  0.0857  0.1125
 8041SOL    HW135756   1.407   1.810   4.607 -2.0561  2.3916  0.7820
 8041SOL    HW235757   1.286   1.814   4.522  2.8961  1.9047 -0.4942
 8042SOL     OW35758   3.667   3.697   5.818 -0.2407 -0.6125 -0.1856
 8042SOL    HW135759   3.727   3.641   5.768 -1.6702 -1.1054 -1.3566
 8042SOL    HW235760   3.694   3.683   5.909 -0.9462 -0.2607  0.0709
 8043SOL     OW35761   2.753   1.524   7.994 -0.4764 -0.1364  0.6118
 8043SOL    HW135762   2.735   1.554   8.083 -0.2038 -0.8258  0.8975
 8043SOL    HW235763   2.785   1.436   8.014 -1.7097 -1.0227 -1.3627
 8044SOL     OW35764   2.116   1.595   0.584  0.1923 -0.3235 -0.0791
 8044SOL    HW135765   2.084   1.628   0.668  0.4112 -1.4762  0.4617
 8044SOL    HW235766   2.210   1.610   0.582  0.5797 -2.8567 -0.4723
 8045SOL     OW35767   0.994   2.920   3.608 -0.3683  0.3728 -0.6417
 8045SOL    HW135768   1.045   2.985   3.657 -0.5231  0.4595 -0.5981
 8045SOL    HW235769   0.923   2.894   3.667  1.1315 -0.7315  0.6868
 8046SOL     OW35770   0.397   2.259   6.502 -0.4470  0.3047  0.0782
 8046SOL    HW135771   0.489   2.283   6.495 -0.6368  0.2907 -2.4079
 8046SOL    HW235772   0.410   2.168   6.474  0.4251  0.7937 -1.0677
 8047SOL     OW35773   2.301   2.903   3.072 -0.0355  0.1202 -0.2180
 8047SOL    HW135774   2.276   2.835   3.010 -0.6498 -0.1905  0.3681
 8047SOL    HW235775   2.375   2.854   3.110 -0.7978 -0.6642  0.2549
 8048SOL     OW35776   3.270   0.787  10.685 -0.1394 -0.2983  0.3557
 8048SOL    HW135777   3.236   0.738  10.611 -1.5050  2.8021 -1.0920
 8048SOL    HW235778   3.338   0.721  10.694 -0.9179 -1.2894 -1.0797
 8049SOL     OW35779   4.325   4.469   3.540 -0.3486 -0.0630 -0.5493
 8049SOL    HW135780   4.420   4.477   3.548 -0.4160 -0.2853  0.5671
 8049SOL    HW235781   4.299   4.478   3.632 -0.6096  0.2047 -0.6511
 8050SOL     OW35782   1.800   4.687   2.572 -0.5447  0.4946  0.4095
 8050SOL    HW135783   1.725   4.633   2.596  0.0015 -0.2024  0.5605
 8050SOL    HW235784   1.801   4.680   2.476 -0.9378 -1.9372  0.5848
 8051SOL     OW35785   3.177   0.269   0.508  0.0243 -0.1273 -0.4265
 8051SOL    HW135786   3.176   0.236   0.598  1.3685 -0.8886 -0.6949
 8051SOL    HW235787   3.142   0.355   0.534 -1.0187 -0.9965  1.0547
 8052SOL     OW35788   3.025   4.584   7.869  0.6854 -0.6149  0.3115
 8052SOL    HW135789   3.000   4.533   7.946 -2.0744 -0.2609 -0.3402
 8052SOL    HW235790   3.072   4.519   7.817 -0.5537 -0.8611 -0.5136
 8053SOL     OW35791   0.871   2.263   5.881 -0.5175 -0.1115  0.5337
 8053SOL    HW135792   0.926   2.274   5.804 -1.1275 -2.2955 -0.2076
 8053SOL    HW235793   0.930   2.223   5.944  3.3293  3.2709 -0.9239
 8054SOL     OW35794   3.328   2.681   3.929 -0.4665  0.0625 -0.7995
 8054SOL    HW135795   3.241   2.719   3.914 -1.1165 -0.6487  1.2383
 8054SOL    HW235796   3.347   2.638   3.845  0.2265  1.6696 -1.4765
 8055SOL     OW35797   1.960   2.085   2.643 -0.0828 -0.1187 -0.2113
 8055SOL    HW135798   2.003   2.103   2.726  1.8674 -2.6039 -0.6626
 8055SOL    HW235799   1.874   2.125   2.647 -0.2640 -0.5189 -0.1008
 8056SOL     OW35800   1.004   4.661   6.533 -0.3449 -0.1257 -0.3454
 8056SOL    HW135801   0.922   4.651   6.485 -0.8292  0.9783  0.2610
 8056SOL    HW235802   0.993   0.018   6.553  1.1313 -0.4414  1.9863
 8057SOL     OW35803   2.537   3.817   4.446  0.7387 -0.3277 -0.0499
 8057SOL    HW135804   2.492   3.878   4.387  1.1874  1.1634  1.1524
 8057SOL    HW235805   2.484   3.739   4.431 -0.7632  0.7814 -0.5171
 8058SOL     OW35806   2.232   2.682  11.877  0.2728 -0.2004 -0.0752
 8058SOL    HW135807   2.165   2.643  11.934 -1.5789  1.3797 -1.1765
 8058SOL    HW235808   2.193   2.769  11.871 -0.6136 -0.6881 -1.2994
 8059SOL     OW35809   4.158   0.769   2.383 -0.5264  0.2911  0.0292
 8059SOL    HW135810   4.194   0.836   2.440 -0.9344 -0.3508  1.0331
 8059SOL    HW235811   4.233   0.721   2.348 -2.2736 -2.6462  0.2495
 8060SOL     OW35812   2.670   0.081   8.886 -1.0416 -0.2410  0.7971
 8060SOL    HW135813   2.657   0.012   8.951  0.7028 -1.2549  0.0704
 8060SOL    HW235814   2.631   0.151   8.937 -0.7418  0.9623 -0.6426
 8061SOL     OW35815   0.244   3.395   8.598  0.2505 -0.2481 -0.9704
 8061SOL    HW135816   0.267   3.419   8.688 -2.9894 -0.6330 -0.0172
 8061SOL    HW235817   0.331   3.379   8.562  0.5488 -0.9757  0.0586
 8062SOL     OW35818   0.216   0.325   4.218  0.0532  0.0274  0.1165
 8062SOL    HW135819   0.295   0.369   4.248  0.9701 -2.0909  0.7782
 8062SOL    HW235820   0.211   0.350   4.126 -0.9414  1.8587  0.6527
 8063SOL     OW35821   4.306   0.672   4.895  0.0841  0.3595 -0.6641
 8063SOL    HW135822   4.222   0.652   4.854 -0.2141 -0.8601  0.5551
 8063SOL    HW235823   4.318   0.766   4.881 -0.7467 -0.1194 -4.6010
 8064SOL     OW35824   0.777   2.125   8.463  0.1844  0.3452 -0.2822
 8064SOL    HW135825   0.803   2.183   8.391 -0.8290 -1.8016 -2.4188
 8064SOL    HW235826   0.845   2.136   8.529  0.2758  0.7494 -0.4459
 8065SOL     OW35827   4.295   3.615  15.201  0.4480  0.3175  0.1138
 8065SOL    HW135828   4.325   3.701  15.173 -1.2993  0.5618 -1.0354
 8065SOL    HW235829   4.215   3.642  15.247 -0.0700 -0.4882 -0.3064
 8066SOL     OW35830   0.728   0.236   4.057 -0.3281 -0.4365 -0.6628
 8066SOL    HW135831   0.743   0.144   4.081 -1.3043  0.0278  1.6901
 8066SOL    HW235832   0.814   0.247   4.017 -0.4808 -1.6986 -1.3445
 8067SOL     OW35833   3.529   2.026  11.482 -0.4255  0.2172 -0.0795
 8067SOL    HW135834   3.613   2.050  11.521 -1.5236  1.4148  1.5848
 8067SOL    HW235835   3.546   1.977  11.402 -0.9665 -1.5973  0.9081
 8068SOL     OW35836   0.620   0.201  12.394  0.5538 -0.4486 -0.5552
 8068SOL    HW135837   0.601   0.207  12.300 -1.3919  0.5669 -0.0887
 8068SOL    HW235838   0.639   0.291  12.418  1.6950 -0.5900 -0.9478
 8069SOL     OW35839   4.291   1.920   6.364  0.2463 -0.1071 -0.6072
 8069SOL    HW135840   4.250   2.005   6.348  2.5333  0.8999 -1.0661
 8069SOL    HW235841   4.291   1.886   6.274 -1.4429 -0.5664 -0.4314
 8070SOL     OW35842   3.964   3.607   0.564  0.6435  0.3446  0.0799
 8070SOL    HW135843   3.971   3.659   0.484 -0.0814 -1.9273 -1.4524
 8070SOL    HW235844   3.886   3.555   0.544 -0.1162  1.5539 -0.0949
 8071SOL     OW35845   2.863   4.434   1.643  0.0377 -0.2525 -0.1775
 8071SOL    HW135846   2.808   4.357   1.655  1.4370 -1.2383 -0.1279
 8071SOL    HW235847   2.877   4.453   1.736 -1.2535  0.3614 -0.1084
 8072SOL     OW35848   4.402   0.605   1.845 -0.4360  0.2109  0.8162
 8072SOL    HW135849   4.315   0.610   1.807 -0.7720 -2.8525  1.1995
 8072SOL    HW235850   4.463   0.649   1.786 -1.6435  0.2113 -0.4170
 8073SOL     OW35851   2.702   2.897  12.872  0.2004  0.5025 -0.4825
 8073SOL    HW135852   2.641   2.836  12.914  2.0398  1.2195  3.2209
 8073SOL    HW235853   2.675   2.883  12.781 -0.9369  2.2982 -0.4195
 8074SOL     OW35854   0.981   1.326   7.607 -0.2606  0.2401 -0.3537
 8074SOL    HW135855   1.075   1.338   7.594  0.1642 -0.0783  2.3152
 8074SOL    HW235856   0.957   1.416   7.627 -0.2860  0.1051  0.2466
 8075SOL     OW35857   3.662   2.000   1.994 -0.1534 -0.5904 -0.3889
 8075SOL    HW135858   3.649   2.018   2.088 -1.0882 -1.2801 -0.3860
 8075SOL    HW235859   3.694   2.087   1.971 -1.6020  0.7979  2.8824
 8076SOL     OW35860   4.470   0.814   2.042 -0.0796  0.3112 -0.1334
 8076SOL    HW135861   4.460   0.752   1.969 -0.0951 -1.0025  0.9864
 8076SOL    HW235862   4.478   0.893   1.989  0.4404  1.5904  1.8508
 8077SOL     OW35863   0.193   1.294   6.801 -0.0587 -0.1514 -0.1361
 8077SOL    HW135864   0.254   1.286   6.727  0.5353 -0.4659  0.3836
 8077SOL    HW235865   0.142   1.213   6.790  1.7473 -1.1841 -0.9170
 8078SOL     OW35866   1.121   4.514   4.690  0.1250  0.2851  0.1456
 8078SOL    HW135867   1.026   4.507   4.684  0.0511  2.5611 -1.1279
 8078SOL    HW235868   1.158   4.488   4.606  0.4595  2.3904 -0.3678
 8079SOL     OW35869   0.486   0.473   4.857 -0.0379 -0.3790 -0.4612
 8079SOL    HW135870   0.439   0.465   4.774 -0.8921 -2.2844  0.2019
 8079SOL    HW235871   0.500   0.379   4.869  0.4588 -0.2038  0.3532
 8080SOL     OW35872   2.570   1.281  16.735 -0.4683  0.0922 -0.2798
 8080SOL    HW135873   2.574   1.190  16.765  0.2160  1.0332  2.5083
 8080SOL    HW235874   2.499   1.314  16.789 -0.2796  2.1987 -1.3205
 8081SOL     OW35875   3.485   1.741   6.209  0.3533  0.2381  0.0221
 8081SOL    HW135876   3.448   1.686   6.277 -0.3324  1.5930  0.7372
 8081SOL    HW235877   3.484   1.823   6.259  0.7382 -0.2494  0.8354
 8082SOL     OW35878   1.117   2.435  15.727  0.3315 -0.8265 -0.0704
 8082SOL    HW135879   1.065   2.448  15.806  1.5448  0.1576  0.5749
 8082SOL    HW235880   1.089   2.511  15.678 -1.3388  0.6637  3.1821
 8083SOL     OW35881   1.404   0.087  16.589 -0.1099 -0.0101  0.2855
 8083SOL    HW135882   1.378   0.082  16.497 -1.1720  0.0142  0.5784
 8083SOL    HW235883   1.492   0.050  16.592 -1.5808 -3.5438  0.0825
 8084SOL     OW35884   2.794   0.776   6.886 -0.5613 -0.7285 -0.6676
 8084SOL    HW135885   2.753   0.862   6.872  0.7297 -0.0038 -0.0087
 8084SOL    HW235886   2.833   0.782   6.973 -1.2939  1.2120 -0.4599
 8085SOL     OW35887   2.321   4.410  16.226 -0.1110 -0.4765 -0.6568
 8085SOL    HW135888   2.283   4.491  16.192 -1.4672 -0.5484  0.6966
 8085SOL    HW235889   2.373   4.433  16.302  1.5301 -1.9527 -1.3158
 8086SOL     OW35890   4.185   0.886   5.961  0.2671 -0.1998  0.5792
 8086SOL    HW135891   4.277   0.864   5.972 -0.1543 -1.8443  0.9669
 8086SOL    HW235892   4.152   0.839   6.039  0.7414  0.4028  1.1393
 8087SOL     OW35893   1.993   2.032   8.017 -0.4989  0.2110 -0.0268
 8087SOL    HW135894   2.058   2.097   8.043 -1.5155  0.7911  1.0694
 8087SOL    HW235895   2.003   2.029   7.921  1.4304  2.0928  0.1051
 8088SOL     OW35896   0.943   2.371  12.638  0.3823 -0.1221  0.3908
 8088SOL    HW135897   0.970   2.326  12.718  0.5243 -0.9925 -0.1546
 8088SOL    HW235898   1.029   2.399  12.606  0.5868 -0.5312  0.5855
 8089SOL     OW35899   1.407   0.251  14.455 -0.0462  0.1860  0.6668
 8089SOL    HW135900   1.407   0.187  14.526  0.4666  0.0486  0.5437
 8089SOL    HW235901   1.372   0.327  14.500 -0.2447  0.1626  0.5513
 8090SOL     OW35902   4.693   2.377   2.449  0.3851  0.3753  0.2318
 8090SOL    HW135903   4.672   2.467   2.423  2.6171  0.9600  0.4712
 8090SOL    HW235904   0.050   2.367   2.430  0.4432  0.8419  0.2667
 8091SOL     OW35905   2.820   2.384   6.451  0.5727  0.0162  0.3692
 8091SOL    HW135906   2.816   2.302   6.501 -1.8317 -1.1513 -1.6901
 8091SOL    HW235907   2.810   2.458   6.510 -0.6885  0.8556 -0.9098
 8092SOL     OW35908   2.900   1.450   6.931  0.3478 -0.0467 -0.0843
 8092SOL    HW135909   2.908   1.372   6.986  0.4750 -0.1872 -0.3028
 8092SOL    HW235910   2.849   1.501   6.994  1.6611 -0.3787  1.2428
 8093SOL     OW35911   0.114   2.616   1.113 -0.3180 -0.5006  0.1983
 8093SOL    HW135912   0.197   2.575   1.139 -0.1161  0.7151  1.4453
 8093SOL    HW235913   0.072   2.542   1.069  0.4406 -0.3682 -0.7379
 8094SOL     OW35914   0.963   3.593  11.455 -0.3961 -0.3649 -0.6368
 8094SOL    HW135915   0.892   3.643  11.415 -0.9189  1.3893  2.4847
 8094SOL    HW235916   0.956   3.504  11.420  1.7779 -1.2365  1.1408
 8095SOL     OW35917   2.685   0.575   8.102 -0.0090  0.3190 -0.2192
 8095SOL    HW135918   2.643   0.626   8.032  0.5717 -1.2922 -1.7492
 8095SOL    HW235919   2.627   0.595   8.175 -0.8259  0.9471 -1.0359
 8096SOL     OW35920   2.058   3.464   1.846 -0.0745 -0.0763  0.3822
 8096SOL    HW135921   2.102   3.549   1.849 -0.5089  0.1843 -0.8008
 8096SOL    HW235922   2.125   3.411   1.803 -1.0259  0.6893 -2.0140
 8097SOL     OW35923   0.883   2.967   5.529  0.2392 -0.5486 -0.3840
 8097SOL    HW135924   0.850   2.891   5.577  3.0403 -0.1081  2.2480
 8097SOL    HW235925   0.959   2.925   5.488  0.3012 -0.8771  0.0664
 8098SOL     OW35926   2.400   3.868   7.025  0.1687  0.5117  0.2171
 8098SOL    HW135927   2.434   3.947   7.067 -1.0165  0.6694  0.8945
 8098SOL    HW235928   2.480   3.836   6.983 -0.0492  2.3936 -1.6062
 8099SOL     OW35929   0.428   0.742   7.920  0.0135  0.5016  0.1609
 8099SOL    HW135930   0.444   0.834   7.901  2.6016 -0.2286 -1.1141
 8099SOL    HW235931   0.381   0.744   8.004  0.1296 -0.5705  0.2544
 8100SOL     OW35932   2.739   1.240  15.367  0.3038 -0.1257  0.4704
 8100SOL    HW135933   2.704   1.158  15.332  1.5116 -0.5638  0.2963
 8100SOL    HW235934   2.780   1.215  15.450 -1.3652 -1.6499  0.8493
 8101SOL     OW35935   3.724   3.780   8.448 -0.2760  0.1082 -0.3414
 8101SOL    HW135936   3.784   3.705   8.444 -0.1239  0.3142 -1.6976
 8101SOL    HW235937   3.648   3.750   8.399 -0.9485  1.4145 -0.0779
 8102SOL     OW35938   0.816   1.660   2.663  0.3449 -0.3179  0.4902
 8102SOL    HW135939   0.833   1.583   2.609 -0.2767 -0.3269  0.3029
 8102SOL    HW235940   0.745   1.697   2.610  0.1332 -1.9346 -0.3397
 8103SOL     OW35941   0.135   3.251   2.022 -0.2121  0.0364 -0.3430
 8103SOL    HW135942   0.076   3.232   1.949 -1.4917 -1.4524  1.0620
 8103SOL    HW235943   0.078   3.318   2.060 -1.3137 -1.2029  0.2105
 8104SOL     OW35944   0.496   1.437   1.745 -0.5418  0.6547 -0.2296
 8104SOL    HW135945   0.573   1.466   1.794 -0.9227  1.3587 -0.0436
 8104SOL    HW235946   0.499   1.503   1.677 -0.6981 -0.6399 -1.4932
 8105SOL     OW35947   4.238   2.781   1.736 -0.1945  0.5224  0.0823
 8105SOL    HW135948   4.178   2.777   1.661  0.1058  0.6358 -0.1634
 8105SOL    HW235949   4.177   2.805   1.806 -1.6757  1.2942 -1.4548
 8106SOL     OW35950   2.574   3.925   1.223  0.0878  0.3253  0.6517
 8106SOL    HW135951   2.596   3.948   1.132  3.4752 -1.3059  1.0960
 8106SOL    HW235952   2.544   4.013   1.245 -0.2331  0.7067 -1.2562
 8107SOL     OW35953   1.187   0.137   7.478  0.5386  0.4590  0.1706
 8107SOL    HW135954   1.221   0.054   7.443 -1.2567  0.9218 -2.6829
 8107SOL    HW235955   1.176   0.183   7.395  1.9545  1.1969  0.3874
 8108SOL     OW35956   0.365   3.978   5.750 -0.1866  0.4663  0.6044
 8108SOL    HW135957   0.416   3.943   5.823 -0.8719  0.8903  1.2870
 8108SOL    HW235958   0.377   3.904   5.691 -1.0498 -0.0644  1.0946
 8109SOL     OW35959   2.761   0.132   6.901  0.1105  0.0003  0.5143
 8109SOL    HW135960   2.734   0.208   6.850 -2.0235 -0.2548  1.2880
 8109SOL    HW235961   2.853   0.142   6.878 -0.0265 -0.2588 -0.1365
 8110SOL     OW35962   1.693   0.095   2.823 -0.4271  0.1006  0.4168
 8110SOL    HW135963   1.763   0.049   2.774 -0.6572  1.6138 -1.3488
 8110SOL    HW235964   1.742   0.132   2.896 -1.8140  3.3296 -0.2923
 8111SOL     OW35965   0.845   3.185   5.351 -1.1991 -0.0517  0.3718
 8111SOL    HW135966   0.831   3.104   5.400 -0.4095 -0.0357  0.6218
 8111SOL    HW235967   0.816   3.165   5.262 -0.6462  0.2313  0.1315
 8112SOL     OW35968   2.210   2.526   0.818  0.0338 -0.8983  0.4257
 8112SOL    HW135969   2.275   2.459   0.838 -2.3418 -3.5575 -0.8192
 8112SOL    HW235970   2.237   2.555   0.731 -2.1636  2.7692  0.9743
 8113SOL     OW35971   2.344   2.620   4.355 -0.5951  0.0307 -0.0076
 8113SOL    HW135972   2.375   2.558   4.421 -1.3516  0.8902  1.1355
 8113SOL    HW235973   2.318   2.695   4.408  0.1487  1.1317 -1.1805
 8114SOL     OW35974   4.094   4.613  13.338 -0.8698  0.3177  0.1310
 8114SOL    HW135975   4.188   4.627  13.325 -1.2399  2.3227 -0.4527
 8114SOL    HW235976   4.073   4.680  13.403 -1.3810  1.0785 -0.8227
 8115SOL     OW35977   2.277   4.724   3.275  0.1307 -0.1524  0.1652
 8115SOL    HW135978   2.324   0.048   3.332 -0.7583  1.9442 -1.3134
 8115SOL    HW235979   2.214   0.052   3.242 -0.5264  0.4707  2.6198
 8116SOL     OW35980   4.189   2.564   7.995 -0.0290 -0.3524  0.2525
 8116SOL    HW135981   4.252   2.523   8.055  1.0656  0.7937 -0.1096
 8116SOL    HW235982   4.238   2.647   7.992  1.1337 -1.0015  1.3636
 8117SOL     OW35983   0.057   2.234  10.976  0.0519 -0.4433  0.3294
 8117SOL    HW135984   0.000   2.246  11.052 -0.3612  0.4615 -0.1339
 8117SOL    HW235985   4.733   2.251  10.905  0.0838  1.2618  0.7258
 8118SOL     OW35986   4.685   2.230   8.346  0.5325 -0.6703  0.0254
 8118SOL    HW135987   4.609   2.193   8.301  0.5269  0.7522 -1.1323
 8118SOL    HW235988   4.643   2.255   8.428 -1.0917 -2.3647 -0.2793
 8119SOL     OW35989   4.644   0.454  15.759  0.0650 -0.0648 -0.4899
 8119SOL    HW135990   4.684   0.524  15.708  0.5390 -0.5260 -0.7477
 8119SOL    HW235991   4.560   0.463  15.713 -0.7968  2.0710  1.5307
 8120SOL     OW35992   1.947   3.922   9.162  0.1474 -0.0558 -0.0358
 8120SOL    HW135993   1.944   4.018   9.168  0.4030 -0.1740  1.9315
 8120SOL    HW235994   2.033   3.917   9.202 -0.2884  0.1874  0.9294
 8121SOL     OW35995   3.754   1.321   5.284 -0.2870 -0.1757 -0.7908
 8121SOL    HW135996   3.830   1.296   5.230 -1.4224 -1.1958 -1.9147
 8121SOL    HW235997   3.798   1.334   5.368 -0.8975  0.4972 -0.5806
 8122SOL     OW35998   2.032   1.333  15.953 -0.1793  0.0289  0.0431
 8122SOL    HW135999   2.091   1.261  15.975 -1.6345 -1.3690 -0.6886
 8122SOL    HW236000   2.020   1.315  15.860 -0.0021 -0.8397  0.1862
 8123SOL     OW36001   0.303   3.294   9.202 -0.4115 -0.3424  0.6244
 8123SOL    HW136002   0.390   3.320   9.232 -0.7403  1.8584 -0.3209
 8123SOL    HW236003   0.324   3.261   9.114 -3.1702  1.4230 -0.6821
 8124SOL     OW36004   2.570   3.333   2.254  0.1353 -0.1128 -0.0537
 8124SOL    HW136005   2.554   3.345   2.160 -1.1043  2.1833  0.4462
 8124SOL    HW236006   2.616   3.250   2.260  0.9713  0.2018 -1.9905
 8125SOL     OW36007   0.786   0.375  13.872 -0.3209 -0.1885 -0.7000
 8125SOL    HW136008   0.715   0.435  13.892  0.0928  0.4347 -1.1245
 8125SOL    HW236009   0.822   0.356  13.959 -0.8064 -0.4293 -0.5516
 8126SOL     OW36010   4.092   0.818   9.144 -0.6827 -0.0233  0.1205
 8126SOL    HW136011   4.110   0.906   9.111  0.1206 -0.3638 -0.3299
 8126SOL    HW236012   4.083   0.831   9.239  2.5750  2.5976  0.0797
 8127SOL     OW36013   1.940   4.154   9.639  0.1295 -0.5958  0.6487
 8127SOL    HW136014   1.870   4.201   9.595  0.5591  1.2339  1.9093
 8127SOL    HW236015   1.959   4.217   9.709  2.5080 -0.9752  0.3625
 8128SOL     OW36016   1.001   4.338   8.123  0.5479 -0.8590 -0.8750
 8128SOL    HW136017   0.962   4.264   8.170  1.9515 -0.7870  0.3822
 8128SOL    HW236018   1.015   4.405   8.189 -0.3810 -2.3749  0.8748
 8129SOL     OW36019   2.872   1.563   1.336 -0.7377 -0.3776  0.0919
 8129SOL    HW136020   2.825   1.646   1.332  0.0904  0.1745  2.0579
 8129SOL    HW236021   2.927   1.571   1.258  0.0458 -1.3750  0.5393
 8130SOL     OW36022   3.787   2.297  11.499 -0.5749  0.4777  0.4652
 8130SOL    HW136023   3.822   2.229  11.442  0.0437  0.2319  1.1358
 8130SOL    HW236024   3.808   2.375  11.448  1.2215 -1.0171 -1.0797
 8131SOL     OW36025   0.664   2.312   6.239 -0.3978  0.6504 -0.0412
 8131SOL    HW136026   0.746   2.356   6.217 -0.4952  0.6849 -0.3434
 8131SOL    HW236027   0.676   2.279   6.328  0.7561 -0.9724 -0.7952
 8132SOL     OW36028   3.791   4.270  13.131 -0.5335  0.7174 -0.3849
 8132SOL    HW136029   3.811   4.363  13.144  0.3474  0.8000 -2.3531
 8132SOL    HW236030   3.808   4.241  13.221 -0.1305  1.6347 -0.1557
 8133SOL     OW36031   2.877   3.742   6.801 -0.5308 -0.1205 -0.1029
 8133SOL    HW136032   2.937   3.736   6.874 -0.3368 -1.0382 -0.3454
 8133SOL    HW236033   2.924   3.800   6.741 -0.5956  0.7121  0.6439
 8134SOL     OW36034   4.248   0.517  10.983  1.1280  0.1507 -0.2258
 8134SOL    HW136035   4.263   0.426  11.010  3.9509  0.5098 -0.5439
 8134SOL    HW236036   4.206   0.544  11.064  2.4914 -0.8054  0.8008
 8135SOL     OW36037   2.548   0.548   2.909  0.0089  0.1571 -0.2623
 8135SOL    HW136038   2.524   0.592   2.828  0.2720  0.2330 -0.2963
 8135SOL    HW236039   2.553   0.622   2.968  0.0603  1.0373 -1.3754
 8136SOL     OW36040   3.768   0.081   5.229  0.1131  0.1928  0.5354
 8136SOL    HW136041   3.813   4.735   5.212  1.7470  1.5218 -1.5134
 8136SOL    HW236042   3.747   0.075   5.323 -1.0460 -1.6083  0.1561
 8137SOL     OW36043   1.054   2.074   8.746  0.0629  0.1912 -0.2885
 8137SOL    HW136044   1.016   2.122   8.820 -1.0370  0.9893 -1.3869
 8137SOL    HW236045   1.143   2.108   8.754  0.1252 -0.6103  2.7556
 8138SOL     OW36046   0.367   1.609   9.670  0.4731  0.4607 -0.1119
 8138SOL    HW136047   0.423   1.561   9.731  0.7389 -1.8934 -2.2042
 8138SOL    HW236048   0.395   1.697   9.691 -1.7426  1.3491 -0.8516
 8139SOL     OW36049   2.918   0.719   9.214  0.2272 -0.2718 -0.3858
 8139SOL    HW136050   2.931   0.626   9.196  0.5944 -0.4436  0.7324
 8139SOL    HW236051   2.967   0.753   9.139  0.2398 -0.7991 -0.6117
 8140SOL     OW36052   3.929   3.148   8.675  0.2062 -0.3088  0.5830
 8140SOL    HW136053   3.837   3.157   8.652 -0.0678 -2.3654  0.8506
 8140SOL    HW236054   3.935   3.201   8.755 -2.2138 -0.3287  0.7668
 8141SOL     OW36055   3.030   0.911   1.739  0.2301 -0.2070  0.9870
 8141SOL    HW136056   3.074   0.864   1.810  0.5158  0.0002  0.9457
 8141SOL    HW236057   3.053   0.849   1.670 -1.7648 -1.0727  1.1128
 8142SOL     OW36058   1.451   4.275   5.421  0.1295 -0.4122 -0.9426
 8142SOL    HW136059   1.504   4.354   5.411  0.5793 -0.3082  2.1350
 8142SOL    HW236060   1.430   4.279   5.514 -1.0690  1.3649 -1.3085
 8143SOL     OW36061   0.078   2.597   0.718  0.0607 -0.1640 -0.3693
 8143SOL    HW136062   0.088   2.528   0.783 -0.4353  0.2941  0.1969
 8143SOL    HW236063   0.091   2.676   0.771 -0.6025 -1.3471  1.5493
 8144SOL     OW36064   0.505   0.616  15.980 -0.4830 -0.5437  0.3006
 8144SOL    HW136065   0.438   0.662  15.929 -2.6304 -2.0433  1.7710
 8144SOL    HW236066   0.572   0.678  15.952 -1.1510 -1.4211 -3.1667
 8145SOL     OW36067   2.513   0.523  16.880  0.3249  0.2590 -0.5575
 8145SOL    HW136068   2.481   0.537  16.969 -1.2385 -0.4175 -1.0100
 8145SOL    HW236069   2.535   0.430  16.871  0.5039  0.4157 -1.7142
 8146SOL     OW36070   2.961   0.122   2.600  0.4098  0.6993 -1.0920
 8146SOL    HW136071   2.917   0.183   2.659 -0.3591  0.2431 -1.1873
 8146SOL    HW236072   3.053   0.142   2.616  0.6132 -3.0046  2.4817
 8147SOL     OW36073   1.639   2.636  17.346 -0.0219 -0.2816 -0.4212
 8147SOL    HW136074   1.560   2.647  17.294 -0.1120  1.9706  0.1898
 8147SOL    HW236075   1.637   2.542  17.364 -0.5448 -0.4480 -1.3551
 8148SOL     OW36076   1.500   0.639   3.604  0.2216  0.0291 -0.2178
 8148SOL    HW136077   1.535   0.552   3.587 -0.8108 -0.4247 -0.0449
 8148SOL    HW236078   1.526   0.677   3.520 -0.9331  2.2868  0.4449
 8149SOL     OW36079   0.179   3.306   6.342 -0.1626 -0.0719  0.1610
 8149SOL    HW136080   0.248   3.258   6.296 -0.3550  1.3288 -1.5891
 8149SOL    HW236081   0.220   3.390   6.324  2.6967 -0.8836  2.8403
 8150SOL     OW36082   1.028   3.525   7.578  0.2663 -0.9443  0.1492
 8150SOL    HW136083   0.964   3.458   7.553  0.7977 -1.3282 -0.1904
 8150SOL    HW236084   1.073   3.545   7.496  3.1274 -0.2312  1.8784
 8151SOL     OW36085   2.518   2.006   2.776 -0.2878 -0.0351 -0.4224
 8151SOL    HW136086   2.514   2.074   2.709 -1.6091  0.0248 -0.2684
 8151SOL    HW236087   2.524   2.071   2.847 -2.4715 -0.8511  0.5061
 8152SOL     OW36088   1.356   1.055   5.131  0.1445 -0.1636  0.3949
 8152SOL    HW136089   1.372   0.986   5.195 -0.8046  1.2648  2.1899
 8152SOL    HW236090   1.287   1.011   5.081 -0.6827 -2.0322  3.1643
 8153SOL     OW36091   1.296   1.039   2.562 -0.3378 -0.4129  0.4043
 8153SOL    HW136092   1.295   1.133   2.542 -1.5616 -0.8153 -1.4423
 8153SOL    HW236093   1.359   1.044   2.634 -1.3905  2.0041  1.1772
 8154SOL     OW36094   2.141   4.512   1.967  0.6245  0.2793 -0.3946
 8154SOL    HW136095   2.090   4.511   1.887 -1.8419 -1.5999  1.2198
 8154SOL    HW236096   2.200   4.587   1.952  0.0341  0.5350 -1.4231
 8155SOL     OW36097   0.909   2.963   0.597  0.4500  0.7372  0.0400
 8155SOL    HW136098   0.910   3.038   0.537 -1.6246  2.9685  2.7984
 8155SOL    HW236099   0.819   2.932   0.594  0.4699  0.6986 -0.1721
 8156SOL     OW36100   3.830   1.391  13.155 -0.0415 -0.3590 -0.3938
 8156SOL    HW136101   3.826   1.392  13.251  1.4548 -1.8983 -0.3160
 8156SOL    HW236102   3.881   1.470  13.140  0.0244 -0.6904 -1.8990
 8157SOL     OW36103   0.209   3.802  11.151 -0.6172 -0.0598  0.5146
 8157SOL    HW136104   0.247   3.775  11.235  1.4514  0.3594 -0.2988
 8157SOL    HW236105   0.115   3.798  11.169 -0.0489  1.4023  3.7979
 8158SOL     OW36106   4.172   4.605   5.389  0.0817 -0.0818 -0.1420
 8158SOL    HW136107   4.220   4.688   5.392 -1.0727  0.5966 -0.4232
 8158SOL    HW236108   4.173   4.569   5.478 -0.3896  0.1712 -0.0355
 8159SOL     OW36109   1.484   4.079   0.503 -0.1536  0.0651  0.3585
 8159SOL    HW136110   1.520   4.075   0.414  1.0833  3.3792  0.7051
 8159SOL    HW236111   1.546   4.035   0.562  0.3144 -1.2239 -1.0877
 8160SOL     OW36112   0.166   4.053   0.353 -0.0217 -0.2481 -0.1879
 8160SOL    HW136113   0.219   4.013   0.284  0.7706 -1.4562  1.1593
 8160SOL    HW236114   0.237   4.088   0.406 -2.3109  1.6373  1.6609
 8161SOL     OW36115   0.866   3.638   5.641  0.0692 -0.0853  0.5423
 8161SOL    HW136116   0.930   3.644   5.712 -0.7989  1.3666  1.1929
 8161SOL    HW236117   0.908   3.567   5.592  0.1248  0.5803 -0.3728
 8162SOL     OW36118   3.381   3.658  14.973  0.1642 -0.0888  0.0441
 8162SOL    HW136119   3.399   3.656  14.879 -1.5185 -0.5662 -0.2840
 8162SOL    HW236120   3.425   3.740  14.991 -2.8688  2.5504 -4.5966
 8163SOL     OW36121   2.543   1.876   6.395  0.0590 -0.2404 -0.0095
 8163SOL    HW136122   2.620   1.900   6.343 -0.1409 -2.0385 -1.1170
 8163SOL    HW236123   2.511   1.965   6.415  0.2882 -0.0346 -0.5597
 8164SOL     OW36124   4.172   0.234   6.816 -0.1064  0.0609  0.1807
 8164SOL    HW136125   4.142   0.183   6.741 -0.8791 -2.1182  1.9501
 8164SOL    HW236126   4.152   0.169   6.884 -1.4421  0.3009  0.0156
 8165SOL     OW36127   4.317   4.304   7.878  0.1363  0.0467  0.0049
 8165SOL    HW136128   4.401   4.343   7.854  0.3008 -1.9731 -2.6936
 8165SOL    HW236129   4.287   4.372   7.939  1.0195 -1.6840  2.3987
 8166SOL     OW36130   1.799   1.201   0.352 -0.9150  0.7304 -0.2006
 8166SOL    HW136131   1.818   1.258   0.427 -1.1445 -0.8089  1.0156
 8166SOL    HW236132   1.766   1.268   0.292 -3.3609  1.4079  1.9038
 8167SOL     OW36133   2.636   3.164  15.258  0.0572  0.1647 -0.0205
 8167SOL    HW136134   2.708   3.108  15.287 -0.0577  0.1087  0.1567
 8167SOL    HW236135   2.655   3.239  15.315  0.6307 -0.1934  0.2620
 8168SOL     OW36136   4.716   0.330   4.075 -0.4856 -0.3833  0.3061
 8168SOL    HW136137   4.683   0.334   4.165 -0.0517  2.6574  0.3120
 8168SOL    HW236138   4.719   0.234   4.067  0.6023 -0.3770  0.6472
 8169SOL     OW36139   2.517   0.232   7.329  0.7353  0.4965  0.3276
 8169SOL    HW136140   2.598   0.257   7.374  1.3912  1.0111 -1.1449
 8169SOL    HW236141   2.470   0.307   7.365 -0.7800  0.0529 -0.7505
 8170SOL     OW36142   3.918   0.556   7.516 -0.1460 -0.4445  0.1284
 8170SOL    HW136143   3.965   0.515   7.589 -0.6976 -1.2514  0.0266
 8170SOL    HW236144   3.968   0.516   7.445  0.7856  3.5968 -1.4727
 8171SOL     OW36145   0.063   4.312   8.540 -0.4915 -0.1531  0.1027
 8171SOL    HW136146   0.043   4.233   8.489 -0.4991  0.8583 -1.4500
 8171SOL    HW236147   4.725   4.317   8.600  0.1263 -0.8525  0.9323
 8172SOL     OW36148   1.333   0.043   0.792  0.1069  0.5435  0.3129
 8172SOL    HW136149   1.319   0.129   0.831  0.6031  1.3490 -1.3012
 8172SOL    HW236150   1.408   0.064   0.737 -1.8907  1.7145 -1.9767
 8173SOL     OW36151   1.511   2.783   1.538 -0.4497  0.4352  0.4791
 8173SOL    HW136152   1.576   2.802   1.471 -1.2115  2.0127  0.1913
 8173SOL    HW236153   1.530   2.842   1.611  1.5811  0.0921  0.2315
 8174SOL     OW36154   1.781   1.178   5.907 -0.4011  0.3380 -0.3026
 8174SOL    HW136155   1.728   1.102   5.933  0.4612 -0.2359 -0.2274
 8174SOL    HW236156   1.827   1.154   5.827 -1.1479  0.2924 -0.7198
 8175SOL     OW36157   4.073   3.819  13.812  0.2456 -0.3026 -0.1507
 8175SOL    HW136158   4.030   3.903  13.832  0.7313  0.0142 -0.4256
 8175SOL    HW236159   4.006   3.752  13.815 -0.5347  0.4062 -1.7058
 8176SOL     OW36160   0.227   0.707   7.308 -0.0641 -0.3174  0.0766
 8176SOL    HW136161   0.284   0.713   7.232  4.3092  2.0811  3.5062
 8176SOL    HW236162   0.154   0.661   7.265  0.5819 -0.8441 -0.4582
 8177SOL     OW36163   2.641   0.921  17.520 -0.2748 -0.5594 -0.0056
 8177SOL    HW136164   2.640   0.909  17.615 -1.3999 -2.8191 -0.2963
 8177SOL    HW236165   2.556   0.894  17.483 -0.1600 -0.1474 -0.5784
 8178SOL     OW36166   3.646   2.026   3.814 -0.5540 -0.3536  0.3773
 8178SOL    HW136167   3.631   1.931   3.822  1.7682 -0.5758  1.9526
 8178SOL    HW236168   3.715   2.054   3.874  0.4053  1.9782 -1.8477
 8179SOL     OW36169   4.690   4.381  10.816  0.0242  0.3449 -0.4982
 8179SOL    HW136170   4.667   4.330  10.739  1.2208  1.5305 -1.6277
 8179SOL    HW236171   0.017   4.323  10.860 -1.6120  0.0568  1.5096
 8180SOL     OW36172   2.788   1.592   8.381  0.3977 -0.4017 -0.0282
 8180SOL    HW136173   2.880   1.607   8.361  0.5076 -1.0419  0.0180
 8180SOL    HW236174   2.759   1.677   8.415 -0.3105 -0.3035 -0.8682
 8181SOL     OW36175   1.062   3.985  11.376 -0.6303  0.0209 -0.0790
 8181SOL    HW136176   1.116   4.063  11.370 -2.8970  1.7158  1.3316
 8181SOL    HW236177   1.123   3.927  11.331 -0.9525 -1.3131  1.1824
 8182SOL     OW36178   0.045   0.551   6.485 -0.0561  0.1803 -0.0500
 8182SOL    HW136179   0.086   0.523   6.403 -0.0105  0.8174 -0.2405
 8182SOL    HW236180   0.016   0.469   6.524  0.3613  0.2713  0.4534
 8183SOL     OW36181   0.836   0.437   3.807  0.0505 -0.2184 -0.2235
 8183SOL    HW136182   0.813   0.348   3.783  1.0624 -0.7449  0.7829
 8183SOL    HW236183   0.924   0.430   3.844  0.5467 -1.0188 -1.5597
 8184SOL     OW36184   0.624   1.563  15.370  0.1697 -0.1736 -0.8472
 8184SOL    HW136185   0.608   1.517  15.287 -2.4347  1.1765 -1.1151
 8184SOL    HW236186   0.691   1.627  15.347  0.7938 -1.5122 -2.7797
 8185SOL     OW36187   0.925   1.587   7.667 -0.5157  0.0155 -0.0059
 8185SOL    HW136188   0.924   1.670   7.620 -0.4989 -0.1834 -0.3599
 8185SOL    HW236189   0.926   1.616   7.758  0.1126 -0.6961  0.2228
 8186SOL     OW36190   1.851   3.786   4.203  0.0161  0.2608 -0.2725
 8186SOL    HW136191   1.787   3.753   4.266  0.7117 -0.0699  0.2594
 8186SOL    HW236192   1.899   3.858   4.243  0.2285  0.4996 -0.9645
 8187SOL     OW36193   2.963   3.596  14.064 -0.8535  0.6322 -0.2269
 8187SOL    HW136194   3.023   3.620  13.992 -0.4059  1.3479  0.3847
 8187SOL    HW236195   2.905   3.672  14.068 -0.0073  1.2865 -0.1491
 8188SOL     OW36196   4.206   0.955   3.629  0.1206 -0.6398 -0.0895
 8188SOL    HW136197   4.181   0.891   3.563 -3.3234 -0.6024  1.1674
 8188SOL    HW236198   4.138   1.022   3.626  0.5949 -0.1833 -0.5514
 8189SOL     OW36199   0.760   4.309   6.340 -0.0462 -0.6027  0.7951
 8189SOL    HW136200   0.667   4.314   6.359  0.0761 -0.0816  1.2567
 8189SOL    HW236201   0.800   4.271   6.418 -1.4473  1.0481  2.3328
 8190SOL     OW36202   1.233   0.269  13.959  0.2103  0.1848 -0.4229
 8190SOL    HW136203   1.288   0.192  13.944 -1.0479 -0.4954 -1.5502
 8190SOL    HW236204   1.186   0.241  14.037  1.4419 -1.1208 -0.1646
 8191SOL     OW36205   3.365   0.767  13.890 -0.1253 -0.3620 -0.3478
 8191SOL    HW136206   3.420   0.842  13.913 -2.3815  0.5580  2.0257
 8191SOL    HW236207   3.308   0.761  13.967 -1.7126 -0.6256 -1.5452
 8192SOL     OW36208   0.020   1.184   2.622  0.0126  0.4260  0.1974
 8192SOL    HW136209   4.711   1.249   2.677 -1.9778  0.0388 -1.0188
 8192SOL    HW236210   0.063   1.253   2.572 -1.1992  0.7295 -0.4250
 8193SOL     OW36211   4.254   1.799   6.796  0.0012  0.8041  0.0338
 8193SOL    HW136212   4.187   1.819   6.731 -0.1581  0.7237  0.1742
 8193SOL    HW236213   4.278   1.708   6.781  0.0787  0.9752 -0.8720
 8194SOL     OW36214   0.077   2.147   8.047 -0.3074 -0.0294  0.6596
 8194SOL    HW136215   4.731   2.187   8.020 -0.0472 -1.6672 -2.4963
 8194SOL    HW236216   0.103   2.207   8.117  1.6906  1.3485 -1.2790
 8195SOL     OW36217   3.270   3.444   7.967 -0.0754  0.4140 -0.3267
 8195SOL    HW136218   3.208   3.372   7.970 -0.0171  0.3132 -1.2403
 8195SOL    HW236219   3.317   3.432   8.049 -0.3932 -0.2544 -0.2460
 8196SOL     OW36220   0.465   4.545   1.826 -0.6897  0.3062 -0.6531
 8196SOL    HW136221   0.524   4.598   1.772  0.3833  0.0940  0.3151
 8196SOL    HW236222   0.463   4.460   1.782  0.4914  0.1881 -0.4711
 8197SOL     OW36223   3.627   2.984   6.933  0.3744  0.7617  0.0631
 8197SOL    HW136224   3.599   3.038   6.859  1.5665 -0.2274 -1.1363
 8197SOL    HW236225   3.722   2.994   6.945  0.5229 -0.1742 -0.2587
 8198SOL     OW36226   3.975   0.543   8.948 -0.0154 -0.1647 -0.4775
 8198SOL    HW136227   3.933   0.607   9.005 -0.7013 -0.3319 -0.7971
 8198SOL    HW236228   4.015   0.598   8.880  0.3361 -0.0139 -0.1516
 8199SOL     OW36229   4.729   3.860   3.969  0.0480  0.4950 -0.0587
 8199SOL    HW136230   0.048   3.792   3.931 -0.5278  0.3365 -0.6195
 8199SOL    HW236231   4.712   3.818   4.054  0.5033  0.6141  0.0911
 8200SOL     OW36232   1.232   4.049   5.608  0.3349 -0.3227  0.0978
 8200SOL    HW136233   1.151   4.070   5.655  0.4887  0.2555  0.1002
 8200SOL    HW236234   1.254   3.965   5.650 -1.7618 -0.7106  0.4173
 8201SOL     OW36235   2.888   3.602  14.499 -0.2710 -0.0121  0.1900
 8201SOL    HW136236   2.951   3.590  14.429 -1.6004  0.1057 -1.0289
 8201SOL    HW236237   2.920   3.549  14.573  0.9786  0.3564 -0.0910
 8202SOL     OW36238   1.765   2.201   1.567 -0.4145 -0.7009  0.1311
 8202SOL    HW136239   1.715   2.158   1.637  0.2119 -0.6288  0.6346
 8202SOL    HW236240   1.711   2.184   1.490 -0.0076 -1.6777  0.0567
 8203SOL     OW36241   1.955   0.834   9.781 -0.5788  0.0094  0.4889
 8203SOL    HW136242   1.956   0.812   9.688  2.0057 -1.5052  0.8802
 8203SOL    HW236243   1.947   0.930   9.775 -1.1037 -0.1030 -0.5347
 8204SOL     OW36244   2.971   2.825  17.254 -0.2154 -0.4806 -0.0735
 8204SOL    HW136245   2.928   2.752  17.299 -1.5556  1.9434  2.5922
 8204SOL    HW236246   2.979   2.880  17.332  0.0170  0.1591 -0.5409
 8205SOL     OW36247   3.511   0.600  11.939  0.1552  0.1473  0.0250
 8205SOL    HW136248   3.549   0.522  11.980 -0.2906 -0.3432 -0.4963
 8205SOL    HW236249   3.530   0.579  11.847  0.2371 -1.8096  0.4792
 8206SOL     OW36250   2.939   2.646  11.670 -0.4508  0.2555 -0.1266
 8206SOL    HW136251   2.903   2.649  11.581 -0.5910 -1.6039 -0.1367
 8206SOL    HW236252   2.860   2.656  11.724 -1.5363 -1.5046 -1.3718
 8207SOL     OW36253   1.473   3.602   2.293  0.2964 -0.0663 -0.1141
 8207SOL    HW136254   1.386   3.636   2.310  0.6302 -0.4341  2.3762
 8207SOL    HW236255   1.440   3.536   2.232 -1.5915 -1.1646  2.0901
 8208SOL     OW36256   3.547   0.464   7.625  0.7227  0.3317  0.0248
 8208SOL    HW136257   3.577   0.501   7.542 -1.4352 -1.7601 -1.6888
 8208SOL    HW236258   3.456   0.437   7.612  0.6425 -1.1129  3.7136
 8209SOL     OW36259   2.959   4.272   5.216  0.1283 -0.2083 -0.6041
 8209SOL    HW136260   3.011   4.266   5.296  0.5411 -1.4560 -0.9552
 8209SOL    HW236261   2.935   4.364   5.216 -0.2662 -0.3106 -1.4717
 8210SOL     OW36262   1.726   4.498   1.726  0.1420  0.7650 -0.0297
 8210SOL    HW136263   1.657   4.559   1.700  0.1781 -0.2157 -2.4302
 8210SOL    HW236264   1.735   4.510   1.821  0.6668  1.3794 -0.1618
 8211SOL     OW36265   1.364   1.973   4.941  0.5056 -0.2843 -0.4842
 8211SOL    HW136266   1.321   1.984   4.857  1.0652  1.1647 -0.5734
 8211SOL    HW236267   1.293   1.983   5.004  0.1449 -2.4822 -0.5585
 8212SOL     OW36268   1.463   1.587  12.849  0.0095  0.1895 -0.8874
 8212SOL    HW136269   1.557   1.591  12.865 -0.2606 -0.9014  1.0450
 8212SOL    HW236270   1.455   1.530  12.773 -2.0500 -1.0607  0.2364
 8213SOL     OW36271   0.515   2.759  12.220  0.5913  0.5013  0.3732
 8213SOL    HW136272   0.505   2.824  12.289  1.8624  1.9238 -0.7815
 8213SOL    HW236273   0.606   2.731  12.233  0.1309 -0.9002  0.5993
 8214SOL     OW36274   0.892   4.004   8.873  0.3666  0.4718  0.3133
 8214SOL    HW136275   0.879   3.988   8.779 -0.5432 -0.9184  0.6714
 8214SOL    HW236276   0.868   3.922   8.916 -0.8346  0.4423 -0.4134
 8215SOL     OW36277   2.842   1.864   9.717 -0.0619  0.2133 -0.5450
 8215SOL    HW136278   2.804   1.931   9.659  0.1539  1.0814  0.3190
 8215SOL    HW236279   2.775   1.797   9.726  0.3429 -0.3837 -1.8637
 8216SOL     OW36280   0.652   0.916   4.576 -0.2499 -0.0877  0.3501
 8216SOL    HW136281   0.738   0.957   4.565  0.6446 -1.7760  1.0701
 8216SOL    HW236282   0.676   0.823   4.580 -2.2522 -0.6272 -0.0112
 8217SOL     OW36283   1.947   1.575   8.627 -0.2467  0.2055 -0.5303
 8217SOL    HW136284   1.892   1.498   8.613  0.0131 -0.1400  0.3523
 8217SOL    HW236285   2.006   1.567   8.552 -1.3603  0.8250 -1.4758
 8218SOL     OW36286   3.300   2.940  11.438 -0.1101 -0.8182 -0.2218
 8218SOL    HW136287   3.300   2.860  11.386 -0.5514  0.6458 -2.5097
 8218SOL    HW236288   3.220   2.984  11.408 -0.1848 -0.7541  0.0692
 8219SOL     OW36289   0.109   0.862   1.799  0.4112  0.2269  0.0918
 8219SOL    HW136290   0.074   0.773   1.801  0.3068  0.2623 -0.2170
 8219SOL    HW236291   0.038   0.907   1.844  0.2760 -2.9436  3.0750
 8220SOL     OW36292   0.420   2.422   1.990  0.0026 -0.4084 -0.2249
 8220SOL    HW136293   0.458   2.343   1.951 -1.7225 -1.5632  0.4143
 8220SOL    HW236294   0.471   2.496   1.959 -0.1680 -0.4387 -0.5844
 8221SOL     OW36295   1.732   2.975   0.821  0.1067 -0.7722  0.1549
 8221SOL    HW136296   1.719   3.043   0.887 -1.6473  0.7127 -1.7273
 8221SOL    HW236297   1.815   2.932   0.842  0.1274 -0.1378  1.3783
 8222SOL     OW36298   3.209   2.381   6.634 -0.2940 -0.1466 -0.2102
 8222SOL    HW136299   3.214   2.361   6.541 -1.7723 -0.7099 -0.1768
 8222SOL    HW236300   3.254   2.465   6.637  2.3647 -1.6219  0.9838
 8223SOL     OW36301   0.673   0.653   7.229 -0.3757 -0.2182 -0.2947
 8223SOL    HW136302   0.731   0.608   7.290 -0.0955 -1.4268 -1.4475
 8223SOL    HW236303   0.735   0.723   7.211 -0.1814  0.2680  2.3070
 8224SOL     OW36304   3.476   3.204   0.394 -0.7788 -0.4965  0.0529
 8224SOL    HW136305   3.431   3.289   0.395  0.7363  0.2942  0.6825
 8224SOL    HW236306   3.496   3.198   0.487 -0.3878  0.1806  0.0142
 8225SOL     OW36307   3.359   3.668   7.836  0.0965  0.3377 -0.5875
 8225SOL    HW136308   3.452   3.652   7.852 -0.5713 -0.1648  2.6620
 8225SOL    HW236309   3.321   3.588   7.871 -0.6671  0.1574 -1.8207
 8226SOL     OW36310   0.298   1.349   7.202 -0.2236  0.1622  0.4834
 8226SOL    HW136311   0.384   1.375   7.233 -0.9213  1.3635  1.3922
 8226SOL    HW236312   0.237   1.384   7.267 -0.8606  0.2068 -0.1270
 8227SOL     OW36313   2.533   0.370   3.558 -0.1929  0.4658 -0.7809
 8227SOL    HW136314   2.610   0.395   3.508 -1.0617  1.3140 -1.7043
 8227SOL    HW236315   2.578   0.332   3.633 -2.1240 -2.3805 -1.1012
 8228SOL     OW36316   3.734   1.367  13.884  0.0027  0.5888 -0.5010
 8228SOL    HW136317   3.689   1.451  13.874  0.6942  1.4138  3.0453
 8228SOL    HW236318   3.793   1.374  13.810  1.2815  1.8314  0.6440
 8229SOL     OW36319   0.558   2.549   4.487  0.4621  0.5039 -0.3212
 8229SOL    HW136320   0.476   2.572   4.443 -0.7993 -0.0716  1.7416
 8229SOL    HW236321   0.606   2.631   4.482  0.6943  0.4608  1.1566
 8230SOL     OW36322   2.907   4.287   3.141 -0.1286 -0.3528 -0.2553
 8230SOL    HW136323   2.840   4.353   3.122 -2.8458 -3.1510 -0.3719
 8230SOL    HW236324   2.932   4.327   3.224 -1.2906  2.0786 -1.0880
 8231SOL     OW36325   0.886   4.261   9.838 -0.1577  0.3244  0.0646
 8231SOL    HW136326   0.872   4.342   9.888 -1.2293 -0.6773  1.3673
 8231SOL    HW236327   0.965   4.287   9.790 -0.9190  0.6001 -1.0248
 8232SOL     OW36328   3.700   4.064   4.726  0.3516  0.6074  0.2219
 8232SOL    HW136329   3.694   4.129   4.797 -0.0284  1.7773 -0.8864
 8232SOL    HW236330   3.792   4.079   4.702 -0.0582  1.4483 -0.7866
 8233SOL     OW36331   2.784   4.159   9.707 -0.4266  0.0544  0.3908
 8233SOL    HW136332   2.760   4.155   9.615  2.3171  1.6052 -0.3938
 8233SOL    HW236333   2.880   4.154   9.709 -0.3448  1.1522 -1.4858
 8234SOL     OW36334   2.478   4.669   9.809 -0.0521 -0.3865 -0.4518
 8234SOL    HW136335   2.471   0.028   9.798  0.3253 -0.2539  0.4359
 8234SOL    HW236336   2.490   4.638   9.719  1.5958 -1.5964  0.1947
 8235SOL     OW36337   1.327   3.719   5.900  0.3330 -0.1504  0.3871
 8235SOL    HW136338   1.375   3.799   5.876 -0.6743  0.3597  0.0497
 8235SOL    HW236339   1.397   3.656   5.914  0.5678 -0.0609 -0.3883
 8236SOL     OW36340   3.575   0.962   2.416 -0.3952  0.3650  0.0453
 8236SOL    HW136341   3.645   0.910   2.456 -0.3195 -0.4281 -1.0956
 8236SOL    HW236342   3.599   0.951   2.324 -0.5718  0.1379  0.0267
 8237SOL     OW36343   2.967   0.224   7.564 -0.3628 -0.1594  0.0514
 8237SOL    HW136344   2.935   0.134   7.574 -1.4859  0.2185 -0.1863
 8237SOL    HW236345   3.031   0.215   7.635  0.4274 -1.6806 -0.8552
 8238SOL     OW36346   2.166   3.564  10.810 -0.4842  0.1711 -0.4627
 8238SOL    HW136347   2.195   3.480  10.846 -1.8344  0.0561  0.3602
 8238SOL    HW236348   2.075   3.565  10.839 -0.5790 -3.7466 -0.6656
 8239SOL     OW36349   2.644   1.365   3.094  0.0824  0.3424  0.3633
 8239SOL    HW136350   2.580   1.295   3.102  1.2782 -0.6900  0.8861
 8239SOL    HW236351   2.727   1.318   3.082  0.0368  0.7220 -1.4250
 8240SOL     OW36352   4.217   0.269   5.190 -0.3905  0.3268  0.1103
 8240SOL    HW136353   4.141   0.321   5.214  0.0729  1.2952 -0.5242
 8240SOL    HW236354   4.272   0.333   5.146 -0.3789  1.3787  1.6400
 8241SOL     OW36355   4.027   0.591   1.149 -0.1125  0.0054 -0.4429
 8241SOL    HW136356   4.006   0.550   1.233  3.7189 -1.6237 -0.3282
 8241SOL    HW236357   4.042   0.682   1.175 -1.0558 -0.0465  0.2879
 8242SOL     OW36358   2.295   2.286   1.368 -0.2770 -0.1426 -0.4333
 8242SOL    HW136359   2.317   2.372   1.332 -1.2702 -0.1414 -1.0340
 8242SOL    HW236360   2.236   2.321   1.435 -0.8140  1.2386 -1.6270
 8243SOL     OW36361   3.084   3.253   8.011 -0.9589  0.1514  0.0613
 8243SOL    HW136362   2.995   3.254   7.978 -1.5760 -1.3979  1.6881
 8243SOL    HW236363   3.078   3.194   8.085 -2.2095 -0.7385 -0.7629
 8244SOL     OW36364   1.993   1.421   5.789 -0.3128  0.2019 -0.2019
 8244SOL    HW136365   1.933   1.454   5.856 -1.1578  0.2259 -0.9709
 8244SOL    HW236366   1.929   1.404   5.721  1.5386  0.5552 -2.0367
 8245SOL     OW36367   1.511   1.144  12.384 -0.3755  0.1827 -0.1684
 8245SOL    HW136368   1.472   1.216  12.434  1.1576  1.5312 -0.8799
 8245SOL    HW236369   1.595   1.179  12.354 -0.8396  0.4625 -1.1417
 8246SOL     OW36370   0.202   1.022  13.292 -0.4558 -0.3228  0.4601
 8246SOL    HW136371   0.210   0.936  13.333  0.4560 -0.0128  0.9541
 8246SOL    HW236372   0.151   0.997  13.216 -1.0111  1.5783  0.1943
 8247SOL     OW36373   0.348   1.723   1.824  0.5999 -0.1621 -0.1413
 8247SOL    HW136374   0.310   1.810   1.833 -0.5338 -0.4192 -2.3018
 8247SOL    HW236375   0.384   1.712   1.912  0.0064 -0.4017  0.0698
 8248SOL     OW36376   0.263   2.820   7.330 -0.0883  0.7399  0.5367
 8248SOL    HW136377   0.169   2.803   7.330 -0.6688  3.9077 -0.2997
 8248SOL    HW236378   0.264   2.884   7.401 -1.6332 -0.0235  1.2427
 8249SOL     OW36379   3.006   1.682  14.995  0.2198 -0.3443 -0.1399
 8249SOL    HW136380   3.079   1.634  14.956  1.7640  0.8324  1.2804
 8249SOL    HW236381   2.942   1.617  15.022  0.3011 -0.9437 -1.4105
 8250SOL     OW36382   0.624   2.891   3.340 -0.4038 -0.0377  0.3692
 8250SOL    HW136383   0.593   2.827   3.276 -0.5221 -0.6362  1.0257
 8250SOL    HW236384   0.718   2.881   3.348 -0.3097  0.3876 -0.2214
 8251SOL     OW36385   4.377   2.710   6.105  0.4313  0.2321  0.1151
 8251SOL    HW136386   4.330   2.698   6.187 -0.4230 -1.0970 -0.5634
 8251SOL    HW236387   4.323   2.661   6.043  3.4737 -1.1195 -1.5071
 8252SOL     OW36388   3.316   1.547   2.296 -0.0314  0.5167  0.2625
 8252SOL    HW136389   3.261   1.515   2.224  0.1644 -1.0948  0.8321
 8252SOL    HW236390   3.405   1.542   2.261  0.0387  1.6826  0.2578
 8253SOL     OW36391   4.148   3.140   0.981 -0.1768 -0.3290 -0.4755
 8253SOL    HW136392   4.153   3.179   1.068  0.5277 -3.2379  0.8077
 8253SOL    HW236393   4.091   3.192   0.925  0.5229  0.4506 -0.4617
 8254SOL     OW36394   3.815   0.487   1.356 -0.2373  0.1349 -0.1013
 8254SOL    HW136395   3.871   0.545   1.407 -1.7095  0.7912  0.7706
 8254SOL    HW236396   3.798   0.420   1.423  1.8416 -0.6194 -0.3306
 8255SOL     OW36397   3.324   3.976  15.620  0.1299 -0.0187  0.0639
 8255SOL    HW136398   3.299   3.946  15.707  0.0651 -2.3519 -0.7483
 8255SOL    HW236399   3.245   3.951  15.571  0.2632  1.3716 -0.8673
 8256SOL     OW36400   0.303   3.746   7.210 -0.0809  0.3604 -0.4500
 8256SOL    HW136401   0.349   3.738   7.126 -0.2704 -0.0577 -0.5103
 8256SOL    HW236402   0.215   3.723   7.179  0.7793 -2.9128 -0.4582
 8257SOL     OW36403   0.892   0.353  14.166  0.4339  0.8313 -0.4202
 8257SOL    HW136404   0.892   0.434  14.217  0.7022 -1.4996  3.3282
 8257SOL    HW236405   0.956   0.301  14.214 -0.3536 -1.2828 -1.6506
 8258SOL     OW36406   1.854   1.016  16.448  0.3933  0.2743 -0.8640
 8258SOL    HW136407   1.813   1.030  16.363 -1.6318  1.8157  0.3499
 8258SOL    HW236408   1.800   1.068  16.508  1.0783  1.7898 -1.5657
 8259SOL     OW36409   3.724   1.910  12.824  0.4345 -0.0156 -0.3567
 8259SOL    HW136410   3.690   1.940  12.740  1.4916  0.0138 -0.7741
 8259SOL    HW236411   3.756   1.989  12.869 -2.9788  1.5167 -0.6475
 8260SOL     OW36412   2.663   0.999  13.378 -0.3078 -0.1061  0.1335
 8260SOL    HW136413   2.682   1.093  13.373  0.5848 -0.1735  2.0567
 8260SOL    HW236414   2.709   0.968  13.456 -1.8938  1.3959  1.6685
 8261SOL     OW36415   4.216   3.796   4.622 -0.0739  0.0760 -0.4122
 8261SOL    HW136416   4.230   3.813   4.715 -2.2718 -1.0566  0.1354
 8261SOL    HW236417   4.196   3.702   4.615 -2.4760  0.5973 -0.5629
 8262SOL     OW36418   0.108   3.574   2.771  0.3355  0.1850  0.0702
 8262SOL    HW136419   0.198   3.549   2.755  0.8504  0.6781  2.1758
 8262SOL    HW236420   0.122   3.668   2.785 -0.5703 -0.0102  2.2951
 8263SOL     OW36421   3.509   0.939   1.825  0.1238 -0.8093  0.6806
 8263SOL    HW136422   3.570   1.011   1.840 -1.8155  0.7192  1.0571
 8263SOL    HW236423   3.552   0.872   1.879  2.1523 -1.5002 -1.7644
 8264SOL     OW36424   2.455   2.567  10.549  0.1029 -0.8018 -1.1138
 8264SOL    HW136425   2.457   2.635  10.482  1.5975  0.0895 -0.1792
 8264SOL    HW236426   2.464   2.606  10.636 -0.3649  1.2679 -1.9975
 8265SOL     OW36427   2.819   0.517  15.498  0.3819  0.2974 -0.2395
 8265SOL    HW136428   2.863   0.432  15.501 -0.6335 -0.2463 -1.0581
 8265SOL    HW236429   2.760   0.502  15.425 -0.2237 -1.5177  0.6426
 8266SOL     OW36430   1.056   4.660   0.780  0.6010 -0.4768 -0.1994
 8266SOL    HW136431   0.986   4.723   0.797  0.7000 -0.2516 -0.6133
 8266SOL    HW236432   1.137   4.710   0.767  0.4387 -0.0882  0.2587
 8267SOL     OW36433   4.196   2.398  16.783  0.2090 -0.1763  0.0083
 8267SOL    HW136434   4.137   2.472  16.795 -0.1855 -0.3661 -0.7893
 8267SOL    HW236435   4.136   2.323  16.784 -2.0517  1.6343 -0.9775
 8268SOL     OW36436   2.269   2.393  12.003  0.2622  0.2856  0.4627
 8268SOL    HW136437   2.178   2.418  12.023  0.5559  1.6108  0.1756
 8268SOL    HW236438   2.318   2.453  12.060 -0.7091 -0.5866  2.2290
 8269SOL     OW36439   3.830   2.920   2.543  0.0776 -0.2654  0.0009
 8269SOL    HW136440   3.845   2.925   2.637  0.1601 -2.8950  0.1182
 8269SOL    HW236441   3.750   2.867   2.545  0.4055 -0.7361  0.6369
 8270SOL     OW36442   2.397   1.330   6.542 -0.2256  0.5499 -0.0825
 8270SOL    HW136443   2.449   1.355   6.619 -2.3587 -1.3059  1.9563
 8270SOL    HW236444   2.314   1.375   6.560  0.5376  2.2214 -0.7408
 8271SOL     OW36445   3.398   2.847  10.700 -0.0829  1.1421  0.0900
 8271SOL    HW136446   3.447   2.876  10.623 -2.0603  3.4512 -0.2909
 8271SOL    HW236447   3.352   2.771  10.662 -0.8090  0.7509  1.7556
 8272SOL     OW36448   0.481   1.869   9.750 -0.2356 -0.0243 -0.2823
 8272SOL    HW136449   0.462   1.952   9.707 -0.2117 -0.1002 -0.4361
 8272SOL    HW236450   0.571   1.879   9.781 -0.3251 -0.0770 -0.0021
 8273SOL     OW36451   0.251   0.177   0.029  0.7028 -0.3457 -0.3070
 8273SOL    HW136452   0.320   0.230  17.734  0.7253 -0.9196 -1.0398
 8273SOL    HW236453   0.294   0.134   0.104  0.4749  3.3946  1.9828
 8274SOL     OW36454   0.453   4.571   2.131 -0.6803  0.2245 -0.2041
 8274SOL    HW136455   0.541   4.538   2.113 -0.9068  0.0109 -0.9353
 8274SOL    HW236456   0.424   4.565   2.040 -1.1308 -1.1209  0.0210
 8275SOL     OW36457   1.546   3.470  16.063 -0.0535  0.1663  0.8828
 8275SOL    HW136458   1.637   3.477  16.036 -0.0294 -1.6567  0.5497
 8275SOL    HW236459   1.511   3.549  16.020 -2.9886 -1.2016  0.7659
 8276SOL     OW36460   1.542   2.746   3.811  0.6673  0.3981 -0.5041
 8276SOL    HW136461   1.467   2.779   3.859  0.5729 -0.0892 -0.3172
 8276SOL    HW236462   1.527   2.652   3.813 -1.1841  0.7226  0.0464
 8277SOL     OW36463   4.000   1.829   3.925  0.4335 -0.1763  0.2548
 8277SOL    HW136464   3.938   1.782   3.868  2.2974  0.4287 -2.2596
 8277SOL    HW236465   3.943   1.844   4.000 -0.7509 -0.0015 -0.6726
 8278SOL     OW36466   4.117   0.087   5.854 -0.6274  0.1396  0.0586
 8278SOL    HW136467   4.127   0.116   5.944 -1.0046 -1.9387  0.7750
 8278SOL    HW236468   4.195   0.116   5.808  0.0910  0.7081  1.6462
 8279SOL     OW36469   3.460   2.683   3.107  0.8179 -0.4751 -0.0935
 8279SOL    HW136470   3.468   2.670   3.201 -2.5034 -0.4292  0.1933
 8279SOL    HW236471   3.366   2.667   3.092  0.5013  1.1910  0.0957
 8280SOL     OW36472   4.455   0.284   3.757  1.0110 -0.6349 -0.3356
 8280SOL    HW136473   4.521   0.262   3.691 -0.1921  0.5401 -1.9479
 8280SOL    HW236474   4.422   0.198   3.782  0.7551 -0.5992 -0.5458
 8281SOL     OW36475   1.467   1.465   5.193  0.7436 -0.6464  0.0459
 8281SOL    HW136476   1.558   1.488   5.212  1.4442 -2.1522 -1.4747
 8281SOL    HW236477   1.471   1.477   5.098 -0.9068 -1.6268 -0.1517
 8282SOL     OW36478   1.026   0.278   3.976 -0.5139 -0.0344 -0.1598
 8282SOL    HW136479   1.093   0.270   3.908 -0.8951 -1.8307 -0.3316
 8282SOL    HW236480   1.010   0.187   4.002  1.3583 -0.3798 -0.2033
 8283SOL     OW36481   3.493   2.359   2.439  0.3334 -0.5772  0.3705
 8283SOL    HW136482   3.530   2.446   2.422  2.5292 -1.3333  1.3946
 8283SOL    HW236483   3.403   2.372   2.467  0.3285 -1.3592  0.7119
 8284SOL     OW36484   1.724   0.236   8.569 -0.1682  0.3813 -0.4667
 8284SOL    HW136485   1.644   0.286   8.555 -1.4671 -1.0402  1.9933
 8284SOL    HW236486   1.710   0.170   8.636 -0.2385 -0.1010 -0.9532
 8285SOL     OW36487   0.600   0.696   5.018 -0.8114  0.5905 -0.1797
 8285SOL    HW136488   0.569   0.609   4.991  0.0133 -0.0938  1.0593
 8285SOL    HW236489   0.591   0.735   4.932  2.7350  0.0153 -0.8193
 8286SOL     OW36490   3.649   1.667  12.900 -0.0253 -0.7144 -0.5236
 8286SOL    HW136491   3.729   1.621  12.875  1.0762  0.3861  1.0096
 8286SOL    HW236492   3.665   1.755  12.865 -2.0165 -0.1489 -0.0346
 8287SOL     OW36493   2.712   3.463   6.390 -0.0660 -0.5066 -0.1102
 8287SOL    HW136494   2.620   3.448   6.410 -0.2883  1.8900  0.7737
 8287SOL    HW236495   2.725   3.552   6.357  0.2234 -0.2671  0.6366
 8288SOL     OW36496   1.110   4.027   2.834 -0.0541 -0.0820 -0.5639
 8288SOL    HW136497   1.036   4.004   2.778  0.3173  2.5881 -2.1767
 8288SOL    HW236498   1.153   4.100   2.790 -0.2909 -0.2288 -1.0496
 8289SOL     OW36499   3.981   3.808  14.567 -0.3984 -0.4859 -0.0823
 8289SOL    HW136500   3.955   3.877  14.627 -2.3778 -1.4858  0.2258
 8289SOL    HW236501   3.920   3.741  14.599  0.1627 -1.1282 -0.3357
 8290SOL     OW36502   0.797   1.367   9.203 -0.2966 -0.6136 -0.1936
 8290SOL    HW136503   0.745   1.300   9.160 -0.3974 -1.7316  1.6369
 8290SOL    HW236504   0.872   1.366   9.144  0.4880  1.8573  0.7328
 8291SOL     OW36505   4.511   0.398   4.353 -0.2184  0.4442 -0.0088
 8291SOL    HW136506   4.535   0.318   4.400 -0.2813  0.2597 -0.2924
 8291SOL    HW236507   4.416   0.383   4.351 -0.0907 -0.3279 -0.4551
 8292SOL     OW36508   1.933   4.005   7.568 -0.4159  0.5318 -0.6486
 8292SOL    HW136509   1.943   4.051   7.651  1.2302 -1.8803  0.4792
 8292SOL    HW236510   2.013   4.029   7.521 -0.2870 -0.5181 -0.9610
 8293SOL     OW36511   1.321   1.936   2.762 -0.2072 -0.3445  0.5601
 8293SOL    HW136512   1.251   1.880   2.727 -1.0610  1.1181 -0.0598
 8293SOL    HW236513   1.304   2.015   2.711  1.7449 -0.9012 -0.9685
 8294SOL     OW36514   3.554   2.944   6.302 -0.3626 -0.1533  0.3222
 8294SOL    HW136515   3.476   2.981   6.344 -1.3138 -3.0619  1.0739
 8294SOL    HW236516   3.518   2.916   6.218  1.0720 -0.1538 -0.2901
 8295SOL     OW36517   0.425   1.875   7.913  0.1317  0.4548 -0.0562
 8295SOL    HW136518   0.508   1.868   7.961 -0.2831  3.5274  1.0648
 8295SOL    HW236519   0.431   1.805   7.848 -1.5335  0.3658 -0.0962
 8296SOL     OW36520   0.491   0.217   4.808 -0.2409  1.1361 -0.3303
 8296SOL    HW136521   0.505   0.160   4.883  3.1356  0.9973 -1.0450
 8296SOL    HW236522   0.490   0.160   4.731 -2.0995  0.7117  0.0147
 8297SOL     OW36523   0.503   0.271  13.028 -0.2394 -0.1327 -0.6252
 8297SOL    HW136524   0.503   0.259  12.933 -0.0621  1.0296 -0.7656
 8297SOL    HW236525   0.419   0.230  13.048 -0.5473  0.5716 -0.4773
 8298SOL     OW36526   1.014   2.509   6.842 -0.0998 -0.3752  0.0321
 8298SOL    HW136527   0.975   2.503   6.755  0.2789 -3.0773  0.0413
 8298SOL    HW236528   1.058   2.592   6.825  0.9094 -1.2985 -1.8412
 8299SOL     OW36529   1.769   2.271   5.993  0.1187  0.8024 -0.0024
 8299SOL    HW136530   1.790   2.322   5.915  2.2881 -0.8069 -0.4579
 8299SOL    HW236531   1.861   2.254   6.011  0.6517  0.9016 -2.6829
 8300SOL     OW36532   1.679   0.294   3.897 -0.3594  0.5578  0.4021
 8300SOL    HW136533   1.676   0.245   3.979  0.6809 -1.2967 -0.6715
 8300SOL    HW236534   1.695   0.385   3.923  0.7879  1.2554 -2.7757
 8301SOL     OW36535   1.258   3.953   4.904  0.4946  0.2226 -0.3315
 8301SOL    HW136536   1.213   4.025   4.949 -2.0539 -2.0007  0.7091
 8301SOL    HW236537   1.187   3.932   4.844  0.3761  0.6508 -0.3385
 8302SOL     OW36538   0.458   3.735   6.230 -0.0998 -0.0017 -0.0303
 8302SOL    HW136539   0.506   3.656   6.205 -0.2907 -0.0527 -0.2352
 8302SOL    HW236540   0.402   3.699   6.299  2.3010 -3.2289  0.2444
 8303SOL     OW36541   1.953   2.888   1.377 -0.2528 -0.8825 -0.5778
 8303SOL    HW136542   1.866   2.885   1.415 -0.3172 -0.8927 -0.7238
 8303SOL    HW236543   1.964   2.796   1.352  2.1985 -0.8233  0.2288
 8304SOL     OW36544   3.495   3.567   3.242 -0.3724 -0.0382 -0.1485
 8304SOL    HW136545   3.563   3.634   3.242 -1.0468  0.6611  1.3382
 8304SOL    HW236546   3.528   3.515   3.170 -1.6874 -1.6293  0.3918
 8305SOL     OW36547   3.005   4.282  13.330 -0.6597  0.5390 -0.4445
 8305SOL    HW136548   2.941   4.214  13.309 -2.4827  1.5871  1.6576
 8305SOL    HW236549   3.081   4.247  13.285 -0.0339  2.0447 -0.5642
 8306SOL     OW36550   0.912   1.103  16.235 -0.0693  0.2505  0.1022
 8306SOL    HW136551   0.947   1.178  16.186 -0.1993  0.5480  0.4641
 8306SOL    HW236552   0.872   1.047  16.168  0.9404 -0.9040  0.4625
 8307SOL     OW36553   3.582   3.842   4.697  0.5151  0.2015  0.1000
 8307SOL    HW136554   3.611   3.932   4.708 -0.7710  0.6595 -0.2375
 8307SOL    HW236555   3.663   3.797   4.720 -0.1001 -1.5411 -1.0919
 8308SOL     OW36556   3.612   3.812   2.598  0.3124  0.2830  0.0261
 8308SOL    HW136557   3.545   3.838   2.535  0.5866 -2.3946 -1.4063
 8308SOL    HW236558   3.561   3.845   2.671 -1.3656 -2.3747  0.0570
 8309SOL     OW36559   1.027   4.146   4.098 -0.8348 -0.3375 -0.2495
 8309SOL    HW136560   0.975   4.144   4.017  1.0313  0.7264 -1.4835
 8309SOL    HW236561   0.964   4.116   4.163 -1.9302  0.7491 -0.8161
 8310SOL     OW36562   0.226   3.193  15.468 -0.4438  0.0670 -0.9300
 8310SOL    HW136563   0.278   3.273  15.473  0.2090 -0.3926 -0.3818
 8310SOL    HW236564   0.181   3.180  15.551 -1.4310 -0.0036 -1.4702
 8311SOL     OW36565   0.855   1.375   1.840 -0.0978  0.1843 -0.1068
 8311SOL    HW136566   0.923   1.424   1.886 -0.4576 -0.9982  1.6765
 8311SOL    HW236567   0.866   1.286   1.873 -0.8678  0.9656  2.2706
 8312SOL     OW36568   1.263   0.711  11.584 -0.0431  0.4131  0.4420
 8312SOL    HW136569   1.349   0.751  11.587  0.6484 -1.1076  0.6583
 8312SOL    HW236570   1.224   0.767  11.516 -0.7048 -0.0890  0.4047
 8313SOL     OW36571   3.797   0.723  13.297 -0.4476 -0.3014  0.3155
 8313SOL    HW136572   3.776   0.727  13.204  2.4988 -0.3602 -0.3289
 8313SOL    HW236573   3.724   0.672  13.334 -0.8171 -0.9385 -1.2731
 8314SOL     OW36574   4.111   1.784   3.628  0.8045 -0.2568  0.2058
 8314SOL    HW136575   4.203   1.771   3.607  1.2916  0.2865  2.0031
 8314SOL    HW236576   4.100   1.879   3.624 -2.5176 -0.5768  1.8121
 8315SOL     OW36577   1.730   2.525   4.814 -0.2235 -0.0937 -0.2153
 8315SOL    HW136578   1.815   2.566   4.801 -0.5222 -0.5212 -3.5152
 8315SOL    HW236579   1.697   2.570   4.891  0.0970 -0.6756  0.2655
 8316SOL     OW36580   0.433   1.395   2.906  0.0083 -0.5309 -0.6438
 8316SOL    HW136581   0.393   1.315   2.940 -1.0621  0.9049  1.4104
 8316SOL    HW236582   0.369   1.442   2.853 -1.9301 -2.4428 -0.0063
 8317SOL     OW36583   0.125   2.844   4.932 -0.1095  0.0751  0.6249
 8317SOL    HW136584   0.214   2.877   4.934 -1.1646  2.8444  1.2737
 8317SOL    HW236585   0.102   2.926   4.889  1.3724  1.0918  1.8098
 8318SOL     OW36586   1.495   1.867   1.377  0.3420 -0.2560  0.2239
 8318SOL    HW136587   1.511   1.906   1.291 -1.6253 -0.6162 -0.3087
 8318SOL    HW236588   1.564   1.901   1.433  0.9304  2.7995 -2.3821
 8319SOL     OW36589   1.401   4.107  17.200 -0.0339 -0.2086  0.4480
 8319SOL    HW136590   1.448   4.126  17.281  2.1876  1.1582 -1.1498
 8319SOL    HW236591   1.308   4.111  17.224  0.1120  1.2644  0.7648
 8320SOL     OW36592   2.647   3.715  14.303  0.2784 -0.1680  0.1978
 8320SOL    HW136593   2.566   3.698  14.353 -0.1063 -0.4680 -0.5279
 8320SOL    HW236594   2.664   3.633  14.257 -0.1302  0.6923 -1.4488
 8321SOL     OW36595   2.248   0.166  15.371 -0.8380  0.3977 -0.1739
 8321SOL    HW136596   2.253   0.247  15.320  2.0676 -1.0633 -2.2155
 8321SOL    HW236597   2.226   0.098  15.308 -0.0363  0.5866 -0.6579
 8322SOL     OW36598   2.243   2.212   3.149  0.2943  0.0327 -0.4044
 8322SOL    HW136599   2.148   2.226   3.145  0.5376  2.8236  3.0216
 8322SOL    HW236600   2.254   2.117   3.156  2.0667  0.3130  0.4589
 8323SOL     OW36601   2.785   0.983   5.500 -0.1281 -0.0560  0.5590
 8323SOL    HW136602   2.763   1.017   5.414 -1.2750  2.9086  2.0166
 8323SOL    HW236603   2.702   0.985   5.549 -1.1029  1.2442 -1.1439
 8324SOL     OW36604   1.464   4.249   7.072 -0.4954 -0.6565 -0.2587
 8324SOL    HW136605   1.548   4.249   7.025  0.2342 -1.0530  1.0372
 8324SOL    HW236606   1.457   4.336   7.113 -0.8572 -0.0418 -1.6247
 8325SOL     OW36607   0.896   1.775   2.401 -0.1862 -0.5074  0.4151
 8325SOL    HW136608   0.970   1.715   2.410  0.3616 -0.1275 -1.6912
 8325SOL    HW236609   0.916   1.851   2.456  1.7726  0.5309 -1.7574
 8326SOL     OW36610   2.705   2.156   3.747 -0.3430 -0.0611 -0.7034
 8326SOL    HW136611   2.751   2.090   3.694 -0.6405 -0.9355  0.1174
 8326SOL    HW236612   2.777   2.211   3.777  0.4533 -0.5338 -1.7563
 8327SOL     OW36613   1.011   3.046  13.592 -0.7456 -0.5375 -0.6615
 8327SOL    HW136614   0.948   3.080  13.529 -1.8277 -0.3691  0.5133
 8327SOL    HW236615   0.951   3.027  13.664 -0.3043  1.1410  0.1566
 8328SOL     OW36616   4.102   2.046   8.372 -0.1281 -0.2078 -0.3421
 8328SOL    HW136617   4.083   2.135   8.402  3.1225  0.4596 -0.2334
 8328SOL    HW236618   4.191   2.051   8.408 -0.3836  3.3569 -0.2737
 8329SOL     OW36619   2.136   3.210   8.685 -0.1392  0.2883 -0.6914
 8329SOL    HW136620   2.070   3.241   8.747  0.3470  0.9862 -0.5266
 8329SOL    HW236621   2.079   3.145   8.642  0.7535  0.8466 -2.6869
 8330SOL     OW36622   0.029   0.584   7.181 -0.3997 -0.0073 -0.2851
 8330SOL    HW136623   4.692   0.602   7.240  0.7460  1.5119  0.6951
 8330SOL    HW236624   4.734   0.495   7.166 -1.9666  0.4568  0.2696
 8331SOL     OW36625   1.855   1.280   1.632 -0.4494  0.4726 -0.4630
 8331SOL    HW136626   1.854   1.208   1.696  0.6842  1.0806  0.2526
 8331SOL    HW236627   1.880   1.226   1.557  2.0151  1.2445 -0.2045
 8332SOL     OW36628   2.121   1.789  10.991  0.3527 -0.2958  0.3150
 8332SOL    HW136629   2.197   1.846  10.982  0.7095 -0.9559 -0.7694
 8332SOL    HW236630   2.161   1.717  10.942  0.6512 -0.9709  1.5423
 8333SOL     OW36631   2.768   4.228   5.837  0.7047 -0.1892 -0.7302
 8333SOL    HW136632   2.839   4.267   5.887 -0.8093 -1.5884  2.4740
 8333SOL    HW236633   2.717   4.291   5.786  1.5137  0.0425 -1.2555
 8334SOL     OW36634   2.402   1.969  13.513 -0.2468 -0.2895 -0.3584
 8334SOL    HW136635   2.414   2.040  13.577  1.0796 -2.1981  1.5155
 8334SOL    HW236636   2.355   1.995  13.435 -1.9454 -0.2482  0.6847
 8335SOL     OW36637   0.785   4.513   0.795 -0.4703 -0.1837 -0.4798
 8335SOL    HW136638   0.776   4.418   0.809 -2.4795  0.1679  0.5116
 8335SOL    HW236639   0.788   4.541   0.887  0.8084  0.5165 -0.7264
 8336SOL     OW36640   1.198   0.973   1.345 -0.5316 -0.2327 -0.0075
 8336SOL    HW136641   1.110   0.977   1.382 -0.3249  2.0899  0.2385
 8336SOL    HW236642   1.191   0.989   1.251 -1.7729 -1.8122 -0.1790
 8337SOL     OW36643   0.327   1.502   5.135  0.2812  0.1036  0.0224
 8337SOL    HW136644   0.279   1.556   5.197  1.4237 -0.0408  1.0233
 8337SOL    HW236645   0.311   1.412   5.164  1.6678 -0.3427 -0.5616
 8338SOL     OW36646   4.577   0.349  15.329  0.4709 -0.4887  0.1874
 8338SOL    HW136647   4.491   0.348  15.371  0.7330  0.5486  0.7351
 8338SOL    HW236648   4.574   0.432  15.280  0.7786  0.5488  1.9567
 8339SOL     OW36649   3.184   1.655   9.333  0.2340 -0.1975 -0.4836
 8339SOL    HW136650   3.183   1.728   9.271  0.7051  0.3883  0.1972
 8339SOL    HW236651   3.200   1.695   9.418  2.5128  1.0332 -1.5079
 8340SOL     OW36652   0.814   0.721   6.863  0.0050 -0.3726 -0.2585
 8340SOL    HW136653   0.733   0.678   6.834 -0.5802  0.3668  0.2518
 8340SOL    HW236654   0.885   0.658   6.849 -0.2748 -0.7838  0.1421
 8341SOL     OW36655   4.248   1.477  14.123 -0.0703  0.1840 -0.6436
 8341SOL    HW136656   4.249   1.559  14.072 -0.3360  0.1907 -0.6382
 8341SOL    HW236657   4.154   1.463  14.114 -0.3910  1.4476  0.7223
 8342SOL     OW36658   3.999   4.268   6.448 -0.4386 -0.0145  0.2280
 8342SOL    HW136659   3.954   4.227   6.374 -1.1270  0.6219  0.2941
 8342SOL    HW236660   3.958   4.354   6.433 -0.3921  0.0190  0.2923
 8343SOL     OW36661   3.320   3.969   6.710  0.0967 -0.9900 -0.4316
 8343SOL    HW136662   3.281   4.018   6.782  0.0214 -0.7359 -0.6480
 8343SOL    HW236663   3.263   3.988   6.635  0.1628 -0.4375 -0.3382
 8344SOL     OW36664   1.494   3.375   6.992  0.0985 -0.0940 -0.4457
 8344SOL    HW136665   1.419   3.333   7.035 -0.3001  0.2055 -0.8481
 8344SOL    HW236666   1.506   3.451   7.049 -0.1476 -0.3270 -0.0744
 8345SOL     OW36667   1.460   0.162  10.825  0.6856 -0.3080  0.4452
 8345SOL    HW136668   1.398   0.115  10.881  0.8736  0.2052  1.0794
 8345SOL    HW236669   1.508   0.214  10.890  0.2371  2.0651 -1.1288
 8346SOL     OW36670   4.223   2.805   3.969  0.7340 -0.4326  0.5650
 8346SOL    HW136671   4.261   2.876   3.917 -2.2194  0.0249 -0.9454
 8346SOL    HW236672   4.136   2.796   3.931  1.4607  0.6640 -1.3368
 8347SOL     OW36673   2.327   3.165  14.618 -0.0959  0.0882  0.2840
 8347SOL    HW136674   2.326   3.250  14.662  0.4413  0.3435 -0.1897
 8347SOL    HW236675   2.315   3.094  14.680  1.2127 -0.4902 -0.1160
 8348SOL     OW36676   2.137   2.080  14.379  0.2970 -0.2197 -0.2287
 8348SOL    HW136677   2.189   2.078  14.298  0.2164  0.8576 -0.3145
 8348SOL    HW236678   2.059   2.125  14.346  0.5396  0.0165 -0.4905
 8349SOL     OW36679   1.838   1.859   5.319  0.4882  0.0139 -0.4396
 8349SOL    HW136680   1.768   1.857   5.253 -0.2376 -1.2527  0.3552
 8349SOL    HW236681   1.911   1.895   5.268 -0.0264  0.2571 -1.0118
 8350SOL     OW36682   3.258   4.554   5.730  0.8977 -0.0448  0.2164
 8350SOL    HW136683   3.318   4.621   5.764  0.9205 -0.7445  1.5359
 8350SOL    HW236684   3.185   4.567   5.789  0.9559  0.3574  0.1978
 8351SOL     OW36685   4.562   1.637  16.790 -0.0531  0.2180 -0.0904
 8351SOL    HW136686   4.614   1.695  16.845  0.2143 -0.2241  0.1255
 8351SOL    HW236687   4.494   1.599  16.846 -2.1616  0.6928 -2.2950
 8352SOL     OW36688   2.224   0.372  15.172  0.2403 -0.3833 -0.6485
 8352SOL    HW136689   2.195   0.423  15.247 -1.9852 -2.5682 -0.0264
 8352SOL    HW236690   2.177   0.406  15.096 -0.2354 -0.8473 -0.5575
 8353SOL     OW36691   0.023   2.389   3.587 -0.2277  0.6460 -0.2025
 8353SOL    HW136692   0.066   2.461   3.541 -0.4106  1.3325  0.6936
 8353SOL    HW236693   4.675   2.373   3.545  0.7711  1.8448 -2.6894
 8354SOL     OW36694   2.653   1.327   4.810  0.2223  0.5095 -0.1520
 8354SOL    HW136695   2.696   1.351   4.729  0.9102 -1.7769 -0.4748
 8354SOL    HW236696   2.567   1.366   4.794  0.2458  0.9675  0.8265
 8355SOL     OW36697   0.035   2.940   6.905 -0.3728 -0.6455 -0.2944
 8355SOL    HW136698   4.728   3.025   6.910 -1.2745 -1.1621  0.5296
 8355SOL    HW236699   0.073   2.936   6.817  1.5973  0.4782  0.5103
 8356SOL     OW36700   2.410   3.987  16.289 -0.0635 -0.9281  0.3095
 8356SOL    HW136701   2.374   4.056  16.234  1.7516  0.9144  1.4076
 8356SOL    HW236702   2.354   3.998  16.366 -1.1719 -1.3589 -0.4304
 8357SOL     OW36703   3.641   1.945  15.417  0.1856  0.4846  0.3980
 8357SOL    HW136704   3.661   1.871  15.476  0.0563 -0.0222 -0.1941
 8357SOL    HW236705   3.708   1.929  15.351  0.3419  0.3478  0.5891
 8358SOL     OW36706   4.076   1.742   4.881  0.1415 -0.0214 -0.3762
 8358SOL    HW136707   4.162   1.718   4.845  1.0078 -0.3854  1.9452
 8358SOL    HW236708   4.106   1.759   4.970  1.6985 -0.7279 -0.7576
 8359SOL     OW36709   4.078   1.719   6.574 -0.3003 -0.1860 -0.4309
 8359SOL    HW136710   4.053   1.811   6.566 -0.6185 -0.2589 -0.2673
 8359SOL    HW236711   4.071   1.703   6.480  1.0606  1.5046 -0.8316
 8360SOL     OW36712   4.081   1.411  10.512  0.2165  0.0538  0.3189
 8360SOL    HW136713   4.115   1.404  10.601 -1.3277  1.7055  1.0405
 8360SOL    HW236714   4.031   1.330  10.519  0.1491 -0.0247 -1.0920
 8361SOL     OW36715   4.453   4.186   0.916  0.5963  0.1205  1.0728
 8361SOL    HW136716   4.473   4.271   0.956  0.5906 -0.0024  1.3389
 8361SOL    HW236717   4.384   4.203   0.852  0.5377  0.3455  1.1970
 8362SOL     OW36718   1.167   0.232   6.976  0.1808  0.9575 -0.5111
 8362SOL    HW136719   1.247   0.190   6.944  0.5105  2.2207 -1.3111
 8362SOL    HW236720   1.170   0.314   6.927  2.5052  0.6284 -0.8941
 8363SOL     OW36721   2.241   0.773  14.490 -0.1247  0.3566 -0.1580
 8363SOL    HW136722   2.335   0.790  14.497 -0.2340  0.9895 -0.1587
 8363SOL    HW236723   2.231   0.822  14.408  0.9749  3.5565  1.6304
 8364SOL     OW36724   2.298   2.348   2.632  0.4634 -0.1107 -0.2690
 8364SOL    HW136725   2.377   2.337   2.580  1.3740  1.2419  0.8091
 8364SOL    HW236726   2.257   2.419   2.584  0.3416  1.1359  1.6568
 8365SOL     OW36727   4.599   4.107   1.970  0.1777 -0.1434  0.1660
 8365SOL    HW136728   4.581   4.147   2.055 -0.5981  0.6816 -0.3897
 8365SOL    HW236729   4.566   4.174   1.911 -1.2635 -1.0430 -0.0547
 8366SOL     OW36730   4.134   2.152   5.202  0.0530  0.5773  0.3943
 8366SOL    HW136731   4.177   2.195   5.128 -0.4044 -0.0407 -0.2338
 8366SOL    HW236732   4.056   2.207   5.202 -0.3423  0.0107 -0.0362
 8367SOL     OW36733   0.714   0.739   1.771 -0.0872  0.8203 -0.2057
 8367SOL    HW136734   0.698   0.831   1.789  2.7097  0.8264  2.1252
 8367SOL    HW236735   0.738   0.744   1.679 -0.7158 -0.9097 -0.4582
 8368SOL     OW36736   2.796   3.962   1.899  0.0203  0.4750 -0.4546
 8368SOL    HW136737   2.704   3.981   1.880  0.3766  1.2769 -1.3737
 8368SOL    HW236738   2.784   3.882   1.951  1.9273  0.8838  0.6218
 8369SOL     OW36739   0.754   3.934   3.287 -0.7269 -0.0006 -0.6206
 8369SOL    HW136740   0.697   4.009   3.272 -0.4151  0.4760  0.5636
 8369SOL    HW236741   0.750   3.923   3.382 -1.0961  0.7938 -0.5515
 8370SOL     OW36742   3.372   1.936   3.809 -0.2279 -0.4540 -0.2971
 8370SOL    HW136743   3.369   1.924   3.904  0.4097 -1.8143 -0.4423
 8370SOL    HW236744   3.425   2.015   3.809  0.5987 -0.9864 -2.2279
 8371SOL     OW36745   3.785   0.907   8.321  0.3839 -0.2700 -0.2457
 8371SOL    HW136746   3.829   0.970   8.265 -0.0018 -1.2550 -1.6612
 8371SOL    HW236747   3.692   0.919   8.303  0.2836 -0.1010  0.3952
 8372SOL     OW36748   0.052   2.991   5.831 -0.4968  0.9180  0.0248
 8372SOL    HW136749   0.068   3.025   5.743 -0.8661  1.5507  0.2015
 8372SOL    HW236750   0.008   2.906   5.826 -0.0201  0.7935 -2.2534
 8373SOL     OW36751   4.515   4.701   8.117  0.4589 -0.1336 -0.7252
 8373SOL    HW136752   4.471   4.668   8.038  2.8891 -4.6180 -0.2352
 8373SOL    HW236753   4.539   0.054   8.097  2.6084  0.0728  2.8313
 8374SOL     OW36754   0.621   2.283   0.586 -0.6980  0.1282  0.1138
 8374SOL    HW136755   0.551   2.344   0.609 -0.5805 -0.2743  1.5543
 8374SOL    HW236756   0.689   2.349   0.601  0.6968 -0.6349 -2.9543
 8375SOL     OW36757   3.160   3.481   7.651  0.5505  0.3968  0.2642
 8375SOL    HW136758   3.114   3.400   7.669 -0.1062  0.3809 -1.4173
 8375SOL    HW236759   3.193   3.461   7.563 -0.3519 -1.2604  0.3099
 8376SOL     OW36760   0.447   3.529   7.044 -0.2238 -0.3480  0.1890
 8376SOL    HW136761   0.447   3.607   6.989  1.4314  0.5587  1.4808
 8376SOL    HW236762   0.376   3.481   7.002 -0.0320  0.4779 -1.0753
 8377SOL     OW36763   2.651   2.706   6.678 -0.0669 -0.0419  0.4998
 8377SOL    HW136764   2.710   2.648   6.631 -0.8490 -0.0694 -0.4543
 8377SOL    HW236765   2.610   2.755   6.607 -0.7600  1.8455  2.2045
 8378SOL     OW36766   2.789   3.503  10.942 -0.5316 -0.5153  0.0258
 8378SOL    HW136767   2.697   3.502  10.967 -0.6062  0.6534 -0.1844
 8378SOL    HW236768   2.785   3.532  10.850  1.8542  1.5317  0.5742
 8379SOL     OW36769   3.449   3.837  17.641  0.3038  0.8263  0.2251
 8379SOL    HW136770   3.437   3.890  17.563 -2.1090  0.7772  0.5429
 8379SOL    HW236771   3.522   3.874  17.691  1.0741 -1.1489  0.5581
 8380SOL     OW36772   3.497   2.649  10.929  0.1649 -0.3637  0.3356
 8380SOL    HW136773   3.406   2.636  10.905  0.7174 -3.0314 -0.2782
 8380SOL    HW236774   3.529   2.695  10.852  0.3062  1.1368  1.2752
 8381SOL     OW36775   3.242   4.293   7.500 -0.1795  0.3494  0.4854
 8381SOL    HW136776   3.328   4.291   7.541  0.8819 -0.1396 -1.7543
 8381SOL    HW236777   3.271   4.297   7.409 -0.1975  1.7388  0.5490
 8382SOL     OW36778   4.528   1.340   2.481  0.5100 -0.0168  0.0220
 8382SOL    HW136779   4.439   1.321   2.511 -0.8651  4.8603 -1.1277
 8382SOL    HW236780   4.557   1.256   2.444  1.6835  0.5201 -0.2893
 8383SOL     OW36781   3.224   3.360  16.245  0.0139  0.4829 -0.1894
 8383SOL    HW136782   3.294   3.314  16.291 -0.8662  0.1597  0.8379
 8383SOL    HW236783   3.236   3.450  16.277  3.2197  0.4817 -1.3803
 8384SOL     OW36784   0.781   1.296   6.109  0.0474 -0.0734  0.4725
 8384SOL    HW136785   0.748   1.384   6.089  0.1632 -0.3048 -0.7429
 8384SOL    HW236786   0.831   1.283   6.029 -0.0446  1.3829  0.1840
 8385SOL     OW36787   1.096   1.123  15.674  0.1186  0.4783 -0.7628
 8385SOL    HW136788   1.024   1.187  15.676  0.3229  0.7048 -0.5774
 8385SOL    HW236789   1.172   1.179  15.659 -1.0660  1.7659 -1.9549
 8386SOL     OW36790   3.366   3.784   3.101  0.3815  0.4310 -0.5421
 8386SOL    HW136791   3.405   3.843   3.165 -1.4045 -0.7624  1.6220
 8386SOL    HW236792   3.316   3.730   3.162  2.2993 -0.2581  0.4237
 8387SOL     OW36793   0.389   3.397   2.703 -0.7894  0.0415 -0.4566
 8387SOL    HW136794   0.448   3.473   2.698  0.9190 -1.1094  2.7113
 8387SOL    HW236795   0.350   3.391   2.616 -1.8178 -1.9314  0.1533
 8388SOL     OW36796   1.648   0.786   6.608  0.1917  0.0428 -0.5442
 8388SOL    HW136797   1.737   0.812   6.583  1.5005 -2.1783  1.7581
 8388SOL    HW236798   1.616   0.750   6.525  0.3578 -1.5340  0.0693
 8389SOL     OW36799   1.797   1.554   3.264  0.1708 -0.1262  0.3808
 8389SOL    HW136800   1.870   1.498   3.239  0.0602  0.2547 -0.8416
 8389SOL    HW236801   1.795   1.612   3.187  2.5309  0.0328  0.4488
 8390SOL     OW36802   1.937   1.826   2.608  0.2250 -0.3488 -0.1094
 8390SOL    HW136803   2.025   1.789   2.604  1.4085  2.6423 -1.4919
 8390SOL    HW236804   1.959   1.917   2.630  1.0176 -0.1431 -1.7186
 8391SOL     OW36805   4.553   0.963   1.704 -0.3579 -0.5581 -0.1454
 8391SOL    HW136806   4.468   0.959   1.660  0.5362  2.2044 -2.0938
 8391SOL    HW236807   4.536   1.041   1.757  0.1010 -0.6683  0.1601
 8392SOL     OW36808   2.505   3.279  15.616  0.0093  0.0341 -0.0777
 8392SOL    HW136809   2.554   3.315  15.543  2.1689 -0.7721  0.9612
 8392SOL    HW236810   2.471   3.355  15.664  1.0131  0.6404 -0.3340
 8393SOL     OW36811   3.822   3.686  12.201  0.5011  0.2071  0.7506
 8393SOL    HW136812   3.760   3.613  12.200  0.7553 -0.0462  2.4934
 8393SOL    HW236813   3.759   3.757  12.213 -0.8312 -0.8454 -0.0730
 8394SOL     OW36814   0.855   1.745   4.692  0.1918  0.1163 -0.4757
 8394SOL    HW136815   0.854   1.681   4.621  0.0284 -0.3398 -0.0582
 8394SOL    HW236816   0.776   1.723   4.741 -0.1239  0.0807 -1.0021
 8395SOL     OW36817   2.551   3.480  10.125 -0.2746 -0.2633 -0.4123
 8395SOL    HW136818   2.618   3.519  10.068 -1.4961  1.9677 -0.3422
 8395SOL    HW236819   2.518   3.549  10.184  0.3796 -0.7366  0.5148
 8396SOL     OW36820   3.143   3.247   4.406  0.1096 -0.3027  0.0345
 8396SOL    HW136821   3.068   3.191   4.424 -0.4674 -0.2112 -2.0721
 8396SOL    HW236822   3.159   3.281   4.494  1.2365  1.9693 -1.0383
 8397SOL     OW36823   1.663   3.981  11.573  0.2497 -0.0558  0.5567
 8397SOL    HW136824   1.571   4.008  11.572  0.3689  0.4307  2.9150
 8397SOL    HW236825   1.666   3.935  11.489  1.6718 -1.3025  1.3051
 8398SOL     OW36826   3.356   1.898   1.094 -0.3627  0.6420 -0.8628
 8398SOL    HW136827   3.307   1.883   1.175  2.1814  0.5103  0.6550
 8398SOL    HW236828   3.337   1.989   1.074 -0.3599  1.2165  1.8234
 8399SOL     OW36829   3.755   1.220   5.725  0.0492  0.2860 -0.2614
 8399SOL    HW136830   3.841   1.203   5.688  0.1773  0.8186 -0.1982
 8399SOL    HW236831   3.782   1.219   5.816 -0.3255 -1.7164 -0.1761
 8400SOL     OW36832   4.103   3.678   8.919 -0.0279 -0.2793  0.0161
 8400SOL    HW136833   4.112   3.735   8.995  1.9266 -2.6021  1.5535
 8400SOL    HW236834   4.156   3.730   8.858 -0.5488  2.1336  1.6445
 8401SOL     OW36835   4.677   3.209   6.968 -0.8221 -0.0069 -0.2057
 8401SOL    HW136836   4.683   3.282   7.031 -0.3425  1.2267 -1.6830
 8401SOL    HW236837   4.699   3.255   6.887 -0.7684  0.3993  0.0397
 8402SOL     OW36838   0.855   1.723   6.734  0.3286 -0.0378  0.5918
 8402SOL    HW136839   0.764   1.695   6.735  0.5658 -0.8016  0.8537
 8402SOL    HW236840   0.901   1.673   6.667  0.8354  0.5192  0.5210
 8403SOL     OW36841   0.821   3.265   8.523  0.0567 -0.2000  0.6989
 8403SOL    HW136842   0.866   3.185   8.550 -1.0088 -1.5384 -1.4882
 8403SOL    HW236843   0.737   3.225   8.499 -0.8697  1.3057  1.4799
 8404SOL     OW36844   1.880   0.365   5.430  0.9131  0.1014 -0.1795
 8404SOL    HW136845   1.794   0.404   5.416 -0.2652 -2.5350 -0.1990
 8404SOL    HW236846   1.851   0.277   5.407  0.8975  0.9268 -3.2908
 8405SOL     OW36847   0.673   0.110   2.601  0.2408  0.4375 -0.6415
 8405SOL    HW136848   0.713   0.098   2.687 -3.0013 -1.5989  0.5687
 8405SOL    HW236849   0.652   0.203   2.593  1.4449  0.7460 -0.2616
 8406SOL     OW36850   4.210   3.301   5.840 -0.2841  0.5209 -0.1394
 8406SOL    HW136851   4.145   3.263   5.780 -1.9688 -1.4689  2.9207
 8406SOL    HW236852   4.144   3.340   5.897 -1.2386  1.5243 -1.8984
 8407SOL     OW36853   2.345   1.617   8.185  0.3431  0.1749  0.2747
 8407SOL    HW136854   2.254   1.601   8.212  0.7466 -0.2265  1.4047
 8407SOL    HW236855   2.336   1.711   8.169  0.5405  0.2605  0.6627
 8408SOL     OW36856   2.532   1.789   4.642  0.2146  0.4028 -0.3367
 8408SOL    HW136857   2.507   1.716   4.585  0.3592  1.3972 -1.6487
 8408SOL    HW236858   2.452   1.820   4.684 -0.6590  0.0938 -1.7638
 8409SOL     OW36859   1.170   2.287  11.834  0.0214  0.4962 -0.1909
 8409SOL    HW136860   1.148   2.196  11.811  0.4119  0.4905 -0.5399
 8409SOL    HW236861   1.101   2.333  11.787 -0.8409 -0.5418  0.0459
 8410SOL     OW36862   3.038   0.487   9.112 -0.2291 -0.1926 -0.0869
 8410SOL    HW136863   3.045   0.533   9.028  0.2160 -1.5241 -0.7886
 8410SOL    HW236864   2.991   0.407   9.087  1.1887 -1.7879  2.2752
 8411SOL     OW36865   4.287   4.469   3.835 -0.4844  0.1118  0.4972
 8411SOL    HW136866   4.244   4.447   3.918  1.7125 -1.3206  1.2468
 8411SOL    HW236867   4.282   4.565   3.837  1.5149  0.2626 -3.5729
 8412SOL     OW36868   4.644   1.281  11.012  0.3730 -0.2627  0.2982
 8412SOL    HW136869   4.584   1.209  10.992 -0.4865  0.2048  1.2416
 8412SOL    HW236870   4.586   1.353  10.986  1.1904  0.2284 -0.1842
 8413SOL     OW36871   3.207   2.717   4.828  0.7534 -0.6001  0.6734
 8413SOL    HW136872   3.228   2.803   4.791  1.1490  0.2709  2.8964
 8413SOL    HW236873   3.142   2.688   4.764  1.2462  0.9998 -0.5783
 8414SOL     OW36874   1.887   1.835   4.610 -0.1818  0.0785 -0.0981
 8414SOL    HW136875   1.865   1.785   4.689  0.1415  1.8892  1.1320
 8414SOL    HW236876   1.905   1.925   4.639  0.0733  0.1706 -0.5472
 8415SOL     OW36877   3.395   4.433   4.529  0.0972  0.3832 -0.9930
 8415SOL    HW136878   3.346   4.405   4.606 -0.0527 -0.0836 -1.2567
 8415SOL    HW236879   3.481   4.404   4.560  0.3755  1.3580 -0.8447
 8416SOL     OW36880   4.261   4.304   5.391  0.8083  0.3129  0.0131
 8416SOL    HW136881   4.300   4.381   5.350  1.4342 -1.2176 -2.2207
 8416SOL    HW236882   4.197   4.346   5.450  0.7173 -2.1264  1.6722
 8417SOL     OW36883   4.708   1.008  10.258 -0.3479 -0.1819  0.0873
 8417SOL    HW136884   4.701   0.915  10.275 -0.1826  0.3213  2.8047
 8417SOL    HW236885   4.650   1.020  10.182 -1.4743  2.2088  1.3215
 8418SOL     OW36886   0.308   2.923  15.363 -0.5615  0.0712  0.6160
 8418SOL    HW136887   0.398   2.918  15.396 -0.3679  1.0381  0.2043
 8418SOL    HW236888   0.290   3.015  15.379 -1.6076  0.3201 -2.0695
 8419SOL     OW36889   1.544   0.641   5.200  0.6187  0.3783  0.1394
 8419SOL    HW136890   1.475   0.704   5.221 -1.8959 -2.0544 -0.8623
 8419SOL    HW236891   1.494   0.566   5.168  1.3700 -0.4207  0.8501
 8420SOL     OW36892   3.143   0.671   5.653  0.1052  0.6326 -0.2035
 8420SOL    HW136893   3.098   0.752   5.630 -1.4838  0.4225  2.1896
 8420SOL    HW236894   3.094   0.601   5.609 -0.0388  0.5922  0.0229
 8421SOL     OW36895   2.293   3.340  16.752 -0.4656  1.1661 -0.5875
 8421SOL    HW136896   2.204   3.332  16.787 -0.6082  2.3081 -0.6907
 8421SOL    HW236897   2.289   3.284  16.675  0.0235  2.6967 -1.7073
 8422SOL     OW36898   4.611   0.435  13.026 -0.3344 -0.4442  0.4450
 8422SOL    HW136899   4.574   0.518  13.055  0.4161  0.4083 -1.0167
 8422SOL    HW236900   4.540   0.390  12.980  0.3192  0.1743 -1.1666
 8423SOL     OW36901   1.651   2.046  15.335 -0.1560  0.7599  0.0030
 8423SOL    HW136902   1.655   1.957  15.370 -2.4695 -0.8157 -3.6279
 8423SOL    HW236903   1.716   2.088  15.391 -0.5816 -0.4307  1.3725
 8424SOL     OW36904   2.046   4.510   2.335 -0.1032  0.0772  0.1738
 8424SOL    HW136905   1.964   4.541   2.296 -1.3767 -1.0382  1.9486
 8424SOL    HW236906   2.018   4.486   2.423 -0.3349  2.5961  0.8008
 8425SOL     OW36907   0.091   3.609  14.419 -0.2232  0.2286  0.0835
 8425SOL    HW136908   0.049   3.693  14.438 -1.2019 -0.0242 -0.9826
 8425SOL    HW236909   0.089   3.548  14.493  0.4201  1.0579  0.7910
 8426SOL     OW36910   2.708   2.692   8.454  1.0447  0.1679  0.4106
 8426SOL    HW136911   2.747   2.647   8.528  2.7318  0.4789 -0.2909
 8426SOL    HW236912   2.651   2.759   8.492 -0.6614 -0.9064 -0.2183
 8427SOL     OW36913   2.130   0.421   7.415  0.2058 -0.0132 -0.1898
 8427SOL    HW136914   2.080   0.485   7.365  0.0444  1.6873  2.1395
 8427SOL    HW236915   2.092   0.346   7.370  0.2503 -0.1549  0.0056
 8428SOL     OW36916   1.088   2.096   8.073  0.1510 -0.3384 -0.3610
 8428SOL    HW136917   1.048   2.182   8.062 -1.4877 -0.7057  2.6090
 8428SOL    HW236918   1.170   2.102   8.024  0.7610  0.0254  0.6790
 8429SOL     OW36919   3.489   2.349   3.589  0.2096  0.9073 -0.2634
 8429SOL    HW136920   3.566   2.296   3.568 -1.5839 -2.5254  1.7968
 8429SOL    HW236921   3.439   2.322   3.512 -1.5482  2.2033  0.4190
 8430SOL     OW36922   1.720   3.560   2.419  0.5252  0.3530 -0.5485
 8430SOL    HW136923   1.715   3.564   2.514 -2.3103 -1.7979 -0.5987
 8430SOL    HW236924   1.627   3.560   2.394 -0.4228  0.3652  3.0885
 8431SOL     OW36925   0.351   3.073  14.464  0.4441 -0.5953  0.1513
 8431SOL    HW136926   0.296   3.136  14.418 -2.0268 -1.0731  2.3999
 8431SOL    HW236927   0.429   3.122  14.489  1.2353 -2.0079  0.4450
 8432SOL     OW36928   3.073   3.717   7.430  0.1323 -0.1878 -0.8797
 8432SOL    HW136929   3.057   3.633   7.387 -0.1733 -0.8215  0.4533
 8432SOL    HW236930   3.072   3.782   7.360  0.2659 -0.6760 -1.3349
 8433SOL     OW36931   2.967   2.348   8.924 -0.3095 -0.6511  0.3434
 8433SOL    HW136932   2.898   2.282   8.923  0.0738 -1.0306 -1.2013
 8433SOL    HW236933   2.970   2.382   9.013  0.6212 -2.0672  0.8476
 8434SOL     OW36934   3.018   3.503   6.575 -0.0219 -0.1168 -0.3261
 8434SOL    HW136935   3.042   3.582   6.526  3.0334 -1.0284 -0.2717
 8434SOL    HW236936   2.936   3.487   6.528  0.6172  2.9468 -2.4772
 8435SOL     OW36937   4.161   3.225  14.373 -0.1268 -0.0736  0.0717
 8435SOL    HW136938   4.103   3.257  14.442  1.1186  0.4985  0.8546
 8435SOL    HW236939   4.202   3.301  14.333  1.7305 -0.9543  0.3102
 8436SOL     OW36940   3.394   3.598   8.413  0.1340 -0.7055 -0.0646
 8436SOL    HW136941   3.468   3.538   8.407  2.1813  1.8720 -0.8781
 8436SOL    HW236942   3.357   3.580   8.499 -0.3168 -2.6456 -0.6737
 8437SOL     OW36943   1.358   0.321   5.841  0.3727  0.1629  0.8368
 8437SOL    HW136944   1.287   0.329   5.905  0.0353 -1.1029  0.6075
 8437SOL    HW236945   1.384   0.230   5.850 -0.1549 -0.3200 -2.5441
 8438SOL     OW36946   3.950   2.513   5.867  0.6687  0.3331 -0.1458
 8438SOL    HW136947   3.885   2.544   5.930  0.4648  0.9609 -0.6615
 8438SOL    HW236948   3.990   2.432   5.897 -0.2893 -0.4168 -0.9303
 8439SOL     OW36949   2.048   1.125  11.750 -0.4576  0.1708  0.2855
 8439SOL    HW136950   2.112   1.081  11.806 -1.0043  1.9913  2.3053
 8439SOL    HW236951   2.023   1.045  11.703  1.1030 -0.3910  0.4164
 8440SOL     OW36952   4.018   4.222  10.379  0.4089 -0.4899  0.1367
 8440SOL    HW136953   3.947   4.257  10.433  1.9862  0.7757  1.4070
 8440SOL    HW236954   4.092   4.217  10.439 -0.5277 -0.0778  1.3140
 8441SOL     OW36955   2.345   0.383  12.872  0.3423 -0.5444  0.5767
 8441SOL    HW136956   2.391   0.466  12.882 -1.1893  0.1476  1.7436
 8441SOL    HW236957   2.268   0.418  12.827 -0.1835 -0.2805  1.6952
 8442SOL     OW36958   0.538   2.509  16.131 -0.3962  0.0043  0.1684
 8442SOL    HW136959   0.490   2.434  16.095 -0.4676 -0.1772  0.6459
 8442SOL    HW236960   0.473   2.525  16.199 -2.4004 -0.8257 -1.5301
 8443SOL     OW36961   3.714   0.176  10.236  0.3026 -0.1937 -0.2530
 8443SOL    HW136962   3.650   0.115  10.198 -0.2967  0.0099  0.4285
 8443SOL    HW236963   3.783   0.189  10.171  2.3966 -2.0576  1.6120
 8444SOL     OW36964   1.674   1.653   6.083  0.0559  0.2772  0.1259
 8444SOL    HW136965   1.669   1.572   6.033 -0.3929 -0.1000  0.7947
 8444SOL    HW236966   1.602   1.693   6.034  0.7563  0.7744 -0.5040
 8445SOL     OW36967   3.988   2.677   6.147  0.2450 -0.1507  0.1264
 8445SOL    HW136968   4.045   2.754   6.156 -0.1500  0.1410  0.1489
 8445SOL    HW236969   3.989   2.648   6.238 -3.1609  0.7418  0.4688
 8446SOL     OW36970   3.906   2.840   4.315  0.1643  0.1912 -0.1462
 8446SOL    HW136971   3.828   2.789   4.338 -2.1578  3.8560  0.0734
 8446SOL    HW236972   3.865   2.922   4.290  1.3932  1.0826  0.7724
 8447SOL     OW36973   2.064   1.138   2.869  0.1677  0.2702  0.4255
 8447SOL    HW136974   2.090   1.183   2.788 -2.0298  0.5287 -0.1197
 8447SOL    HW236975   2.123   1.185   2.928 -1.2850  2.3352  0.2222
 8448SOL     OW36976   2.746   3.428   0.466  0.4122  0.1705  0.4635
 8448SOL    HW136977   2.733   3.428   0.371  1.7106 -0.4552  0.2785
 8448SOL    HW236978   2.658   3.402   0.494  0.9370 -2.0043  0.1158
 8449SOL     OW36979   0.124   3.025   3.143  0.0983 -0.3678 -0.1904
 8449SOL    HW136980   0.097   3.036   3.051 -0.3880 -0.5759 -0.0766
 8449SOL    HW236981   0.078   2.943   3.160  0.2556 -0.7629 -1.6387
 8450SOL     OW36982   3.146   4.072   7.972 -0.3533 -0.6824 -0.1915
 8450SOL    HW136983   3.185   4.159   7.971 -0.2366 -0.7227  0.4156
 8450SOL    HW236984   3.065   4.086   8.022 -0.7534 -1.2682 -0.6829
 8451SOL     OW36985   2.389   1.239   7.370 -0.1450  0.5033 -0.2044
 8451SOL    HW136986   2.439   1.312   7.407 -0.8458  0.9602 -0.1704
 8451SOL    HW236987   2.463   1.192   7.330 -1.1196  0.8420 -2.3956
 8452SOL     OW36988   0.442   2.829   8.150 -0.0340 -0.0603 -0.1045
 8452SOL    HW136989   0.507   2.760   8.132  0.4499  0.0348  1.3428
 8452SOL    HW236990   0.364   2.777   8.128  0.2446 -0.6914  0.3955
 8453SOL     OW36991   4.079   2.866   3.052 -0.0399  0.0139 -0.2785
 8453SOL    HW136992   4.053   2.774   3.052  2.9896 -0.8369  1.2942
 8453SOL    HW236993   4.091   2.879   3.146  0.3952 -1.8852 -0.0775
 8454SOL     OW36994   4.094   4.680   9.195 -0.3574  0.2470 -0.1391
 8454SOL    HW136995   4.006   4.662   9.162 -0.1752  2.3062 -1.7526
 8454SOL    HW236996   4.154   4.679   9.120 -1.4487 -0.3770 -1.0013
 8455SOL     OW36997   0.215   1.530   5.964  0.0105  0.2366  0.2342
 8455SOL    HW136998   0.150   1.460   5.969 -0.0268  0.3265  1.1557
 8455SOL    HW236999   0.252   1.524   6.052 -1.1348  1.7457  0.8128
 8456SOL     OW37000   2.024   1.821   8.243  0.4032  0.1812  0.3618
 8456SOL    HW137001   2.053   1.736   8.212 -0.6082 -0.3320  0.8515
 8456SOL    HW237002   1.983   1.871   8.173  0.3032  0.6169  0.7292
 8457SOL     OW37003   4.702   2.109   2.516 -0.2530  0.8362 -0.2796
 8457SOL    HW137004   4.683   2.202   2.503 -1.3795  0.4727 -1.1696
 8457SOL    HW237005   4.650   2.076   2.443 -1.2397 -0.2749  0.9274
 8458SOL     OW37006   2.940   4.626   2.756 -0.4195 -0.0750 -0.4607
 8458SOL    HW137007   2.929   4.703   2.701  0.7284 -1.1981 -2.2803
 8458SOL    HW237008   2.887   4.558   2.715 -0.3033 -0.9996  0.9257
 8459SOL     OW37009   3.468   1.452  15.072 -0.1079 -0.4371 -0.1995
 8459SOL    HW137010   3.459   1.392  14.998 -0.1386 -1.3431  0.5412
 8459SOL    HW237011   3.534   1.514  15.040 -0.2035  0.2792  0.9800
 8460SOL     OW37012   3.829   2.676   4.654 -0.0042  0.0528 -0.2746
 8460SOL    HW137013   3.842   2.760   4.698  1.0767  0.0285 -0.5444
 8460SOL    HW237014   3.917   2.663   4.617  0.0129 -2.8583  0.7893
 8461SOL     OW37015   0.856   2.294   8.243 -0.1653 -0.1545 -0.0283
 8461SOL    HW137016   0.789   2.352   8.278  0.5800  1.6976 -1.7122
 8461SOL    HW237017   0.841   2.301   8.149 -0.4313  0.6890  0.0823
 8462SOL     OW37018   0.435   1.562   4.433 -0.1235  0.0902 -0.0399
 8462SOL    HW137019   0.409   1.639   4.382 -0.1822  0.2537  0.2396
 8462SOL    HW237020   0.352   1.516   4.427 -1.0749  1.8840 -0.5104
 8463SOL     OW37021   0.122   0.994  15.276 -0.0051 -0.4872  0.3953
 8463SOL    HW137022   0.085   0.994  15.188  0.9303 -0.6136 -0.0019
 8463SOL    HW237023   0.172   1.076  15.276 -0.2873 -0.3014  4.2439
 8464SOL     OW37024   4.705   3.486   2.036  0.4456  0.4519 -0.1443
 8464SOL    HW137025   4.646   3.525   2.099  0.4297 -1.9503  1.3529
 8464SOL    HW237026   0.050   3.506   2.081 -1.6911  1.3330  3.3004
 8465SOL     OW37027   0.884   0.805   7.185 -0.1825 -0.1928 -0.2735
 8465SOL    HW137028   0.914   0.856   7.260  1.2672 -0.3829 -0.7219
 8465SOL    HW237029   0.968   0.768   7.157  1.1452  0.7573  2.4252
 8466SOL     OW37030   0.110   4.711   9.606  0.0841  0.2341 -0.0385
 8466SOL    HW137031   0.079   0.033   9.536  0.0681 -0.9327 -0.9978
 8466SOL    HW237032   0.028   4.673   9.637 -0.0878  1.4348  0.9797
 8467SOL     OW37033   0.881   2.359  16.885  0.1608 -0.6188  0.7206
 8467SOL    HW137034   0.898   2.406  16.804  1.4749 -1.7859  0.3258
 8467SOL    HW237035   0.810   2.305  16.849 -0.9586  0.6653  1.0028
 8468SOL     OW37036   1.394   1.874  15.849  0.5073 -0.0696 -0.2905
 8468SOL    HW137037   1.406   1.875  15.754 -0.9709  0.6703 -0.4646
 8468SOL    HW237038   1.302   1.850  15.843  0.7624 -0.4472 -2.7442
 8469SOL     OW37039   3.954   2.798   2.334 -0.3544  0.1804  0.4342
 8469SOL    HW137040   3.891   2.827   2.400 -0.3805 -1.1670  0.9953
 8469SOL    HW237041   4.026   2.857   2.357 -0.7391  0.3543  1.2063
 8470SOL     OW37042   0.592   1.938   2.196  0.0094 -0.1226 -0.2009
 8470SOL    HW137043   0.594   1.996   2.272  0.7973 -0.7678  0.2787
 8470SOL    HW237044   0.657   1.975   2.136  1.5503  1.2712  2.3242
 8471SOL     OW37045   2.217   3.922   5.243  0.7306  0.3261 -0.5592
 8471SOL    HW137046   2.270   3.958   5.172 -0.4918  0.0796 -1.6026
 8471SOL    HW237047   2.261   3.840   5.265 -0.6439 -0.2188  0.1801
 8472SOL     OW37048   4.465   0.277   8.938  0.4180  0.0548  0.1305
 8472SOL    HW137049   4.386   0.292   8.989  0.5421 -0.2678  0.4266
 8472SOL    HW237050   4.492   0.367   8.923  0.8696 -0.0875  0.0628
 8473SOL     OW37051   2.677   0.012   7.134  0.4345  0.4786  0.0250
 8473SOL    HW137052   2.728   0.048   7.061 -1.9506  1.2731 -1.2601
 8473SOL    HW237053   2.607   0.077   7.143  0.3285  0.2620  0.6830
 8474SOL     OW37054   3.623   3.354   1.905 -0.2267  0.1716 -0.2844
 8474SOL    HW137055   3.589   3.368   1.993  0.4412 -1.8055  0.3043
 8474SOL    HW237056   3.713   3.339   1.936 -0.0494 -0.6710 -1.2099
 8475SOL     OW37057   3.038   1.990   9.460 -0.2997  0.2416  0.3427
 8475SOL    HW137058   3.048   2.085   9.461 -0.2315  0.2437 -0.8823
 8475SOL    HW237059   3.062   1.978   9.552  0.1613 -0.7630  0.0959
 8476SOL     OW37060   3.638   1.339   3.562 -0.0493  0.0613  0.1130
 8476SOL    HW137061   3.698   1.339   3.488  2.4921 -1.5540  2.1501
 8476SOL    HW237062   3.552   1.343   3.518  0.5740 -0.6336 -1.1639
 8477SOL     OW37063   4.367   1.760  12.290 -0.5336  0.2540 -0.1682
 8477SOL    HW137064   4.278   1.790  12.307 -1.6794 -2.5907 -1.0555
 8477SOL    HW237065   4.414   1.841  12.311  0.9653 -0.5944 -0.2245
 8478SOL     OW37066   4.678   1.324  15.289 -0.2784  0.1906 -0.2617
 8478SOL    HW137067   4.703   1.400  15.236  2.0477 -0.0600  0.5055
 8478SOL    HW237068   4.597   1.289  15.252 -0.4064 -1.5570  1.6955
 8479SOL     OW37069   0.357   1.039   2.394 -0.3207 -0.2266  0.4498
 8479SOL    HW137070   0.380   0.999   2.477 -0.9560  1.4761  1.4387
 8479SOL    HW237071   0.391   1.128   2.408  1.7215 -0.7583 -1.0735
 8480SOL     OW37072   4.132   0.092  13.502  0.3756 -0.1043 -0.0184
 8480SOL    HW137073   4.183   0.136  13.434  2.1893 -0.2628  1.2490
 8480SOL    HW237074   4.157   0.152  13.572  1.5012 -1.6745  0.9014
 8481SOL     OW37075   2.607   2.170   7.546 -0.6673 -0.0236 -0.2212
 8481SOL    HW137076   2.609   2.256   7.504 -2.3688  0.4267  0.6094
 8481SOL    HW237077   2.553   2.120   7.484  0.2525  0.4710 -1.4125
 8482SOL     OW37078   0.590   2.566   6.222 -0.4697 -0.1338  0.2164
 8482SOL    HW137079   0.625   2.482   6.250 -0.2637 -1.2954 -3.5101
 8482SOL    HW237080   0.535   2.590   6.297  1.3696  0.6414  1.3265
 8483SOL     OW37081   2.519   2.375   2.465  0.1037 -0.0127 -0.0480
 8483SOL    HW137082   2.459   2.404   2.397  0.2499  0.5508  0.0577
 8483SOL    HW237083   2.583   2.446   2.466 -2.5292  2.3592 -1.2886
 8484SOL     OW37084   1.501   1.114   1.332 -0.0917 -0.2955  0.7512
 8484SOL    HW137085   1.452   1.190   1.365 -1.1502 -0.4233 -0.5599
 8484SOL    HW237086   1.443   1.043   1.358  0.5845 -0.9826  0.3699
 8485SOL     OW37087   4.030   4.129   4.312 -0.0668  0.0194  0.1991
 8485SOL    HW137088   3.936   4.123   4.292  0.4829 -0.3203 -2.2889
 8485SOL    HW237089   4.040   4.090   4.399  0.0652  0.9026  0.5805
 8486SOL     OW37090   2.853   3.856  14.438 -0.0089  0.2186  0.1630
 8486SOL    HW137091   2.930   3.801  14.449  1.1629  1.8349  0.0397
 8486SOL    HW237092   2.784   3.797  14.406  1.4953 -2.2637  1.5030
 8487SOL     OW37093   3.113   2.018   5.968  0.3632  0.0646  0.4490
 8487SOL    HW137094   3.161   1.937   5.956 -0.1069 -0.1825  0.1983
 8487SOL    HW237095   3.190   2.075   5.966  0.6670 -0.3278  1.3504
 8488SOL     OW37096   4.328   3.078   2.603 -0.1616 -0.3359 -0.1995
 8488SOL    HW137097   4.353   3.162   2.641  0.6476  0.4937 -2.5526
 8488SOL    HW237098   4.413   3.034   2.599 -0.4196 -1.0845  2.3830
 8489SOL     OW37099   1.567   1.974   1.123  0.1504 -0.2929  0.4134
 8489SOL    HW137100   1.662   1.984   1.134  0.2634  0.3259 -1.0591
 8489SOL    HW237101   1.566   1.880   1.106  0.5572 -0.7913  3.1988
 8490SOL     OW37102   2.325   2.863   6.052 -0.5156  0.0615 -1.3316
 8490SOL    HW137103   2.243   2.833   6.091 -0.3894  0.8823 -0.4522
 8490SOL    HW237104   2.364   2.781   6.021  0.0268 -0.5373  0.9074
 8491SOL     OW37105   1.864   1.507  10.183 -0.1643  0.1352 -0.0674
 8491SOL    HW137106   1.864   1.581  10.122 -3.5180 -0.0048 -0.2489
 8491SOL    HW237107   1.922   1.545  10.249 -0.6435  0.2408  0.2925
 8492SOL     OW37108   0.320   2.896   9.493 -0.1736 -0.5913  0.0367
 8492SOL    HW137109   0.403   2.883   9.446  0.2151 -0.3027  0.6426
 8492SOL    HW237110   0.365   2.890   9.577 -0.5289 -0.3626  0.2389
 8493SOL     OW37111   0.137   1.204  16.261  0.5377 -0.8207 -0.0939
 8493SOL    HW137112   0.085   1.273  16.220  1.2491  0.1212  0.5856
 8493SOL    HW237113   0.069   1.140  16.284 -0.9714  1.2803  1.2071
 8494SOL     OW37114   3.264   4.635  14.062 -0.0026 -0.4415 -0.6771
 8494SOL    HW137115   3.206   4.563  14.040  0.1216 -0.2013 -1.8336
 8494SOL    HW237116   3.231   4.658  14.149 -0.4083 -0.3573 -0.8570
 8495SOL     OW37117   1.853   4.180   3.956 -0.0020  0.3838  0.1060
 8495SOL    HW137118   1.843   4.272   3.933 -0.8802  0.4685  0.8134
 8495SOL    HW237119   1.922   4.142   3.903 -1.3294 -1.8571 -0.0292
 8496SOL     OW37120   1.136   4.585   2.923 -0.0005 -0.6370 -0.3858
 8496SOL    HW137121   1.217   4.537   2.938  0.1778 -0.1582  0.2088
 8496SOL    HW237122   1.088   4.520   2.872 -1.7926  1.5987 -1.5464
 8497SOL     OW37123   4.664   2.694   4.155 -0.2323 -0.2035 -0.6031
 8497SOL    HW137124   4.597   2.625   4.157 -1.7749  1.2983 -0.5369
 8497SOL    HW237125   4.623   2.764   4.104 -2.4632  1.1539  3.0162
 8498SOL     OW37126   1.039   2.011   2.137 -0.1037 -0.8527 -0.3216
 8498SOL    HW137127   1.103   1.940   2.148 -1.5949 -2.5505 -2.5023
 8498SOL    HW237128   1.072   2.068   2.206  0.0356 -0.2929 -0.8584
 8499SOL     OW37129   3.286   1.913   4.608 -0.0067  0.0078  0.7230
 8499SOL    HW137130   3.246   1.945   4.689  2.2323  0.0104  1.8519
 8499SOL    HW237131   3.296   1.995   4.560  3.6274 -0.9752 -0.2187
 8500SOL     OW37132   1.538   1.685   4.042  0.6371  0.4067  0.1789
 8500SOL    HW137133   1.579   1.672   4.128 -0.7001  0.2382  0.7969
 8500SOL    HW237134   1.470   1.749   4.064 -0.3136 -0.4900 -0.1856
 8501SOL     OW37135   0.473   0.212   2.355  0.4266  0.0220 -0.7378
 8501SOL    HW137136   0.427   0.134   2.386 -1.5561  0.7931 -1.7618
 8501SOL    HW237137   0.403   0.246   2.299  0.1996 -1.1988 -1.1745
 8502SOL     OW37138   2.197   2.601   1.421  0.1660  0.3540  0.2005
 8502SOL    HW137139   2.237   2.646   1.496  1.2290 -0.4312  0.1029
 8502SOL    HW237140   2.252   2.631   1.348  0.3847 -0.2068  0.1360
 8503SOL     OW37141   0.774   3.178  17.569 -0.5468  0.1804  0.4409
 8503SOL    HW137142   0.808   3.097  17.532  0.2367 -0.4183  2.4793
 8503SOL    HW237143   0.838   3.208  17.633 -1.4026 -0.8510  1.7799
 8504SOL     OW37144   0.214   0.474   2.799 -0.2938 -0.2497  0.6005
 8504SOL    HW137145   0.249   0.542   2.857 -1.4301  1.0141 -0.1887
 8504SOL    HW237146   0.139   0.454   2.856  1.0837 -1.4049  2.0076
 8505SOL     OW37147   0.088   2.876   6.609 -0.0290  0.6479  0.7875
 8505SOL    HW137148   0.059   2.832   6.529  0.8277 -0.7750  1.2617
 8505SOL    HW237149   0.085   2.969   6.585  0.3825  0.0405 -1.5853
 8506SOL     OW37150   1.693   2.536   1.617  0.6704  0.2982  0.3113
 8506SOL    HW137151   1.709   2.479   1.542 -0.3312  0.8435 -0.3155
 8506SOL    HW237152   1.782   2.549   1.652  1.4434 -1.6660 -0.9484
 8507SOL     OW37153   2.577   4.012  11.403 -0.1356  0.1741 -0.0950
 8507SOL    HW137154   2.622   4.081  11.452 -1.2511 -0.5913  1.9526
 8507SOL    HW237155   2.648   3.962  11.361  0.3095 -0.3184  1.2635
 8508SOL     OW37156   0.548   0.907   8.672 -0.0354 -0.3817  0.2724
 8508SOL    HW137157   0.605   0.861   8.610  0.9405  0.2482  0.7058
 8508SOL    HW237158   0.471   0.853   8.692  0.8512 -2.2312 -1.2941
 8509SOL     OW37159   1.148   3.234  14.003 -0.1180  0.0391  0.2510
 8509SOL    HW137160   1.204   3.156  14.003 -0.9809 -0.5791 -0.6281
 8509SOL    HW237161   1.096   3.213  14.081  0.4003 -0.1432  0.5479
 8510SOL     OW37162   3.925   3.059   7.308  0.4275 -0.0159 -0.4332
 8510SOL    HW137163   3.978   3.008   7.247 -1.7295 -0.9344 -1.5384
 8510SOL    HW237164   3.994   3.102   7.358 -0.7645 -0.6771  1.7722
 8511SOL     OW37165   4.630   4.192   5.624  0.1529  0.3768 -0.2980
 8511SOL    HW137166   4.568   4.124   5.597 -1.2561  1.6210 -0.2097
 8511SOL    HW237167   4.712   4.143   5.617  0.7661  1.6121 -1.9497
 8512SOL     OW37168   2.634   1.840  16.388 -0.8419 -1.0301 -0.1010
 8512SOL    HW137169   2.698   1.805  16.449 -1.9667 -1.4311  0.8571
 8512SOL    HW237170   2.641   1.789  16.307 -2.0590  1.5516 -1.8589
 8513SOL     OW37171   3.047   1.935   3.398 -0.7996 -0.1741  0.2063
 8513SOL    HW137172   3.132   1.954   3.359 -1.2078  1.6088  0.2065
 8513SOL    HW237173   3.031   1.841   3.389 -0.1718 -0.0989 -1.6611
 8514SOL     OW37174   4.514   3.080  16.178 -0.1705  0.0494  0.1765
 8514SOL    HW137175   4.540   3.046  16.264 -1.1989 -1.9286 -0.2971
 8514SOL    HW237176   4.456   3.013  16.141  0.9292 -0.5545 -0.4749
 8515SOL     OW37177   3.792   4.620   8.831 -0.3375 -0.0527 -0.3806
 8515SOL    HW137178   3.697   4.616   8.827 -0.5598  5.1576 -0.3910
 8515SOL    HW237179   3.798   4.531   8.865 -0.9788  0.2637  0.5598
 8516SOL     OW37180   2.359   2.905   9.420  0.2203  0.4395 -0.4190
 8516SOL    HW137181   2.373   2.961   9.496 -0.7890  1.5654 -1.0734
 8516SOL    HW237182   2.275   2.865   9.446  1.3980 -2.0427 -0.4008
 8517SOL     OW37183   4.212   1.260   6.518  0.2694  0.1392 -0.4635
 8517SOL    HW137184   4.154   1.286   6.446 -0.3832 -0.7942 -0.2769
 8517SOL    HW237185   4.200   1.334   6.578 -2.4114 -0.6763  0.0459
 8518SOL     OW37186   2.732   1.392   6.564  0.3440 -0.5396  0.6199
 8518SOL    HW137187   2.720   1.369   6.656  1.2731 -1.5952  0.4742
 8518SOL    HW237188   2.825   1.369   6.560 -0.3818 -3.4279  0.2754
 8519SOL     OW37189   3.552   1.346   8.451 -0.0130  0.0523  0.1849
 8519SOL    HW137190   3.638   1.304   8.447 -0.1475 -0.2055  0.0187
 8519SOL    HW237191   3.531   1.350   8.358 -1.0936 -0.4595  0.4055
 8520SOL     OW37192   2.612   2.376   8.805  0.2269  0.4476  0.5100
 8520SOL    HW137193   2.645   2.286   8.802 -1.1560 -0.0755  0.8020
 8520SOL    HW237194   2.671   2.431   8.754  0.7455 -1.8730 -1.4144
 8521SOL     OW37195   2.323   3.038  11.640 -0.4994 -0.4907  0.3700
 8521SOL    HW137196   2.259   3.098  11.604  0.5520 -0.5503 -1.5800
 8521SOL    HW237197   2.271   2.982  11.698 -1.0598 -0.4482 -0.0927
 8522SOL     OW37198   2.747   1.125   7.419  0.1118  0.0831  0.1429
 8522SOL    HW137199   2.722   1.116   7.327 -1.3312 -0.1559  0.5499
 8522SOL    HW237200   2.794   1.042   7.433  0.4421 -0.3434 -3.4593
 8523SOL     OW37201   3.457   4.285   2.807 -0.2694 -0.0963 -0.1281
 8523SOL    HW137202   3.416   4.309   2.724 -1.6303 -0.0464  0.5564
 8523SOL    HW237203   3.516   4.359   2.821 -0.1928 -0.0452 -0.7384
 8524SOL     OW37204   2.302   1.955   3.210 -0.7684 -0.1537 -0.4095
 8524SOL    HW137205   2.302   1.896   3.135  2.7066  0.6699 -1.0711
 8524SOL    HW237206   2.386   1.941   3.255  0.4278  3.3341 -1.5415
 8525SOL     OW37207   1.653   0.728   4.882 -0.5991 -0.4409 -0.4686
 8525SOL    HW137208   1.721   0.718   4.816 -0.5651  1.7953 -0.7737
 8525SOL    HW237209   1.671   0.660   4.946 -2.0718  0.0348  0.4529
 8526SOL     OW37210   0.383   1.189   3.180  0.2912  0.1528 -0.0376
 8526SOL    HW137211   0.430   1.105   3.175  0.3860  0.1839  0.3179
 8526SOL    HW237212   0.327   1.190   3.103 -1.9901 -1.4561  1.6061
 8527SOL     OW37213   2.886   3.706   3.024  0.2799 -0.0731  0.1469
 8527SOL    HW137214   2.969   3.747   2.998  0.6509  0.1158  1.6207
 8527SOL    HW237215   2.887   3.729   3.117 -0.4965 -0.5596  0.2735
 8528SOL     OW37216   0.700   3.020   9.105 -0.2468 -0.2193  0.0403
 8528SOL    HW137217   0.731   3.046   9.018  3.6183  1.9960  2.1216
 8528SOL    HW237218   0.744   3.078   9.167 -0.9208 -1.0031  1.2590
 8529SOL     OW37219   0.648   4.612   6.601 -0.0956  0.5189  0.6979
 8529SOL    HW137220   0.682   4.675   6.537 -0.8396  0.4044  0.1950
 8529SOL    HW237221   0.602   4.545   6.552  1.1327 -0.6447  1.1321
 8530SOL     OW37222   2.988   3.444   1.253  0.2083 -0.3079  0.1782
 8530SOL    HW137223   3.043   3.492   1.191 -0.7646  1.3349  0.5921
 8530SOL    HW237224   2.986   3.500   1.330 -1.6620 -0.1078 -0.0107
 8531SOL     OW37225   2.200   4.124  11.857 -0.2476  0.3145 -0.5242
 8531SOL    HW137226   2.254   4.128  11.778  0.5721 -1.4274 -0.0607
 8531SOL    HW237227   2.200   4.028  11.860 -0.5887  0.4088  2.1533
 8532SOL     OW37228   1.085   4.088   7.454 -0.4446 -0.3858  0.2462
 8532SOL    HW137229   1.175   4.119   7.446 -0.4710 -0.6462 -0.9972
 8532SOL    HW237230   1.041   4.123   7.377 -0.4620 -3.1088 -0.9809
 8533SOL     OW37231   3.320   4.382   8.699  0.3051  0.1011  0.4568
 8533SOL    HW137232   3.278   4.298   8.720  0.6171 -0.5144 -1.3660
 8533SOL    HW237233   3.377   4.356   8.626  0.6117  1.3627  0.2534
 8534SOL     OW37234   1.652   1.976   6.935  0.2201  0.3022  0.4137
 8534SOL    HW137235   1.729   2.004   6.985  1.4963 -1.5587 -0.4781
 8534SOL    HW237236   1.600   2.056   6.933  1.8665  1.3490 -1.7288
 8535SOL     OW37237   1.162   0.175   1.097  0.0081  0.6733  0.2974
 8535SOL    HW137238   1.194   0.179   1.187 -0.8952  0.7823  0.6118
 8535SOL    HW237239   1.242   0.207   1.056 -1.0884  3.1082  0.0542
 8536SOL     OW37240   0.727   4.472   7.442 -0.1856 -0.3137  0.7447
 8536SOL    HW137241   0.736   4.428   7.358 -4.0492 -0.5386  0.4516
 8536SOL    HW237242   0.735   4.563   7.414  0.5784 -0.5265  0.2868
 8537SOL     OW37243   1.047   2.289   4.453 -0.1825 -0.4782 -0.3576
 8537SOL    HW137244   0.985   2.359   4.433  1.2851  1.5356  2.0873
 8537SOL    HW237245   1.006   2.209   4.419  0.4117 -1.6177  1.5727
 8538SOL     OW37246   4.002   2.690   7.694  0.0354  0.0735  0.0161
 8538SOL    HW137247   4.039   2.604   7.713  0.8261 -0.2212 -2.8175
 8538SOL    HW237248   3.914   2.690   7.731  0.5217  1.1441  1.1653
 8539SOL     OW37249   1.434   3.897   7.957 -0.3564 -0.5358 -0.3629
 8539SOL    HW137250   1.505   3.832   7.965 -0.8959 -0.7957  2.5264
 8539SOL    HW237251   1.394   3.894   8.044  1.9577 -1.6381  0.6669
 8540SOL     OW37252   4.384   1.076   3.797  0.2371 -0.4017  0.2960
 8540SOL    HW137253   4.317   1.017   3.761  0.2068  1.4024 -2.5844
 8540SOL    HW237254   4.455   1.014   3.814 -0.2768 -1.7660 -2.4120
 8541SOL     OW37255   1.409   2.493   2.055 -0.2341 -0.0633 -0.1212
 8541SOL    HW137256   1.467   2.504   2.131  1.8213 -1.2396 -1.5159
 8541SOL    HW237257   1.355   2.570   2.071  0.8462  0.7184 -0.2947
 8542SOL     OW37258   3.016   1.846   7.463  0.4831 -0.1866  0.4733
 8542SOL    HW137259   2.921   1.844   7.453  0.4285 -3.1032  1.6742
 8542SOL    HW237260   3.034   1.924   7.516  0.8799  1.5223 -2.2033
 8543SOL     OW37261   1.216   3.557   1.285 -0.0456 -0.4581 -0.0160
 8543SOL    HW137262   1.258   3.493   1.227  0.7579 -0.4034  0.5067
 8543SOL    HW237263   1.131   3.513   1.287 -0.6228  0.6903  0.6097
 8544SOL     OW37264   1.937   3.431   4.507  0.2873  0.7318  0.0844
 8544SOL    HW137265   1.885   3.362   4.466  0.1397  1.8608 -1.6303
 8544SOL    HW237266   1.904   3.514   4.473  0.3268  0.3658 -0.8471
 8545SOL     OW37267   1.197   0.927   2.867 -0.0289  0.1098  0.0127
 8545SOL    HW137268   1.180   1.020   2.851 -0.4245  0.2052  0.9751
 8545SOL    HW237269   1.107   0.895   2.876 -0.3296  0.7107 -0.8626
 8546SOL     OW37270   3.679   0.605   7.397  0.1200 -0.3175 -0.1087
 8546SOL    HW137271   3.754   0.594   7.456  1.1950 -0.3522 -1.5035
 8546SOL    HW237272   3.715   0.554   7.325  1.1615 -2.5518  1.9803
 8547SOL     OW37273   0.676   4.673   8.390  0.8169  0.6033 -0.2902
 8547SOL    HW137274   0.704   0.020   8.352  0.3431  0.3244 -1.2596
 8547SOL    HW237275   0.582   4.687   8.377  0.4209 -1.2957  0.4679
 8548SOL     OW37276   4.081   1.989   8.924 -0.3012 -0.2310 -0.3318
 8548SOL    HW137277   4.090   1.907   8.875  1.7177  0.2596 -0.7993
 8548SOL    HW237278   4.002   1.970   8.974  1.0707  3.0323  3.0526
 8549SOL     OW37279   0.997   4.244   0.608 -0.4679  0.0211  0.2985
 8549SOL    HW137280   1.036   4.243   0.695  1.0824  0.5542 -0.3914
 8549SOL    HW237281   0.907   4.269   0.629 -0.4417  1.0012 -0.7686
 8550SOL     OW37282   4.168   2.090   9.412 -0.3822 -0.1189 -0.1984
 8550SOL    HW137283   4.174   2.149   9.487 -0.0621  0.5535 -0.7441
 8550SOL    HW237284   4.158   2.007   9.459 -1.8122 -0.0878 -0.4472
 8551SOL     OW37285   1.788   2.509   6.421  0.3057  0.0638 -0.3288
 8551SOL    HW137286   1.875   2.488   6.387 -0.3208 -1.6946 -0.8358
 8551SOL    HW237287   1.742   2.451   6.360 -0.3558 -1.7546  1.9186
 8552SOL     OW37288   1.718   1.705  16.885 -0.1669 -0.1697  0.5403
 8552SOL    HW137289   1.751   1.631  16.936  0.6345 -1.1685 -1.3918
 8552SOL    HW237290   1.799   1.756  16.874  1.3684 -2.6063  0.4188
 8553SOL     OW37291   1.309   0.441   9.314  0.1394 -0.0862 -0.4070
 8553SOL    HW137292   1.308   0.372   9.247  2.3668 -1.4941  0.9872
 8553SOL    HW237293   1.369   0.404   9.379  1.3437  2.1594 -0.2520
 8554SOL     OW37294   0.331   0.183  13.765  0.4712 -0.2939 -0.1784
 8554SOL    HW137295   0.322   0.091  13.789  0.9723 -0.4314 -0.5298
 8554SOL    HW237296   0.281   0.190  13.683  1.3592 -1.8877 -0.8575
 8555SOL     OW37297   3.844   1.359   2.677  0.0223  0.0516  0.2190
 8555SOL    HW137298   3.888   1.318   2.751  1.3694  3.0807  1.0921
 8555SOL    HW237299   3.900   1.327   2.606  0.5491  1.4833 -0.0131
 8556SOL     OW37300   2.647   3.003  15.611  0.1575  0.0665 -0.3698
 8556SOL    HW137301   2.669   2.921  15.566 -0.3108  0.8529 -2.0309
 8556SOL    HW237302   2.722   3.059  15.596  0.3962 -0.4428 -1.0654
 8557SOL     OW37303   3.405   0.378   0.737  0.0536 -0.0184 -0.1768
 8557SOL    HW137304   3.468   0.385   0.810 -0.3338  0.6140  0.0969
 8557SOL    HW237305   3.354   0.455   0.763 -3.1240 -1.6036 -1.7398
 8558SOL     OW37306   4.139   0.960   4.816 -0.2153  0.0360  0.2702
 8558SOL    HW137307   4.185   1.043   4.829 -4.1196  2.4366 -1.1499
 8558SOL    HW237308   4.109   0.978   4.727 -2.6707 -0.2903  1.0365
 8559SOL     OW37309   3.945   4.019   7.923 -0.7509  0.5767  0.0617
 8559SOL    HW137310   4.029   4.049   7.959  0.6437 -0.7608 -2.0710
 8559SOL    HW237311   3.964   4.036   7.831  0.5938  0.3509  0.2981
 8560SOL     OW37312   2.570   1.533   3.325 -0.3405 -0.9510 -0.2225
 8560SOL    HW137313   2.532   1.451   3.293  0.2778 -0.4372 -2.2702
 8560SOL    HW237314   2.662   1.505   3.329 -0.4649 -1.1085  1.5449
 8561SOL     OW37315   3.519   4.600  16.560  0.2441  0.9838  0.0210
 8561SOL    HW137316   3.481   4.512  16.564 -4.2172  2.8930 -0.2409
 8561SOL    HW237317   3.443   4.654  16.535 -0.3959 -0.4602 -1.1086
 8562SOL     OW37318   1.390   1.006  11.249 -0.3885  0.2888 -0.5229
 8562SOL    HW137319   1.368   1.002  11.342  0.3978  0.4328 -0.3309
 8562SOL    HW237320   1.442   1.085  11.264  0.2222 -0.2070 -0.0194
 8563SOL     OW37321   1.751   2.015   8.161  0.1427 -0.6536 -0.2504
 8563SOL    HW137322   1.837   2.021   8.120 -0.0775  0.4910 -0.5527
 8563SOL    HW237323   1.768   2.081   8.229  0.4144 -3.0795  2.0544
 8564SOL     OW37324   4.474   4.654   0.814 -0.2720 -0.1224 -0.0637
 8564SOL    HW137325   4.504   4.576   0.859  1.1433  0.4339 -0.0328
 8564SOL    HW237326   4.413   4.610   0.755 -1.9272  1.9843  0.0720
 8565SOL     OW37327   3.614   2.140   1.314  0.3442 -0.3516 -0.3552
 8565SOL    HW137328   3.569   2.223   1.332 -0.4539 -0.6239 -1.1196
 8565SOL    HW237329   3.651   2.147   1.226  3.3429  0.8425  0.9765
 8566SOL     OW37330   4.114   0.451   8.670 -0.0444 -0.2784 -0.0232
 8566SOL    HW137331   4.119   0.526   8.610 -2.0032 -0.0053  0.1464
 8566SOL    HW237332   4.115   0.379   8.608 -0.6874 -2.0017  1.9716
 8567SOL     OW37333   1.407   3.213   7.867  0.5612  0.7459  0.2526
 8567SOL    HW137334   1.342   3.275   7.900  1.7684  1.0290  2.1363
 8567SOL    HW237335   1.454   3.189   7.947  0.5911 -2.5788 -0.7790
 8568SOL     OW37336   3.876   0.637  11.025  0.0374  0.3803 -0.3161
 8568SOL    HW137337   3.952   0.680  11.064 -0.5988  0.9629  0.2865
 8568SOL    HW237338   3.890   0.666  10.935  1.4885  0.4780 -0.0502
 8569SOL     OW37339   4.185   4.702  12.266  0.6724 -0.2625  0.0563
 8569SOL    HW137340   4.262   0.008  12.229  1.0004  1.1839  2.3927
 8569SOL    HW237341   4.189   0.006  12.353  0.6556  0.0866 -0.1087
 8570SOL     OW37342   4.524   0.049   7.621  0.1320  0.8867  0.4634
 8570SOL    HW137343   4.575   4.725   7.675  0.4920  0.4476 -0.3706
 8570SOL    HW237344   4.570   0.133   7.632 -0.1803  1.2668 -1.1913
 8571SOL     OW37345   4.002   3.734   8.121 -0.0687  0.5873 -0.0144
 8571SOL    HW137346   4.063   3.675   8.078 -0.1248  0.3078  0.2868
 8571SOL    HW237347   4.042   3.740   8.208 -0.0030 -1.2588  0.0784
 8572SOL     OW37348   4.017   2.713  16.273  0.3664 -0.0824 -0.2224
 8572SOL    HW137349   4.008   2.711  16.177 -1.8078 -0.3016 -0.0093
 8572SOL    HW237350   4.079   2.643  16.289  0.8468  0.2768 -0.4971
 8573SOL     OW37351   0.570   3.134   4.059 -0.0405 -0.2564  0.1754
 8573SOL    HW137352   0.530   3.085   4.131  1.3951 -0.7261  0.6556
 8573SOL    HW237353   0.523   3.101   3.983  2.1957  0.9019 -1.7180
 8574SOL     OW37354   0.511   0.745   5.530 -0.2114 -0.0204 -0.5023
 8574SOL    HW137355   0.560   0.783   5.603 -0.8638  0.3421 -0.2576
 8574SOL    HW237356   0.497   0.818   5.470 -1.5075 -1.0602 -1.4797
 8575SOL     OW37357   2.114   2.147   2.422  0.0720  0.4798 -0.4563
 8575SOL    HW137358   2.185   2.086   2.441 -1.2314 -0.3270  1.7229
 8575SOL    HW237359   2.060   2.140   2.500  3.3853  2.2232  2.0224
 8576SOL     OW37360   1.156   1.795  17.615  0.9076  0.2255 -0.4709
 8576SOL    HW137361   1.097   1.722  17.634  0.3579  1.1213  1.2468
 8576SOL    HW237362   1.228   1.773  17.674  0.7376  1.2662  0.1175
 8577SOL     OW37363   0.022   2.760   3.153 -0.1547 -0.1092  0.1258
 8577SOL    HW137364   0.073   2.680   3.147 -1.0808 -0.6394 -0.6617
 8577SOL    HW237365   4.703   2.743   3.077  0.9057 -0.9221 -0.4607
 8578SOL     OW37366   4.621   1.056  11.503 -0.4422 -0.0179 -0.6022
 8578SOL    HW137367   4.604   1.132  11.447 -0.4230 -0.5251 -1.2951
 8578SOL    HW237368   4.662   1.004  11.434  0.4393 -0.7552  0.4723
 8579SOL     OW37369   4.467   3.540   6.733 -0.1014  0.2010  0.4670
 8579SOL    HW137370   4.429   3.530   6.645  1.4434  0.0809 -0.1795
 8579SOL    HW237371   4.393   3.570   6.786 -1.5399 -1.9954 -0.2726
 8580SOL     OW37372   1.625   3.674   0.556 -0.5513 -0.3061 -0.0736
 8580SOL    HW137373   1.615   3.755   0.506  0.5893 -1.0489 -1.5046
 8580SOL    HW237374   1.700   3.698   0.610  0.1076  2.3269 -2.1436
 8581SOL     OW37375   2.249   3.737  12.564 -0.3526 -0.5171  0.9651
 8581SOL    HW137376   2.279   3.716  12.653  0.4658 -1.0101  0.5708
 8581SOL    HW237377   2.325   3.777  12.522 -1.6096  1.3206  0.4625
 8582SOL     OW37378   3.089   3.028   6.274 -0.0152 -0.4527  0.2310
 8582SOL    HW137379   3.118   3.036   6.183  0.1396  0.7541  0.3860
 8582SOL    HW237380   3.026   3.099   6.282  2.1149  1.6548 -1.9418
 8583SOL     OW37381   1.546   3.017  16.373  0.5413 -0.3535  0.1193
 8583SOL    HW137382   1.545   3.049  16.283 -1.6236  2.2402  1.0508
 8583SOL    HW237383   1.506   2.931  16.362 -0.2867 -0.0781  0.9890
 8584SOL     OW37384   1.447   0.163   6.837  0.5538  0.0002  0.1112
 8584SOL    HW137385   1.505   0.230   6.872  2.3252 -1.5928  0.1701
 8584SOL    HW237386   1.464   0.092   6.899 -1.7408 -0.6706 -0.0270
 8585SOL     OW37387   2.114   1.488   2.121  0.1297  0.0432 -0.2686
 8585SOL    HW137388   2.092   1.558   2.059  2.2668  1.0589  0.1138
 8585SOL    HW237389   2.187   1.523   2.172 -0.3403  0.3626  0.1844
 8586SOL     OW37390   2.984   1.316   1.632 -0.0447  0.0672 -0.0521
 8586SOL    HW137391   2.972   1.223   1.613 -2.1235  0.2685  0.2978
 8586SOL    HW237392   3.062   1.330   1.579 -1.9851 -0.3275 -3.0266
 8587SOL     OW37393   0.958   0.269  12.489 -0.2145 -0.0856  0.1454
 8587SOL    HW137394   0.997   0.184  12.472  1.6725  1.1954 -2.0079
 8587SOL    HW237395   0.904   0.278  12.410  0.5204  1.4950 -0.1752
 8588SOL     OW37396   4.129   2.452   1.694 -0.0289  0.4107 -0.0963
 8588SOL    HW137397   4.035   2.467   1.690 -0.2167 -0.5951  0.4831
 8588SOL    HW237398   4.141   2.460   1.788 -0.7017  2.1375 -0.1692
 8589SOL     OW37399   1.717   1.459   3.905  0.0321 -0.3153  0.4478
 8589SOL    HW137400   1.671   1.537   3.934  0.7677  0.7638 -1.3310
 8589SOL    HW237401   1.681   1.390   3.961 -1.6632 -1.8165 -2.5090
 8590SOL     OW37402   0.128   3.492   5.120 -0.0727  0.2029  0.1888
 8590SOL    HW137403   0.042   3.502   5.081 -0.1422  0.4977  0.4162
 8590SOL    HW237404   0.125   3.407   5.163  2.1684 -0.3892 -0.8191
 8591SOL     OW37405   0.564   0.067   5.023  0.4211  0.0105  0.1507
 8591SOL    HW137406   0.570   0.108   5.109 -1.9637  0.5451  0.0779
 8591SOL    HW237407   0.516   4.721   5.034 -0.9689  0.8366  0.3239
 8592SOL     OW37408   2.303   1.579   4.178  0.4752 -0.3872  0.1417
 8592SOL    HW137409   2.281   1.567   4.086  1.3158 -2.0529  0.1624
 8592SOL    HW237410   2.290   1.674   4.185  0.9246 -0.2983 -0.2521
 8593SOL     OW37411   3.913   0.430   3.954 -0.3145 -0.5928  0.5878
 8593SOL    HW137412   3.867   0.491   3.896 -0.0998 -0.4422  0.5756
 8593SOL    HW237413   3.942   0.499   4.015  0.1474 -1.5531  1.4538
 8594SOL     OW37414   2.943   1.434   8.999  0.4537  0.3649 -0.6519
 8594SOL    HW137415   2.900   1.442   8.915  0.9354  1.8013 -0.7581
 8594SOL    HW237416   3.029   1.397   8.978  0.6119 -0.5841  1.6566
 8595SOL     OW37417   4.294   0.770  10.326 -0.0776 -0.7621 -0.0672
 8595SOL    HW137418   4.279   0.741  10.416 -1.5928 -0.5657 -0.2601
 8595SOL    HW237419   4.239   0.849  10.324  0.1469 -0.5968  0.3014
 8596SOL     OW37420   4.514   2.656   7.819 -0.4559  0.6377 -0.2034
 8596SOL    HW137421   4.560   2.652   7.903 -0.1798 -2.6488 -0.5091
 8596SOL    HW237422   4.425   2.674   7.847 -0.2619 -1.6698  1.9667
 8597SOL     OW37423   1.336   2.731  11.844 -0.4713 -0.3126  0.3021
 8597SOL    HW137424   1.332   2.666  11.914 -0.3141  0.6818  1.2351
 8597SOL    HW237425   1.352   2.666  11.775 -1.2330 -0.8830  0.6735
 8598SOL     OW37426   1.069   4.717  15.914 -0.5087  0.0046  0.4770
 8598SOL    HW137427   1.038   0.062  15.875 -1.6427 -0.8276 -0.3598
 8598SOL    HW237428   1.048   4.669  15.834 -0.1851 -0.1879  0.5074
 8599SOL     OW37429   1.742   3.866   7.787 -0.0459 -0.2526 -0.3387
 8599SOL    HW137430   1.752   3.814   7.867 -1.3263  0.3982  0.2485
 8599SOL    HW237431   1.810   3.932   7.801 -0.0791 -0.9550  3.1034
 8600SOL     OW37432   1.769   0.619  12.131  0.5303  0.3527 -0.6014
 8600SOL    HW137433   1.674   0.611  12.147  0.3722  3.1941 -0.0835
 8600SOL    HW237434   1.772   0.561  12.055 -0.1003 -0.3529 -0.0936
 8601SOL     OW37435   1.574   0.093   4.504 -0.7730  0.2179  0.5032
 8601SOL    HW137436   1.497   0.045   4.476 -0.8826 -0.4902  2.0081
 8601SOL    HW237437   1.637   0.020   4.510 -3.0506 -2.0368 -2.8349
 8602SOL     OW37438   2.388   1.898  12.838 -0.0498  0.2518 -0.0992
 8602SOL    HW137439   2.423   1.987  12.843 -2.0274  1.0601 -0.8521
 8602SOL    HW237440   2.436   1.869  12.759 -1.6291  0.7489 -1.2330
 8603SOL     OW37441   3.255   4.019   5.427 -0.1160  0.3789 -0.4531
 8603SOL    HW137442   3.259   4.115   5.426 -0.8668  0.4054 -0.4694
 8603SOL    HW237443   3.283   3.995   5.339 -0.0011  2.8997 -1.1045
 8604SOL     OW37444   3.628   0.465   5.441 -0.0998  0.4571  0.4691
 8604SOL    HW137445   3.682   0.544   5.438  0.3317 -0.0254 -3.7324
 8604SOL    HW237446   3.570   0.471   5.365  0.5883 -2.2170 -0.2610
 8605SOL     OW37447   2.692   0.492   5.738 -0.5562  0.2198  0.0215
 8605SOL    HW137448   2.779   0.473   5.774 -0.4293 -0.7019 -0.7590
 8605SOL    HW237449   2.702   0.585   5.717 -0.3253  0.4239  1.0301
 8606SOL     OW37450   4.698   1.886  12.208 -0.0649  0.2988 -0.0745
 8606SOL    HW137451   4.616   1.845  12.180 -0.0073 -1.2012  1.9009
 8606SOL    HW237452   4.702   1.830  12.286  2.6009 -0.0094 -0.4497
 8607SOL     OW37453   3.113   2.052   7.650 -0.4728  0.1510 -0.1617
 8607SOL    HW137454   3.193   2.099   7.626  0.8798 -2.2947 -0.4448
 8607SOL    HW237455   3.047   2.121   7.641 -0.1724  0.3224 -1.0338
 8608SOL     OW37456   3.468   4.641  17.652 -0.7175  0.3413  0.1828
 8608SOL    HW137457   3.404   4.643  17.581 -1.2735 -1.0373  0.6352
 8608SOL    HW237458   3.410   4.659  17.725  1.9595  0.7708  2.1900
 8609SOL     OW37459   3.406   3.566  15.573  0.5031 -0.0137 -0.6082
 8609SOL    HW137460   3.349   3.531  15.503 -1.0710 -1.8219  1.5841
 8609SOL    HW237461   3.451   3.491  15.611  1.6232 -0.4327 -2.7429
 8610SOL     OW37462   0.299   2.311   3.972  0.1219 -0.0508 -0.1127
 8610SOL    HW137463   0.286   2.388   4.028  2.4222  0.0852  0.2452
 8610SOL    HW237464   0.312   2.348   3.885 -1.9774  0.2542 -0.3025
 8611SOL     OW37465   4.511   3.122   6.653 -0.2698  0.0656  0.5901
 8611SOL    HW137466   4.564   3.043   6.659 -0.9257 -0.3722  0.6591
 8611SOL    HW237467   4.511   3.149   6.561  2.6784  0.7037  0.7857
 8612SOL     OW37468   0.598   4.609  15.536  0.4479 -0.2844 -0.3181
 8612SOL    HW137469   0.541   4.564  15.474  1.9620  1.3480 -2.8878
 8612SOL    HW237470   0.655   4.535  15.556 -0.3311 -0.6030  0.7042
 8613SOL     OW37471   2.306   2.405  10.876  0.7070  0.2212 -0.1675
 8613SOL    HW137472   2.373   2.450  10.825  2.0512 -1.7493 -0.1419
 8613SOL    HW237473   2.309   2.470  10.946 -2.0778 -0.2723  0.4150
 8614SOL     OW37474   4.392   3.164   8.874  0.2381  0.1593  0.7429
 8614SOL    HW137475   4.387   3.249   8.918  0.8092  0.2138  0.7058
 8614SOL    HW237476   4.417   3.187   8.784 -0.6730 -0.5988  0.3055
 8615SOL     OW37477   1.513   0.492   8.345 -0.3207 -0.0320  0.3231
 8615SOL    HW137478   1.490   0.455   8.430  0.8329 -1.8813 -0.1718
 8615SOL    HW237479   1.490   0.424   8.281  2.0238 -1.0184  0.5145
 8616SOL     OW37480   3.943   3.157  17.629 -0.1779 -0.6798 -0.1672
 8616SOL    HW137481   3.973   3.066  17.635  1.3744 -0.1167  0.7716
 8616SOL    HW237482   3.930   3.175  17.722 -0.1272 -0.4944 -0.1957
 8617SOL     OW37483   0.720   4.559   8.638  0.1092 -0.6722 -0.1190
 8617SOL    HW137484   0.695   4.578   8.547 -0.7273  1.5324  0.5795
 8617SOL    HW237485   0.799   4.611   8.650 -0.5169  0.0583  0.8452
 8618SOL     OW37486   1.650   2.420  11.416 -0.0192 -0.5841  0.6802
 8618SOL    HW137487   1.598   2.382  11.486  1.5372  0.5827  2.4479
 8618SOL    HW237488   1.735   2.379  11.425 -0.5619 -1.8849 -0.1117
 8619SOL     OW37489   4.496   2.235  17.695  0.3403  0.0868 -0.0310
 8619SOL    HW137490   4.560   2.291  17.651  2.0251  1.3764  4.0874
 8619SOL    HW237491   4.545   2.230   0.033  2.0253 -0.1788 -1.0474
 8620SOL     OW37492   4.674   0.661   3.158 -0.5397  0.4800  0.0749
 8620SOL    HW137493   0.021   0.708   3.147 -0.4945 -0.0688 -1.8364
 8620SOL    HW237494   4.652   0.634   3.069 -0.9669  1.8699 -0.2308
 8621SOL     OW37495   1.904   3.483   5.018  0.0676  0.6222  0.0183
 8621SOL    HW137496   1.941   3.417   5.075 -1.5081  2.4343  3.1291
 8621SOL    HW237497   1.944   3.561   5.056  0.9818  1.7120 -3.1561
 8622SOL     OW37498   3.812   2.434  16.946 -0.4114  0.0795 -0.0236
 8622SOL    HW137499   3.783   2.346  16.923  2.4677 -1.2172  1.1849
 8622SOL    HW237500   3.846   2.468  16.863 -0.8116 -0.8337 -0.5524
 8623SOL     OW37501   4.688   3.415   7.131  0.4374  0.1830  0.3309
 8623SOL    HW137502   0.014   3.479   7.097  0.4523  0.2185  0.4226
 8623SOL    HW237503   4.611   3.466   7.155  0.2159 -0.8678  1.8726
 8624SOL     OW37504   4.510   0.787  11.838  0.0933  0.1281  0.8112
 8624SOL    HW137505   4.523   0.821  11.750 -3.4050  1.0638  0.6304
 8624SOL    HW237506   4.578   0.838  11.883 -0.1175  0.5165  0.6932
 8625SOL     OW37507   0.378   0.549   5.257 -0.4686 -0.2995 -0.2634
 8625SOL    HW137508   0.335   0.571   5.175  2.7403 -2.5999 -2.5517
 8625SOL    HW237509   0.328   0.471   5.280  0.7715 -0.6425  1.3618
 8626SOL     OW37510   1.124   0.770   5.036  0.0154 -0.3971  0.6140
 8626SOL    HW137511   1.149   0.849   4.990  2.2843 -1.9844 -0.8715
 8626SOL    HW237512   1.168   0.709   4.977 -1.2841  0.5146 -1.3096
 8627SOL     OW37513   0.662   2.268  14.714  0.5457 -0.1814  0.4117
 8627SOL    HW137514   0.708   2.200  14.665 -0.5738  0.6709 -1.8514
 8627SOL    HW237515   0.577   2.226  14.700  0.3109 -0.4808  2.8276
 8628SOL     OW37516   3.238   2.237  15.796 -0.3000 -0.8855 -0.0415
 8628SOL    HW137517   3.311   2.179  15.818 -1.4311 -2.7567 -1.1636
 8628SOL    HW237518   3.174   2.179  15.754  0.5279 -1.1216 -0.9776
 8629SOL     OW37519   0.590   1.157   4.470 -0.0363  0.0544 -0.4259
 8629SOL    HW137520   0.572   1.076   4.518  0.6437 -0.9633 -1.9055
 8629SOL    HW237521   0.658   1.120   4.413 -0.2946 -1.2139  0.0787
 8630SOL     OW37522   3.214   1.219  11.221  0.0037 -0.2149  0.1086
 8630SOL    HW137523   3.248   1.190  11.306 -1.7046  2.4099  1.6791
 8630SOL    HW237524   3.288   1.275  11.197  0.9191 -1.3252  0.3135
 8631SOL     OW37525   0.950   1.265   3.380  0.0143 -0.0367  0.0933
 8631SOL    HW137526   1.007   1.330   3.420  1.2825 -0.6727 -0.6856
 8631SOL    HW237527   0.889   1.321   3.332 -0.5043 -1.9658 -1.4965
 8632SOL     OW37528   3.448   2.757   4.507  0.0235 -0.1404 -0.0313
 8632SOL    HW137529   3.405   2.842   4.496  2.0360  0.8436 -0.2383
 8632SOL    HW237530   3.428   2.722   4.420  0.8903 -0.2859 -0.1775
 8633SOL     OW37531   0.425   1.374  13.538  0.0014  0.4970 -0.6819
 8633SOL    HW137532   0.345   1.380  13.590  0.9247  0.3953  0.7547
 8633SOL    HW237533   0.458   1.462  13.558  0.2194  0.1799  0.2978
 8634SOL     OW37534   0.405   2.158   4.385 -0.2853  0.0361  0.1008
 8634SOL    HW137535   0.362   2.226   4.333 -1.5935 -1.7121 -1.1066
 8634SOL    HW237536   0.416   2.080   4.331 -1.3820 -1.2989  1.7817
 8635SOL     OW37537   2.061   3.052   7.502  0.1351 -0.2169  0.0013
 8635SOL    HW137538   2.024   3.113   7.438  0.1915 -0.0702  0.1091
 8635SOL    HW237539   2.110   3.114   7.556 -1.2521  0.8250  0.0818
 8636SOL     OW37540   3.810   3.737   1.854 -0.2273 -0.3713  0.2667
 8636SOL    HW137541   3.743   3.687   1.808  1.6571 -1.2429 -1.5464
 8636SOL    HW237542   3.889   3.690   1.825  2.3261  2.1531  3.1404
 8637SOL     OW37543   2.197   3.122   7.950  0.0379 -0.1850 -0.2574
 8637SOL    HW137544   2.204   3.035   7.989 -0.2336 -0.3059 -0.4812
 8637SOL    HW237545   2.262   3.125   7.880  0.6737 -1.4901  0.2897
 8638SOL     OW37546   0.269   3.920   9.637 -0.2741  0.3679  0.1734
 8638SOL    HW137547   0.306   4.008   9.632 -0.7880  0.4576 -1.7378
 8638SOL    HW237548   0.318   3.872   9.571  0.7031 -0.8905  1.8210
 8639SOL     OW37549   2.993   4.512   4.878 -0.5468 -0.6411  0.1337
 8639SOL    HW137550   2.911   4.464   4.868 -0.7691  0.2301 -2.3766
 8639SOL    HW237551   3.016   4.499   4.786  0.9612 -0.6035  0.5121
 8640SOL     OW37552   2.758   1.946   4.647  0.1113  0.4140 -0.6794
 8640SOL    HW137553   2.690   1.879   4.640  0.5171  0.1332 -1.8646
 8640SOL    HW237554   2.767   1.949   4.742 -1.1131 -1.4854 -0.5115
 8641SOL     OW37555   2.098   4.119   0.911  0.3551  0.0177  0.3288
 8641SOL    HW137556   2.111   4.024   0.905  0.3507  0.2626 -3.3281
 8641SOL    HW237557   2.102   4.146   0.820  1.2593 -1.3269 -0.0465
 8642SOL     OW37558   2.159   0.193  15.838 -0.6388  0.0057  0.2354
 8642SOL    HW137559   2.135   0.252  15.910  1.8385  1.5270 -0.2111
 8642SOL    HW237560   2.155   0.245  15.758  1.0747  1.9099  1.3728
 8643SOL     OW37561   2.578   3.223   8.075  0.0759 -0.6762  0.2577
 8643SOL    HW137562   2.498   3.198   8.123  0.1892 -0.0608  0.7637
 8643SOL    HW237563   2.637   3.153   8.102  0.7496 -0.4231 -0.5873
 8644SOL     OW37564   2.798   0.040   3.576 -0.7289 -0.0741 -0.2796
 8644SOL    HW137565   2.841   0.096   3.510 -1.0672 -0.7321 -1.0593
 8644SOL    HW237566   2.760   0.105   3.634 -0.0369 -0.1324  0.2324
 8645SOL     OW37567   1.495   4.089   4.917  0.2698  0.4244  0.5489
 8645SOL    HW137568   1.426   4.033   4.881 -0.4958  1.2084  0.8027
 8645SOL    HW237569   1.486   4.076   5.012  1.6243  0.4869  0.6867
 8646SOL     OW37570   4.557   4.321   7.672  0.4753 -0.2777  0.2557
 8646SOL    HW137571   4.638   4.270   7.667  2.0930  2.3899 -0.9649
 8646SOL    HW237572   4.591   4.407   7.698  1.0077  0.0653 -1.5438
 8647SOL     OW37573   0.585   1.910  11.278 -1.0017  0.3100  0.3968
 8647SOL    HW137574   0.648   1.838  11.281 -0.4548  0.8469  1.6789
 8647SOL    HW237575   0.632   1.966  11.216  0.5448 -1.6069 -0.1547
 8648SOL     OW37576   4.174   3.530  16.233 -0.0753  0.0543 -0.3056
 8648SOL    HW137577   4.189   3.557  16.142  2.2453  1.1635  0.4361
 8648SOL    HW237578   4.263   3.537  16.266 -0.1604  1.1238 -0.2884
 8649SOL     OW37579   4.707   0.847  16.706 -0.2721 -0.5323 -0.3330
 8649SOL    HW137580   4.672   0.928  16.668  1.6127  0.3227 -0.2581
 8649SOL    HW237581   4.661   0.844  16.790  1.6486 -1.3151  0.6935
 8650SOL     OW37582   2.983   3.260   7.687 -0.0704  0.5130 -0.2630
 8650SOL    HW137583   2.889   3.279   7.689 -0.5066 -1.9312  1.6690
 8650SOL    HW237584   2.993   3.200   7.761 -3.8247  0.2725  0.0276
 8651SOL     OW37585   0.938   3.167   0.417  0.1592 -0.1606  0.9959
 8651SOL    HW137586   1.030   3.191   0.420 -0.2596  0.9682  3.9866
 8651SOL    HW237587   0.892   3.250   0.406 -2.5988 -1.3408  3.8460
 8652SOL     OW37588   2.322   0.435   9.858 -0.4043 -0.2229  0.0673
 8652SOL    HW137589   2.281   0.434   9.945  0.4018  1.7291  0.4497
 8652SOL    HW237590   2.327   0.530   9.848  1.7671 -0.2227  1.2176
 8653SOL     OW37591   4.654   2.351   5.580  0.2240  0.2620  0.3157
 8653SOL    HW137592   4.657   2.446   5.593  0.1929  0.5777 -1.9294
 8653SOL    HW237593   4.558   2.351   5.576  0.2635  1.3691 -0.4923
 8654SOL     OW37594   1.323   3.027   4.853  0.0029  0.7236  0.2373
 8654SOL    HW137595   1.315   3.058   4.763  2.6454  1.7982  0.3671
 8654SOL    HW237596   1.350   3.103   4.906  0.3875  2.2185 -2.1081
 8655SOL     OW37597   0.822   4.624   3.184 -0.1495  0.3729  0.3510
 8655SOL    HW137598   0.891   4.667   3.133 -0.2545 -0.2964 -0.3525
 8655SOL    HW237599   0.751   4.617   3.120  0.9132 -0.9038 -0.6720
 8656SOL     OW37600   1.872   2.528   2.455  0.4126  0.1141 -0.5374
 8656SOL    HW137601   1.930   2.523   2.531 -2.2763  1.8916  1.6279
 8656SOL    HW237602   1.793   2.565   2.495  1.7466  3.4914 -1.0609
 8657SOL     OW37603   3.266   4.538   3.350 -0.5158  0.3959 -0.1412
 8657SOL    HW137604   3.229   4.506   3.267 -1.7403 -1.5009  1.1184
 8657SOL    HW237605   3.215   4.487   3.413  0.9167 -2.4923 -1.2969
 8658SOL     OW37606   0.794   4.632   9.592 -0.0632 -0.1760 -0.2213
 8658SOL    HW137607   0.791   4.716   9.546  0.6149 -0.9022 -1.6042
 8658SOL    HW237608   0.700   4.613   9.594 -0.4501  1.5733 -1.4666
 8659SOL     OW37609   1.940   3.813  14.838 -0.1549  0.3755 -1.0081
 8659SOL    HW137610   1.896   3.851  14.914 -0.0768 -0.3651 -0.5868
 8659SOL    HW237611   1.999   3.885  14.819 -0.0238  1.2384  2.6341
 8660SOL     OW37612   1.380   3.110   3.565 -0.0577  0.2981 -0.2907
 8660SOL    HW137613   1.351   3.024   3.595  2.9476 -0.6822 -0.1708
 8660SOL    HW237614   1.473   3.091   3.580 -0.3373 -1.2614 -0.6092
 8661SOL     OW37615   2.955   2.118  12.823  0.5205 -0.6982  0.3518
 8661SOL    HW137616   2.936   2.084  12.735  1.5142 -0.2915 -0.0102
 8661SOL    HW237617   3.000   2.200  12.804  1.1047 -1.0070  0.4315
 8662SOL     OW37618   3.972   3.585   2.595 -0.0621 -0.1549  0.2069
 8662SOL    HW137619   4.051   3.531   2.599  0.0549 -0.0679 -1.0665
 8662SOL    HW237620   3.955   3.578   2.501  1.8852 -0.4921 -0.1202
 8663SOL     OW37621   2.203   1.465   8.896 -0.4281 -0.0947  0.3786
 8663SOL    HW137622   2.155   1.477   8.978 -2.6414 -0.1579 -0.8961
 8663SOL    HW237623   2.206   1.554   8.863  0.8835 -0.4538 -0.4819
 8664SOL     OW37624   3.459   1.005   6.435  0.2584  0.0183  0.0377
 8664SOL    HW137625   3.418   1.012   6.521  0.0629  0.5041 -0.0957
 8664SOL    HW237626   3.489   0.914   6.427  0.2402  0.0812 -0.8138
 8665SOL     OW37627   2.701   0.814   5.114  0.0766  0.4014  0.1160
 8665SOL    HW137628   2.727   0.884   5.053  1.0158 -1.1714 -1.3081
 8665SOL    HW237629   2.628   0.858   5.158 -0.8582 -2.5352  1.4581
 8666SOL     OW37630   3.165   0.822   2.837  0.2498 -0.0519 -0.3311
 8666SOL    HW137631   3.216   0.788   2.910  0.8575  0.8769 -0.3195
 8666SOL    HW237632   3.087   0.838   2.891 -0.7740 -1.6079 -1.3415
 8667SOL     OW37633   0.975   0.912   3.902 -0.0695  0.0644  0.5284
 8667SOL    HW137634   0.965   0.843   3.836 -0.1462  3.1651 -2.7315
 8667SOL    HW237635   0.958   0.991   3.850  1.1899  0.1789  0.2993
 8668SOL     OW37636   3.922   3.241   4.525 -0.4063  0.4190  0.7807
 8668SOL    HW137637   3.834   3.255   4.489 -0.1086 -3.3065 -1.3359
 8668SOL    HW237638   3.907   3.266   4.616 -4.4492 -0.4094  0.3246
 8669SOL     OW37639   1.636   2.518   8.919 -0.0477  0.1251  0.0731
 8669SOL    HW137640   1.697   2.579   8.960 -1.7405  1.1975  0.9947
 8669SOL    HW237641   1.655   2.514   8.825 -0.0945  3.0889 -0.0440
 8670SOL     OW37642   3.989   3.433   7.622  0.0226  0.1574 -0.7955
 8670SOL    HW137643   3.944   3.411   7.703  2.3725  0.5176  0.6235
 8670SOL    HW237644   3.967   3.526   7.619 -3.4708 -0.6906 -1.0077
 8671SOL     OW37645   3.223   1.096   3.928 -0.0308 -0.2595  0.6681
 8671SOL    HW137646   3.201   1.178   3.972  0.5624 -0.2979  1.0457
 8671SOL    HW237647   3.291   1.059   3.985 -0.9425 -1.3930  1.0152
 8672SOL     OW37648   4.435   4.174  10.917  0.0091  0.1401  0.0097
 8672SOL    HW137649   4.397   4.261  10.925 -0.7645 -0.1948 -0.0131
 8672SOL    HW237650   4.492   4.154  10.992 -0.0094 -0.2412 -0.0775
 8673SOL     OW37651   4.445   0.884   5.033  0.5605 -0.4319  0.0375
 8673SOL    HW137652   4.490   0.956   5.078 -2.8318 -0.2707  3.2519
 8673SOL    HW237653   4.488   0.804   5.061  1.8986  0.7523  1.3707
 8674SOL     OW37654   1.584   2.925  17.178  0.6362 -0.3307  0.2261
 8674SOL    HW137655   1.526   3.001  17.192  2.0573  0.6200  0.9315
 8674SOL    HW237656   1.522   2.854  17.163  0.5808  0.0019 -1.1510
 8675SOL     OW37657   3.944   2.665  15.980  0.0794  0.2037 -0.0552
 8675SOL    HW137658   3.930   2.592  16.040  0.4222  2.6381  2.9853
 8675SOL    HW237659   3.972   2.630  15.896  1.1079 -0.0380  0.3931
 8676SOL     OW37660   2.180   0.894   2.084  0.2054  0.0483 -0.3837
 8676SOL    HW137661   2.112   0.877   2.148  1.3629  0.3380  0.9132
 8676SOL    HW237662   2.248   0.833   2.111 -0.5091  0.0354  1.3337
 8677SOL     OW37663   2.156   2.402   2.940  0.1316  0.3141 -0.6275
 8677SOL    HW137664   2.159   2.443   3.027  1.5041  0.4901 -0.7568
 8677SOL    HW237665   2.248   2.398   2.914  0.3425  3.4720 -0.4145
 8678SOL     OW37666   1.797   4.367  17.567 -0.3438 -0.1522  0.2417
 8678SOL    HW137667   1.847   4.432  17.616  1.9771 -1.9464  0.2611
 8678SOL    HW237668   1.724   4.415  17.529 -0.7666 -0.8574  0.1683
 8679SOL     OW37669   4.192   3.245   3.817 -0.1672 -0.2385  0.7586
 8679SOL    HW137670   4.209   3.299   3.740  1.2608 -1.2087  0.3804
 8679SOL    HW237671   4.148   3.316   3.863  0.3578  1.5985 -1.5694
 8680SOL     OW37672   2.697   4.579  15.484 -0.2142  0.3477 -0.6421
 8680SOL    HW137673   2.747   4.638  15.429  0.1092  0.7932  0.1291
 8680SOL    HW237674   2.659   4.652  15.533 -0.6574 -0.6185  0.4746
 8681SOL     OW37675   4.658   0.310  13.618 -0.2558 -0.1123  0.5218
 8681SOL    HW137676   4.598   0.254  13.668 -0.4890 -0.3941 -0.0755
 8681SOL    HW237677   4.593   0.370  13.582  0.6472 -0.7003 -2.0695
 8682SOL     OW37678   2.771   3.355   1.081  0.7291 -0.5000  0.3969
 8682SOL    HW137679   2.808   3.371   1.168  1.1492  3.1471 -0.4850
 8682SOL    HW237680   2.769   3.442   1.042 -1.9543 -0.4595  0.5966
 8683SOL     OW37681   1.341   0.552  11.918  0.2837 -0.0178 -0.4173
 8683SOL    HW137682   1.290   0.576  11.995 -0.6096 -0.2336 -0.9424
 8683SOL    HW237683   1.273   0.520  11.859 -0.8479  0.4880  0.6004
 8684SOL     OW37684   2.964   3.519   3.650 -0.7495  0.2724 -0.2942
 8684SOL    HW137685   3.039   3.502   3.594 -1.6264  0.4686 -1.5308
 8684SOL    HW237686   3.003   3.594   3.694  1.1871  0.0233 -1.5649
 8685SOL     OW37687   1.316   3.451  17.688  0.0544 -0.2732 -0.0871
 8685SOL    HW137688   1.401   3.424  17.722  0.6670 -0.0926 -1.4817
 8685SOL    HW237689   1.347   3.505  17.616  0.3704  0.5360  0.6631
 8686SOL     OW37690   4.532   3.302   3.498  0.2344 -0.0529 -0.2981
 8686SOL    HW137691   4.608   3.310   3.557 -0.3012 -0.1163  0.4029
 8686SOL    HW237692   4.576   3.259   3.425 -0.8252  0.4835 -1.2524
 8687SOL     OW37693   0.265   1.064   7.114  0.0580 -0.4137 -0.2492
 8687SOL    HW137694   0.188   1.051   7.057 -0.2159 -2.1221  0.5148
 8687SOL    HW237695   0.269   1.159   7.114 -1.6548 -0.3330  3.3359
 8688SOL     OW37696   2.150   2.278   1.888  0.3302 -0.0060  0.5572
 8688SOL    HW137697   2.217   2.234   1.939  3.3862  2.5711 -1.2757
 8688SOL    HW237698   2.199   2.323   1.820 -0.2954  0.1129  0.1780
 8689SOL     OW37699   3.306   0.361   7.559 -0.0314 -0.2554  0.3951
 8689SOL    HW137700   3.245   0.333   7.627  1.2109 -0.9746  1.2065
 8689SOL    HW237701   3.259   0.433   7.516  0.6744  0.3505  0.6577
 8690SOL     OW37702   3.988   0.053  10.523  0.2771  0.1532 -0.4177
 8690SOL    HW137703   4.082   0.033  10.523 -0.1221 -1.6840 -0.0841
 8690SOL    HW237704   3.992   0.149  10.519  0.0548  0.2543  2.0879
 8691SOL     OW37705   1.964   4.026   5.789  0.1867  0.1539  0.1081
 8691SOL    HW137706   1.911   4.086   5.737 -0.4346  0.0897  0.6684
 8691SOL    HW237707   1.917   3.945   5.770  0.1703  0.2422 -0.2192
 8692SOL     OW37708   3.434   1.673   2.820 -0.1658  0.0828 -0.5140
 8692SOL    HW137709   3.461   1.756   2.779  1.4441 -0.1371  0.1058
 8692SOL    HW237710   3.511   1.626   2.790  0.4374  1.2715 -0.8259
 8693SOL     OW37711   2.703   4.003  13.805  0.1973 -0.2353 -0.1060
 8693SOL    HW137712   2.756   3.924  13.803 -1.0955 -1.1044 -0.3356
 8693SOL    HW237713   2.726   4.044  13.889 -0.0157  1.5994 -0.9586
 8694SOL     OW37714   2.787   1.059  10.918 -0.6026  0.2904  0.2347
 8694SOL    HW137715   2.791   0.975  10.963  1.8330 -0.9304 -2.2241
 8694SOL    HW237716   2.878   1.088  10.920 -0.3453 -0.5138  0.0726
 8695SOL     OW37717   3.141   3.963  14.858  0.3378  0.6339 -0.3658
 8695SOL    HW137718   3.059   4.006  14.881  0.5444  0.9413 -0.2075
 8695SOL    HW237719   3.101   3.883  14.824  0.3165  0.6688 -0.4235
 8696SOL     OW37720   2.704   4.542   5.675  0.6460 -0.7902  0.1368
 8696SOL    HW137721   2.740   4.571   5.592 -2.6716 -0.3887 -1.1684
 8696SOL    HW237722   2.695   4.449   5.652  2.0368 -1.2161  1.2924
 8697SOL     OW37723   3.066   2.821   7.517  0.1404 -0.0327  0.0308
 8697SOL    HW137724   3.095   2.911   7.524  0.3645 -0.0632 -0.4726
 8697SOL    HW237725   3.039   2.808   7.426 -1.1669 -0.6109  0.4932
 8698SOL     OW37726   3.714   0.040  16.429 -0.0379  0.2825 -0.5432
 8698SOL    HW137727   3.736   4.695  16.385  0.5143  0.6470 -0.9383
 8698SOL    HW237728   3.654   0.009  16.497 -0.4812  0.2668 -0.9384
 8699SOL     OW37729   2.702   2.854   5.401  0.0824 -0.6938  0.5260
 8699SOL    HW137730   2.793   2.860   5.431  1.1397 -1.7933 -2.4472
 8699SOL    HW237731   2.724   2.826   5.312 -0.0231 -0.0708  0.3043
 8700SOL     OW37732   1.022   1.802  15.539 -0.1346  0.1960  0.2706
 8700SOL    HW137733   0.982   1.757  15.464 -2.0925  1.4189  0.5650
 8700SOL    HW237734   0.958   1.872  15.548 -0.1641  0.2221 -0.1296
 8701SOL     OW37735   3.647   4.653   9.437 -0.0037  0.4716 -0.3118
 8701SOL    HW137736   3.719   4.716   9.449  0.3319  0.5268 -2.5083
 8701SOL    HW237737   3.683   4.572   9.472  0.6432  2.3987  3.4591
 8702SOL     OW37738   1.704   3.426   7.302 -0.3382 -0.2133  0.2144
 8702SOL    HW137739   1.687   3.509   7.346  1.2951 -0.8206  2.0068
 8702SOL    HW237740   1.799   3.434   7.293 -0.3599 -0.6568 -0.4233
 8703SOL     OW37741   1.926   3.727   7.563 -0.3495 -0.1703 -0.4049
 8703SOL    HW137742   1.930   3.822   7.571  1.3897 -0.2180 -0.6205
 8703SOL    HW237743   1.995   3.706   7.626 -2.3124 -2.8586  0.8146
 8704SOL     OW37744   2.941   3.090   3.304 -0.0220 -0.3420  0.5369
 8704SOL    HW137745   3.035   3.089   3.324  0.2572  1.5607 -0.7623
 8704SOL    HW237746   2.922   3.178   3.271 -1.5382 -0.6432  0.6153
 8705SOL     OW37747   3.721   3.748   6.873  0.5670 -0.5297  0.1940
 8705SOL    HW137748   3.806   3.748   6.918  0.7587  3.0332 -0.2127
 8705SOL    HW237749   3.676   3.782   6.951  2.5401  2.0403  0.2032
 8706SOL     OW37750   4.689   0.026  13.091 -0.3255  0.1241 -0.2662
 8706SOL    HW137751   4.723   4.686  13.044  1.0674  1.4661 -1.4428
 8706SOL    HW237752   0.005   0.095  13.051 -1.6740  0.5738 -1.2715
 8707SOL     OW37753   1.722   4.622  10.147  0.2025  0.0902  0.0901
 8707SOL    HW137754   1.692   4.553  10.206 -0.1697 -0.2457 -0.4822
 8707SOL    HW237755   1.694   4.695  10.202 -0.1847 -1.2598  1.6693
 8708SOL     OW37756   3.149   3.806   1.635 -0.0474 -0.2221  0.1045
 8708SOL    HW137757   3.112   3.890   1.661  3.3713  1.3288 -0.0874
 8708SOL    HW237758   3.243   3.823   1.642 -0.3119  1.1865  0.3107
 8709SOL     OW37759   0.585   1.687  10.110 -0.0584 -0.2982 -0.0516
 8709SOL    HW137760   0.661   1.692  10.168 -2.8490  0.1368  3.5431
 8709SOL    HW237761   0.512   1.713  10.165  0.5345  4.1580 -1.4119
 8710SOL     OW37762   1.746   2.932   3.758 -0.1920  0.0484 -0.2626
 8710SOL    HW137763   1.699   2.950   3.677 -1.0247  0.0834  0.2226
 8710SOL    HW237764   1.701   2.852   3.783  1.7053 -0.4515  1.5810
 8711SOL     OW37765   0.539   2.061   3.768 -1.0208  0.6006 -0.1672
 8711SOL    HW137766   0.533   2.126   3.697  3.9371 -1.3596 -2.3270
 8711SOL    HW237767   0.615   2.009   3.742  0.0540  2.4655 -0.7904
 8712SOL     OW37768   0.526   3.482   1.657  0.0036 -0.4503  0.4265
 8712SOL    HW137769   0.443   3.508   1.698 -0.1315 -0.1745 -0.0227
 8712SOL    HW237770   0.512   3.510   1.566 -3.3708 -0.9510  0.7998
 8713SOL     OW37771   0.092   0.259   5.238  0.2368  0.7670  0.6801
 8713SOL    HW137772   0.108   0.340   5.189 -2.5601  0.9461  0.0969
 8713SOL    HW237773   0.095   0.195   5.167  0.3493  1.4235  0.0864
 8714SOL     OW37774   0.828   2.933  12.562 -0.0117 -0.2188  0.9715
 8714SOL    HW137775   0.879   2.966  12.488 -1.2642 -0.4090  0.0305
 8714SOL    HW237776   0.839   2.838  12.556 -3.3855 -0.5379 -0.3082
 8715SOL     OW37777   0.401   3.428   7.761  0.2585  0.3229 -0.0237
 8715SOL    HW137778   0.394   3.334   7.778 -0.6232  0.0574 -1.8040
 8715SOL    HW237779   0.340   3.447   7.690 -1.9443  0.7914  2.0173
 8716SOL     OW37780   0.812   0.031  14.862 -0.5468 -0.6347 -0.0124
 8716SOL    HW137781   0.772   0.014  14.947 -1.4657 -2.5645 -0.8062
 8716SOL    HW237782   0.773   0.115  14.841 -0.3372 -0.1658  1.5262
 8717SOL     OW37783   2.077   4.560  14.759  0.2038  0.3199 -0.4347
 8717SOL    HW137784   2.065   4.529  14.669  0.2487 -1.1582  0.0711
 8717SOL    HW237785   1.999   4.616  14.763 -0.4549 -0.7313  1.6867
 8718SOL     OW37786   1.104   1.665   7.196  0.3938 -0.1043  0.3960
 8718SOL    HW137787   1.164   1.702   7.132 -1.2701  1.0745 -0.4720
 8718SOL    HW237788   1.089   1.576   7.162 -1.1671  0.0536  0.6656
 8719SOL     OW37789   2.743   4.142  17.096  0.1344 -0.0112 -0.6865
 8719SOL    HW137790   2.776   4.052  17.101  0.5553  0.1538 -0.4782
 8719SOL    HW237791   2.786   4.187  17.168  1.2942 -0.4066 -1.1166
 8720SOL     OW37792   3.768   1.326  13.454  0.0446  1.4386  0.1810
 8720SOL    HW137793   3.771   1.236  13.488 -0.3662  0.8501 -1.2909
 8720SOL    HW237794   3.860   1.348  13.460  0.0949  0.7371  1.8880
 8721SOL     OW37795   4.666   3.979   7.480 -0.2201  0.3997  0.1210
 8721SOL    HW137796   4.572   3.963   7.475 -0.1069 -0.1175 -0.3055
 8721SOL    HW237797   4.689   3.933   7.561 -0.5595  2.2397  1.2496
 8722SOL     OW37798   2.528   2.671   2.795  0.1811  0.0302  0.0937
 8722SOL    HW137799   2.561   2.710   2.714  2.1959 -0.6672  0.5719
 8722SOL    HW237800   2.462   2.724   2.841  0.3264  0.3833 -0.1042
 8723SOL     OW37801   4.125   3.508   7.039  0.1148 -0.6176  0.4203
 8723SOL    HW137802   4.080   3.531   7.120 -0.8754 -1.1985  0.0284
 8723SOL    HW237803   4.168   3.426   7.061  2.1852  0.1570 -0.6565
 8724SOL     OW37804   0.209   3.252   2.840  0.4652  0.0110  0.1919
 8724SOL    HW137805   0.194   3.310   2.915 -0.6211  0.6438 -0.5130
 8724SOL    HW237806   0.277   3.310   2.805 -2.1914  1.7195 -2.0770
 8725SOL     OW37807   0.959   1.877   7.312  0.4577  0.4059 -0.3219
 8725SOL    HW137808   0.908   1.942   7.264 -1.2192  1.5390  3.0186
 8725SOL    HW237809   1.014   1.827   7.251  0.6094 -0.3756  0.4497
 8726SOL     OW37810   2.854   2.503   7.059 -0.0746  0.1655  0.4181
 8726SOL    HW137811   2.879   2.462   7.142  0.2314  0.5891  0.5362
 8726SOL    HW237812   2.912   2.458   6.998  0.2092  0.4680  0.4632
 8727SOL     OW37813   4.095   2.119   7.788 -0.4276 -0.4825 -0.6285
 8727SOL    HW137814   4.154   2.104   7.862  0.0827 -1.5393 -1.2559
 8727SOL    HW237815   4.057   2.203   7.814 -0.5442 -1.0259  0.9965
 8728SOL     OW37816   0.414   2.468   5.269 -0.4085 -0.0673 -0.7554
 8728SOL    HW137817   0.393   2.498   5.357  0.8091  1.5455 -1.0240
 8728SOL    HW237818   0.345   2.515   5.221 -1.1566  0.6607  1.0597
 8729SOL     OW37819   3.886   2.927  12.700 -0.0160  0.0322  0.4905
 8729SOL    HW137820   3.943   2.942  12.625 -0.8529  0.2407 -0.1064
 8729SOL    HW237821   3.920   2.989  12.765 -3.5831  2.3020  0.1728
 8730SOL     OW37822   1.187   4.493   6.680  0.3192  0.0989  0.5798
 8730SOL    HW137823   1.137   4.562   6.637 -0.9080 -0.8512  0.4759
 8730SOL    HW237824   1.267   4.504   6.629  0.4601 -0.0186  0.7758
 8731SOL     OW37825   2.101   3.758   5.807  0.8151 -0.1511 -0.4829
 8731SOL    HW137826   2.140   3.748   5.894  1.5973  0.1411 -0.8018
 8731SOL    HW237827   2.064   3.671   5.791  0.6844  0.2926 -2.5448
 8732SOL     OW37828   3.521   0.336  10.372 -0.9184 -0.3434  0.3567
 8732SOL    HW137829   3.590   0.271  10.358  0.3720  0.2808  3.5565
 8732SOL    HW237830   3.537   0.390  10.295  1.4528 -1.0207  0.3593
 8733SOL     OW37831   0.952   3.597  16.913  0.4663  0.5337  0.3300
 8733SOL    HW137832   0.886   3.639  16.858  2.1908  0.1721 -2.0503
 8733SOL    HW237833   1.025   3.621  16.856 -0.0936  2.1160  0.2848
 8734SOL     OW37834   4.146   1.424  10.117  0.3360 -0.7822  0.3140
 8734SOL    HW137835   4.217   1.362  10.132  1.1580  0.6598  2.4068
 8734SOL    HW237836   4.170   1.467  10.035 -0.8123 -0.4277  0.1517
 8735SOL     OW37837   3.606   2.505  14.370 -0.5349  0.3187  0.2705
 8735SOL    HW137838   3.695   2.500  14.335 -0.2960 -2.7779  1.3432
 8735SOL    HW237839   3.589   2.599  14.364 -0.3610  0.2560 -1.1449
 8736SOL     OW37840   0.963   2.781  15.774 -1.1179  0.0025 -0.3393
 8736SOL    HW137841   1.053   2.812  15.775 -0.4334 -2.0034  2.9941
 8736SOL    HW237842   0.961   2.734  15.691  1.6332 -2.6989  1.1256
 8737SOL     OW37843   4.631   3.074   3.365  0.1598 -0.3157  0.0391
 8737SOL    HW137844   4.557   3.014   3.350 -0.9935  1.2872 -0.7399
 8737SOL    HW237845   4.698   3.025   3.412 -0.2479 -1.6647 -0.7845
 8738SOL     OW37846   3.009   2.697   2.943  0.0833  0.0779 -0.3328
 8738SOL    HW137847   3.102   2.702   2.919  0.4396 -2.0195  0.5840
 8738SOL    HW237848   3.014   2.769   3.005 -1.5823 -0.8064  0.8337
 8739SOL     OW37849   4.108   2.782   2.008  0.4588  0.0136  0.5279
 8739SOL    HW137850   4.169   2.725   2.054  1.2628  0.5080  0.0941
 8739SOL    HW237851   4.093   2.858   2.065 -1.5199 -0.4539  0.6290
 8740SOL     OW37852   3.236   4.018  12.261 -0.2955 -0.0402  0.4943
 8740SOL    HW137853   3.186   4.047  12.338  1.9410  1.6439  1.3251
 8740SOL    HW237854   3.164   4.021  12.198 -1.9040 -0.4319  2.3275
 8741SOL     OW37855   4.327   2.697   7.592  0.4477  0.7400 -0.1449
 8741SOL    HW137856   4.280   2.764   7.643  0.2471  0.4842  0.0104
 8741SOL    HW237857   4.385   2.675   7.665 -0.9503 -1.4325  0.3110
 8742SOL     OW37858   0.211   1.833   0.763  0.3117  0.1344 -0.3495
 8742SOL    HW137859   0.303   1.856   0.769  0.2902  0.6093 -1.7653
 8742SOL    HW237860   0.192   1.826   0.856  1.3157  3.9993  0.1451
 8743SOL     OW37861   2.909   1.312   7.162  0.5918  0.7228 -0.6135
 8743SOL    HW137862   2.939   1.395   7.199 -1.3457  0.0161  2.5554
 8743SOL    HW237863   2.961   1.245   7.205 -0.2337 -0.4905 -1.5064
 8744SOL     OW37864   3.488   3.710  11.050  0.0744 -0.2724  0.0010
 8744SOL    HW137865   3.583   3.713  11.049  0.1447 -1.6925  2.0119
 8744SOL    HW237866   3.468   3.764  10.974  2.9575 -0.2095 -0.6882
 8745SOL     OW37867   3.742   0.812   3.593 -0.1929  0.8608  0.2414
 8745SOL    HW137868   3.804   0.875   3.631  0.0959  1.2766 -0.9331
 8745SOL    HW237869   3.671   0.876   3.587 -1.1424  0.0972  3.0387
 8746SOL     OW37870   0.003   2.100   6.804 -0.1000  0.0635 -0.4712
 8746SOL    HW137871   4.717   2.176   6.859  1.9661 -0.7786  1.5154
 8746SOL    HW237872   4.659   2.048   6.807 -0.1437  0.2995  2.4527
 8747SOL     OW37873   2.847   4.672  13.287  0.0631 -0.1249  0.0593
 8747SOL    HW137874   2.776   4.725  13.323  0.2517 -2.0627  3.3471
 8747SOL    HW237875   2.795   4.600  13.254 -0.4439 -0.6881  2.0889
 8748SOL     OW37876   3.587   2.231  12.951  0.8858  0.6939  0.0444
 8748SOL    HW137877   3.656   2.227  12.885  0.7696  0.4478 -0.0614
 8748SOL    HW237878   3.553   2.318  12.930 -0.9181 -0.0256  0.0343
 8749SOL     OW37879   1.771   0.475   5.026  0.4180  0.0896  0.3986
 8749SOL    HW137880   1.691   0.429   5.003  1.2001 -0.0056 -2.1579
 8749SOL    HW237881   1.822   0.466   4.946  2.0275 -0.0568  1.4171
 8750SOL     OW37882   3.723   0.031  17.606  0.2082  0.3710 -0.0802
 8750SOL    HW137883   3.633   0.001  17.616  0.5559 -0.7043 -0.1819
 8750SOL    HW237884   3.731   0.080  17.687 -0.4788  0.9466 -0.3673
 8751SOL     OW37885   1.764   1.898   8.654  0.1411  0.2440  0.5119
 8751SOL    HW137886   1.782   1.856   8.570  4.8627  4.7410 -0.7301
 8751SOL    HW237887   1.675   1.921   8.626  0.3180  0.6196  0.2485
 8752SOL     OW37888   2.816   0.974   1.317 -0.3554  0.2796  0.0112
 8752SOL    HW137889   2.771   1.058   1.307  1.2489  0.7913 -2.9908
 8752SOL    HW237890   2.894   1.009   1.361  0.4895 -1.7992  0.1399
 8753SOL     OW37891   2.361   2.498   8.832 -0.5680 -0.0925  0.0137
 8753SOL    HW137892   2.444   2.453   8.814 -2.2286 -3.8900  1.9032
 8753SOL    HW237893   2.322   2.428   8.885  0.4904 -2.2027 -2.0041
 8754SOL     OW37894   1.509   3.527   5.927  0.1993 -0.2836 -0.3310
 8754SOL    HW137895   1.551   3.468   5.865  0.4161 -1.0005  0.4908
 8754SOL    HW237896   1.585   3.546   5.982 -0.7598 -0.6599  1.1213
 8755SOL     OW37897   4.409   2.653   8.751 -0.4716 -0.0452 -0.6439
 8755SOL    HW137898   4.359   2.730   8.779  0.3613 -0.0377  0.8485
 8755SOL    HW237899   4.397   2.595   8.827  2.0004  1.2964  0.7535
 8756SOL     OW37900   3.760   4.063   3.878  0.5447  0.9466  0.2593
 8756SOL    HW137901   3.703   4.123   3.830 -0.2629 -0.6233 -0.7255
 8756SOL    HW237902   3.847   4.071   3.838 -0.7876  0.9885 -2.6284
 8757SOL     OW37903   3.317   0.167   3.992  0.6673 -0.1782  0.4574
 8757SOL    HW137904   3.410   0.148   4.004  1.0725  1.0149 -0.7893
 8757SOL    HW237905   3.278   0.116   4.064 -0.9863  3.2241  1.9495
 8758SOL     OW37906   1.343   1.453   3.961  0.1389 -0.2954  0.3281
 8758SOL    HW137907   1.404   1.526   3.966 -0.1362 -0.0409 -0.0619
 8758SOL    HW237908   1.369   1.407   4.041 -0.7097  2.5402  2.2186
 8759SOL     OW37909   4.416   2.614  13.436 -0.2464  0.3239 -0.6035
 8759SOL    HW137910   4.510   2.602  13.450 -0.3528  0.0787 -0.1007
 8759SOL    HW237911   4.410   2.703  13.471 -0.7501 -0.3006  0.9012
 8760SOL     OW37912   0.894   0.567   0.000 -0.4059 -0.3576 -0.5711
 8760SOL    HW137913   0.920   0.659   0.010  0.3920 -0.6347 -0.0296
 8760SOL    HW237914   0.875   0.559  17.651 -0.0497  2.4440 -0.8841
 8761SOL     OW37915   1.077   4.450   1.492  0.1119 -0.0659  0.0047
 8761SOL    HW137916   1.129   4.438   1.572 -0.6368 -0.8486  0.3800
 8761SOL    HW237917   1.150   4.461   1.431  0.4823  2.3363  0.8853
 8762SOL     OW37918   2.563   1.439   6.343  0.4752  0.0562 -0.0789
 8762SOL    HW137919   2.639   1.420   6.398 -0.3361  2.1736  1.7613
 8762SOL    HW237920   2.495   1.392   6.391 -1.1284 -0.0058 -2.3758
 8763SOL     OW37921   3.328   4.273  15.631  0.0776 -0.1324 -0.5448
 8763SOL    HW137922   3.250   4.227  15.659  1.4537 -1.4558  1.1033
 8763SOL    HW237923   3.381   4.206  15.587 -0.7946  0.2624 -2.1887
 8764SOL     OW37924   3.127   4.413   6.682  0.5738  0.4132  0.1732
 8764SOL    HW137925   3.054   4.363   6.718  0.7126  1.6852  2.2297
 8764SOL    HW237926   3.102   4.505   6.694 -1.3115 -0.4249  2.8789
 8765SOL     OW37927   1.043   4.477  12.362  0.4879 -0.3109 -0.4358
 8765SOL    HW137928   1.107   4.488  12.291  1.0207 -0.0398  0.0799
 8765SOL    HW237929   1.091   4.406  12.405  1.5082 -0.3031 -1.5567
 8766SOL     OW37930   2.358   0.242   7.620  0.7578 -0.3292  0.3881
 8766SOL    HW137931   2.435   0.243   7.676 -0.5102 -2.2736  2.1903
 8766SOL    HW237932   2.349   0.327   7.575  0.5736 -1.8113 -2.3719
 8767SOL     OW37933   0.842   1.396   4.301 -0.0280 -0.5915 -0.2793
 8767SOL    HW137934   0.799   1.311   4.297  0.1650 -0.7242  0.3537
 8767SOL    HW237935   0.770   1.452   4.274  0.4454  0.3824  0.4515
 8768SOL     OW37936   1.608   2.405  10.026 -0.6420  0.1954  0.5009
 8768SOL    HW137937   1.571   2.475  10.080  1.2542  2.3506 -0.9538
 8768SOL    HW237938   1.696   2.442  10.015 -0.5345 -0.6958 -1.5990
 8769SOL     OW37939   2.435   3.770  14.722  0.1917 -0.3339 -0.6884
 8769SOL    HW137940   2.502   3.739  14.661 -1.1242 -0.5479 -2.0291
 8769SOL    HW237941   2.378   3.693  14.730 -0.4741  0.3933  1.6469
 8770SOL     OW37942   0.882   3.891  11.175 -0.8561  0.4714  0.0186
 8770SOL    HW137943   0.858   3.830  11.244  1.1181 -0.2136  0.0790
 8770SOL    HW237944   0.938   3.960  11.210  0.9967  0.8320 -3.6062
 8771SOL     OW37945   1.359   1.252  11.735 -0.0286  0.1805 -0.1167
 8771SOL    HW137946   1.281   1.197  11.727  1.0961 -1.6215  1.1386
 8771SOL    HW237947   1.423   1.215  11.674 -1.0112 -0.2334 -0.9034
 8772SOL     OW37948   3.626   0.399   6.803  0.6907 -0.1795  0.1488
 8772SOL    HW137949   3.567   0.384   6.730  1.4949 -1.7697 -0.1696
 8772SOL    HW237950   3.603   0.326   6.861 -1.7806  0.4312 -0.0702
 8773SOL     OW37951   1.979   0.527   3.602 -0.1893  0.1209  0.0099
 8773SOL    HW137952   2.005   0.452   3.549 -0.0476  0.2909 -0.1601
 8773SOL    HW237953   2.057   0.538   3.658 -1.2509 -0.6721  1.6364
 8774SOL     OW37954   0.915   2.031   5.279 -0.6983  0.5108 -1.0771
 8774SOL    HW137955   0.894   1.938   5.285 -2.0294  0.9310  0.6497
 8774SOL    HW237956   0.958   2.052   5.362  0.2094 -1.0270 -1.1619
 8775SOL     OW37957   3.386   0.440   3.465  0.1487 -0.0381 -0.2234
 8775SOL    HW137958   3.356   0.416   3.553  1.6369 -0.9327  0.0356
 8775SOL    HW237959   3.356   0.531   3.469 -0.9762 -0.4496  0.7651
 8776SOL     OW37960   2.496   0.796   0.657 -0.6727  0.1108 -0.1844
 8776SOL    HW137961   2.424   0.843   0.698 -1.6986 -2.5889  1.1372
 8776SOL    HW237962   2.548   0.773   0.734 -0.1367  1.2151 -0.2281
 8777SOL     OW37963   0.149   1.039   5.092 -0.1763  0.7855  0.8305
 8777SOL    HW137964   0.081   0.978   5.064  0.1610  1.1450 -0.7392
 8777SOL    HW237965   0.222   1.007   5.039  0.4764  1.3110  1.4017
 8778SOL     OW37966   2.454   4.043  15.027 -0.3007  0.0494 -0.3921
 8778SOL    HW137967   2.486   4.096  15.100 -2.1000  1.3959 -0.5637
 8778SOL    HW237968   2.507   4.099  14.970 -0.8927  0.0398 -0.9598
 8779SOL     OW37969   3.060   1.076   6.285 -0.1655  0.2206 -0.3429
 8779SOL    HW137970   3.024   1.004   6.234 -2.2587  0.4953  0.7117
 8779SOL    HW237971   2.993   1.144   6.274 -0.4586 -0.1663 -0.9525
 8780SOL     OW37972   3.627   1.385   4.636  0.1554 -0.2996  0.7973
 8780SOL    HW137973   3.535   1.362   4.645  0.0161 -0.3759 -0.8822
 8780SOL    HW237974   3.654   1.378   4.728 -1.6162 -0.9773  1.2529
 8781SOL     OW37975   0.346   0.484   8.221  0.3759 -0.8476 -0.1532
 8781SOL    HW137976   0.317   0.467   8.131  0.3705 -0.4733 -0.2228
 8781SOL    HW237977   0.432   0.444   8.225  1.2627  0.8839 -1.5190
 8782SOL     OW37978   0.627   2.654   5.183 -0.4963 -0.1365 -0.5082
 8782SOL    HW137979   0.656   2.699   5.262 -0.0967 -0.9192 -0.2053
 8782SOL    HW237980   0.571   2.583   5.215  0.4019 -0.6188  0.0072
 8783SOL     OW37981   1.971   1.157  12.120 -0.1396  0.0908 -0.2337
 8783SOL    HW137982   2.008   1.083  12.168 -2.1091  0.0390  1.2498
 8783SOL    HW237983   2.052   1.195  12.086  1.5877 -1.9682  1.5754
 8784SOL     OW37984   4.337   3.517   2.838  0.6127  0.2569  0.2303
 8784SOL    HW137985   4.302   3.543   2.753 -2.4264  0.9831  1.6999
 8784SOL    HW237986   4.338   3.421   2.827  1.8858  0.1015  1.7623
 8785SOL     OW37987   3.666   2.872   0.630 -0.6870 -0.6649 -0.7207
 8785SOL    HW137988   3.691   2.963   0.615 -1.2837 -0.6324 -1.5714
 8785SOL    HW237989   3.705   2.830   0.553  0.5427 -1.1699  0.1781
 8786SOL     OW37990   2.422   4.032  13.904 -0.0751  0.5053 -0.4414
 8786SOL    HW137991   2.393   4.124  13.907  0.0939  0.4904  1.2729
 8786SOL    HW237992   2.506   4.053  13.864  0.7999  0.2710  1.3086
 8787SOL     OW37993   0.816   1.465   8.129  0.3050 -0.2234 -0.6409
 8787SOL    HW137994   0.900   1.506   8.104  0.5091 -0.2082  0.0887
 8787SOL    HW237995   0.770   1.451   8.046  0.5802 -0.2934 -0.7845
 8788SOL     OW37996   3.167   0.999   8.333  0.2862  0.7739  0.5041
 8788SOL    HW137997   3.149   0.905   8.326 -0.1720  1.0195 -1.6792
 8788SOL    HW237998   3.235   1.008   8.267 -0.8026 -0.6786 -0.8452
 8789SOL     OW37999   3.173   3.692   3.779  0.6009  0.1866  0.5679
 8789SOL    HW138000   3.209   3.715   3.694  0.8655  0.6541  0.8031
 8789SOL    HW238001   3.254   3.700   3.830  1.4215 -1.4013 -0.4867
 8790SOL     OW38002   3.009   4.006   3.759  0.2335 -0.3381 -0.2718
 8790SOL    HW138003   3.061   4.074   3.802 -1.2598 -0.3553  1.5499
 8790SOL    HW238004   3.005   3.939   3.828  0.5306 -0.2285 -0.1506
 8791SOL     OW38005   3.535   0.062   5.046 -0.3545  0.3811 -0.2566
 8791SOL    HW138006   3.554   0.127   4.979  0.0310 -0.4595 -0.9506
 8791SOL    HW238007   3.615   0.063   5.098  0.2484  2.3124 -1.2466
 8792SOL     OW38008   2.198   2.146  13.047 -0.3338 -0.2397 -0.4438
 8792SOL    HW138009   2.127   2.210  13.040 -1.3405 -1.4012 -0.8032
 8792SOL    HW238010   2.264   2.190  12.993 -0.4548  0.4243 -0.0489
 8793SOL     OW38011   2.544   1.450   7.832  0.0346  0.3697  0.2162
 8793SOL    HW138012   2.600   1.498   7.894 -1.0255 -1.0549  2.2757
 8793SOL    HW238013   2.603   1.413   7.766 -0.2981  0.3755 -0.0848
 8794SOL     OW38014   4.474   4.563   9.317 -0.4017 -0.4286  0.1854
 8794SOL    HW138015   4.483   4.625   9.244  0.0019 -2.9086 -1.8712
 8794SOL    HW238016   4.441   4.620   9.387 -0.3376  0.7192 -0.7086
 8795SOL     OW38017   0.469   4.210   7.604  0.3858 -0.0860  0.5412
 8795SOL    HW138018   0.557   4.198   7.569  0.0279  1.8980 -1.0752
 8795SOL    HW238019   0.478   4.144   7.673  1.7545 -1.7384 -1.2120
 8796SOL     OW38020   3.487   4.112  12.237 -0.0482  0.2450  0.2513
 8796SOL    HW138021   3.400   4.073  12.247  0.3740 -0.3357  1.7480
 8796SOL    HW238022   3.468   4.200  12.268  0.2319 -0.1110  1.4483
 8797SOL     OW38023   1.316   1.830   7.076  0.7799  0.0871  0.0433
 8797SOL    HW138024   1.356   1.782   7.003  1.3057 -0.1619  0.4971
 8797SOL    HW238025   1.391   1.839   7.134  1.1579  0.1598 -0.4579
 8798SOL     OW38026   4.066   1.229   3.677 -0.0430 -0.1617  0.3758
 8798SOL    HW138027   4.032   1.203   3.592  0.1702 -0.4038  0.3636
 8798SOL    HW238028   4.125   1.303   3.662 -2.1587  1.8086  1.7507
 8799SOL     OW38029   3.448   1.013  16.466  0.1472  0.5829  0.5036
 8799SOL    HW138030   3.494   0.931  16.448  0.7123  1.2192 -0.8590
 8799SOL    HW238031   3.418   0.994  16.555  2.2770 -4.5142  0.1035
 8800SOL     OW38032   1.209   2.078   7.346  0.2265  0.1959  0.5389
 8800SOL    HW138033   1.137   2.040   7.296  0.2771  1.6448 -0.6299
 8800SOL    HW238034   1.259   2.122   7.277 -1.8778  0.8604 -0.5612
 8801SOL     OW38035   3.725   2.749   0.378 -0.4406 -0.7572 -0.0090
 8801SOL    HW138036   3.639   2.790   0.367 -0.2761 -0.9203 -1.8963
 8801SOL    HW238037   3.783   2.782   0.309 -3.0241 -0.6908 -2.1552
 8802SOL     OW38038   4.366   2.802   4.604  0.3898  0.5473 -0.2362
 8802SOL    HW138039   4.461   2.815   4.607  0.4581 -0.2650  1.0097
 8802SOL    HW238040   4.366   2.725   4.547  2.8135  0.4628 -0.1330
 8803SOL     OW38041   1.849   3.941   0.224  0.3666 -0.5111 -0.3668
 8803SOL    HW138042   1.871   3.875   0.157  1.5839 -0.2165 -0.2631
 8803SOL    HW238043   1.864   4.025   0.181 -1.9292 -1.8095 -3.7446
 8804SOL     OW38044   2.557   1.905   5.989 -0.4492  0.2947  0.5543
 8804SOL    HW138045   2.483   1.853   6.018  0.6353 -1.9755 -0.7719
 8804SOL    HW238046   2.631   1.871   6.040  0.9458  0.9972 -1.0012
 8805SOL     OW38047   4.089   0.866  11.249  0.6515  0.4333 -0.8019
 8805SOL    HW138048   4.050   0.941  11.204  0.4196  0.1453 -1.0758
 8805SOL    HW238049   4.105   0.901  11.337  0.6377 -1.1428 -0.1777
 8806SOL     OW38050   0.941   4.240   1.158 -0.2279 -0.0139 -0.6526
 8806SOL    HW138051   0.953   4.228   1.064 -0.6852 -1.5934 -0.5085
 8806SOL    HW238052   0.966   4.332   1.170  0.6642 -0.2210 -0.8965
 8807SOL     OW38053   1.867   3.346   0.347  0.6536  0.4718  0.1244
 8807SOL    HW138054   1.800   3.404   0.311  1.8328  2.2970  0.8651
 8807SOL    HW238055   1.945   3.376   0.301  1.2831 -1.2215  0.1109
 8808SOL     OW38056   2.563   0.284  13.815  0.0659  0.6614 -0.1103
 8808SOL    HW138057   2.469   0.264  13.820  0.0630  0.6750 -0.1093
 8808SOL    HW238058   2.559   0.369  13.772  1.0233  0.2101 -1.0651
 8809SOL     OW38059   1.762   0.432   2.755 -0.3390 -0.3400 -0.0699
 8809SOL    HW138060   1.771   0.382   2.836  0.7222 -1.0432 -0.6232
 8809SOL    HW238061   1.759   0.522   2.786  0.1971 -0.1251 -0.6440
 8810SOL     OW38062   3.081   2.957   5.729 -0.0740 -0.5324  0.0514
 8810SOL    HW138063   3.014   3.009   5.773  1.0171  1.2434 -0.3978
 8810SOL    HW238064   3.121   3.017   5.665 -1.1075 -1.0240 -1.0555
 8811SOL     OW38065   0.854   3.883   5.497  0.6510  0.5239 -0.6241
 8811SOL    HW138066   0.843   3.818   5.566 -0.9274  1.9029  0.4158
 8811SOL    HW238067   0.911   3.838   5.434 -0.5553 -2.5957  0.5169
 8812SOL     OW38068   0.925   3.828   7.483 -0.3855  0.3693 -0.0728
 8812SOL    HW138069   0.971   3.745   7.497 -1.9542 -0.6066 -0.7740
 8812SOL    HW238070   0.993   3.890   7.456 -0.1966  0.3254  0.2904
 8813SOL     OW38071   0.179   2.215  13.988 -0.3497 -0.2538 -0.7940
 8813SOL    HW138072   0.216   2.251  14.069 -1.6364 -0.3509 -0.1579
 8813SOL    HW238073   0.136   2.296  13.964 -0.1968 -1.2631 -4.4407
 8814SOL     OW38074   0.483   4.044   4.281 -0.4562  0.3382  0.1433
 8814SOL    HW138075   0.502   3.974   4.219 -1.7840 -2.1027  2.4586
 8814SOL    HW238076   0.470   4.002   4.366 -1.2864 -0.4093 -0.3504
 8815SOL     OW38077   2.990   1.654   0.963  0.1092 -0.0820 -0.2684
 8815SOL    HW138078   2.930   1.594   0.919 -1.0856  1.0065 -0.1231
 8815SOL    HW238079   3.066   1.658   0.906  0.6743  0.3177  0.5137
 8816SOL     OW38080   3.547   0.045   5.774  0.8218  0.2982 -0.3756
 8816SOL    HW138081   3.528   0.092   5.693 -0.8101  0.0976 -0.1046
 8816SOL    HW238082   3.499   0.098   5.838  1.4665  0.6156 -0.1474
 8817SOL     OW38083   3.901   4.422   4.961 -0.2863  0.4997 -0.1376
 8817SOL    HW138084   3.950   4.440   4.881  2.2329  0.5404  1.4043
 8817SOL    HW238085   3.974   4.430   5.023  1.1014  1.8177 -1.9486
 8818SOL     OW38086   0.724   3.263   4.703 -0.1572 -0.6036 -0.2762
 8818SOL    HW138087   0.773   3.220   4.633  1.0356 -1.0179  0.8104
 8818SOL    HW238088   0.680   3.334   4.656  0.2872 -0.9642 -1.2414
 8819SOL     OW38089   2.488   2.876   6.890  0.2092  0.0844 -0.0661
 8819SOL    HW138090   2.509   2.901   6.980 -0.3544  1.0060 -0.1852
 8819SOL    HW238091   2.494   2.781   6.897  0.1550  0.3603  3.6747
 8820SOL     OW38092   3.625   1.905   8.852  0.1520  0.4827  0.6121
 8820SOL    HW138093   3.697   1.918   8.914  0.6561  1.0437 -0.0930
 8820SOL    HW238094   3.674   1.878   8.775 -0.6771  1.4394 -0.2378
 8821SOL     OW38095   0.997   2.056   3.874  0.1268 -0.3480  0.1005
 8821SOL    HW138096   0.990   1.964   3.848  0.8226 -0.4800  0.3607
 8821SOL    HW238097   0.984   2.095   3.788  2.0145  2.8287  1.2200
 8822SOL     OW38098   1.498   1.477   0.706 -0.2284 -0.2765 -0.4622
 8822SOL    HW138099   1.420   1.509   0.661 -0.0182 -1.1542 -1.4653
 8822SOL    HW238100   1.565   1.539   0.677 -0.9540  1.7393  2.2225
 8823SOL     OW38101   2.293   1.401  16.827  0.4799 -0.3792  0.3247
 8823SOL    HW138102   2.257   1.313  16.823  1.4080 -0.7322 -0.3468
 8823SOL    HW238103   2.336   1.403  16.913  1.2614 -3.8091 -0.0031
 8824SOL     OW38104   2.688   2.117  10.866 -0.3889  0.0737 -0.0083
 8824SOL    HW138105   2.759   2.137  10.806 -0.9889  2.3008  0.0147
 8824SOL    HW238106   2.733   2.071  10.937 -2.0398 -2.1558 -0.4054
 8825SOL     OW38107   3.408   3.885   4.493 -0.3115 -0.1812 -0.0535
 8825SOL    HW138108   3.467   3.848   4.558  0.8638 -0.1128 -1.0736
 8825SOL    HW238109   3.372   3.965   4.532 -0.1312 -0.6493  1.0600
 8826SOL     OW38110   3.022   2.959  14.484  0.4373 -0.3418 -0.3260
 8826SOL    HW138111   2.946   2.952  14.542  2.7512 -1.2439  2.5984
 8826SOL    HW238112   2.984   3.015  14.416  0.7504  2.9767  2.2223
 8827SOL     OW38113   1.868   3.012   7.002  0.2044 -0.4116 -0.4690
 8827SOL    HW138114   1.831   3.100   6.998  0.8865 -0.1445 -1.1260
 8827SOL    HW238115   1.927   3.024   7.076  0.2340 -1.6013 -0.3004
 8828SOL     OW38116   4.462   3.008   2.013  0.3247  0.5820  0.1460
 8828SOL    HW138117   4.464   3.086   1.956  0.9339  0.1818 -0.3742
 8828SOL    HW238118   4.520   2.950   1.965  0.3991  0.2392  0.6554
 8829SOL     OW38119   2.924   4.136  14.902 -0.7086 -0.0130 -0.0734
 8829SOL    HW138120   2.833   4.166  14.908 -0.6794 -0.2737  1.6725
 8829SOL    HW238121   2.960   4.190  14.973  1.0742  0.1118 -1.0709
 8830SOL     OW38122   1.591   4.585   5.859  0.0743  0.2030 -0.0490
 8830SOL    HW138123   1.531   4.535   5.914 -1.6030  2.0810 -0.1988
 8830SOL    HW238124   1.622   4.512   5.805  1.4074  1.0460 -0.4308
 8831SOL     OW38125   1.677   3.783   8.080  0.1784  0.4396 -0.1509
 8831SOL    HW138126   1.677   3.714   8.147 -1.5815  1.3931  0.8466
 8831SOL    HW238127   1.741   3.845   8.117 -0.0266  1.5653 -1.6730
 8832SOL     OW38128   0.584   2.449   8.336 -1.0237 -0.0319 -0.0211
 8832SOL    HW138129   0.531   2.377   8.303 -2.2776 -0.4873  2.9216
 8832SOL    HW238130   0.560   2.446   8.429 -0.3774 -1.0637  0.1160
 8833SOL     OW38131   0.464   4.328   6.995 -0.4494  0.2676 -0.9153
 8833SOL    HW138132   0.537   4.278   7.031 -0.9561 -1.2824 -2.0309
 8833SOL    HW238133   0.517   4.388   6.943  0.7560 -0.5009 -0.5781
 8834SOL     OW38134   2.527   2.621  12.454 -0.1039  0.0440  0.1468
 8834SOL    HW138135   2.620   2.640  12.448 -0.3308  0.9927 -0.3357
 8834SOL    HW238136   2.503   2.670  12.376 -1.9654  1.2438  1.4545
 8835SOL     OW38137   0.303   2.677   4.435  0.5022  0.8049  0.4940
 8835SOL    HW138138   0.327   2.736   4.506  0.9657  3.3474 -1.7862
 8835SOL    HW238139   0.264   2.614   4.496 -0.2060  1.1560  0.4059
 8836SOL     OW38140   3.200   1.861   2.197 -0.1774 -0.1507 -0.1807
 8836SOL    HW138141   3.292   1.846   2.175 -0.4390 -0.2009 -1.2250
 8836SOL    HW238142   3.167   1.869   2.107 -2.0392 -1.2582  0.4008
 8837SOL     OW38143   0.311   4.431  17.115 -0.6285  0.3435  0.3196
 8837SOL    HW138144   0.228   4.410  17.073 -0.9457  0.0593  1.0877
 8837SOL    HW238145   0.372   4.385  17.057  0.1730  0.4641  1.0606
 8838SOL     OW38146   2.849   4.154   8.407 -0.3066  0.4572 -0.5318
 8838SOL    HW138147   2.877   4.094   8.337 -0.6401 -1.4061  0.9468
 8838SOL    HW238148   2.758   4.172   8.383 -1.6199 -3.2380  1.5838
 8839SOL     OW38149   0.374   1.451   3.261  0.6531  0.0780 -0.3886
 8839SOL    HW138150   0.372   1.360   3.230 -0.8649  0.3493 -1.1344
 8839SOL    HW238151   0.419   1.441   3.344  0.8555  0.9935 -0.3917
 8840SOL     OW38152   2.034   2.975  16.675  0.8217  0.3513 -0.7276
 8840SOL    HW138153   2.048   3.064  16.707  0.4737  0.4998 -0.9906
 8840SOL    HW238154   1.947   2.991  16.638  0.3762  0.0816  0.2057
 8841SOL     OW38155   4.273   3.746   3.554  0.0595  0.3975  0.3647
 8841SOL    HW138156   4.359   3.758   3.594  0.1808  0.6364  0.0370
 8841SOL    HW238157   4.242   3.837   3.552  1.3758  0.7993 -1.9308
 8842SOL     OW38158   3.007   1.537   4.037 -0.0798 -0.2560  0.4183
 8842SOL    HW138159   2.924   1.585   4.036 -0.1374 -0.3108  2.1557
 8842SOL    HW238160   3.050   1.577   4.113 -2.1439 -0.3532  1.6531
 8843SOL     OW38161   0.164   2.851  13.459  0.1745 -0.2796 -0.6281
 8843SOL    HW138162   0.086   2.828  13.408  0.2216  1.4782 -1.4876
 8843SOL    HW238163   0.188   2.763  13.489 -3.2635 -0.4827  1.4905
 8844SOL     OW38164   2.136   2.880   2.652  0.0874  0.1200  0.1852
 8844SOL    HW138165   2.110   2.970   2.672 -0.7654 -0.4919  1.8153
 8844SOL    HW238166   2.072   2.865   2.582 -1.5258 -1.7144  2.0621
 8845SOL     OW38167   2.025   2.453   6.289  0.0595 -0.0901 -0.0750
 8845SOL    HW138168   1.968   2.448   6.213 -1.5070  1.8459  0.9750
 8845SOL    HW238169   2.114   2.454   6.253  0.3141 -0.5200  0.5338
 8846SOL     OW38170   0.459   2.967   5.620 -0.6283 -0.0256 -0.1939
 8846SOL    HW138171   0.522   3.038   5.629  0.2366 -0.7909 -0.1505
 8846SOL    HW238172   0.477   2.922   5.703  1.6138  0.7276 -0.2767
 8847SOL     OW38173   4.643   3.235   7.431 -0.5200 -0.0607  0.7501
 8847SOL    HW138174   4.637   3.257   7.338 -2.4073 -0.9162  0.6638
 8847SOL    HW238175   4.618   3.143   7.419  2.3490 -0.6257 -0.7975
 8848SOL     OW38176   1.383   1.215   2.280 -0.0275 -0.3638  0.4468
 8848SOL    HW138177   1.445   1.244   2.212 -0.6131 -3.9792 -1.6432
 8848SOL    HW238178   1.439   1.224   2.357 -0.3267  0.3874  0.5785
 8849SOL     OW38179   0.966   2.967  17.343 -0.3873 -0.6706 -0.1280
 8849SOL    HW138180   0.984   2.917  17.263 -0.9853 -1.4171  0.1909
 8849SOL    HW238181   0.938   3.052  17.309  3.5329  0.8353  0.4257
 8850SOL     OW38182   2.852   3.139   5.892 -0.0660  0.2837  0.2691
 8850SOL    HW138183   2.854   3.182   5.977  1.5785  0.9459 -0.1116
 8850SOL    HW238184   2.800   3.060   5.911 -0.4197  0.5822  0.5365
 8851SOL     OW38185   3.815   0.207  12.923 -0.5558 -0.6962  0.4172
 8851SOL    HW138186   3.765   0.287  12.906  0.3556  0.0472  1.2478
 8851SOL    HW238187   3.831   0.211  13.017  0.6528 -0.4704  0.2083
 8852SOL     OW38188   2.368   1.079   6.409  0.5552  0.3102 -0.0515
 8852SOL    HW138189   2.340   1.156   6.457 -1.3525  1.0689 -2.3830
 8852SOL    HW238190   2.441   1.108   6.353  0.1135 -1.0618 -1.3469
 8853SOL     OW38191   2.328   4.670   6.631 -0.3241 -0.5682  0.5365
 8853SOL    HW138192   2.247   4.623   6.652  0.9282 -1.9531  2.2073
 8853SOL    HW238193   2.350   4.714   6.714  0.6992 -0.0037 -0.0366
 8854SOL     OW38194   0.460   2.158   9.730 -0.7147 -0.7129  0.1461
 8854SOL    HW138195   0.422   2.192   9.811 -1.2625 -1.9359  0.4006
 8854SOL    HW238196   0.403   2.176   9.656  0.0310  0.1628 -0.2177
 8855SOL     OW38197   2.581   1.442   8.461  0.3086 -0.9976 -0.2752
 8855SOL    HW138198   2.564   1.443   8.555 -0.9247  1.4290 -0.5311
 8855SOL    HW238199   2.656   1.500   8.454 -0.0461 -0.3001  1.5915
 8856SOL     OW38200   4.037   3.093   5.130 -0.2956  0.5094 -0.0158
 8856SOL    HW138201   4.062   3.062   5.217  1.0484 -0.3758 -0.7051
 8856SOL    HW238202   4.080   3.021   5.083 -1.4550 -0.5080  0.4769
 8857SOL     OW38203   2.303   4.487  14.580  0.1228 -0.2561  0.0746
 8857SOL    HW138204   2.213   4.467  14.555  0.6209 -0.4072 -1.6498
 8857SOL    HW238205   2.303   4.450  14.668 -0.6937 -3.7541 -1.4057
 8858SOL     OW38206   4.102   4.448  17.509  0.0999  0.1693  0.4171
 8858SOL    HW138207   4.022   4.420  17.465  0.6854 -2.3549  0.9257
 8858SOL    HW238208   4.089   4.543  17.510 -0.1854  0.1341 -0.3573
 8859SOL     OW38209   0.348   3.217  16.169 -0.2234  0.1920  0.8859
 8859SOL    HW138210   0.377   3.273  16.241  1.6711 -1.1888  1.2244
 8859SOL    HW238211   0.313   3.145  16.222 -2.0801 -0.9013 -1.8464
 8860SOL     OW38212   0.830   0.015   2.382  0.2283  0.1143 -0.1464
 8860SOL    HW138213   0.783   0.066   2.447  2.2041  0.3516  1.0844
 8860SOL    HW238214   0.915   0.000   2.424  0.9701 -0.5583 -1.8799
 8861SOL     OW38215   2.015   0.631   1.784 -0.2003  0.3352 -0.2971
 8861SOL    HW138216   1.947   0.691   1.753  0.4269  0.3792 -1.5749
 8861SOL    HW238217   2.011   0.656   1.876 -0.2357 -0.6788 -0.0317
 8862SOL     OW38218   2.782   3.372   4.687  0.5639 -0.5590  0.8644
 8862SOL    HW138219   2.715   3.306   4.706 -0.7408  0.3945 -0.3458
 8862SOL    HW238220   2.737   3.456   4.698 -0.8314 -1.1069 -0.5686
 8863SOL     OW38221   4.273   3.297  11.315  0.0086 -0.2219  0.1363
 8863SOL    HW138222   4.274   3.385  11.353 -3.0579 -0.9756  1.9661
 8863SOL    HW238223   4.304   3.316  11.227  0.2806 -0.4409  0.1817
 8864SOL     OW38224   1.984   3.178  15.405 -0.2000 -0.0039 -0.0322
 8864SOL    HW138225   2.047   3.216  15.467 -0.9483  2.2115 -0.6096
 8864SOL    HW238226   2.021   3.101  15.362 -0.2874  0.2649 -0.5902
 8865SOL     OW38227   2.064   3.894   6.396  0.0345  0.1394 -0.0275
 8865SOL    HW138228   2.064   3.851   6.481  4.4258  2.2109  1.0371
 8865SOL    HW238229   2.008   3.968   6.418 -2.5559 -2.3588  1.6671
 8866SOL     OW38230   0.348   4.248   3.423 -0.1316  0.2728 -0.2739
 8866SOL    HW138231   0.286   4.233   3.494  0.1948  1.7830  0.3283
 8866SOL    HW238232   0.432   4.250   3.468  0.0736  0.8380 -0.6868
 8867SOL     OW38233   0.390   3.760   6.927 -0.3123  0.2389  0.5931
 8867SOL    HW138234   0.307   3.761   6.878 -0.5763  1.8394  1.0951
 8867SOL    HW238235   0.403   3.854   6.938  0.9174  0.4762 -2.7438
 8868SOL     OW38236   0.488   2.711  14.764 -0.1063 -0.2139  0.0221
 8868SOL    HW138237   0.526   2.630  14.729  1.2895 -0.3059  1.7511
 8868SOL    HW238238   0.448   2.739  14.681  2.7415  1.3156 -0.8699
 8869SOL     OW38239   4.050   3.620  11.174  0.2668  0.1279 -0.4577
 8869SOL    HW138240   3.968   3.656  11.208  1.1492  0.6876  1.0980
 8869SOL    HW238241   4.107   3.602  11.249 -0.6164  1.1699  0.4606
 8870SOL     OW38242   3.838   2.306   7.982  0.0691 -0.3850 -0.2879
 8870SOL    HW138243   3.750   2.344   7.990  0.8024  1.9727 -3.6879
 8870SOL    HW238244   3.828   2.223   8.029  1.8069 -1.5259 -1.9730
 8871SOL     OW38245   2.951   4.671   7.262  0.1512  0.1321 -0.2611
 8871SOL    HW138246   2.863   4.704   7.245 -0.9200 -2.3984  0.4728
 8871SOL    HW238247   2.958   4.600   7.198 -0.6011  0.8527 -1.1383
 8872SOL     OW38248   4.458   4.400  15.819 -0.1364 -0.2134 -0.7748
 8872SOL    HW138249   4.460   4.323  15.876  0.1446  0.9624  0.8053
 8872SOL    HW238250   4.433   4.345  15.745 -0.5662  1.3159 -1.7714
 8873SOL     OW38251   4.517   3.023  11.352  0.2282 -0.0015  0.2007
 8873SOL    HW138252   4.529   2.935  11.388 -1.3701  0.7412  2.5800
 8873SOL    HW238253   4.445   3.049  11.410  0.7640  1.2410  0.3134
 8874SOL     OW38254   0.614   4.473   6.050 -0.8762 -0.2726 -0.3759
 8874SOL    HW138255   0.671   4.525   5.994 -0.3630 -0.1518  0.2580
 8874SOL    HW238256   0.581   4.540   6.110  0.8994  0.8100 -0.6137
 8875SOL     OW38257   4.161   4.383   9.525  0.6062 -0.1701  0.2595
 8875SOL    HW138258   4.156   4.460   9.582 -0.8155 -1.0082  1.2657
 8875SOL    HW238259   4.120   4.313   9.576 -3.0992  1.2990 -0.7323
 8876SOL     OW38260   2.694   2.862   1.516  0.5550  0.1650 -0.1319
 8876SOL    HW138261   2.783   2.844   1.485  0.2557 -1.4665 -0.0841
 8876SOL    HW238262   2.693   2.956   1.497 -2.2618 -0.4956 -3.3828
 8877SOL     OW38263   2.843   4.087   2.392  0.6134 -0.9481 -0.1579
 8877SOL    HW138264   2.855   3.995   2.369  0.8480 -0.9544 -0.0094
 8877SOL    HW238265   2.851   4.095   2.487  0.0347  0.5058 -0.2258
 8878SOL     OW38266   4.654   3.998   8.980  0.1773  0.2708  0.2171
 8878SOL    HW138267   4.694   4.085   8.983 -1.0398  0.8575 -1.0038
 8878SOL    HW238268   4.639   3.982   8.887  0.2150  3.2716 -0.2768
 8879SOL     OW38269   3.695   1.203  16.712 -0.0621  0.8156  0.2874
 8879SOL    HW138270   3.678   1.109  16.713 -1.9001  1.1503  0.4504
 8879SOL    HW238271   3.646   1.223  16.633  2.4806 -0.5547 -1.6186
 8880SOL     OW38272   2.389   3.352   0.879  0.1649 -0.4882 -0.2270
 8880SOL    HW138273   2.309   3.385   0.837  0.2948 -0.6865 -0.6344
 8880SOL    HW238274   2.400   3.422   0.943  0.0024 -1.3862  0.7722
 8881SOL     OW38275   0.257   0.716   3.016 -0.2258  0.4097  0.1932
 8881SOL    HW138276   0.264   0.655   3.089 -0.2860 -0.1535 -0.2723
 8881SOL    HW238277   0.310   0.787   3.052  1.1346  0.7517 -2.4399
 8882SOL     OW38278   1.490   2.295  15.716 -0.0517  0.1466 -0.4460
 8882SOL    HW138279   1.466   2.244  15.794 -1.8047 -0.4645 -1.3818
 8882SOL    HW238280   1.454   2.382  15.736  1.4995  0.2271  2.0201
 8883SOL     OW38281   4.319   2.804  12.404  0.0218 -0.1107  0.0991
 8883SOL    HW138282   4.224   2.798  12.393  0.2162 -1.3199 -0.9629
 8883SOL    HW238283   4.350   2.803  12.313 -1.0902 -0.9847 -0.2809
 8884SOL     OW38284   0.837   1.040   1.359  0.3274  0.0615  0.1543
 8884SOL    HW138285   0.808   1.007   1.444  0.5765  1.0267  0.6108
 8884SOL    HW238286   0.833   1.135   1.372  1.1617  0.2612 -1.0219
 8885SOL     OW38287   2.239   3.667   0.146  0.4317 -0.2423 -0.0426
 8885SOL    HW138288   2.283   3.696   0.066  1.0810  0.8590  0.7214
 8885SOL    HW238289   2.222   3.755   0.178  0.4563  0.1281 -1.0371
 8886SOL     OW38290   0.291   0.143   3.008 -0.7594 -0.0100  0.4125
 8886SOL    HW138291   0.232   0.187   2.946 -1.5158 -0.0755  1.0978
 8886SOL    HW238292   0.260   0.054   3.019 -2.7134  0.7534  1.0512
 8887SOL     OW38293   0.416   1.054   0.383  0.0446  0.0441  0.3316
 8887SOL    HW138294   0.403   1.050   0.288 -2.1246 -1.2694  0.6681
 8887SOL    HW238295   0.363   0.978   0.407  0.3632 -0.3176 -0.1162
 8888SOL     OW38296   3.880   1.821  12.180  0.6806  0.4421  0.0363
 8888SOL    HW138297   3.802   1.829  12.125  0.0337 -0.1205  0.8595
 8888SOL    HW238298   3.889   1.726  12.169 -0.4858  0.2459  0.7649
 8889SOL     OW38299   2.010   2.121   7.069 -0.0555  0.2077 -0.0122
 8889SOL    HW138300   1.997   2.162   7.154  2.2330  0.7221  0.0989
 8889SOL    HW238301   1.934   2.165   7.030  0.5550  1.2600 -0.0040
 8890SOL     OW38302   3.549   4.702   6.434  0.2952 -0.5198  0.3032
 8890SOL    HW138303   3.461   4.736   6.419  0.3849  0.0152  0.9391
 8890SOL    HW238304   3.547   4.718   6.529  1.1309 -0.5400  0.3213
 8891SOL     OW38305   2.210   1.852   4.281 -0.1304  0.2657 -0.0815
 8891SOL    HW138306   2.270   1.913   4.239  0.3663  2.1906  3.5080
 8891SOL    HW238307   2.126   1.876   4.241 -0.0904 -0.6682 -0.7492
 8892SOL     OW38308   1.308   3.638   4.686 -0.0481  0.2389  0.1301
 8892SOL    HW138309   1.228   3.684   4.662  0.4920  1.3946  0.5089
 8892SOL    HW238310   1.287   3.560   4.635 -0.1475  1.5742 -1.8605
 8893SOL     OW38311   4.524   0.510  16.528 -0.3406  0.3055 -0.2427
 8893SOL    HW138312   4.595   0.562  16.492 -0.6374  0.2564 -0.9093
 8893SOL    HW238313   4.474   0.571  16.582 -1.0588 -0.9862  0.5655
 8894SOL     OW38314   4.322   4.502  13.596  0.1768 -0.6073 -0.0984
 8894SOL    HW138315   4.340   4.548  13.678  1.0954 -2.1467  0.5692
 8894SOL    HW238316   4.336   4.577  13.539 -2.1169 -0.2265 -0.1539
 8895SOL     OW38317   3.632   3.181   4.472  0.1744  0.3852 -0.2517
 8895SOL    HW138318   3.631   3.141   4.559 -1.0065 -1.9925 -1.3752
 8895SOL    HW238319   3.578   3.261   4.476 -0.2963  0.1078 -1.2846
 8896SOL     OW38320   3.393   2.342  14.366 -0.0283  0.0152  0.4917
 8896SOL    HW138321   3.326   2.407  14.347 -2.8979 -2.6959  1.3563
 8896SOL    HW238322   3.464   2.405  14.375  2.0336 -1.9860 -1.5871
 8897SOL     OW38323   3.449   0.552   5.713 -0.2046 -0.7251  0.0874
 8897SOL    HW138324   3.378   0.537   5.651  0.8871 -1.1532 -1.0647
 8897SOL    HW238325   3.404   0.551   5.797  1.3564 -1.8379  0.9147
 8898SOL     OW38326   3.425   2.530  11.696  0.1881  0.5655 -0.0768
 8898SOL    HW138327   3.484   2.456  11.708  0.9508  1.6406  2.7598
 8898SOL    HW238328   3.339   2.488  11.691 -0.0403  0.8763  1.1354
 8899SOL     OW38329   3.607   3.838   7.724  0.2323 -0.2067 -0.3818
 8899SOL    HW138330   3.598   3.866   7.815 -1.2194  1.0652 -0.9179
 8899SOL    HW238331   3.687   3.885   7.701 -0.6323  1.9690  1.0471
 8900SOL     OW38332   1.431   4.190   3.586  0.0555 -0.5248  0.4953
 8900SOL    HW138333   1.407   4.108   3.543 -0.6483  0.2693 -0.6394
 8900SOL    HW238334   1.421   4.171   3.679 -2.2562  0.6386  0.4864
 8901SOL     OW38335   2.256   2.228   3.447  0.6381  0.0192 -0.0936
 8901SOL    HW138336   2.229   2.246   3.357  1.4411  0.6563 -0.2082
 8901SOL    HW238337   2.234   2.310   3.491 -0.8496 -0.2334 -0.3693
 8902SOL     OW38338   1.653   1.387  14.067  0.5269  0.1202 -0.6710
 8902SOL    HW138339   1.682   1.459  14.123  0.8120 -0.4422 -0.0818
 8902SOL    HW238340   1.663   1.427  13.981 -0.6832  1.3558 -0.2372
 8903SOL     OW38341   3.542   3.366  15.718 -0.3889  0.7961  0.0523
 8903SOL    HW138342   3.559   3.380  15.811 -1.8489 -0.4931  0.5094
 8903SOL    HW238343   3.512   3.275  15.727  2.0492  0.1974  2.1527
 8904SOL     OW38344   3.715   1.183   5.994 -0.1093 -0.0371 -0.0962
 8904SOL    HW138345   3.712   1.098   6.036  0.2221 -0.8184 -1.6630
 8904SOL    HW238346   3.641   1.222   6.042 -0.4132 -0.6182 -0.0946
 8905SOL     OW38347   3.784   3.062   3.067 -0.5056 -0.4878 -0.7572
 8905SOL    HW138348   3.867   3.092   3.105 -1.3899  0.9466  0.0598
 8905SOL    HW238349   3.762   2.995   3.132  1.9467  0.7469  1.3629
 8906SOL     OW38350   2.655   1.270   1.570  0.4701  0.0008  0.0196
 8906SOL    HW138351   2.716   1.209   1.610 -1.1728 -1.6017  0.0921
 8906SOL    HW238352   2.601   1.301   1.643 -2.8548 -3.2050 -1.0361
 8907SOL     OW38353   1.299   3.550   4.941 -0.9216 -0.3952 -0.4550
 8907SOL    HW138354   1.300   3.579   4.850 -1.2549 -0.0913 -0.3590
 8907SOL    HW238355   1.226   3.488   4.940 -1.6713  0.4739  0.0195
 8908SOL     OW38356   0.354   1.199   1.785  0.2290 -0.1105 -0.5436
 8908SOL    HW138357   0.269   1.236   1.812  0.6371  2.0345 -2.2237
 8908SOL    HW238358   0.401   1.281   1.798 -2.8205  1.6400 -0.3876
 8909SOL     OW38359   1.364   0.808   1.469  0.4350  0.2752  0.5975
 8909SOL    HW138360   1.348   0.844   1.557 -2.1915  1.6450 -0.4275
 8909SOL    HW238361   1.296   0.855   1.420  1.1700  1.7480  0.9665
 8910SOL     OW38362   4.334   3.874   8.781 -0.3636 -0.2565 -0.3372
 8910SOL    HW138363   4.247   3.912   8.776 -0.5959 -0.8937 -1.2238
 8910SOL    HW238364   4.376   3.947   8.734  0.5927 -0.6944 -0.1623
 8911SOL     OW38365   0.868   3.479   7.815  0.0672 -0.0805  0.6463
 8911SOL    HW138366   0.885   3.515   7.728 -3.6777 -1.1536 -0.5424
 8911SOL    HW238367   0.778   3.511   7.824 -0.2613 -1.0839  0.9436
 8912SOL     OW38368   3.432   1.733   4.366 -0.0441  0.3330 -0.2681
 8912SOL    HW138369   3.351   1.783   4.358 -0.1706  0.1035 -0.4156
 8912SOL    HW238370   3.466   1.775   4.445 -0.8101  1.2913 -0.4526
 8913SOL     OW38371   3.089   1.960  12.996 -0.0321 -0.0341  0.0669
 8913SOL    HW138372   3.163   1.973  12.937  1.8166 -4.4349  1.4391
 8913SOL    HW238373   3.020   2.011  12.954  1.2829  0.1446 -1.8631
 8914SOL     OW38374   3.151   3.438   5.871 -0.0073  0.3350 -0.4387
 8914SOL    HW138375   3.206   3.427   5.949 -0.8665 -1.0669 -0.0231
 8914SOL    HW238376   3.091   3.507   5.899  0.2204  1.2349 -2.1965
 8915SOL     OW38377   3.094   2.619   9.088 -0.1037  0.4057 -0.2107
 8915SOL    HW138378   3.166   2.603   9.149  0.3642  0.9127 -0.6233
 8915SOL    HW238379   3.031   2.661   9.147  0.4018 -1.6236  1.7807
 8916SOL     OW38380   1.547   3.056  10.453 -0.4306  0.5391 -0.5033
 8916SOL    HW138381   1.452   3.067  10.453 -0.7105 -1.7496  0.7795
 8916SOL    HW238382   1.562   3.053  10.358  0.7661 -1.2420 -0.2726
 8917SOL     OW38383   1.431   3.280  12.747  0.0466  0.8714  0.2427
 8917SOL    HW138384   1.338   3.283  12.726 -0.0851  1.2802  0.8645
 8917SOL    HW238385   1.460   3.209  12.690  0.0715  1.1152 -0.0456
 8918SOL     OW38386   1.502   0.068   1.281 -0.0541  0.0812  0.0106
 8918SOL    HW138387   1.432   0.134   1.286 -1.6689 -1.5678 -0.7251
 8918SOL    HW238388   1.574   0.106   1.331  0.2708 -0.9718  0.3386
 8919SOL     OW38389   0.676   1.713   4.905  0.5847  0.1070 -0.2334
 8919SOL    HW138390   0.651   1.639   4.960 -1.4828  1.6027  0.8360
 8919SOL    HW238391   0.592   1.743   4.872  0.5985  1.1755  0.7145
 8920SOL     OW38392   3.814   1.974   5.175 -0.0998 -0.2849  0.3974
 8920SOL    HW138393   3.722   1.981   5.199 -0.2277 -0.1424 -0.1515
 8920SOL    HW238394   3.838   2.066   5.188 -1.3468 -0.0458  0.9373
 8921SOL     OW38395   4.701   3.153   1.804  0.0531  0.0343 -0.2131
 8921SOL    HW138396   4.628   3.091   1.798  0.2241 -0.1266 -0.6037
 8921SOL    HW238397   4.730   3.170   1.715  0.3695 -3.0964 -0.7265
 8922SOL     OW38398   1.767   2.761   7.030 -0.1597  0.0341 -0.2706
 8922SOL    HW138399   1.676   2.792   7.033 -0.0253  0.5655 -1.4823
 8922SOL    HW238400   1.811   2.844   7.014  0.1129  0.1025  0.9162
 8923SOL     OW38401   2.508   2.718   3.123 -0.1605  0.1712  0.0763
 8923SOL    HW138402   2.602   2.736   3.125  0.1803 -1.3683 -2.1406
 8923SOL    HW238403   2.512   2.624   3.105 -4.7897  0.1423 -0.9033
 8924SOL     OW38404   3.196   0.084   5.454 -0.7313  0.2289 -0.0840
 8924SOL    HW138405   3.212   4.727   5.461 -1.0154  0.0928 -1.2346
 8924SOL    HW238406   3.212   0.102   5.362 -0.5777 -1.5737 -0.4074
 8925SOL     OW38407   2.151   4.428  15.089  0.7239  0.1931 -0.0846
 8925SOL    HW138408   2.149   4.402  15.181 -2.1061 -0.9938 -0.4664
 8925SOL    HW238409   2.057   4.417  15.070  0.3098  1.8293  1.0064
 8926SOL     OW38410   1.038   2.931   2.543  0.2454 -0.2060  0.4406
 8926SOL    HW138411   1.106   2.935   2.475 -1.2733 -2.4012 -1.1740
 8926SOL    HW238412   0.988   2.863   2.499 -0.4214 -0.1985  1.1916
 8927SOL     OW38413   4.371   3.442  11.113  0.6501 -0.0540 -0.3397
 8927SOL    HW138414   4.407   3.410  11.030  2.1169 -0.6015  0.4998
 8927SOL    HW238415   4.404   3.532  11.111  0.4055 -0.0564 -3.2159
 8928SOL     OW38416   2.451   2.667  10.808  0.6384  0.3192 -0.1772
 8928SOL    HW138417   2.391   2.734  10.840  1.6723  0.6515  1.0403
 8928SOL    HW238418   2.516   2.673  10.878 -0.1667 -0.6110  0.6468
 8929SOL     OW38419   1.416   0.469   1.915 -0.2743 -0.2091 -0.0102
 8929SOL    HW138420   1.353   0.451   1.845 -0.9198 -0.0243  0.5174
 8929SOL    HW238421   1.376   0.544   1.959  0.4831  2.0446 -3.1627
 8930SOL     OW38422   1.631   2.143  10.819  0.0899  0.5894 -0.0518
 8930SOL    HW138423   1.549   2.181  10.853 -1.4150 -1.7190 -1.0894
 8930SOL    HW238424   1.690   2.217  10.829  1.4145 -0.7026  1.7182
 8931SOL     OW38425   4.634   0.294  12.676  0.1830 -0.0873 -0.2395
 8931SOL    HW138426   4.661   0.364  12.616 -0.5041 -0.8229 -1.3913
 8931SOL    HW238427   4.589   0.241  12.610  0.2378  0.5552 -0.7950
 8932SOL     OW38428   2.443   3.598   7.668 -0.2478  0.4061  0.3551
 8932SOL    HW138429   2.537   3.603   7.656 -0.0470  0.1830  1.9153
 8932SOL    HW238430   2.434   3.611   7.762  0.0258 -0.2131  0.4676
 8933SOL     OW38431   3.498   0.274   2.990 -0.2650  0.0834 -0.3675
 8933SOL    HW138432   3.562   0.303   2.925  0.4869  0.4409  0.5348
 8933SOL    HW238433   3.552   0.257   3.067  1.2124 -0.8443 -1.6151
 8934SOL     OW38434   3.030   4.674  11.668  0.1750  0.1083  0.3335
 8934SOL    HW138435   2.949   4.637  11.632  0.8236 -1.3004  0.3434
 8934SOL    HW238436   3.061   4.720  11.590  2.7198 -0.6711  0.8909
 8935SOL     OW38437   1.245   3.626   7.725  0.4828  0.8004  0.1448
 8935SOL    HW138438   1.175   3.589   7.671  0.8538  1.2309 -0.6293
 8935SOL    HW238439   1.187   3.649   7.797 -0.9912  1.6336 -1.2970
 8936SOL     OW38440   1.739   3.228  15.197 -0.2223  0.2622 -0.1448
 8936SOL    HW138441   1.786   3.206  15.117  1.2337 -1.1337  1.0919
 8936SOL    HW238442   1.660   3.176  15.182 -0.9425  0.9433  1.3274
 8937SOL     OW38443   0.885   1.035   4.521  0.0001 -0.1542  0.1939
 8937SOL    HW138444   0.975   1.010   4.501 -0.3503 -0.7916 -0.6096
 8937SOL    HW238445   0.839   1.043   4.437 -1.2977  0.0298  0.9202
 8938SOL     OW38446   0.301   1.850  12.519 -0.5613 -0.2205 -0.6219
 8938SOL    HW138447   0.336   1.763  12.500 -2.0227 -0.2248 -3.3674
 8938SOL    HW238448   0.337   1.890  12.440  0.0919  0.3486 -0.0337
 8939SOL     OW38449   0.859   0.855   1.170  0.4251 -0.2514  0.4982
 8939SOL    HW138450   0.876   0.902   1.088  0.9737 -0.8559  0.2710
 8939SOL    HW238451   0.847   0.932   1.226  3.2415  0.7663 -0.2684
 8940SOL     OW38452   2.808   3.622  12.875 -0.0134  0.2560 -0.3257
 8940SOL    HW138453   2.803   3.631  12.970  1.6110 -1.0365 -0.1347
 8940SOL    HW238454   2.869   3.691  12.850  0.7335 -0.8759 -1.6325
 8941SOL     OW38455   4.259   1.274   5.441  0.0331  0.0847  0.3733
 8941SOL    HW138456   4.233   1.237   5.525  3.6161 -1.3054  0.8427
 8941SOL    HW238457   4.317   1.207   5.406  0.0704  1.7462 -2.7568
 8942SOL     OW38458   4.071   0.984   2.934 -0.1610  0.0932  0.5577
 8942SOL    HW138459   4.032   0.945   2.856  2.7526 -2.7756  0.5084
 8942SOL    HW238460   4.108   0.903   2.970  0.0199 -1.1061 -2.3281
 8943SOL     OW38461   2.891   2.386   4.988  0.3913 -0.2487  0.4145
 8943SOL    HW138462   2.841   2.319   5.035 -0.9100  1.1709  1.0795
 8943SOL    HW238463   2.910   2.348   4.903 -4.6317  1.4840 -1.4907
 8944SOL     OW38464   4.187   0.251   2.637 -0.7287 -0.1426 -0.4596
 8944SOL    HW138465   4.110   0.249   2.694  1.3202 -0.9048  2.2412
 8944SOL    HW238466   4.150   0.223   2.553  0.9574 -0.3358 -1.1402
 8945SOL     OW38467   1.574   2.858   1.816 -0.2999  0.6835 -0.0382
 8945SOL    HW138468   1.614   2.944   1.825 -0.3340  0.3754  3.0291
 8945SOL    HW238469   1.642   2.793   1.836 -1.3115 -0.9719 -1.9368
 8946SOL     OW38470   1.233   0.128  11.206 -0.4993  0.3815 -0.2433
 8946SOL    HW138471   1.246   0.126  11.301  3.6215  1.0741 -0.8096
 8946SOL    HW238472   1.236   0.223  11.194  1.1308  0.6408  2.2181
 8947SOL     OW38473   2.149   2.253  15.825 -0.3282  0.0175  0.3603
 8947SOL    HW138474   2.230   2.298  15.844 -1.6015  1.8739  1.3784
 8947SOL    HW238475   2.101   2.260  15.908 -2.0444  0.9946 -0.7174
 8948SOL     OW38476   4.626   0.757  10.299  0.4640  0.6702  0.0073
 8948SOL    HW138477   4.564   0.692  10.332  0.2089  1.1143  0.4171
 8948SOL    HW238478   4.670   0.703  10.234 -2.1203  0.7661 -1.8622
 8949SOL     OW38479   4.237   3.312  16.504 -0.2465 -0.6198  0.3607
 8949SOL    HW138480   4.154   3.265  16.509  0.3308 -1.5217  1.4047
 8949SOL    HW238481   4.228   3.364  16.584 -1.6304  0.6546 -0.6185
 8950SOL     OW38482   3.092   2.234   9.800  0.2632  0.5183 -0.4017
 8950SOL    HW138483   3.125   2.261   9.886  1.5858  0.2034 -0.8130
 8950SOL    HW238484   2.999   2.221   9.815  0.1753 -0.0807 -1.4681
 8951SOL     OW38485   4.311   1.052   9.342  0.3303  0.2123 -0.1864
 8951SOL    HW138486   4.306   1.032   9.435  0.1844 -3.3186 -0.9550
 8951SOL    HW238487   4.222   1.085   9.326  0.4392  0.4985 -0.2051
 8952SOL     OW38488   1.113   3.627   8.217  0.6429 -0.3112 -0.0852
 8952SOL    HW138489   1.123   3.631   8.122 -0.2488  1.0889 -0.1098
 8952SOL    HW238490   1.054   3.554   8.234  0.9115 -0.8421 -1.4274
 8953SOL     OW38491   1.700   1.061  16.212 -0.2164  0.8929  0.3135
 8953SOL    HW138492   1.672   0.977  16.178 -1.2277  2.0157 -1.5839
 8953SOL    HW238493   1.625   1.097  16.259 -1.0310 -1.7497  1.0314
 8954SOL     OW38494   0.990   1.986   2.580  0.0591 -0.0477  0.5957
 8954SOL    HW138495   1.075   1.969   2.539 -0.8548  1.9131 -2.1682
 8954SOL    HW238496   1.015   1.943   2.662  0.7385 -1.7707 -0.5171
 8955SOL     OW38497   3.414   3.946  17.384 -0.3519  0.3104  0.2589
 8955SOL    HW138498   3.456   3.864  17.360 -1.4824 -0.0081 -0.6170
 8955SOL    HW238499   3.482   4.008  17.359 -0.5591  0.6219  0.4706
 8956SOL     OW38500   1.342   4.271   5.696  0.1678 -0.0082  0.1673
 8956SOL    HW138501   1.277   4.203   5.680  2.1875 -2.0642  0.5964
 8956SOL    HW238502   1.291   4.334   5.748  0.5866 -1.9681  2.9676
 8957SOL     OW38503   3.761   1.859   3.088 -0.2295 -0.3325  0.0350
 8957SOL    HW138504   3.848   1.826   3.067  0.0438  0.8048 -0.6229
 8957SOL    HW238505   3.777   1.860   3.183  0.0825 -0.1378 -0.0209
 8958SOL     OW38506   4.165   3.429   5.260 -0.4248 -0.6560 -0.4987
 8958SOL    HW138507   4.126   3.377   5.331 -0.9960 -0.0058 -0.3400
 8958SOL    HW238508   4.199   3.499   5.315  1.5071  0.3229 -2.9206
 8959SOL     OW38509   1.264   4.069   6.831 -0.6190  0.4735  0.0519
 8959SOL    HW138510   1.296   4.104   6.748 -0.6055  0.4679  0.0547
 8959SOL    HW238511   1.333   4.100   6.890  0.6104  0.4003 -1.3293
 8960SOL     OW38512   4.350   2.777   7.976 -0.1834 -0.1374 -0.0319
 8960SOL    HW138513   4.356   2.872   7.969 -0.4260 -0.0033  1.5009
 8960SOL    HW238514   4.416   2.765   8.045 -1.0448  0.4331  0.8988
 8961SOL     OW38515   3.661   3.090   4.731 -0.7380  0.4141  0.0759
 8961SOL    HW138516   3.750   3.118   4.752 -0.5237 -1.6777  2.0001
 8961SOL    HW238517   3.666   3.002   4.769 -0.1144  0.6881  0.6346
 8962SOL     OW38518   0.929   3.369   1.083 -0.2702  0.1253 -0.0833
 8962SOL    HW138519   0.835   3.367   1.070 -0.1520 -2.3897 -0.5975
 8962SOL    HW238520   0.946   3.296   1.023  0.1802 -2.2503  2.9164
 8963SOL     OW38521   3.148   1.231   7.625  0.0886  0.3320  0.5528
 8963SOL    HW138522   3.216   1.220   7.693  2.4097  1.4138 -1.5965
 8963SOL    HW238523   3.072   1.227   7.683 -0.0835 -0.1613  0.2889
 8964SOL     OW38524   4.385   3.211   5.104  0.0856 -0.2649 -0.3585
 8964SOL    HW138525   4.338   3.267   5.043  0.3362 -0.4196 -0.6937
 8964SOL    HW238526   4.328   3.207   5.181  1.0357  2.1465  0.4547
 8965SOL     OW38527   4.165   2.979   2.401  0.3001  0.1064  0.3157
 8965SOL    HW138528   4.183   3.035   2.325  1.1707 -0.1482  0.3409
 8965SOL    HW238529   4.214   3.017   2.474  2.5966 -1.5354 -0.4056
 8966SOL     OW38530   1.115   3.529  13.843 -0.0837  0.2930  0.2503
 8966SOL    HW138531   1.178   3.560  13.778  0.5526  4.0253  2.6478
 8966SOL    HW238532   1.164   3.511  13.923  1.3392 -2.2884 -1.1996
 8967SOL     OW38533   4.518   0.556   5.829  0.4247 -0.1550 -0.0651
 8967SOL    HW138534   4.526   0.483   5.769  1.5752 -0.2322  0.1818
 8967SOL    HW238535   4.575   0.524   5.898  0.3279  0.7046  0.4233
 8968SOL     OW38536   3.370   2.519  11.405  0.1158 -0.0965  0.6434
 8968SOL    HW138537   3.390   2.426  11.409 -0.2649 -0.0905  2.4829
 8968SOL    HW238538   3.382   2.550  11.495  0.1219 -0.0237  0.6177
 8969SOL     OW38539   0.154   1.906   5.678 -0.3471 -0.3110  0.2736
 8969SOL    HW138540   0.177   1.868   5.763  0.6600  1.3572  0.7342
 8969SOL    HW238541   0.173   1.998   5.693 -0.3151 -0.1004 -1.0214
 8970SOL     OW38542   1.861   3.127  17.329  0.2513  0.2206  0.3799
 8970SOL    HW138543   1.775   3.148  17.367  0.1761  3.6071 -1.6300
 8970SOL    HW238544   1.856   3.032  17.333  0.7748  0.1782 -0.0254
 8971SOL     OW38545   2.347   1.089   1.302  0.6153  0.0510  0.2784
 8971SOL    HW138546   2.329   1.004   1.262 -0.5653  0.7461 -0.6587
 8971SOL    HW238547   2.308   1.155   1.244  1.0405 -0.7621 -0.9498
 8972SOL     OW38548   0.986   3.521   4.193 -0.7788  0.1952  0.2113
 8972SOL    HW138549   1.080   3.502   4.184 -1.1255 -1.3259 -0.2220
 8972SOL    HW238550   0.982   3.488   4.283 -0.3221 -1.1687 -0.2721
 8973SOL     OW38551   2.673   4.041  16.232  1.0568 -0.4900 -0.5752
 8973SOL    HW138552   2.707   3.968  16.284 -1.8093  0.8761  3.1929
 8973SOL    HW238553   2.581   4.018  16.245 -0.0577  2.9075 -2.2561
 8974SOL     OW38554   1.486   1.173   5.632 -0.0425  0.1782 -0.4067
 8974SOL    HW138555   1.573   1.137   5.614 -0.1892 -1.5253  2.3168
 8974SOL    HW238556   1.488   1.253   5.579  0.2275  0.9402  0.7727
 8975SOL     OW38557   4.451   2.048   1.277  0.3228  0.2992  0.5885
 8975SOL    HW138558   4.376   2.090   1.234 -0.6487 -2.2939 -0.2583
 8975SOL    HW238559   4.507   2.125   1.288  1.8178 -0.6121 -0.7291
 8976SOL     OW38560   3.767   0.942   7.790  0.2322  0.0620  0.4239
 8976SOL    HW138561   3.725   0.866   7.830 -1.3751 -0.0566 -1.5006
 8976SOL    HW238562   3.711   0.968   7.716  0.0509 -0.3215  0.4235
 8977SOL     OW38563   3.527   1.853   1.806 -0.0211  0.2599  0.4489
 8977SOL    HW138564   3.592   1.895   1.863 -0.5830  2.3966 -0.4815
 8977SOL    HW238565   3.489   1.932   1.767  0.7952  0.8286  0.7935
 8978SOL     OW38566   3.105   3.656   1.867 -0.3264  0.4722 -0.2215
 8978SOL    HW138567   3.101   3.689   1.778  0.2657 -0.5303 -0.6138
 8978SOL    HW238568   3.036   3.589   1.870  0.0547  0.0881 -0.0614
 8979SOL     OW38569   4.679   1.151   4.420 -0.2428 -0.2512 -0.2709
 8979SOL    HW138570   0.024   1.103   4.407  0.4971  1.1604 -0.8215
 8979SOL    HW238571   4.642   1.173   4.334 -1.6567 -1.2479  0.0791
 8980SOL     OW38572   4.310   0.318  15.839 -0.1277 -0.5130  0.2339
 8980SOL    HW138573   4.334   0.384  15.774  3.5191 -1.7677  0.3028
 8980SOL    HW238574   4.218   0.304  15.816 -0.0427  0.2563 -0.5419
 8981SOL     OW38575   2.356   4.009   7.917  0.5127  0.4606  0.1218
 8981SOL    HW138576   2.390   4.042   7.833  1.6702 -0.1605  0.3401
 8981SOL    HW238577   2.353   4.092   7.965  1.2434  2.0782 -2.5974
 8982SOL     OW38578   4.457   3.475   8.964  0.0189 -0.0141  0.0709
 8982SOL    HW138579   4.540   3.450   9.004  0.1377 -0.0357 -0.1870
 8982SOL    HW238580   4.487   3.555   8.919  0.1372  1.9379  3.6730
 8983SOL     OW38581   2.169   3.666   4.111 -0.2114 -0.2664  0.0609
 8983SOL    HW138582   2.260   3.686   4.089 -0.1203  0.2437  0.8692
 8983SOL    HW238583   2.153   3.731   4.180 -1.0207  0.0661 -0.4499
 8984SOL     OW38584   0.917   3.407  10.415 -0.2847  0.2080 -0.1275
 8984SOL    HW138585   0.898   3.314  10.425 -2.5000  0.5262 -1.3301
 8984SOL    HW238586   0.845   3.429  10.356 -1.5182 -1.2221  0.8526
 8985SOL     OW38587   1.399   4.137  12.461  0.2622  0.7996 -0.4746
 8985SOL    HW138588   1.395   4.117  12.555  0.4578  0.1523 -0.6023
 8985SOL    HW238589   1.326   4.079  12.440  1.5813 -0.6998 -0.9384
 8986SOL     OW38590   3.964   0.516   9.660 -0.0521 -0.1349  0.0889
 8986SOL    HW138591   3.926   0.536   9.745 -1.6446 -0.3237 -0.5855
 8986SOL    HW238592   4.023   0.443   9.676 -1.3151 -1.3839 -0.9416
 8987SOL     OW38593   2.672   3.050   6.712  0.2084 -0.1792  0.2570
 8987SOL    HW138594   2.640   3.011   6.630 -0.0549  1.9973 -0.6810
 8987SOL    HW238595   2.643   2.982   6.773  0.0120  0.1622  0.5441
 8988SOL     OW38596   4.184   4.594   8.380  0.0461  0.2847 -0.4009
 8988SOL    HW138597   4.255   4.639   8.427  0.0291 -0.0162 -0.0890
 8988SOL    HW238598   4.208   4.619   8.291  0.6693  0.8336 -0.0827
 8989SOL     OW38599   4.711   1.928   9.109 -0.0810 -0.2905  0.0594
 8989SOL    HW138600   0.054   1.887   9.142 -0.3261 -0.5349  0.3423
 8989SOL    HW238601   0.006   2.011   9.073 -1.0001  1.0613  2.3916
 8990SOL     OW38602   2.807   0.299   5.459 -0.3713  0.4324  0.0619
 8990SOL    HW138603   2.848   0.226   5.506  0.0121 -0.0159 -0.9680
 8990SOL    HW238604   2.813   0.264   5.370  0.6851  2.5658 -0.7160
 8991SOL     OW38605   4.050   0.270  16.780  0.2595  0.3538 -0.5356
 8991SOL    HW138606   4.048   0.183  16.819 -0.0731  0.5395 -0.1369
 8991SOL    HW238607   3.958   0.296  16.776  0.2800  0.3810 -0.8368
 8992SOL     OW38608   1.688   2.676   8.137 -0.0108 -0.6672 -0.2939
 8992SOL    HW138609   1.720   2.740   8.200  0.1014  0.9091 -1.9587
 8992SOL    HW238610   1.699   2.727   8.057  0.0529  0.9243  0.7478
 8993SOL     OW38611   2.099   0.311  15.566  0.2302  0.3777  0.4869
 8993SOL    HW138612   2.096   0.383  15.503  2.1915 -1.4847 -1.7640
 8993SOL    HW238613   2.105   0.237  15.505 -1.6778  1.5564 -1.1458
 8994SOL     OW38614   0.253   4.251   9.041  0.4437  0.4101  0.2098
 8994SOL    HW138615   0.253   4.275   8.948 -2.9014  1.1094  0.4133
 8994SOL    HW238616   0.302   4.325   9.077 -0.1390  1.4707 -1.1651
 8995SOL     OW38617   0.437   2.702   9.093  0.3225 -0.5400 -0.1677
 8995SOL    HW138618   0.355   2.736   9.055 -0.3271 -0.6409  1.1345
 8995SOL    HW238619   0.498   2.692   9.020 -2.0863  0.7606 -2.4058
 8996SOL     OW38620   4.476   0.883  17.351  0.4899  0.1713 -0.5333
 8996SOL    HW138621   4.469   0.955  17.413 -0.7074 -0.4359  0.0294
 8996SOL    HW238622   4.405   0.910  17.292  0.2417  0.6471 -0.0153
 8997SOL     OW38623   0.377   3.101   5.911 -0.1993 -0.0706  0.2000
 8997SOL    HW138624   0.374   3.114   6.006  0.4180  0.4697  0.1460
 8997SOL    HW238625   0.415   3.014   5.894 -0.3140 -0.3395  1.2832
 8998SOL     OW38626   0.856   2.512   7.750 -0.3164  0.2456  0.2247
 8998SOL    HW138627   0.943   2.535   7.718 -0.0594 -0.6582  0.2599
 8998SOL    HW238628   0.810   2.512   7.666 -0.6636 -1.5502  0.4161
 8999SOL     OW38629   0.819   0.013   7.007  0.2099 -0.1275 -0.0888
 8999SOL    HW138630   0.875   0.047   6.937  3.1057  0.0300  2.2982
 8999SOL    HW238631   0.743   4.717   6.960  0.2075  1.0858 -0.9167
 9000SOL     OW38632   2.304   4.713   3.641  0.3532 -0.5798 -0.1605
 9000SOL    HW138633   2.323   4.620   3.628 -1.2070 -0.7717 -1.0791
 9000SOL    HW238634   2.361   0.017   3.576  0.5599  0.3458  0.6000
 9001SOL     OW38635   1.826   1.910  15.516 -0.4377  0.0450 -0.3210
 9001SOL    HW138636   1.755   1.859  15.555 -1.3117 -0.1159 -2.1391
 9001SOL    HW238637   1.868   1.845  15.460 -0.4587  2.0618 -2.6887
 9002SOL     OW38638   3.610   0.024   3.741  0.4102  0.0428 -0.3667
 9002SOL    HW138639   3.549   0.060   3.676  0.5455  0.4968 -0.2380
 9002SOL    HW238640   3.692   0.059   3.706 -1.4050  0.0677 -4.5697
 9003SOL     OW38641   0.617   0.953  14.287  0.4439  0.1447  0.3904
 9003SOL    HW138642   0.577   0.870  14.313 -2.9392  0.9996 -1.9913
 9003SOL    HW238643   0.559   1.012  14.335 -0.2376  0.1905 -0.4807
 9004SOL     OW38644   2.610   2.152   4.566  0.8373  0.5075 -0.2929
 9004SOL    HW138645   2.563   2.077   4.604 -0.2874  1.5773  0.3986
 9004SOL    HW238646   2.698   2.131   4.596  1.4276  3.4534 -0.0383
 9005SOL     OW38647   3.615   1.106  14.269  0.1652  0.3104 -0.0528
 9005SOL    HW138648   3.586   1.196  14.280 -0.2812  0.1380  0.1741
 9005SOL    HW238649   3.700   1.128  14.230  1.1180  0.1178  1.9156
 9006SOL     OW38650   0.605   0.999   4.830 -0.4982  0.2492 -0.4721
 9006SOL    HW138651   0.697   1.024   4.840 -0.3754 -0.1947 -0.4901
 9006SOL    HW238652   0.595   0.948   4.750  0.7417 -0.7207  0.0038
 9007SOL     OW38653   3.446   2.963   5.012  0.2306  0.6253  0.1275
 9007SOL    HW138654   3.482   2.877   4.991  1.5985  1.3709 -0.5535
 9007SOL    HW238655   3.400   2.981   4.930  0.7165  0.9734 -0.0686
 9008SOL     OW38656   0.039   4.604  16.620  0.4780 -0.0430 -0.2576
 9008SOL    HW138657   0.130   4.578  16.634  0.1591 -1.7566 -1.3010
 9008SOL    HW238658   0.047   4.694  16.591  1.6784  0.5822  1.9991
 9009SOL     OW38659   0.539   3.592   8.898 -0.4793 -0.3351  0.1129
 9009SOL    HW138660   0.573   3.670   8.854  0.7161 -1.1257 -0.3803
 9009SOL    HW238661   0.575   3.524   8.841 -1.6711 -1.5350  0.8144
 9010SOL     OW38662   4.117   0.184   3.386 -0.4012  0.0911  0.4753
 9010SOL    HW138663   4.177   0.131   3.334  0.4340  0.3167  1.2133
 9010SOL    HW238664   4.104   0.136   3.468  0.4113  2.2234  1.8719
 9011SOL     OW38665   3.347   2.988   8.352  0.2307 -0.0881  0.6507
 9011SOL    HW138666   3.293   3.005   8.429  1.3924  0.1656  1.3967
 9011SOL    HW238667   3.388   2.904   8.373  1.7678  0.6140  0.4220
 9012SOL     OW38668   2.287   3.043   3.940 -0.1197 -0.3643 -0.0547
 9012SOL    HW138669   2.290   3.029   4.035  0.3982  0.5736  0.0664
 9012SOL    HW238670   2.301   2.962   3.891  0.6508 -0.3733  0.1817
 9013SOL     OW38671   4.005   0.126   1.749 -0.0904 -0.2503 -0.3064
 9013SOL    HW138672   3.986   0.034   1.730  2.1853 -0.6409 -0.6476
 9013SOL    HW238673   4.096   0.119   1.777  0.2763 -3.2894 -2.2805
 9014SOL     OW38674   4.726   0.576   9.329 -0.2775  0.7177 -0.0990
 9014SOL    HW138675   4.653   0.637   9.316 -0.8962 -0.2949 -1.4097
 9014SOL    HW238676   0.019   0.576   9.237 -2.1716 -0.6092 -0.7126
 9015SOL     OW38677   0.633   1.261   3.756 -0.2123  0.1967 -0.4072
 9015SOL    HW138678   0.675   1.348   3.758 -1.1939  0.7001 -1.9672
 9015SOL    HW238679   0.550   1.281   3.799  1.6128  0.7060  2.8817
 9016SOL     OW38680   4.672   2.831  16.789  0.4302 -0.3105 -0.1010
 9016SOL    HW138681   0.021   2.791  16.770 -0.5101 -1.4617 -1.8315
 9016SOL    HW238682   4.673   2.804  16.881 -1.4300 -0.8810 -0.2439
 9017SOL     OW38683   4.504   1.141   9.931  0.5092 -0.0786  0.6584
 9017SOL    HW138684   4.423   1.188   9.950 -0.5939 -2.2387  1.2814
 9017SOL    HW238685   4.567   1.174   9.995 -0.8642  2.1601  0.8588
 9018SOL     OW38686   0.828   2.476   3.766 -0.2737 -0.3799 -0.2862
 9018SOL    HW138687   0.813   2.487   3.672  2.6888  1.4941 -0.5360
 9018SOL    HW238688   0.851   2.383   3.761  0.0961 -0.2668 -0.6878
 9019SOL     OW38689   3.149   0.170   7.075  0.0808  0.1627 -0.3685
 9019SOL    HW138690   3.146   0.247   7.132 -1.9508 -2.2934  2.8679
 9019SOL    HW238691   3.140   0.097   7.137 -1.8094 -0.0604 -0.9173
 9020SOL     OW38692   2.099   1.313   0.627  0.1399 -0.6645 -0.4371
 9020SOL    HW138693   2.004   1.324   0.623  0.3121  1.0082  0.1191
 9020SOL    HW238694   2.116   1.400   0.592  2.7173 -0.5331  1.0987
 9021SOL     OW38695   4.736   4.001   2.784 -0.1848  0.3856 -0.1236
 9021SOL    HW138696   0.001   4.094   2.760  0.1470  0.2629 -0.5915
 9021SOL    HW238697   4.679   4.017   2.859 -0.3344  0.9054 -0.3503
 9022SOL     OW38698   0.345   1.222   4.345 -0.2095 -0.2269  0.4664
 9022SOL    HW138699   0.419   1.188   4.395  1.0115 -0.2835 -1.3813
 9022SOL    HW238700   0.385   1.233   4.259 -0.0508  1.1061  0.7093
 9023SOL     OW38701   3.387   2.467   1.070  0.3930  0.1117 -0.4465
 9023SOL    HW138702   3.361   2.560   1.065  0.5262  0.2531  1.5792
 9023SOL    HW238703   3.315   2.432   1.017 -0.4271  2.8896 -1.1746
 9024SOL     OW38704   0.759   2.671   4.832  0.2493  0.0064  0.1691
 9024SOL    HW138705   0.760   2.587   4.879 -0.8153  0.6093  1.2747
 9024SOL    HW238706   0.754   2.640   4.742  0.9122 -1.1656  0.5317
 9025SOL     OW38707   4.730   0.895   2.949  0.4909 -0.2441  0.5525
 9025SOL    HW138708   0.087   0.884   2.962  1.1190  0.9624 -3.0416
 9025SOL    HW238709   4.721   0.884   2.855  1.7167 -0.1763  0.4346
 9026SOL     OW38710   0.855   1.388  14.111 -0.5160  0.0451 -0.2606
 9026SOL    HW138711   0.933   1.431  14.146  0.2925 -1.3183 -0.3844
 9026SOL    HW238712   0.830   1.334  14.186 -2.0554  2.2728  0.7895
 9027SOL     OW38713   1.731   4.172   7.883 -0.4063  0.5687  0.2894
 9027SOL    HW138714   1.823   4.158   7.860 -0.6127  2.5953 -1.8125
 9027SOL    HW238715   1.746   4.252   7.933  0.2578  0.0774  0.8736
 9028SOL     OW38716   0.072   2.197   4.504 -0.6763 -0.1879 -1.0492
 9028SOL    HW138717   0.116   2.198   4.589 -0.6673 -3.8540 -1.0063
 9028SOL    HW238718   0.024   2.115   4.506  0.8004 -1.0813 -1.8202
 9029SOL     OW38719   1.123   3.293   5.030  0.0201 -0.3628  0.1053
 9029SOL    HW138720   1.201   3.239   5.038  3.1108  4.1199  0.0558
 9029SOL    HW238721   1.053   3.228   5.028 -0.2220 -0.0919 -0.1272
 9030SOL     OW38722   2.712   1.869   7.269  0.2931 -0.0481 -0.3751
 9030SOL    HW138723   2.625   1.854   7.233 -0.2864 -0.9541  1.4262
 9030SOL    HW238724   2.701   1.865   7.364  0.1840  0.0405 -0.3853
 9031SOL     OW38725   3.344   1.288   4.707  0.3825 -0.6749 -0.3499
 9031SOL    HW138726   3.300   1.367   4.737  0.1162 -1.8155  2.2174
 9031SOL    HW238727   3.391   1.247   4.779 -2.3429  0.0490  1.8405
 9032SOL     OW38728   3.397   0.109   2.315 -0.3237 -0.1366  0.1496
 9032SOL    HW138729   3.464   0.072   2.372 -1.1653 -2.0628 -0.0816
 9032SOL    HW238730   3.339   0.149   2.380  0.3036 -1.3385  1.4705
 9033SOL     OW38731   3.131   0.077   6.136 -0.8287  0.0668 -0.0268
 9033SOL    HW138732   3.157   0.168   6.124 -0.3016 -0.0161  0.4872
 9033SOL    HW238733   3.128   0.060   6.230 -3.2457 -0.9243 -0.2808
 9034SOL     OW38734   1.304   2.067   8.283 -0.3145 -0.8556  0.3091
 9034SOL    HW138735   1.241   2.049   8.353 -1.2027  1.2921  0.0642
 9034SOL    HW238736   1.241   2.092   8.216  0.9209  1.5076  0.0487
 9035SOL     OW38737   3.200   1.896   8.661  0.2906  0.1122 -0.0467
 9035SOL    HW138738   3.283   1.938   8.685  0.5185 -0.1447 -0.3821
 9035SOL    HW238739   3.142   1.924   8.732  1.0770 -0.4150  0.8090
 9036SOL     OW38740   2.934   4.453   3.343 -0.0977 -0.3844 -0.2653
 9036SOL    HW138741   2.941   4.487   3.432 -1.1375  1.1210 -0.7465
 9036SOL    HW238742   2.921   4.529   3.286 -0.2094 -0.1006  0.1327
 9037SOL     OW38743   4.066   4.317  12.546 -0.2668  0.4204  0.7456
 9037SOL    HW138744   4.154   4.347  12.525 -0.1546  0.5774  1.4104
 9037SOL    HW238745   4.052   4.356  12.633  1.1351  0.8953  0.7569
 9038SOL     OW38746   1.731   2.285   4.437 -0.0598  0.2596  0.4272
 9038SOL    HW138747   1.722   2.290   4.532 -1.1987 -0.1697  0.3471
 9038SOL    HW238748   1.786   2.359   4.412  0.4002 -0.2567 -0.0782
 9039SOL     OW38749   0.782   1.197  10.735  0.3364 -0.1770 -0.7308
 9039SOL    HW138750   0.798   1.204  10.641  0.3821  2.6247 -0.5109
 9039SOL    HW238751   0.840   1.267  10.765 -0.9224 -0.0503  1.4271
 9040SOL     OW38752   1.323   3.117   9.229 -0.1092 -0.3347  0.0502
 9040SOL    HW138753   1.304   3.060   9.303  1.6070 -1.3962 -0.3348
 9040SOL    HW238754   1.329   3.205   9.268 -1.9859 -1.0516  1.9630
 9041SOL     OW38755   3.440   2.333   9.113  0.2255  0.3216  0.3060
 9041SOL    HW138756   3.381   2.337   9.189 -0.0375 -1.7637  0.2193
 9041SOL    HW238757   3.518   2.286   9.144 -0.4157 -0.3436  0.9187
 9042SOL     OW38758   0.960   1.367   4.802  0.5186  0.0703 -0.2998
 9042SOL    HW138759   0.997   1.380   4.715  0.5694  1.1462 -0.1213
 9042SOL    HW238760   1.007   1.434   4.851 -1.4914  0.7284  0.7239
 9043SOL     OW38761   4.001   0.372   7.710 -0.3067  0.0881 -0.1741
 9043SOL    HW138762   4.058   0.299   7.732 -0.0339  0.1638 -0.6306
 9043SOL    HW238763   3.927   0.312   7.698  0.5670 -0.8856 -0.6210
 9044SOL     OW38764   0.669   4.127   9.908  0.2212  0.0448 -0.4078
 9044SOL    HW138765   0.740   4.184   9.879  1.9747 -1.4233  0.9724
 9044SOL    HW238766   0.728   4.077   9.966  0.1485 -0.0095 -0.3809
 9045SOL     OW38767   4.177   3.765  17.151  0.4126  0.3578 -0.2764
 9045SOL    HW138768   4.190   3.719  17.068 -0.6223 -3.2721  1.5725
 9045SOL    HW238769   4.147   3.695  17.208 -0.3289  0.3031 -0.7365
 9046SOL     OW38770   4.422   3.371  15.276 -0.0352  0.2480 -0.3715
 9046SOL    HW138771   4.385   3.459  15.274  2.5921  1.4197  2.2663
 9046SOL    HW238772   4.367   3.313  15.329  2.3614 -2.0095 -0.3369
 9047SOL     OW38773   0.728   0.372   1.672  0.2380  0.2553  0.0349
 9047SOL    HW138774   0.636   0.386   1.693  0.2972 -2.2198  2.0029
 9047SOL    HW238775   0.770   0.454   1.699  2.0060 -0.9576  0.9968
 9048SOL     OW38776   1.763   4.686   4.619  0.1325 -0.6092 -0.1262
 9048SOL    HW138777   1.837   4.730   4.661 -0.2473 -0.2845  0.1941
 9048SOL    HW238778   1.799   4.598   4.604  1.0924 -0.5324  1.7284
 9049SOL     OW38779   3.806   2.357  15.335 -0.2747 -0.8199 -0.2606
 9049SOL    HW138780   3.738   2.360  15.403  0.2479 -0.2687  0.2336
 9049SOL    HW238781   3.768   2.315  15.258 -1.3863 -2.1878  1.0345
 9050SOL     OW38782   4.318   0.506   8.855 -0.3513 -0.0857 -0.0794
 9050SOL    HW138783   4.254   0.480   8.789  1.1902 -2.4128 -0.6732
 9050SOL    HW238784   4.271   0.501   8.938  3.2569  0.1056  2.0017
 9051SOL     OW38785   4.235   0.700   4.533 -0.4767  0.0945  0.5037
 9051SOL    HW138786   4.208   0.654   4.612  0.5035 -0.5180  0.4806
 9051SOL    HW238787   4.326   0.671   4.525 -0.1930  1.5769 -1.6305
 9052SOL     OW38788   0.756   1.630   9.025 -0.0789  0.2589  0.2158
 9052SOL    HW138789   0.740   1.566   8.956 -0.2208  0.4259  0.0928
 9052SOL    HW238790   0.708   1.705   8.990  2.0328  0.1638 -2.8858
 9053SOL     OW38791   1.525   1.103   7.493  0.0821 -0.4358 -0.3956
 9053SOL    HW138792   1.560   1.054   7.567 -2.2143  0.5117  1.3036
 9053SOL    HW238793   1.455   1.050   7.454  0.6841 -1.2933 -0.3287
 9054SOL     OW38794   2.377   3.376   8.366 -0.0344  0.4015  0.0111
 9054SOL    HW138795   2.294   3.333   8.389  0.0068  0.0316 -0.5086
 9054SOL    HW238796   2.377   3.383   8.270 -0.1201  0.0509 -0.0168
 9055SOL     OW38797   2.675   2.504   6.219  0.3407  0.5840  0.1878
 9055SOL    HW138798   2.724   2.462   6.289  1.2917  0.4187 -0.5879
 9055SOL    HW238799   2.712   2.592   6.227 -0.2850  1.1098 -2.5352
 9056SOL     OW38800   2.833   3.452   2.958  0.3359 -0.4658 -0.0454
 9056SOL    HW138801   2.828   3.414   3.046 -1.5947 -0.7643 -0.2880
 9056SOL    HW238802   2.854   3.543   2.980  0.0021 -0.1096 -1.2006
 9057SOL     OW38803   3.142   4.566  13.160  0.2352 -0.4313 -0.1259
 9057SOL    HW138804   3.198   4.599  13.230  1.7120  1.2464 -2.0690
 9057SOL    HW238805   3.075   4.635  13.157  1.1250  0.4290 -0.4473
 9058SOL     OW38806   0.335   2.341  14.610 -0.0667 -0.5757  0.0280
 9058SOL    HW138807   0.247   2.330  14.574 -0.6907 -0.6292  1.5732
 9058SOL    HW238808   0.381   2.263  14.578 -1.7305 -1.6499  0.1969
 9059SOL     OW38809   3.088   2.189   4.079 -0.3937  0.4704  0.1261
 9059SOL    HW138810   3.142   2.123   4.035  1.7113  1.3440  1.4066
 9059SOL    HW238811   3.143   2.206   4.155  0.8214  1.5254 -1.0178
 9060SOL     OW38812   2.833   2.662  14.946  0.0003 -0.2386 -0.2454
 9060SOL    HW138813   2.777   2.740  14.946  0.2301 -0.0721  0.8008
 9060SOL    HW238814   2.823   2.636  14.855 -0.2976  2.8773 -1.0911
 9061SOL     OW38815   2.753   3.344   6.939 -0.4418  0.5287 -0.5285
 9061SOL    HW138816   2.841   3.364   6.906 -0.3441 -0.0950 -0.6591
 9061SOL    HW238817   2.734   3.425   6.985  1.5641 -0.1495  1.5079
 9062SOL     OW38818   2.429   0.435   5.818 -0.0934  0.2459 -0.3698
 9062SOL    HW138819   2.521   0.453   5.798  0.3063 -0.8232  0.5618
 9062SOL    HW238820   2.404   0.520   5.854  0.5373  1.1471 -2.0703
 9063SOL     OW38821   0.786   4.078   4.189  0.0561 -0.0623 -0.2260
 9063SOL    HW138822   0.747   3.992   4.201  0.7978  0.0427  2.9500
 9063SOL    HW238823   0.732   4.111   4.118  1.2414  1.8023 -0.2624
 9064SOL     OW38824   4.447   3.688   5.122 -0.1500  0.2827 -0.3276
 9064SOL    HW138825   4.455   3.614   5.183  2.3461 -1.3861 -2.6321
 9064SOL    HW238826   4.390   3.734   5.184  0.3295  1.5736 -0.8683
 9065SOL     OW38827   4.657   1.511   6.680  0.1576  0.6644  0.5592
 9065SOL    HW138828   4.718   1.578   6.709  0.6489  0.4845 -0.0430
 9065SOL    HW238829   4.709   1.464   6.614 -1.1387  0.0541 -0.0237
 9066SOL     OW38830   2.310   3.426   4.084  0.4709  0.6038  0.0129
 9066SOL    HW138831   2.256   3.495   4.123 -0.7419 -0.2635 -0.1101
 9066SOL    HW238832   2.388   3.416   4.138  1.4821 -0.6793 -1.6793
 9067SOL     OW38833   4.227   2.533  16.297  0.0923  0.0428  0.4513
 9067SOL    HW138834   4.283   2.593  16.346 -1.2921  1.8339 -0.1505
 9067SOL    HW238835   4.284   2.511  16.223 -0.2593 -0.1727  0.2439
 9068SOL     OW38836   3.982   3.022   1.618 -0.2962  0.5386 -0.0907
 9068SOL    HW138837   3.937   2.938   1.625  0.4321  0.2401  0.9719
 9068SOL    HW238838   4.049   3.001   1.554 -1.1184 -1.9272 -0.1199
 9069SOL     OW38839   0.586   3.589   3.511 -0.0651  0.5044  0.5776
 9069SOL    HW138840   0.525   3.518   3.528  1.0489 -0.9371 -1.4462
 9069SOL    HW238841   0.658   3.544   3.467  0.4571  1.4168  0.4929
 9070SOL     OW38842   2.821   4.089  11.737 -0.0904  0.2242  0.2953
 9070SOL    HW138843   2.821   4.048  11.824  0.3415  0.5410  0.4460
 9070SOL    HW238844   2.735   4.055  11.714  0.7643 -2.3074  0.8175
 9071SOL     OW38845   2.089   0.008   3.791 -0.5197  0.3336  0.1714
 9071SOL    HW138846   2.158   4.715   3.731 -1.4258  2.1542 -1.7824
 9071SOL    HW238847   2.136   0.065   3.852  2.2563  0.8071 -2.3757
 9072SOL     OW38848   2.751   3.831   2.254  0.8567 -0.1151  0.1265
 9072SOL    HW138849   2.830   3.777   2.249  0.6213 -0.4459  0.0211
 9072SOL    HW238850   2.720   3.811   2.166  0.5121 -1.5424  0.5606
 9073SOL     OW38851   0.307   0.714  15.794 -0.0918 -0.0738  0.0858
 9073SOL    HW138852   0.241   0.645  15.784  1.2365 -1.6076  1.8334
 9073SOL    HW238853   0.349   0.721  15.708 -1.6139 -0.3394 -0.6894
 9074SOL     OW38854   4.671   1.935  15.346  0.0182 -0.3930  0.0258
 9074SOL    HW138855   4.587   1.956  15.305  0.5873 -0.7085 -1.3008
 9074SOL    HW238856   4.717   1.979  15.274 -0.3162 -0.3285 -0.1461
 9075SOL     OW38857   4.051   1.222   6.930  0.2160 -0.4706 -0.1991
 9075SOL    HW138858   4.017   1.308   6.957 -1.3747 -2.0532  2.8435
 9075SOL    HW238859   3.968   1.174   6.932 -0.5893  0.9632  0.6897
 9076SOL     OW38860   4.096   2.879  13.378 -0.4497  0.5361 -0.5028
 9076SOL    HW138861   4.091   2.857  13.472 -3.4100  2.1810 -0.2757
 9076SOL    HW238862   4.143   2.962  13.385 -1.7159  1.2341 -0.3066
 9077SOL     OW38863   0.679   0.774   9.541 -0.2942 -0.1190 -0.1453
 9077SOL    HW138864   0.636   0.859   9.537  2.0204  1.1039  1.0036
 9077SOL    HW238865   0.601   0.724   9.566 -0.8145 -0.0504 -1.6366
 9078SOL     OW38866   4.258   1.140   8.569 -0.3613 -0.2322 -0.0731
 9078SOL    HW138867   4.209   1.210   8.613  0.0723  0.4915 -0.7300
 9078SOL    HW238868   4.340   1.179   8.536 -1.8205  1.4984 -1.6564
 9079SOL     OW38869   3.161   2.204  11.690  0.0239  0.2950 -0.1833
 9079SOL    HW138870   3.152   2.297  11.670 -3.2921 -0.7137 -3.3868
 9079SOL    HW238871   3.076   2.164  11.672  0.7388 -1.7330  0.9763
 9080SOL     OW38872   0.401   0.930   9.091 -0.1707  0.5544 -1.0042
 9080SOL    HW138873   0.340   0.879   9.037  0.8057 -1.5261 -0.1498
 9080SOL    HW238874   0.454   0.951   9.014  0.4821  1.1767 -0.3818
 9081SOL     OW38875   2.215   2.117   7.250 -0.2386  0.2161  0.2868
 9081SOL    HW138876   2.280   2.185   7.230  1.6568 -1.8770 -0.5853
 9081SOL    HW238877   2.172   2.104   7.166 -0.3974  0.5351  0.3183
 9082SOL     OW38878   0.545   4.318   5.204 -0.1313  0.2657  0.1492
 9082SOL    HW138879   0.529   4.262   5.280  1.9132 -0.2257  0.2159
 9082SOL    HW238880   0.503   4.402   5.223 -0.1668  0.2382  0.1898
 9083SOL     OW38881   3.982   3.427   3.570 -0.3915 -0.6872 -0.6192
 9083SOL    HW138882   4.060   3.454   3.523 -0.7289 -1.8298 -1.8270
 9083SOL    HW238883   3.958   3.497   3.631  0.6035 -1.3332  0.5113
 9084SOL     OW38884   4.091   2.546   9.401  0.5806 -0.2700 -0.2332
 9084SOL    HW138885   4.126   2.622   9.354 -1.1102  1.3184  1.0696
 9084SOL    HW238886   4.173   2.507   9.431 -0.1956 -0.7080  1.3496
 9085SOL     OW38887   3.853   1.784  10.215  0.3638 -0.5538  0.0525
 9085SOL    HW138888   3.927   1.834  10.180 -0.5679  1.0982  0.4227
 9085SOL    HW238889   3.884   1.695  10.229  2.0472 -0.2334 -1.6493
 9086SOL     OW38890   0.479   4.591   3.222  0.2986  0.0014  0.5334
 9086SOL    HW138891   0.421   4.651   3.174 -0.2456 -1.9737 -1.2551
 9086SOL    HW238892   0.527   4.564   3.144 -1.4769  0.2827 -0.6515
 9087SOL     OW38893   0.532   0.571   1.929 -0.1429 -0.0401 -0.4861
 9087SOL    HW138894   0.583   0.636   1.880  0.9854  0.7232  1.7445
 9087SOL    HW238895   0.599   0.548   1.993  0.1791  1.4906 -0.2624
 9088SOL     OW38896   2.276   0.100  17.275 -0.0665  0.3877  0.2633
 9088SOL    HW138897   2.322   0.150  17.208  0.3223 -1.6036 -0.9455
 9088SOL    HW238898   2.280   0.016  17.230  1.3145  0.0017  1.0908
 9089SOL     OW38899   2.368   3.929   6.318  0.4035  0.2412 -0.5109
 9089SOL    HW138900   2.274   3.915   6.327  0.5357 -1.2334 -1.4021
 9089SOL    HW238901   2.368   3.963   6.228 -0.0194  0.5723 -0.3846
 9090SOL     OW38902   2.399   1.152   2.009 -0.0122 -0.0874  0.1471
 9090SOL    HW138903   2.371   1.061   1.999  2.6188 -0.8443 -0.5063
 9090SOL    HW238904   2.314   1.190   2.030  0.0807  0.3885 -0.3500
 9091SOL     OW38905   3.529   1.592   5.982  0.3758 -0.2477 -0.2671
 9091SOL    HW138906   3.607   1.647   5.973  1.0594 -1.0714  0.6354
 9091SOL    HW238907   3.514   1.617   6.074 -1.8037  1.2676 -1.0204
 9092SOL     OW38908   2.007   3.775   3.160  0.3209  0.1268  0.2747
 9092SOL    HW138909   2.037   3.744   3.075  0.9072  2.3593 -0.3301
 9092SOL    HW238910   1.914   3.751   3.159  0.4084 -0.2281  1.0676
 9093SOL     OW38911   1.279   3.480  14.063 -0.3307 -0.1423 -0.1146
 9093SOL    HW138912   1.242   3.398  14.030 -0.6577 -0.4449  1.0002
 9093SOL    HW238913   1.363   3.455  14.101 -1.9333  0.8005  4.1093
 9094SOL     OW38914   0.387   4.477   9.173  0.1735 -0.1966 -0.5448
 9094SOL    HW138915   0.419   4.489   9.262  1.7645  1.5884 -1.3455
 9094SOL    HW238916   0.443   4.545   9.134  2.0651 -0.9248  0.8861
 9095SOL     OW38917   2.457   3.488   6.514  0.3550  0.2305  0.3100
 9095SOL    HW138918   2.511   3.532   6.579  0.1382  1.5503 -0.3928
 9095SOL    HW238919   2.368   3.517   6.531  0.8750  2.3778 -0.5532
 9096SOL     OW38920   2.820   3.818   7.526 -0.3436 -0.1021  0.5590
 9096SOL    HW138921   2.788   3.768   7.601 -3.2771  1.6633  0.5228
 9096SOL    HW238922   2.907   3.782   7.511  0.6787  3.2220 -1.4286
 9097SOL     OW38923   4.254   4.314   1.909  0.1847 -0.0541 -0.0707
 9097SOL    HW138924   4.261   4.219   1.901  1.2082  0.2371 -2.4676
 9097SOL    HW238925   4.342   4.350   1.894  0.5947 -0.8752  0.3459
 9098SOL     OW38926   4.112   2.937  13.848 -0.0939 -0.1541  0.2387
 9098SOL    HW138927   4.174   3.004  13.821  0.7455 -0.8825  0.3438
 9098SOL    HW238928   4.168   2.867  13.883  0.7125  0.5403  0.3499
 9099SOL     OW38929   1.429   0.391   1.492 -0.5309 -0.3768 -0.5537
 9099SOL    HW138930   1.481   0.466   1.521 -3.7554  1.2069  1.0265
 9099SOL    HW238931   1.362   0.387   1.560 -1.7542  3.0462 -1.5526
 9100SOL     OW38932   1.955   2.984   8.055 -0.3759  0.4819  0.1271
 9100SOL    HW138933   1.970   2.912   7.994  0.1807  2.9742 -2.6840
 9100SOL    HW238934   1.899   3.042   8.004 -0.3775 -0.2687 -0.7314
 9101SOL     OW38935   3.017   3.092   2.303 -0.6750 -0.0672 -0.0731
 9101SOL    HW138936   3.105   3.079   2.266 -0.0329  4.0166  0.0766
 9101SOL    HW238937   3.011   3.030   2.376  2.1986 -0.6996 -0.3555
 9102SOL     OW38938   3.254   4.696   4.533 -0.0152  0.0391  0.1636
 9102SOL    HW138939   3.310   4.735   4.600 -0.6661  1.8002 -0.3233
 9102SOL    HW238940   3.320   4.647   4.482  1.1757  1.7740  0.0308
 9103SOL     OW38941   4.075   2.339   7.172  0.2076  0.6089 -0.2399
 9103SOL    HW138942   4.144   2.395   7.206 -0.7363  0.6390  1.5909
 9103SOL    HW238943   4.008   2.361   7.236 -0.6863 -1.1115 -0.5692
 9104SOL     OW38944   4.367   0.180   8.448  0.0893  0.3028 -0.0304
 9104SOL    HW138945   4.379   0.162   8.541  0.3914 -1.7498 -0.4786
 9104SOL    HW238946   4.273   0.193   8.433 -0.0617 -2.4595 -1.3882
 9105SOL     OW38947   2.872   1.336   6.033 -0.4004  0.1644  0.3837
 9105SOL    HW138948   2.964   1.339   6.060 -0.5715  1.6019  0.8459
 9105SOL    HW238949   2.881   1.330   5.938 -0.0224  5.3391  0.0708
 9106SOL     OW38950   0.827   2.761   6.295  0.3251  0.7795 -0.0443
 9106SOL    HW138951   0.905   2.727   6.253 -1.2838 -2.3039 -0.5711
 9106SOL    HW238952   0.764   2.703   6.250  2.1197 -0.1164 -1.4072
 9107SOL     OW38953   3.933   2.746   8.441 -0.8004 -0.3524 -0.4843
 9107SOL    HW138954   3.864   2.682   8.422 -2.1136  1.0264 -0.3789
 9107SOL    HW238955   3.914   2.753   8.534  0.2556 -0.9018 -0.2302
 9108SOL     OW38956   0.884   0.318   5.069  0.3957 -0.0653  0.0634
 9108SOL    HW138957   0.924   0.232   5.051  2.9944  0.9301  1.1149
 9108SOL    HW238958   0.827   0.312   5.146  1.1602 -0.3211  0.6148
 9109SOL     OW38959   2.192   4.680   5.735  0.1854  0.7375 -0.0438
 9109SOL    HW138960   2.219   4.669   5.644  0.6207 -1.2773  0.3170
 9109SOL    HW238961   2.149   4.598   5.761 -1.1214  1.8048  1.0869
 9110SOL     OW38962   2.237   1.200  12.283 -0.3251  0.2499  0.2575
 9110SOL    HW138963   2.257   1.107  12.274 -3.5495 -0.7009  2.9490
 9110SOL    HW238964   2.247   1.237  12.195  0.4402  0.6192  0.4926
 9111SOL     OW38965   4.151   4.653   0.313  0.1922  0.5997 -0.2812
 9111SOL    HW138966   4.133   4.690   0.226 -3.2729 -1.4743 -0.4203
 9111SOL    HW238967   4.247   4.652   0.323  0.4873  1.6150 -2.9377
 9112SOL     OW38968   2.356   1.852   3.932 -0.0097  0.2043  0.5346
 9112SOL    HW138969   2.436   1.819   3.891 -1.2452 -0.7541 -1.1371
 9112SOL    HW238970   2.301   1.783   3.894 -0.0938  1.0428 -0.8865
 9113SOL     OW38971   1.656   2.260  14.451  0.3240 -0.0280  0.0106
 9113SOL    HW138972   1.705   2.194  14.499  0.2646 -0.2646 -0.2525
 9113SOL    HW238973   1.699   2.334  14.493  0.1095  1.1278 -1.7718
 9114SOL     OW38974   2.941   2.323   8.429 -0.0232 -0.5077  0.3536
 9114SOL    HW138975   2.959   2.357   8.517 -2.8267  2.3210 -0.1728
 9114SOL    HW238976   2.853   2.287   8.439  0.0649 -1.2133 -1.5193
 9115SOL     OW38977   0.291   2.168   8.811  0.4072 -0.1819 -0.3275
 9115SOL    HW138978   0.220   2.217   8.852  0.7343  0.1962 -0.2071
 9115SOL    HW238979   0.275   2.079   8.843 -1.1604 -0.0432 -0.7570
 9116SOL     OW38980   1.996   0.951   6.166  0.2592  0.0229 -0.5816
 9116SOL    HW138981   1.944   1.020   6.207  0.5356 -0.5175  0.6890
 9116SOL    HW238982   1.956   0.882   6.218 -1.4252  0.6705 -1.0367
 9117SOL     OW38983   0.307   1.644   8.362  0.3092 -0.0484  0.6692
 9117SOL    HW138984   0.291   1.736   8.385 -1.2284 -0.6155  1.8776
 9117SOL    HW238985   0.265   1.648   8.276 -1.5618 -0.4239  1.5668
 9118SOL     OW38986   1.637   4.074  13.305 -0.3652  0.2677 -0.2286
 9118SOL    HW138987   1.728   4.102  13.308  0.6666 -2.8502 -2.5043
 9118SOL    HW238988   1.595   4.139  13.362 -0.3051 -0.1576  0.3058
 9119SOL     OW38989   0.895   3.447   7.061  0.0306  0.0248  0.1550
 9119SOL    HW138990   0.974   3.426   7.111  0.8164  1.2766 -0.5286
 9119SOL    HW238991   0.815   3.428   7.109  0.3436 -2.4031 -0.3142
 9120SOL     OW38992   4.436   4.120   4.863  0.1558  0.1053  0.4537
 9120SOL    HW138993   4.485   4.060   4.919  1.3898  2.2605  1.6815
 9120SOL    HW238994   4.354   4.071   4.851 -0.1978  0.3494  1.8617
 9121SOL     OW38995   1.844   1.139   8.058  0.1484 -0.2770  0.6895
 9121SOL    HW138996   1.765   1.088   8.040  0.0112 -0.0976  0.7744
 9121SOL    HW238997   1.906   1.074   8.091 -0.2338 -0.8281  0.3129
 9122SOL     OW38998   2.923   1.597   2.270 -0.1117 -0.1712  0.4581
 9122SOL    HW138999   2.828   1.583   2.275  0.2784 -2.3371  1.6758
 9122SOL    HW239000   2.942   1.670   2.329  0.8405 -0.9624  1.1163
 9123SOL     OW39001   0.994   1.574   2.025 -0.3379  0.0079  0.7043
 9123SOL    HW139002   0.970   1.588   2.117 -0.9376  0.4689  0.4751
 9123SOL    HW239003   1.026   1.658   1.993  1.6810 -2.2851 -3.1880
 9124SOL     OW39004   3.771   2.117   4.794  0.1074 -0.2907 -0.2171
 9124SOL    HW139005   3.858   2.097   4.829  0.2382 -3.0148 -2.0489
 9124SOL    HW239006   3.745   2.028   4.771 -1.2379 -0.3111  1.4024
 9125SOL     OW39007   1.843   4.231   7.346  0.4844 -0.1253 -0.2812
 9125SOL    HW139008   1.888   4.153   7.378 -0.3719 -1.3045 -1.9085
 9125SOL    HW239009   1.750   4.208   7.338 -0.1029  1.7652  1.0720
 9126SOL     OW39010   4.116   3.332  12.263  0.1698 -0.0348 -0.1777
 9126SOL    HW139011   4.044   3.273  12.285 -1.2181  1.1958 -1.3961
 9126SOL    HW239012   4.140   3.308  12.174  3.0283  0.0988  0.5629
 9127SOL     OW39013   2.870   3.162   4.492 -0.3627 -0.0124  0.1958
 9127SOL    HW139014   2.821   3.236   4.528 -0.3592  1.1898 -2.2464
 9127SOL    HW239015   2.823   3.139   4.412 -0.7295  1.3988  0.0029
 9128SOL     OW39016   0.310   2.434   3.737  0.3916  0.2280  0.0709
 9128SOL    HW139017   0.215   2.448   3.744  0.5457  0.8471  0.9923
 9128SOL    HW239018   0.353   2.516   3.711 -1.8526  1.9535  1.7886
 9129SOL     OW39019   2.879   3.294   1.748 -0.3670  0.4195 -0.1110
 9129SOL    HW139020   2.796   3.301   1.701  0.0978  3.0240 -0.5211
 9129SOL    HW239021   2.944   3.271   1.682 -1.0556 -0.4983 -0.4680
 9130SOL     OW39022   3.378   0.536  13.085 -0.4483  0.0306 -0.1967
 9130SOL    HW139023   3.361   0.498  12.999 -1.9838  1.1253 -0.3768
 9130SOL    HW239024   3.287   0.538  13.116 -1.1450  3.3749 -2.4951
 9131SOL     OW39025   3.923   1.437  11.618 -0.3433 -0.2299  0.4118
 9131SOL    HW139026   4.001   1.469  11.664 -1.3427 -0.5072  2.3142
 9131SOL    HW239027   3.932   1.458  11.525 -2.2736 -2.0586 -0.1903
 9132SOL     OW39028   3.262   1.658   5.910 -0.2287 -0.9643 -0.2769
 9132SOL    HW139029   3.342   1.669   5.960  0.7759 -0.9124 -1.9196
 9132SOL    HW239030   3.291   1.654   5.819 -1.8075  0.2943 -0.8366
 9133SOL     OW39031   0.516   2.312   8.820  0.5467 -0.1059 -0.5455
 9133SOL    HW139032   0.429   2.277   8.802  0.6036 -0.2297 -0.5770
 9133SOL    HW239033   0.518   2.316   8.916  0.0042 -1.1408 -0.4982
 9134SOL     OW39034   1.613   3.878   2.659 -0.0481  0.3192  0.1145
 9134SOL    HW139035   1.586   3.850   2.572  1.0393 -0.1126 -0.0802
 9134SOL    HW239036   1.658   3.796   2.677  0.6355  0.6069 -0.3243
 9135SOL     OW39037   2.782   1.251  13.323  0.2783 -0.1595 -0.1804
 9135SOL    HW139038   2.806   1.274  13.233 -1.4025 -0.7870 -0.7903
 9135SOL    HW239039   2.782   1.334  13.370 -1.1747  0.0686 -0.6042
 9136SOL     OW39040   2.499   0.153  12.086 -0.2137  0.1579 -0.1239
 9136SOL    HW139041   2.565   0.090  12.057 -1.7652 -0.8640 -1.4028
 9136SOL    HW239042   2.452   0.093  12.144  0.5047 -0.9690 -0.7101
 9137SOL     OW39043   0.070   0.704   3.816  0.5357  0.2943 -0.4432
 9137SOL    HW139044   0.018   0.623   3.816  1.2407 -0.1546  0.1179
 9137SOL    HW239045   0.159   0.672   3.828  0.9618  1.8973  0.5804
 9138SOL     OW39046   1.391   2.935  11.542 -0.0061 -0.0259 -0.1842
 9138SOL    HW139047   1.313   2.921  11.489  0.6118 -1.7661 -0.6587
 9138SOL    HW239048   1.436   2.852  11.525  1.1089  0.7365 -0.9588
 9139SOL     OW39049   1.805   3.937   2.322 -0.2540 -0.4423  0.3974
 9139SOL    HW139050   1.860   3.994   2.269  1.6998 -0.8795  1.9420
 9139SOL    HW239051   1.851   3.854   2.312  1.3118  0.8077 -2.7433
 9140SOL     OW39052   0.786   3.005  15.637  0.2484  0.5429 -0.2786
 9140SOL    HW139053   0.869   2.966  15.663  0.6241  0.8192 -1.0790
 9140SOL    HW239054   0.800   3.099  15.625 -3.1807  1.4773  2.8039
 9141SOL     OW39055   2.113   3.886   7.986  0.2612 -0.2770 -0.2687
 9141SOL    HW139056   2.119   3.807   8.039  0.7398 -0.5214 -0.6896
 9141SOL    HW239057   2.201   3.914   8.011 -0.5302  1.5446  0.4773
 9142SOL     OW39058   4.365   1.773   2.428  0.2511  0.1717  0.0864
 9142SOL    HW139059   4.452   1.733   2.430  0.6180  0.8857 -2.1360
 9142SOL    HW239060   4.365   1.786   2.523 -2.0877  1.2486 -0.0470
 9143SOL     OW39061   1.417   3.611  17.503  0.5673  0.0302  0.1635
 9143SOL    HW139062   1.470   3.544  17.461  2.4604  0.8381  1.2679
 9143SOL    HW239063   1.386   3.661  17.428 -0.7733 -1.2216 -0.1199
 9144SOL     OW39064   1.215   0.661   7.634  0.5290  0.0932  0.3599
 9144SOL    HW139065   1.303   0.696   7.625  1.1331 -1.7184 -0.8247
 9144SOL    HW239066   1.212   0.677   7.728  1.4666  0.8156  0.2610
 9145SOL     OW39067   0.947   1.937   3.213  0.5202  0.4007  0.2852
 9145SOL    HW139068   0.887   1.882   3.262 -0.1932 -1.4520 -2.6618
 9145SOL    HW239069   0.969   1.867   3.152  0.7063  0.7091 -0.0062
 9146SOL     OW39070   4.420   1.349   4.376 -0.5192  0.0580  0.4944
 9146SOL    HW139071   4.422   1.338   4.471 -2.8620 -1.0618  0.4183
 9146SOL    HW239072   4.346   1.409   4.364  0.8031  1.5104 -0.3063
 9147SOL     OW39073   2.840   3.222  17.249  0.0987 -0.2207 -0.1030
 9147SOL    HW139074   2.754   3.182  17.257  0.6333 -1.5833 -1.0448
 9147SOL    HW239075   2.819   3.312  17.222  0.0855  0.5929  2.6203
 9148SOL     OW39076   0.725   1.375   7.875 -0.0035  0.5450  0.6586
 9148SOL    HW139077   0.717   1.410   7.786  1.7862 -0.9594 -0.0876
 9148SOL    HW239078   0.763   1.288   7.862 -1.7603 -0.1841  0.3294
 9149SOL     OW39079   0.117   0.578   8.627 -0.1494 -0.3187  0.2468
 9149SOL    HW139080   0.030   0.603   8.657 -0.1931  0.2143 -0.3327
 9149SOL    HW239081   0.089   0.507   8.569 -1.6680 -0.4702  1.1694
 9150SOL     OW39082   1.720   2.190  14.862  0.0492  0.0126  0.3922
 9150SOL    HW139083   1.737   2.139  14.782 -1.4837  2.1923 -1.3156
 9150SOL    HW239084   1.641   2.242  14.848  0.2834 -0.0836 -1.2853
 9151SOL     OW39085   1.997   4.541  17.643  0.2816  0.1536 -0.0318
 9151SOL    HW139086   1.972   4.582  17.726 -2.4586 -0.6960 -0.4338
 9151SOL    HW239087   2.090   4.557  17.656  0.6261 -2.4059  0.6753
 9152SOL     OW39088   4.142   0.992   8.810  0.2096 -0.2165 -0.0121
 9152SOL    HW139089   4.154   1.053   8.737 -0.0378  1.9115  1.6852
 9152SOL    HW239090   4.179   1.045   8.881  2.9051 -0.3245 -1.3551
 9153SOL     OW39091   2.506   3.214   0.406  0.0949  0.2080 -0.0362
 9153SOL    HW139092   2.441   3.278   0.434  1.3079  0.7084  1.6258
 9153SOL    HW239093   2.460   3.176   0.331 -0.3584  1.9804 -0.6487
 9154SOL     OW39094   2.590   0.796  14.702 -0.2914  1.0020  0.0020
 9154SOL    HW139095   2.550   0.857  14.764 -0.9606  1.6307 -1.0350
 9154SOL    HW239096   2.645   0.752  14.766  1.8758  1.4329 -1.5547
 9155SOL     OW39097   0.869   4.120   2.429  0.0812 -0.5546 -0.4841
 9155SOL    HW139098   0.904   4.208   2.411  0.1481 -0.7979 -1.5228
 9155SOL    HW239099   0.820   4.134   2.510  0.7747  1.8549 -0.4693
 9156SOL     OW39100   0.549   4.468   4.660  0.5321  0.0515  0.3331
 9156SOL    HW139101   0.555   4.376   4.683  0.5636  0.0522  0.3281
 9156SOL    HW239102   0.472   4.500   4.707 -0.5001 -0.0316 -1.2992
 9157SOL     OW39103   1.424   4.086  11.498  0.0106  0.6378 -0.4474
 9157SOL    HW139104   1.357   4.151  11.476 -0.5694 -0.4380 -1.8939
 9157SOL    HW239105   1.453   4.059  11.411 -0.0808 -1.2524  0.0976
 9158SOL     OW39106   3.001   0.343   6.288 -0.5662 -0.1723 -0.2412
 9158SOL    HW139107   2.943   0.275   6.253 -0.9239  0.7034 -1.3194
 9158SOL    HW239108   2.967   0.360   6.376  1.1284 -1.3611  0.6482
 9159SOL     OW39109   3.480   4.347   8.445  0.3420 -0.8741 -0.0573
 9159SOL    HW139110   3.542   4.419   8.453 -1.2184  0.4220  0.3984
 9159SOL    HW239111   3.419   4.371   8.376  0.9245  0.2454 -0.1778
 9160SOL     OW39112   2.151   1.768   5.026 -0.4410  0.4783  0.0979
 9160SOL    HW139113   2.241   1.770   5.059 -0.9344  0.9497  1.3792
 9160SOL    HW239114   2.111   1.845   5.065  2.4376  1.6074  0.8323
 9161SOL     OW39115   2.582   3.272   4.413 -0.0912 -0.3776  0.5776
 9161SOL    HW139116   2.504   3.286   4.465  0.0807  1.6689  0.3079
 9161SOL    HW239117   2.570   3.319   4.330 -1.0877 -0.3772  0.7329
 9162SOL     OW39118   3.306   3.631  15.243 -0.2556  0.1738  0.2130
 9162SOL    HW139119   3.331   3.664  15.157  0.8514  1.2680  0.9508
 9162SOL    HW239120   3.388   3.657  15.285  0.7341 -1.8360 -0.4802
 9163SOL     OW39121   1.229   4.048  11.070  0.0720  0.0076  0.5230
 9163SOL    HW139122   1.137   4.073  11.075 -0.2211 -1.5918  3.0495
 9163SOL    HW239123   1.236   3.959  11.104 -0.2873 -0.3851 -0.4138
 9164SOL     OW39124   2.900   1.685  15.740  0.1004 -0.5390 -0.1548
 9164SOL    HW139125   2.886   1.634  15.661 -2.9894  0.5993 -0.3092
 9164SOL    HW239126   2.899   1.777  15.715 -1.1137  0.2608  2.8013
 9165SOL     OW39127   4.727   4.151   3.232  0.3356  0.3112 -0.4842
 9165SOL    HW139128   4.724   4.150   3.328 -1.6208  0.1853 -0.5383
 9165SOL    HW239129   0.004   4.058   3.216  0.4713  0.2992 -0.2979
 9166SOL     OW39130   3.493   1.724   5.059 -0.3874  0.1640 -0.3606
 9166SOL    HW139131   3.577   1.703   5.099 -1.1065 -0.5537  0.7879
 9166SOL    HW239132   3.520   1.744   4.970 -0.5482 -2.4296 -0.9995
 9167SOL     OW39133   0.004   2.727   6.358  0.5009  0.7460 -0.8649
 9167SOL    HW139134   0.002   2.643   6.404 -1.3209  0.6699 -1.0669
 9167SOL    HW239135   4.718   2.711   6.267  1.8375  0.4380 -1.1332
 9168SOL     OW39136   4.457   3.231  16.633  0.1844 -0.7020 -0.4901
 9168SOL    HW139137   4.382   3.243  16.575 -0.6304  0.5145  0.8118
 9168SOL    HW239138   4.507   3.312  16.623 -0.1829 -0.3352  0.6818
 9169SOL     OW39139   4.438   3.006   1.726 -0.3110  0.1777 -0.1337
 9169SOL    HW139140   4.363   3.064   1.717 -0.3482 -0.0675 -1.4266
 9169SOL    HW239141   4.403   2.917   1.720 -0.4813  0.1415  1.5477
 9170SOL     OW39142   4.261   3.491  14.494 -0.1276  0.2563  0.0165
 9170SOL    HW139143   4.356   3.483  14.505  0.2973  1.2637 -3.0426
 9170SOL    HW239144   4.260   3.533  14.408 -2.9932 -1.8109 -0.9551
 9171SOL     OW39145   2.243   3.210  16.498 -0.8169  0.6967 -0.6467
 9171SOL    HW139146   2.301   3.149  16.543  1.3034  1.2612 -2.6193
 9171SOL    HW239147   2.302   3.238  16.428  0.0152  0.0705 -0.2047
 9172SOL     OW39148   3.562   0.650  14.143 -0.2660  0.4454  0.0059
 9172SOL    HW139149   3.637   0.657  14.203 -1.1292 -1.2995  1.2913
 9172SOL    HW239150   3.570   0.560  14.111 -1.9563  0.7198 -1.1504
 9173SOL     OW39151   4.428   1.711  17.237  0.0488  0.5390  0.3055
 9173SOL    HW139152   4.399   1.767  17.165 -2.6267 -1.8788 -0.5109
 9173SOL    HW239153   4.414   1.777  17.304 -1.1808  0.0028  0.5772
 9174SOL     OW39154   1.469   0.142   5.220  0.3485 -0.0704 -0.1016
 9174SOL    HW139155   1.436   0.068   5.269  0.3923 -1.8204 -2.7216
 9174SOL    HW239156   1.473   0.213   5.285 -0.3852  0.5394 -0.7259
 9175SOL     OW39157   1.640   2.025   7.885  0.0276 -0.5496  0.2184
 9175SOL    HW139158   1.654   1.931   7.874  0.6097 -0.4250 -0.0704
 9175SOL    HW239159   1.670   2.050   7.973 -2.3733  2.9233  0.0498
 9176SOL     OW39160   1.172   4.067   6.023  0.1591 -0.3123 -0.2047
 9176SOL    HW139161   1.110   4.021   6.080  0.8525 -0.1946  0.6426
 9176SOL    HW239162   1.155   4.033   5.935 -3.0480  1.8772 -0.4445
 9177SOL     OW39163   4.569   1.507   4.825  0.2924  0.2386 -0.4934
 9177SOL    HW139164   4.584   1.436   4.887 -0.1209  0.4310 -0.1696
 9177SOL    HW239165   4.632   1.571   4.857  0.9161 -0.8092  0.3389
 9178SOL     OW39166   4.438   3.943   1.680  0.3003  0.0958 -0.3742
 9178SOL    HW139167   4.477   4.004   1.618 -0.4599  0.2571 -0.6906
 9178SOL    HW239168   4.399   3.876   1.624  0.0358 -0.5417  0.5661
 9179SOL     OW39169   4.264   0.128  14.719 -0.0037 -0.0162  0.6123
 9179SOL    HW139170   4.346   0.117  14.673  0.9104  1.7234  1.8311
 9179SOL    HW239171   4.286   0.112  14.811 -0.6331  2.3217  1.1841
 9180SOL     OW39172   1.061   1.694   6.222  0.0522 -0.1543  0.4126
 9180SOL    HW139173   1.093   1.614   6.264  1.3542 -0.1064 -0.4833
 9180SOL    HW239174   0.970   1.692   6.251 -0.1742 -0.9218 -0.3545
 9181SOL     OW39175   1.635   3.110   8.610 -0.5819  0.4847 -0.4910
 9181SOL    HW139176   1.559   3.062   8.580  0.2431 -0.0086 -1.7831
 9181SOL    HW239177   1.649   3.067   8.695  0.8876  1.8130 -0.0463
 9182SOL     OW39178   0.366   1.959   8.228  0.2023  0.2953 -0.2933
 9182SOL    HW139179   0.447   1.958   8.177 -0.4835  1.1279 -1.4008
 9182SOL    HW239180   0.312   2.018   8.175 -0.6024 -0.9920 -0.9123
 9183SOL     OW39181   1.810   4.666   3.494  0.0321  0.4023 -0.2353
 9183SOL    HW139182   1.738   4.632   3.441 -0.8768 -1.7746  2.4350
 9183SOL    HW239183   1.768   4.695   3.575  1.0842 -1.4597  0.9590
 9184SOL     OW39184   0.468   0.529   7.586 -0.3908  0.3407 -0.0161
 9184SOL    HW139185   0.523   0.490   7.654  0.2814 -0.8615 -1.2452
 9184SOL    HW239186   0.531   0.559   7.519 -0.3530 -2.2076 -1.1121
 9185SOL     OW39187   3.463   2.717   8.375  0.4480  0.0600 -0.2536
 9185SOL    HW139188   3.379   2.679   8.401  0.7673 -0.0741  0.5638
 9185SOL    HW239189   3.481   2.671   8.293  1.9523  0.0941  0.0695
 9186SOL     OW39190   3.575   2.925   4.180 -0.0129  0.5240 -0.0850
 9186SOL    HW139191   3.651   2.963   4.137  0.9104 -0.3888  0.7321
 9186SOL    HW239192   3.575   2.978   4.259 -1.3568  0.4905 -0.0541
 9187SOL     OW39193   1.305   3.273   3.773  0.2725  0.0644 -0.2322
 9187SOL    HW139194   1.345   3.217   3.707 -0.4646 -1.4332  0.5871
 9187SOL    HW239195   1.291   3.359   3.733  1.3314  0.1080 -0.5025
 9188SOL     OW39196   1.690   1.718   0.163 -0.7865 -0.2281 -0.2203
 9188SOL    HW139197   1.608   1.745   0.120 -1.8240 -1.2807  1.0752
 9188SOL    HW239198   1.740   1.777   0.106 -0.5211  0.2737  0.5296
 9189SOL     OW39199   3.759   0.800   8.847 -0.2022  0.0131 -0.6108
 9189SOL    HW139200   3.756   0.776   8.939  0.0551  1.6935 -0.1740
 9189SOL    HW239201   3.852   0.791   8.825 -0.2615  0.3570 -1.0096
 9190SOL     OW39202   4.281   1.065  11.151  0.0974 -0.2993  0.4751
 9190SOL    HW139203   4.189   1.074  11.125  0.5936  2.5926 -0.2370
 9190SOL    HW239204   4.262   1.097  11.239 -0.8719  1.0205 -0.2000
 9191SOL     OW39205   2.711   4.214   1.710 -0.3046 -0.3203  0.0220
 9191SOL    HW139206   2.668   4.257   1.784  1.3858  1.4918 -0.0304
 9191SOL    HW239207   2.648   4.162   1.661 -2.4923  0.4128  2.0666
 9192SOL     OW39208   1.602   1.105   3.317  0.3919 -0.0747  0.0642
 9192SOL    HW139209   1.574   1.130   3.229  0.6182 -0.2776 -0.0665
 9192SOL    HW239210   1.521   1.132   3.360 -0.6154 -0.9175 -1.3062
 9193SOL     OW39211   3.280   1.492   6.784  0.5926 -0.2046 -0.6773
 9193SOL    HW139212   3.290   1.428   6.714  1.2637 -0.6232 -0.1958
 9193SOL    HW239213   3.311   1.566   6.731 -2.6890  2.0200  0.4888
 9194SOL     OW39214   4.643   1.080   5.900  0.4609 -0.3916 -0.2637
 9194SOL    HW139215   4.617   0.999   5.856  1.8438 -3.1176  3.9078
 9194SOL    HW239216   4.562   1.097   5.948  1.0633  0.8884  0.3071
 9195SOL     OW39217   4.297   0.547   0.071 -0.1331 -0.3653 -0.1610
 9195SOL    HW139218   4.331   0.605   0.139 -0.9741 -1.0301  0.8340
 9195SOL    HW239219   4.378   0.511   0.035  0.8801  0.4871  1.2963
 9196SOL     OW39220   4.660   2.412  17.520  0.1665  0.4673 -0.0969
 9196SOL    HW139221   4.683   2.462  17.441 -0.6065  2.1200  0.7324
 9196SOL    HW239222   4.626   2.332  17.480  2.6923  0.6338 -2.6645
 9197SOL     OW39223   3.842   4.687   6.786 -0.0464  0.1940  0.0242
 9197SOL    HW139224   3.801   4.634   6.718  0.2732  1.0625 -0.8561
 9197SOL    HW239225   3.762   4.730   6.816 -0.7010 -0.9873 -0.0541
 9198SOL     OW39226   0.547   1.100   0.892 -0.5028 -0.3221 -0.1232
 9198SOL    HW139227   0.594   1.105   0.975 -2.2136  0.6871  0.7748
 9198SOL    HW239228   0.613   1.124   0.826  0.8016  1.2616  1.7611
 9199SOL     OW39229   1.237   3.716   0.369  0.0726  0.2702  0.1421
 9199SOL    HW139230   1.279   3.668   0.441 -2.1257 -0.2609  1.0548
 9199SOL    HW239231   1.309   3.730   0.308  1.0924  2.8080  1.9038
 9200SOL     OW39232   3.215   0.474   5.336  0.2331  0.5033  0.3353
 9200SOL    HW139233   3.239   0.428   5.417 -1.1835  0.5819  0.8116
 9200SOL    HW239234   3.145   0.527   5.374  0.4059 -0.2707  1.7214
 9201SOL     OW39235   3.863   1.629   3.565  0.0325 -0.2475  0.1767
 9201SOL    HW139236   3.949   1.643   3.605  0.1458 -0.7092  0.0970
 9201SOL    HW239237   3.829   1.548   3.605 -0.0300 -0.6761 -0.7355
 9202SOL     OW39238   1.933   4.030   4.321 -0.0941  0.3471 -0.1220
 9202SOL    HW139239   1.880   4.048   4.399  1.2911  1.3264  0.5897
 9202SOL    HW239240   1.948   4.121   4.297 -0.2650  0.4608  0.2114
 9203SOL     OW39241   4.118   0.854   5.707 -0.0182  0.0800 -0.1724
 9203SOL    HW139242   4.160   0.872   5.791  0.2920  1.1137 -0.5527
 9203SOL    HW239243   4.191   0.818   5.657  0.2015 -2.1226  1.6971
 9204SOL     OW39244   1.996   4.703   6.090  0.1396  0.4013  0.3253
 9204SOL    HW139245   2.057   0.038   6.104  1.3184 -0.5418  0.0555
 9204SOL    HW239246   2.056   4.631   6.111 -3.3621 -2.6617 -0.0982
 9205SOL     OW39247   1.497   3.832   3.949  0.2196 -0.5905 -0.3220
 9205SOL    HW139248   1.481   3.823   3.855 -1.9755  0.2071 -0.0263
 9205SOL    HW239249   1.501   3.927   3.952 -0.7452 -0.5036 -1.6021
 9206SOL     OW39250   3.859   4.517   9.552  0.1299  0.3941  0.1419
 9206SOL    HW139251   3.903   4.448   9.502  0.1529  2.4253 -2.5928
 9206SOL    HW239252   3.877   4.496   9.644  1.4227  0.7633 -0.0247
 9207SOL     OW39253   4.442   3.265  10.634  0.3102 -0.2372 -0.1807
 9207SOL    HW139254   4.492   3.331  10.683 -1.1138 -1.3333  2.7722
 9207SOL    HW239255   4.442   3.207  10.711 -0.3020  1.4683  1.1186
 9208SOL     OW39256   1.944   2.627   1.210 -0.0999  0.6279  0.0877
 9208SOL    HW139257   1.963   2.640   1.118  4.7860  0.8924  1.1278
 9208SOL    HW239258   1.954   2.532   1.219 -0.1840  0.7034  0.9938
 9209SOL     OW39259   3.756   2.582   9.996  0.0571  0.0273  0.0526
 9209SOL    HW139260   3.733   2.637   9.921 -0.5807 -1.4565 -0.8420
 9209SOL    HW239261   3.803   2.521   9.939 -0.8534 -0.2042 -0.4452
 9210SOL     OW39262   1.057   0.228  12.017  0.2687 -0.2711  0.0020
 9210SOL    HW139263   1.108   0.283  12.077 -0.0815 -1.3808  1.3064
 9210SOL    HW239264   0.978   0.213  12.069  0.8026 -2.5459  0.1435
 9211SOL     OW39265   2.527   3.468  17.206 -0.0445  0.5869  0.0104
 9211SOL    HW139266   2.506   3.396  17.265  0.1432  0.0818 -0.5306
 9211SOL    HW239267   2.500   3.429  17.122  1.4272 -1.7349  0.6024
 9212SOL     OW39268   0.624   0.230  12.109  0.4847 -0.2762  0.2967
 9212SOL    HW139269   0.629   0.205  12.017  0.8187  0.7159  0.0476
 9212SOL    HW239270   0.696   0.179  12.145  0.7545  0.7406  1.2008
 9213SOL     OW39271   3.422   3.444   9.031  0.0551  0.0955 -0.2441
 9213SOL    HW139272   3.433   3.350   9.013  1.5456  0.3069 -0.4221
 9213SOL    HW239273   3.484   3.480   8.967  0.4089 -0.3239 -0.1413
 9214SOL     OW39274   1.035   3.754   5.331 -0.0051 -0.1704 -0.0754
 9214SOL    HW139275   1.096   3.773   5.260 -0.5701 -0.9447 -0.7769
 9214SOL    HW239276   1.074   3.684   5.385  1.0137  0.2338 -0.2920
 9215SOL     OW39277   0.394   1.101   7.691  0.1670  0.2618 -0.2730
 9215SOL    HW139278   0.439   1.182   7.667 -0.5003  0.4487 -0.9020
 9215SOL    HW239279   0.380   1.075   7.600 -0.1218 -1.7790  0.3509
 9216SOL     OW39280   2.130   2.122  11.025  0.1312 -0.0719 -0.7221
 9216SOL    HW139281   2.210   2.106  10.975  0.4118  0.1115 -0.3283
 9216SOL    HW239282   2.074   2.052  10.990 -0.1748 -0.7318  1.1136
 9217SOL     OW39283   3.646   1.180   4.173  0.1297  0.8690 -0.7000
 9217SOL    HW139284   3.637   1.275   4.164  1.8717  1.0745 -0.4445
 9217SOL    HW239285   3.698   1.167   4.253 -0.6277 -0.6404 -0.4539
 9218SOL     OW39286   1.107   0.977   7.798 -0.6536 -0.2898 -0.1008
 9218SOL    HW139287   1.182   1.030   7.768 -0.3292 -1.1716 -0.8369
 9218SOL    HW239288   1.045   0.981   7.725  0.3273 -0.8972 -0.9794
 9219SOL     OW39289   2.795   3.769   1.310  0.8937  1.1714  0.5749
 9219SOL    HW139290   2.791   3.784   1.405 -1.7615 -3.1636  1.1848
 9219SOL    HW239291   2.709   3.797   1.280  0.6706  1.0094  1.0479
 9220SOL     OW39292   1.181   3.794   2.958 -0.1265  0.8519  0.3097
 9220SOL    HW139293   1.134   3.721   2.917  1.0183 -0.4416  1.3052
 9220SOL    HW239294   1.142   3.867   2.910 -2.4673  0.1881  1.1982
 9221SOL     OW39295   0.221   4.021   8.727 -0.0859 -0.4934 -0.2697
 9221SOL    HW139296   0.144   3.970   8.702  0.3874 -0.0219 -2.7335
 9221SOL    HW239297   0.273   3.960   8.779 -1.5174 -2.5929 -1.2693
 9222SOL     OW39298   2.831   1.238  14.583 -0.3524 -0.3182  0.2660
 9222SOL    HW139299   2.805   1.265  14.495 -2.8923  0.4898  1.2424
 9222SOL    HW239300   2.806   1.146  14.582  1.6508 -0.8485 -0.2748
 9223SOL     OW39301   3.187   1.657   4.570  0.3759  0.0103  0.5014
 9223SOL    HW139302   3.223   1.744   4.583  1.1323 -0.4386  1.3941
 9223SOL    HW239303   3.095   1.684   4.573  0.6426  1.0497 -0.5730
 9224SOL     OW39304   1.110   1.220   6.691  0.2478 -0.0049 -0.0336
 9224SOL    HW139305   1.140   1.255   6.776  1.2307 -1.1572  0.0942
 9224SOL    HW239306   1.196   1.188   6.662 -0.8376 -1.7374 -1.3200
 9225SOL     OW39307   4.606   2.400  15.976 -0.0086 -0.6642 -0.1300
 9225SOL    HW139308   4.626   2.490  15.950  1.6014 -1.0439 -0.2154
 9225SOL    HW239309   4.550   2.369  15.905 -1.8262 -2.4975  2.1258
 9226SOL     OW39310   1.419   2.347   3.544 -0.5898 -0.2356 -0.0730
 9226SOL    HW139311   1.359   2.334   3.471 -0.4756  2.5922 -0.6408
 9226SOL    HW239312   1.480   2.273   3.548 -1.2009 -0.6010  2.4024
 9227SOL     OW39313   0.652   3.450  17.591  0.0197  0.7218  0.1331
 9227SOL    HW139314   0.677   3.472  17.680 -1.3307  0.4612  0.5733
 9227SOL    HW239315   0.704   3.370  17.578 -1.2815 -0.1747  0.3804
 9228SOL     OW39316   1.625   3.518   7.760  0.3413  0.2707 -0.5079
 9228SOL    HW139317   1.585   3.514   7.847  2.4409  1.1200  0.5118
 9228SOL    HW239318   1.590   3.602   7.730  2.1583  0.7510 -1.3022
 9229SOL     OW39319   3.495   2.021  10.452  0.3512  0.0835  0.1888
 9229SOL    HW139320   3.487   2.099  10.507  0.9604 -0.0485  0.4696
 9229SOL    HW239321   3.582   2.029  10.412 -0.0564  0.2338 -0.6718
 9230SOL     OW39322   4.585   1.276  11.328 -0.5931 -0.1486  0.6281
 9230SOL    HW139323   4.573   1.371  11.334  0.0346 -0.0666  0.4823
 9230SOL    HW239324   4.642   1.271  11.251 -1.3881 -2.2908  0.1826
 9231SOL     OW39325   4.210   2.644   1.488  0.0811 -0.6353 -0.2862
 9231SOL    HW139326   4.122   2.683   1.489 -0.4077 -1.7362  0.1538
 9231SOL    HW239327   4.189   2.582   1.559 -1.9715 -1.0434 -1.2469
 9232SOL     OW39328   2.902   4.709  15.336  0.1226 -0.1108  0.9503
 9232SOL    HW139329   2.904   0.067  15.351  2.3045  0.0552 -0.4989
 9232SOL    HW239330   2.973   4.681  15.394  0.1516  0.0162  0.9752
 9233SOL     OW39331   3.357   4.635   2.948 -0.4666 -0.1462 -0.2651
 9233SOL    HW139332   3.423   4.589   2.895  0.6692 -0.9073  1.8007
 9233SOL    HW239333   3.407   4.647   3.029 -0.7966  0.8707 -0.2196
 9234SOL     OW39334   3.442   2.638   5.730  0.2291  0.3555  0.4948
 9234SOL    HW139335   3.356   2.622   5.691  0.4319 -0.2843  0.3094
 9234SOL    HW239336   3.468   2.719   5.688 -0.1444 -0.5646 -1.4836
 9235SOL     OW39337   2.433   0.153   3.426 -0.1697 -0.4785 -0.1482
 9235SOL    HW139338   2.504   0.152   3.362 -2.3398 -0.1221 -2.5769
 9235SOL    HW239339   2.456   0.231   3.478 -1.2500 -1.3846  1.6913
 9236SOL     OW39340   4.008   0.234   0.219 -0.1688  0.4542  0.3955
 9236SOL    HW139341   3.998   0.321   0.178 -1.9156 -0.1489 -0.4645
 9236SOL    HW239342   4.094   0.235   0.260 -0.3921  1.0169  0.8491
 9237SOL     OW39343   3.122   3.283  16.929  0.6900 -0.1933  0.0342
 9237SOL    HW139344   3.184   3.286  16.857  0.3827  1.4648 -0.1705
 9237SOL    HW239345   3.155   3.360  16.976  0.0777  1.2000 -1.8141
 9238SOL     OW39346   1.539   2.662  11.539 -0.0269 -0.2091 -0.2376
 9238SOL    HW139347   1.579   2.604  11.475 -2.5411  0.0480 -2.0398
 9238SOL    HW239348   1.577   2.641  11.624  2.2878  2.6737 -0.5756
 9239SOL     OW39349   3.372   0.954  15.665 -0.2428  0.2405 -0.3158
 9239SOL    HW139350   3.411   0.870  15.640 -1.5765  0.4574 -3.2153
 9239SOL    HW239351   3.438   1.022  15.659  0.0909 -0.0264  0.3014
 9240SOL     OW39352   4.398   3.190   6.034 -0.2435 -0.4240  0.1257
 9240SOL    HW139353   4.356   3.275   6.049  0.4440  0.0660 -0.6760
 9240SOL    HW239354   4.324   3.141   6.000 -1.6231  1.3727  0.5333
 9241SOL     OW39355   3.412   3.983   2.209  0.2143 -0.2888  0.0601
 9241SOL    HW139356   3.471   4.057   2.222 -1.1493  0.6534  0.8580
 9241SOL    HW239357   3.343   4.015   2.267 -1.9879  0.7706 -3.1421
 9242SOL     OW39358   1.529   3.792  14.628 -0.1426  0.2129 -0.2179
 9242SOL    HW139359   1.440   3.771  14.600 -1.3162  1.4418  2.5476
 9242SOL    HW239360   1.568   3.707  14.604  1.1427  0.2200  1.8210
 9243SOL     OW39361   4.328   2.354   2.939  0.4775  0.3266 -0.2235
 9243SOL    HW139362   4.356   2.289   3.004 -1.1326 -1.5061 -1.3755
 9243SOL    HW239363   4.262   2.298   2.899 -0.9672  1.8109  0.0967
 9244SOL     OW39364   1.057   3.542   6.528 -0.5267 -0.2136  0.5028
 9244SOL    HW139365   1.084   3.452   6.513  1.9887  1.0306 -2.5096
 9244SOL    HW239366   0.986   3.534   6.592 -1.8815  0.3882 -0.9207
 9245SOL     OW39367   0.326   2.482  16.322 -0.5495  0.4211  0.1391
 9245SOL    HW139368   0.327   2.575  16.346  0.4986  0.4102  0.1569
 9245SOL    HW239369   0.261   2.485  16.252  1.5866 -2.1241 -1.9669
 9246SOL     OW39370   1.367   4.132  12.752 -0.3098  0.3051  0.4491
 9246SOL    HW139371   1.406   4.200  12.807  1.5699 -0.3732 -0.0595
 9246SOL    HW239372   1.414   4.052  12.775  0.9760  0.1605 -2.7196
 9247SOL     OW39373   0.838   2.549   2.183 -0.6277  0.3352  0.1540
 9247SOL    HW139374   0.816   2.544   2.276 -1.6389  0.4861 -0.0785
 9247SOL    HW239375   0.750   2.556   2.146 -0.5347 -2.6692 -0.6969
 9248SOL     OW39376   3.254   3.460   1.446  0.0698  0.8040  0.1215
 9248SOL    HW139377   3.330   3.441   1.391 -1.4791 -2.8329 -0.7670
 9248SOL    HW239378   3.202   3.530   1.406 -1.0697  1.9295  3.5803
 9249SOL     OW39379   0.132   0.712   2.286  0.0990 -0.4227  0.7458
 9249SOL    HW139380   0.146   0.681   2.197 -0.7908 -0.7890  0.7381
 9249SOL    HW239381   0.111   0.803   2.267 -0.8152 -0.6090  0.8734
 9250SOL     OW39382   1.088   0.202   7.223  0.2359 -0.2431  0.2837
 9250SOL    HW139383   1.031   0.130   7.195 -1.4381  1.4262 -0.6114
 9250SOL    HW239384   1.114   0.227   7.134  0.2220 -1.0822  0.0444
 9251SOL     OW39385   1.765   0.240   3.405  0.0029  0.0984 -0.1423
 9251SOL    HW139386   1.780   0.201   3.491 -2.9714 -0.3333  0.1900
 9251SOL    HW239387   1.855   0.235   3.374  0.0900  2.9968 -0.3587
 9252SOL     OW39388   0.244   1.312  10.220 -0.3000 -0.2097  0.4718
 9252SOL    HW139389   0.225   1.219  10.211  0.3480 -0.5430  2.4980
 9252SOL    HW239390   0.281   1.328  10.307 -0.1580  2.4901 -0.0994
 9253SOL     OW39391   3.238   0.808  14.127 -0.5842  0.0478 -0.2102
 9253SOL    HW139392   3.194   0.892  14.112 -0.1106  0.4922  0.9165
 9253SOL    HW239393   3.164   0.748  14.115 -0.9065 -0.0508  2.3646
 9254SOL     OW39394   0.740   2.153   5.609 -0.8824  0.0491 -0.1868
 9254SOL    HW139395   0.656   2.135   5.566 -0.1235 -0.4590 -1.4578
 9254SOL    HW239396   0.758   2.236   5.565  0.4109  0.7741  1.7046
 9255SOL     OW39397   4.442   0.941   7.427  0.2537  0.3669  0.1350
 9255SOL    HW139398   4.508   0.872   7.430  0.0868  0.2005  0.0036
 9255SOL    HW239399   4.364   0.901   7.388  0.5745  0.3113 -0.4504
 9256SOL     OW39400   4.271   1.226  11.703 -0.2968 -0.1439 -0.4119
 9256SOL    HW139401   4.227   1.148  11.738 -0.4570  0.0876 -0.0920
 9256SOL    HW239402   4.260   1.280  11.781 -4.7859 -0.5652 -0.7358
 9257SOL     OW39403   0.926   3.174   4.492 -0.4225  0.1004  0.3839
 9257SOL    HW139404   1.007   3.134   4.462 -0.0580  1.4620 -0.4931
 9257SOL    HW239405   0.864   3.138   4.428  0.1308 -0.2618  0.0589
 9258SOL     OW39406   2.496   1.879   1.385 -0.2042  0.0284 -0.0204
 9258SOL    HW139407   2.530   1.966   1.406  0.8824 -0.8858  1.9163
 9258SOL    HW239408   2.402   1.895   1.369 -0.4680 -1.5073  0.0165
 9259SOL     OW39409   2.908   4.037   5.536 -0.4661 -0.2073 -0.6351
 9259SOL    HW139410   2.964   4.046   5.614  1.0310 -0.4822 -1.6893
 9259SOL    HW239411   2.853   3.961   5.556  1.1851 -0.7436  1.8699
 9260SOL     OW39412   2.253   1.144   8.562 -0.0543  0.1199 -0.7461
 9260SOL    HW139413   2.186   1.174   8.622  0.9490  2.4947 -0.8247
 9260SOL    HW239414   2.327   1.146   8.622 -1.9908  2.6478  1.5410
 9261SOL     OW39415   1.629   4.341   8.371  0.2515 -0.2776 -0.0574
 9261SOL    HW139416   1.596   4.380   8.452 -1.2089 -0.6090 -0.4935
 9261SOL    HW239417   1.549   4.335   8.319  1.5788 -0.1413 -2.1658
 9262SOL     OW39418   1.120   1.395  10.052 -0.0925 -0.0114  0.8619
 9262SOL    HW139419   1.161   1.405   9.966 -0.8324 -0.7370  0.4220
 9262SOL    HW239420   1.042   1.445  10.031  0.7025  0.3645 -1.2159
 9263SOL     OW39421   3.636   1.305   3.850 -0.7627 -0.0238  0.1615
 9263SOL    HW139422   3.647   1.308   3.755 -0.7502 -0.4539  0.1492
 9263SOL    HW239423   3.676   1.222   3.876  2.3507  2.1980  2.5064
 9264SOL     OW39424   0.593   3.383   8.048 -0.0087  0.0618  0.1607
 9264SOL    HW139425   0.619   3.293   8.030  0.2940 -0.3094  2.4177
 9264SOL    HW239426   0.598   3.382   8.144 -0.4474  0.1142  0.1859
 9265SOL     OW39427   1.546   3.859   2.376 -0.4601  0.2262  0.1822
 9265SOL    HW139428   1.522   3.768   2.358  0.5093 -0.4063  2.0699
 9265SOL    HW239429   1.638   3.870   2.353 -0.6437  0.1241 -0.6122
 9266SOL     OW39430   2.289   3.556   1.693  0.5104 -0.2099 -0.4518
 9266SOL    HW139431   2.289   3.648   1.721  0.5834 -0.5258  0.6001
 9266SOL    HW239432   2.235   3.548   1.615  1.8240 -0.5721 -1.3177
 9267SOL     OW39433   4.305   1.598   7.854  0.0023 -0.1604  0.3022
 9267SOL    HW139434   4.265   1.552   7.780 -1.4085  0.5518  0.6117
 9267SOL    HW239435   4.379   1.542   7.876  0.1292  0.2786  0.9947
 9268SOL     OW39436   2.724   3.461   9.135 -0.1965 -0.1406 -0.2640
 9268SOL    HW139437   2.712   3.366   9.139 -2.1826  0.0344 -1.5256
 9268SOL    HW239438   2.816   3.473   9.159 -0.0690  2.1323 -1.8132
 9269SOL     OW39439   2.069   3.866   2.115  0.4428 -0.6789  0.2214
 9269SOL    HW139440   2.019   3.824   2.185  0.2912  1.6024  1.4710
 9269SOL    HW239441   2.148   3.891   2.163 -0.1947  0.3559  0.7233
 9270SOL     OW39442   2.939   2.398   4.456 -0.4787  0.2257 -0.5325
 9270SOL    HW139443   2.905   2.488   4.456 -0.0102  0.3972  3.4639
 9270SOL    HW239444   3.004   2.405   4.386  0.0505 -0.6044 -0.1064
 9271SOL     OW39445   1.412   0.179   1.981 -0.1528  1.0195 -0.2877
 9271SOL    HW139446   1.366   0.165   1.899 -0.4400  3.5549 -0.5666
 9271SOL    HW239447   1.408   0.274   1.986  0.0146  0.9434  1.6543
 9272SOL     OW39448   3.106   4.722  14.317 -0.0952 -0.3195  0.4158
 9272SOL    HW139449   3.015   0.015  14.321  0.6714  1.5893  3.1418
 9272SOL    HW239450   3.152   0.069  14.317 -0.8368  0.0836  0.5237
 9273SOL     OW39451   0.940   2.352   8.623  0.1287 -0.3020 -0.0183
 9273SOL    HW139452   0.857   2.377   8.664  0.0792  0.1223 -0.3779
 9273SOL    HW239453   1.002   2.371   8.694  0.0148  0.7205 -0.1956
 9274SOL     OW39454   3.382   0.613  16.783 -0.1650  0.3358 -0.1880
 9274SOL    HW139455   3.471   0.648  16.787 -0.5353  1.6642 -3.3246
 9274SOL    HW239456   3.392   0.533  16.834 -2.3565  0.8200  1.0162
 9275SOL     OW39457   4.511   4.539   5.339 -1.0655  0.3645  0.1711
 9275SOL    HW139458   4.532   4.563   5.429 -0.2107  1.2280 -0.2665
 9275SOL    HW239459   4.454   4.610   5.310 -2.9100 -2.1862 -2.4425
 9276SOL     OW39460   4.071   3.822   6.290 -0.3936 -0.1280  0.5829
 9276SOL    HW139461   3.976   3.812   6.286 -0.8104  4.2885 -1.2680
 9276SOL    HW239462   4.106   3.744   6.247 -2.0855 -0.1744 -0.7289
 9277SOL     OW39463   3.025   1.145  13.452  0.1043  0.4903  0.5432
 9277SOL    HW139464   2.951   1.206  13.454 -0.4043 -0.0989 -0.3921
 9277SOL    HW239465   3.074   1.160  13.371 -0.9071 -0.0568 -0.1779
 9278SOL     OW39466   3.078   2.458   7.755  0.5479  0.2735  0.0856
 9278SOL    HW139467   3.043   2.546   7.761 -0.1872 -0.1251  1.5978
 9278SOL    HW239468   3.005   2.401   7.732  1.6256  0.3866 -3.6777
 9279SOL     OW39469   3.652   2.558  16.276  0.3402 -0.4183 -0.0420
 9279SOL    HW139470   3.573   2.508  16.295  0.2355 -0.1517  0.2274
 9279SOL    HW239471   3.655   2.550  16.181 -0.2256  1.8268 -0.2573
 9280SOL     OW39472   2.997   0.623   4.428  0.3527  0.6032 -0.0196
 9280SOL    HW139473   3.073   0.646   4.481  1.1807 -2.4383  0.1108
 9280SOL    HW239474   2.942   0.701   4.434 -0.6950 -0.0084 -1.6848
 9281SOL     OW39475   0.667   2.293   2.927 -0.2641  0.4883 -0.0443
 9281SOL    HW139476   0.609   2.360   2.962 -0.6696  0.0991  0.0285
 9281SOL    HW239477   0.726   2.276   3.000  1.0742 -2.7863 -1.8735
 9282SOL     OW39478   4.202   1.367   3.242  0.2192 -0.1877 -0.3527
 9282SOL    HW139479   4.158   1.408   3.168  1.7624  0.3219 -1.0054
 9282SOL    HW239480   4.295   1.362   3.217  0.7474 -0.1011  1.6467
 9283SOL     OW39481   0.984   3.892   1.117 -0.9918 -0.1684 -0.3935
 9283SOL    HW139482   0.985   3.804   1.156 -0.5572 -0.8709 -1.9757
 9283SOL    HW239483   0.977   3.867   1.025 -2.2428  0.7204 -0.5278
 9284SOL     OW39484   0.578   1.008   9.589  0.0754  0.6412  0.2333
 9284SOL    HW139485   0.577   1.098   9.623  1.2646  0.5006  0.6185
 9284SOL    HW239486   0.507   1.011   9.524  0.6090  1.5507 -0.3158
 9285SOL     OW39487   0.353   2.866  12.442 -0.0191 -0.1318 -0.2100
 9285SOL    HW139488   0.301   2.858  12.522  0.1869  0.6812 -0.0018
 9285SOL    HW239489   0.303   2.934  12.396 -0.8438 -0.9256 -0.4906
 9286SOL     OW39490   2.961   1.018   8.741 -0.0901 -0.3346 -0.0723
 9286SOL    HW139491   3.042   1.056   8.708  0.3169  2.5558  4.3411
 9286SOL    HW239492   2.969   1.051   8.831  1.9979  0.9536 -0.7329
 9287SOL     OW39493   1.172   4.301   1.759  0.1499  0.0399  0.0634
 9287SOL    HW139494   1.171   4.206   1.772  0.8836 -0.2752 -2.2874
 9287SOL    HW239495   1.264   4.320   1.773 -0.2376  2.2920 -0.5127
 9288SOL     OW39496   1.163   1.924   1.103  0.4137 -0.3561 -0.5696
 9288SOL    HW139497   1.220   1.865   1.153 -0.1919  0.2088  0.7882
 9288SOL    HW239498   1.121   1.990   1.159  1.4259  0.9166 -1.3306
 9289SOL     OW39499   0.011   1.844   3.601  0.2228 -0.7499 -0.1386
 9289SOL    HW139500   0.082   1.875   3.659  0.5235 -0.3811 -0.7060
 9289SOL    HW239501   4.706   1.783   3.662  0.3342  0.5082  1.2168
 9290SOL     OW39502   2.551   1.420  16.362  0.0975 -0.3032  0.2495
 9290SOL    HW139503   2.519   1.490  16.420  3.0543  0.6954  0.6848
 9290SOL    HW239504   2.570   1.474  16.286 -1.2150 -1.3169 -0.7901
 9291SOL     OW39505   3.864   2.405   1.471 -0.1252 -0.0245  0.0956
 9291SOL    HW139506   3.850   2.436   1.561  0.7892 -0.1293  0.2670
 9291SOL    HW239507   3.856   2.488   1.424 -0.0360 -0.3659 -0.5195
 9292SOL     OW39508   2.543   0.229   6.249 -0.2860 -0.4836 -0.5526
 9292SOL    HW139509   2.478   0.245   6.181  0.1144  0.5736 -0.6869
 9292SOL    HW239510   2.491   0.206   6.327  2.8759 -0.2886  1.6016
 9293SOL     OW39511   3.509   1.444   5.368  0.8829  0.9426 -0.2326
 9293SOL    HW139512   3.554   1.497   5.433 -1.9834  2.5630  0.4031
 9293SOL    HW239513   3.578   1.386   5.334 -0.2456 -0.0410 -0.8774
 9294SOL     OW39514   4.308   3.961   6.362 -0.0313 -0.2268  0.7703
 9294SOL    HW139515   4.225   3.928   6.329 -0.1682  0.3006  0.5950
 9294SOL    HW239516   4.365   3.943   6.287 -2.7363 -1.1726 -1.0310
 9295SOL     OW39517   2.963   2.401   6.787  0.2895  0.2936  0.1673
 9295SOL    HW139518   3.047   2.388   6.742 -0.3193  1.9139 -1.4330
 9295SOL    HW239519   2.966   2.324   6.844 -0.6268 -0.5526 -0.9259
 9296SOL     OW39520   4.484   1.905  12.997  0.5776 -0.4583  0.0333
 9296SOL    HW139521   4.486   1.990  13.041 -1.6416 -1.3695  1.8620
 9296SOL    HW239522   4.401   1.912  12.949  0.1736  0.1201  0.7998
 9297SOL     OW39523   0.486   4.341   4.400 -0.3332 -0.8020 -0.0947
 9297SOL    HW139524   0.509   4.250   4.385  0.7445 -0.2514 -1.7792
 9297SOL    HW239525   0.523   4.345   4.488  0.6393 -2.3892 -0.4437
 9298SOL     OW39526   1.498   3.382   6.186 -0.0386 -0.2920 -0.4112
 9298SOL    HW139527   1.591   3.405   6.181 -0.2361  0.7339  0.6668
 9298SOL    HW239528   1.461   3.445   6.124 -0.2452 -1.5365 -1.5723
 9299SOL     OW39529   3.512   0.633  10.487  0.0409  0.6486  0.1828
 9299SOL    HW139530   3.417   0.636  10.477  0.0075  2.1890  1.0158
 9299SOL    HW239531   3.524   0.538  10.492 -4.9773  0.0347  0.3270
 9300SOL     OW39532   0.694   2.808   8.760  0.5636  0.0942 -0.1570
 9300SOL    HW139533   0.784   2.810   8.790 -1.0444  0.6985  4.5388
 9300SOL    HW239534   0.658   2.736   8.812 -0.6594 -0.3119 -1.5619
 9301SOL     OW39535   3.657   2.254   1.904  0.1535  0.4950 -0.5523
 9301SOL    HW139536   3.677   2.336   1.949  0.4856 -0.0790  0.3523
 9301SOL    HW239537   3.745   2.247   1.867  0.1487 -0.0978 -0.4525
 9302SOL     OW39538   1.935   1.338  14.701 -0.2233 -0.3703  0.8321
 9302SOL    HW139539   1.857   1.286  14.723  0.0271 -0.8750  0.5505
 9302SOL    HW239540   1.901   1.424  14.679  0.8016 -0.5319 -1.3787
 9303SOL     OW39541   2.245   1.049   7.521  0.0493  0.0317 -0.2941
 9303SOL    HW139542   2.313   1.086   7.464 -1.2064 -1.2625 -2.6336
 9303SOL    HW239543   2.240   1.112   7.593  0.3876  1.3872 -1.4628
 9304SOL     OW39544   2.015   0.999   5.728  0.0664  0.1870 -0.6576
 9304SOL    HW139545   1.993   0.923   5.674 -1.3659 -1.1854  1.8181
 9304SOL    HW239546   1.983   1.064   5.665 -0.6145 -0.0920 -0.6061
 9305SOL     OW39547   2.770   2.522   3.409 -0.0379 -0.3719  0.0630
 9305SOL    HW139548   2.842   2.502   3.348  0.8484  0.3486  0.8722
 9305SOL    HW239549   2.808   2.494   3.492 -1.6076  0.5925  1.0986
 9306SOL     OW39550   3.576   0.576  13.362 -0.6714  0.1481 -0.4083
 9306SOL    HW139551   3.519   0.507  13.398 -1.8428 -0.0756 -2.6809
 9306SOL    HW239552   3.513   0.647  13.375 -1.7936 -0.7011 -1.1495
 9307SOL     OW39553   0.367   2.762  15.063  0.5018 -0.0680  0.1674
 9307SOL    HW139554   0.357   2.769  14.968  0.2855  1.6638  0.3268
 9307SOL    HW239555   0.281   2.726  15.084  0.0245  0.7567 -0.3852
 9308SOL     OW39556   3.289   2.360  10.536  0.0364 -0.3337 -0.5317
 9308SOL    HW139557   3.324   2.420  10.471 -0.2443 -0.0338 -0.4064
 9308SOL    HW239558   3.362   2.326  10.588  0.2456 -0.5545 -0.9696
 9309SOL     OW39559   0.224   0.961   2.750  0.2678 -0.0439  0.2482
 9309SOL    HW139560   0.227   0.881   2.697  1.0040  0.5132 -0.5273
 9309SOL    HW239561   0.155   1.000   2.697  0.9442 -0.0427 -0.6175
 9310SOL     OW39562   2.390   1.778   8.517 -0.1338  0.1671 -0.1061
 9310SOL    HW139563   2.418   1.771   8.426 -0.4161  0.5723 -0.2250
 9310SOL    HW239564   2.326   1.850   8.514 -0.3396  0.0094  0.3570
 9311SOL     OW39565   2.507   1.241   3.429 -0.2578 -0.2433 -0.5933
 9311SOL    HW139566   2.513   1.161   3.378  0.7365  0.4209 -1.5317
 9311SOL    HW239567   2.598   1.271   3.422 -0.2486 -0.5675 -1.9194
 9312SOL     OW39568   1.348   3.948   5.376 -0.1603  0.1856  0.3864
 9312SOL    HW139569   1.306   3.865   5.356  0.1411  0.3721 -0.9815
 9312SOL    HW239570   1.313   3.973   5.462  1.5400  1.1836  0.7765
 9313SOL     OW39571   0.046   0.493  10.338  0.0934 -0.2693 -0.5550
 9313SOL    HW139572   4.690   0.470  10.350  0.2877 -1.1536 -0.7587
 9313SOL    HW239573   0.048   0.508  10.243 -1.5798  1.0724 -0.3667
 9314SOL     OW39574   1.294   2.709   7.442  0.0956 -0.5585  0.1744
 9314SOL    HW139575   1.208   2.685   7.409  0.3225  1.0913 -1.6289
 9314SOL    HW239576   1.275   2.760   7.521 -0.3023 -0.7043  0.1701
 9315SOL     OW39577   0.588   0.072   1.712 -0.3012 -0.3543  0.2549
 9315SOL    HW139578   0.539   0.122   1.777 -3.8997 -0.3606 -2.4525
 9315SOL    HW239579   0.532   0.062   1.636 -0.9648  1.4982  0.5059
 9316SOL     OW39580   2.645   2.538   2.055 -0.7772 -0.2896  0.0008
 9316SOL    HW139581   2.713   2.586   2.102 -0.7377 -0.4988  0.1552
 9316SOL    HW239582   2.693   2.455   2.051  0.4625  0.3430  1.3998
 9317SOL     OW39583   0.254   1.191   8.307  0.1851  0.0352 -0.5149
 9317SOL    HW139584   0.346   1.199   8.329  0.1380  0.0053 -0.3059
 9317SOL    HW239585   0.232   1.102   8.333  1.5280 -0.3112 -0.5627
 9318SOL     OW39586   2.154   3.529   1.472  0.0063 -0.2266  0.1005
 9318SOL    HW139587   2.229   3.543   1.414  0.6040  2.5393  1.5102
 9318SOL    HW239588   2.122   3.454   1.423 -0.8212  0.0727  0.1775
 9319SOL     OW39589   1.096   0.879   6.614  0.1031  0.1276 -0.1772
 9319SOL    HW139590   1.095   0.789   6.644 -1.8146  0.4398  0.7291
 9319SOL    HW239591   1.070   0.933   6.689  0.8998 -1.1499  1.0050
 9320SOL     OW39592   3.556   3.369   8.470 -0.1204  0.3213  0.0537
 9320SOL    HW139593   3.647   3.379   8.496  0.3610  0.6768 -1.7332
 9320SOL    HW239594   3.559   3.283   8.427 -2.6294  1.4379 -2.4062
 9321SOL     OW39595   3.859   1.036  14.883  0.4838  0.5479 -0.5217
 9321SOL    HW139596   3.844   0.958  14.937 -0.1272  0.1215 -1.3113
 9321SOL    HW239597   3.947   1.008  14.855 -0.0220  1.6123 -3.1177
 9322SOL     OW39598   2.972   1.457  13.628 -0.1979  0.0112 -0.1829
 9322SOL    HW139599   2.908   1.524  13.603  0.9888  0.4703 -1.9875
 9322SOL    HW239600   2.927   1.405  13.695  0.4717 -0.4643 -0.1048
 9323SOL     OW39601   0.985   1.567   6.535 -0.3715 -0.4182 -0.3613
 9323SOL    HW139602   0.939   1.491   6.499  1.5860 -0.5679 -2.5574
 9323SOL    HW239603   1.064   1.562   6.481 -0.1252  0.4238 -0.0840
 9324SOL     OW39604   4.541   0.081   9.163  0.0765  0.0671  0.3438
 9324SOL    HW139605   4.573   0.128   9.086 -3.7679  2.6666  0.3204
 9324SOL    HW239606   4.485   0.149   9.201  1.0887  0.4622  1.1046
 9325SOL     OW39607   1.179   3.727   9.115  0.1411 -0.4541 -0.1679
 9325SOL    HW139608   1.184   3.812   9.072 -1.8386 -0.2453  0.0041
 9325SOL    HW239609   1.254   3.741   9.173  1.1675  2.7328 -2.2705
 9326SOL     OW39610   2.160   1.220   2.059  0.4155 -0.3954  0.1807
 9326SOL    HW139611   2.126   1.307   2.081  0.3857  0.4102 -2.9770
 9326SOL    HW239612   2.086   1.181   2.012  0.7464 -2.7058  1.5710
 9327SOL     OW39613   2.146   4.228  14.702  0.2139 -0.1225  0.2979
 9327SOL    HW139614   2.214   4.179  14.748 -0.7287  0.9382  2.8642
 9327SOL    HW239615   2.126   4.161  14.638 -0.4791  0.9883 -0.6477
 9328SOL     OW39616   4.667   3.810   7.734 -0.4956 -0.2358 -0.5338
 9328SOL    HW139617   4.602   3.744   7.759 -0.5668 -0.7263 -2.0356
 9328SOL    HW239618   4.609   3.885   7.743 -0.2484 -0.1628  0.4219
 9329SOL     OW39619   3.987   0.507   8.116  0.0366  0.6633  0.5437
 9329SOL    HW139620   3.950   0.539   8.198  2.1965 -1.5868  2.3803
 9329SOL    HW239621   4.070   0.476   8.153  0.2525 -2.1748 -2.3244
 9330SOL     OW39622   3.349   3.958   3.352  0.2933 -0.5781  0.5759
 9330SOL    HW139623   3.270   3.981   3.304  0.7224 -1.9906 -0.8163
 9330SOL    HW239624   3.410   4.030   3.337 -0.0401 -0.2705  0.7134
 9331SOL     OW39625   1.432   1.529   4.497  0.8380  0.9777  0.7889
 9331SOL    HW139626   1.469   1.566   4.417  0.7349 -0.9892 -0.1686
 9331SOL    HW239627   1.391   1.609   4.529 -1.1212 -0.2969  1.4453
 9332SOL     OW39628   0.368   3.516   1.991  0.5365 -0.0784  0.0363
 9332SOL    HW139629   0.353   3.504   1.897  0.0625  1.9763 -0.1538
 9332SOL    HW239630   0.280   3.509   2.029  0.1587  0.7825 -0.6588
 9333SOL     OW39631   1.895   1.515  17.463 -0.0749 -0.3773  0.3956
 9333SOL    HW139632   1.861   1.566  17.537  0.7814 -0.7217  1.0195
 9333SOL    HW239633   1.914   1.437  17.515 -0.2644 -0.2717  0.6239
 9334SOL     OW39634   0.755   2.771   7.771  0.1335 -0.9234 -0.3188
 9334SOL    HW139635   0.792   2.683   7.766  3.5551  0.5137 -0.0964
 9334SOL    HW239636   0.757   2.779   7.867  2.5830 -2.9055 -0.1991
 9335SOL     OW39637   3.078   4.630   8.244  0.9757 -0.1251  0.0124
 9335SOL    HW139638   2.984   4.613   8.245  0.9670  0.0611  3.1431
 9335SOL    HW239639   3.101   4.641   8.337  1.0212 -0.3753  0.0293
 9336SOL     OW39640   3.220   4.022   1.928  0.1179  0.0154 -0.4837
 9336SOL    HW139641   3.247   3.967   2.001 -1.8750  1.8551  1.6348
 9336SOL    HW239642   3.303   4.065   1.908 -0.7632  2.4087  0.9870
 9337SOL     OW39643   2.971   1.888   8.400  0.3611  0.0864 -0.1043
 9337SOL    HW139644   2.932   1.971   8.427 -0.5989 -0.6663  0.8364
 9337SOL    HW239645   2.980   1.832   8.477 -3.2393  0.7167  0.7968
 9338SOL     OW39646   2.791   3.085   9.323 -0.1371  0.1270 -0.0484
 9338SOL    HW139647   2.732   3.143   9.275 -0.8279 -0.1232  0.5125
 9338SOL    HW239648   2.754   2.998   9.315 -0.8305  0.6489 -2.5280
 9339SOL     OW39649   4.451   2.171   3.786 -0.0332 -0.0313 -0.9279
 9339SOL    HW139650   4.471   2.264   3.772 -0.8421 -0.1535 -2.8162
 9339SOL    HW239651   4.358   2.168   3.807  0.4956  0.3483  1.4581
 9340SOL     OW39652   0.663   0.259  14.716  0.1545 -0.2115 -0.0660
 9340SOL    HW139653   0.679   0.239  14.624  0.8770  1.7228 -0.3642
 9340SOL    HW239654   0.641   0.352  14.717  0.7706 -0.0586 -1.8992
 9341SOL     OW39655   2.173   3.512   7.858 -0.0080 -0.1186  0.1367
 9341SOL    HW139656   2.169   3.529   7.952 -0.1672 -0.0042  0.1097
 9341SOL    HW239657   2.128   3.427   7.855 -0.8409  0.3308 -0.2109
 9342SOL     OW39658   4.087   3.832   2.390 -0.4745  0.1679 -0.0741
 9342SOL    HW139659   4.138   3.856   2.313  0.4385  2.5469  1.2526
 9342SOL    HW239660   4.049   3.748   2.366 -0.9762  0.9206 -1.9465
 9343SOL     OW39661   4.105   0.048   4.719  0.5589  0.0975  0.3311
 9343SOL    HW139662   4.065   0.133   4.702  1.6488  0.3716 -0.8726
 9343SOL    HW239663   4.187   0.056   4.671 -0.7285  1.6464 -1.6123
 9344SOL     OW39664   3.153   4.563   5.469 -0.9830  0.9291 -0.2852
 9344SOL    HW139665   3.198   4.559   5.554 -3.0833  0.3389  0.7824
 9344SOL    HW239666   3.063   4.536   5.486 -0.5810 -0.2060  0.0807
 9345SOL     OW39667   0.011   1.382  11.884 -0.3012 -0.0449 -0.0224
 9345SOL    HW139668   4.703   1.319  11.827 -0.0302  1.1078 -1.5211
 9345SOL    HW239669   0.082   1.324  11.910  1.0418  0.1621 -3.1378
 9346SOL     OW39670   0.610   2.497   9.444 -0.3149 -0.2621 -0.5506
 9346SOL    HW139671   0.520   2.521   9.421 -0.0823  0.7561 -0.3844
 9346SOL    HW239672   0.644   2.580   9.477 -1.1315  0.1564 -0.7657
 9347SOL     OW39673   3.212   3.026   7.083 -0.2235  0.2794 -0.0902
 9347SOL    HW139674   3.155   3.034   7.160  0.1148 -1.6409  0.3603
 9347SOL    HW239675   3.147   3.051   7.017 -0.2913  1.0580  0.2620
 9348SOL     OW39676   3.256   4.034  13.373 -0.4663 -0.4741  0.0525
 9348SOL    HW139677   3.340   4.073  13.396 -0.9340 -0.6617  2.0637
 9348SOL    HW239678   3.244   4.086  13.294  3.3335  0.0970 -0.1236
 9349SOL     OW39679   3.996   0.359  15.116 -0.3652  0.5695  0.1787
 9349SOL    HW139680   3.943   0.362  15.037  0.4927  0.6399 -0.3986
 9349SOL    HW239681   3.959   0.280  15.156 -0.8647  1.3298  1.2165
 9350SOL     OW39682   0.974   2.092   4.846  0.0574 -0.2343  0.1533
 9350SOL    HW139683   0.879   2.080   4.856  0.6346 -3.0717  2.2275
 9350SOL    HW239684   0.974   2.183   4.816  2.0501 -0.3026 -0.0405
 9351SOL     OW39685   1.479   2.184   2.068  0.4516 -0.3258 -0.1775
 9351SOL    HW139686   1.511   2.274   2.068  2.0854 -0.9070  0.5002
 9351SOL    HW239687   1.501   2.152   1.980  0.5875 -3.7607  1.0860
 9352SOL     OW39688   4.568   3.325  11.359 -0.2452  0.4257  0.4527
 9352SOL    HW139689   4.577   3.231  11.342  2.0165  0.4566  1.4507
 9352SOL    HW239690   4.508   3.352  11.290  1.3919  1.6251 -0.5001
 9353SOL     OW39691   0.303   0.391  15.175 -0.0211  0.2611 -0.1566
 9353SOL    HW139692   0.263   0.397  15.088 -0.2239 -2.1404 -0.2133
 9353SOL    HW239693   0.329   0.299  15.178 -2.1752 -0.3171  0.2134
 9354SOL     OW39694   0.355   0.019   8.593  0.4480  0.1285 -0.4071
 9354SOL    HW139695   0.327   0.100   8.634  0.1878 -1.1690  2.0015
 9354SOL    HW239696   0.310   4.686   8.642 -0.4381 -0.6318 -2.3117
 9355SOL     OW39697   3.033   3.843   5.967  0.2030  0.3560 -0.3863
 9355SOL    HW139698   3.080   3.887   6.037  0.9942 -2.1411  0.6655
 9355SOL    HW239699   3.060   3.892   5.890  0.5628  0.6404 -0.0778
 9356SOL     OW39700   1.211   1.699  12.597  0.0802 -0.1104  0.4106
 9356SOL    HW139701   1.297   1.699  12.640 -1.0303  1.7092  2.6567
 9356SOL    HW239702   1.234   1.721  12.507  0.1628 -1.1722  0.1630
 9357SOL     OW39703   0.203   4.494   7.003  0.2722  0.4198  0.3287
 9357SOL    HW139704   0.280   4.548   7.019  0.4540 -0.3306  2.0365
 9357SOL    HW239705   0.225   4.454   6.919 -0.7574  1.5614 -0.4771
 9358SOL     OW39706   3.004   2.336  15.606 -0.2565  0.0961  0.1663
 9358SOL    HW139707   2.931   2.274  15.606 -0.9597  0.9150  1.0450
 9358SOL    HW239708   3.000   2.365  15.515 -0.9409 -2.1199 -0.5022
 9359SOL     OW39709   0.532   0.127  15.744  0.3573  0.0406  0.1126
 9359SOL    HW139710   0.512   0.034  15.751  1.1464 -0.0282  1.4511
 9359SOL    HW239711   0.468   0.168  15.801 -0.2057  2.1164 -2.0032
 9360SOL     OW39712   3.603   1.402  12.948  0.4745  0.4073 -0.5065
 9360SOL    HW139713   3.606   1.496  12.928  1.6032  0.9745  2.3019
 9360SOL    HW239714   3.680   1.393  13.005  2.2937 -1.7303 -3.3092
 9361SOL     OW39715   3.900   1.122   2.305 -0.9402  0.4252 -0.3716
 9361SOL    HW139716   3.864   1.143   2.219 -0.1138 -0.3039 -0.8936
 9361SOL    HW239717   3.900   1.026   2.296  0.2314  0.6106 -2.4163
 9362SOL     OW39718   3.823   0.110  11.006 -0.1845  0.4257 -0.1392
 9362SOL    HW139719   3.887   0.135  11.072  1.3464  0.4938 -1.6384
 9362SOL    HW239720   3.810   0.016  11.016 -1.0902  0.5251 -0.4159
 9363SOL     OW39721   1.398   4.394   8.226 -0.0772 -0.6040 -0.5173
 9363SOL    HW139722   1.344   4.319   8.252  0.9108 -1.1247  0.0100
 9363SOL    HW239723   1.334   4.462   8.248 -3.5246 -4.7323  2.1894
 9364SOL     OW39724   1.019   1.814   1.943  0.3467  0.4294  0.5013
 9364SOL    HW139725   1.021   1.883   1.876  0.7077 -0.0217  0.0557
 9364SOL    HW239726   1.018   1.876   2.016 -0.3341 -1.0565  1.7587
 9365SOL     OW39727   3.231   3.106  12.435 -0.0265  0.2569 -0.4842
 9365SOL    HW139728   3.201   3.119  12.345  2.8285  2.9874 -1.0468
 9365SOL    HW239729   3.178   3.038  12.478  0.5882  0.9350  1.3215
 9366SOL     OW39730   4.523   2.445   2.105 -0.4171 -0.6998 -0.5172
 9366SOL    HW139731   4.472   2.415   2.180  0.4229 -1.1932 -0.1474
 9366SOL    HW239732   4.464   2.514   2.073 -1.2341 -0.8834  0.5958
 9367SOL     OW39733   4.086   2.919   8.714  0.2811  0.0231 -0.0636
 9367SOL    HW139734   4.022   2.850   8.695 -1.9758  2.0274  0.1780
 9367SOL    HW239735   4.021   2.989   8.704 -0.8489 -1.1248 -0.6661
 9368SOL     OW39736   3.104   0.414   2.835 -0.1242  0.1330  0.1915
 9368SOL    HW139737   3.149   0.398   2.918  0.8629 -1.4947 -0.6481
 9368SOL    HW239738   3.015   0.438   2.861 -1.1745 -2.7391 -0.7042
 9369SOL     OW39739   0.185   3.030   5.599  0.4617 -0.2072  0.2348
 9369SOL    HW139740   0.268   2.984   5.610  0.3900 -0.4816 -0.3919
 9369SOL    HW239741   0.216   3.098   5.539  3.7664 -0.9188  1.1170
 9370SOL     OW39742   4.123   4.327   7.395  0.7794 -0.0877 -0.5534
 9370SOL    HW139743   4.149   4.416   7.415 -1.9278  0.6502 -0.3291
 9370SOL    HW239744   4.192   4.289   7.450 -0.8111 -0.1282  1.4143
 9371SOL     OW39745   2.889   4.060   6.877 -0.2490  0.5040 -0.5109
 9371SOL    HW139746   2.956   4.006   6.836 -1.1490 -0.3762 -0.8125
 9371SOL    HW239747   2.949   4.111   6.931  0.6949 -0.4784 -0.6334
 9372SOL     OW39748   2.386   4.195   1.340  1.0165 -0.4894 -0.1469
 9372SOL    HW139749   2.367   4.288   1.327  1.3369 -0.1004  2.0282
 9372SOL    HW239750   2.302   4.153   1.326  0.6996 -0.0837  0.5494
 9373SOL     OW39751   2.480   0.012   6.863 -0.7070 -0.0388 -0.3776
 9373SOL    HW139752   2.561   0.002   6.913 -2.1834 -2.0670  1.5802
 9373SOL    HW239753   2.470   0.102   6.892  0.5335 -0.5015  1.4763
 9374SOL     OW39754   0.144   2.272   5.094 -0.1793 -0.3621  0.1194
 9374SOL    HW139755   0.124   2.240   5.182 -3.6713 -2.3439 -1.3944
 9374SOL    HW239756   0.237   2.275   5.116 -0.1178 -0.6851 -0.1012
 9375SOL     OW39757   0.249   0.272   3.699 -0.3057  0.5874  0.0677
 9375SOL    HW139758   0.200   0.274   3.617  0.7447  0.9457 -0.5430
 9375SOL    HW239759   0.331   0.233   3.668 -0.4077 -0.4358  1.0889
 9376SOL     OW39760   2.005   2.637   6.048 -0.0313 -0.0693 -0.1036
 9376SOL    HW139761   1.979   2.726   6.023 -1.1931 -0.5440 -0.5494
 9376SOL    HW239762   2.050   2.663   6.129 -1.1083 -0.6770  0.6889
 9377SOL     OW39763   0.782   2.231   5.110 -0.1908 -0.0186 -0.2202
 9377SOL    HW139764   0.803   2.160   5.171  2.9958 -1.9927 -3.6394
 9377SOL    HW239765   0.751   2.187   5.031  1.0347 -1.2391 -0.0248
 9378SOL     OW39766   0.143   2.207   5.585 -0.5726  0.1098  0.2239
 9378SOL    HW139767   0.068   2.265   5.599 -1.5388 -0.9936 -0.3250
 9378SOL    HW239768   0.146   2.197   5.490  0.0635 -3.4073  0.6225
 9379SOL     OW39769   0.474   2.226  13.099  0.0575  0.3039  0.2407
 9379SOL    HW139770   0.455   2.301  13.155 -1.6437  0.3850 -0.4348
 9379SOL    HW239771   0.557   2.193  13.132  0.0843 -0.3393 -0.4377
 9380SOL     OW39772   1.335   3.069   9.719  0.4455  0.3648 -0.1168
 9380SOL    HW139773   1.343   2.982   9.680 -2.1535 -1.1364  2.7267
 9380SOL    HW239774   1.425   3.102   9.717  0.9445 -0.9974  0.0755
 9381SOL     OW39775   0.556   1.846   3.219  0.3612 -0.0199 -0.3612
 9381SOL    HW139776   0.480   1.840   3.160  0.9512  2.2522 -1.3415
 9381SOL    HW239777   0.606   1.921   3.188  0.8632 -0.8130 -1.4953
 9382SOL     OW39778   4.240   3.455  11.709 -0.5005  0.4275  0.3061
 9382SOL    HW139779   4.249   3.368  11.747 -0.0965  0.6249  0.6605
 9382SOL    HW239780   4.305   3.453  11.640  0.7747  0.3801  1.5087
 9383SOL     OW39781   0.096   0.481   1.543 -0.0666 -0.1303  0.5724
 9383SOL    HW139782   0.044   0.525   1.476 -1.1332  0.5487  1.8445
 9383SOL    HW239783   0.183   0.520   1.539 -0.3145  0.3178 -0.3312
 9384SOL     OW39784   1.347   4.499   1.304  0.0854  0.0315 -0.1583
 9384SOL    HW139785   1.367   4.497   1.398 -0.3305 -0.3415 -0.0777
 9384SOL    HW239786   1.391   4.576   1.268 -3.4466  1.0565 -2.2569
 9385SOL     OW39787   2.476   1.358   9.026  0.3545 -0.8441  0.0909
 9385SOL    HW139788   2.565   1.346   9.061  1.0937 -0.5954 -1.6829
 9385SOL    HW239789   2.443   1.426   9.085 -0.6159 -0.1314 -1.2895
 9386SOL     OW39790   3.187   4.350   3.578 -0.2105 -0.0468 -0.3127
 9386SOL    HW139791   3.195   4.296   3.657  2.6784 -0.1514 -0.6928
 9386SOL    HW239792   3.121   4.412   3.609  1.3993  1.2961  0.4205
 9387SOL     OW39793   1.069   0.116   5.037 -0.0097  0.3837 -0.3803
 9387SOL    HW139794   1.005   0.054   5.001 -1.1402  1.8031 -0.7843
 9387SOL    HW239795   1.142   0.056   5.053 -2.4167 -2.2419  0.9256
 9388SOL     OW39796   3.184   2.911   5.444  0.1333  0.5983 -0.2791
 9388SOL    HW139797   3.115   2.975   5.461 -0.2574  0.2716 -0.6303
 9388SOL    HW239798   3.210   2.936   5.356 -1.6411  0.2782 -0.8772
 9389SOL     OW39799   3.681   2.296   6.129  0.0849  0.2290  0.4628
 9389SOL    HW139800   3.625   2.323   6.056  1.3750 -0.1961 -0.6850
 9389SOL    HW239801   3.643   2.353   6.196  0.4746  1.1413 -0.0973
 9390SOL     OW39802   2.815   4.043   0.759 -0.4768 -0.5931  0.0834
 9390SOL    HW139803   2.889   3.992   0.725  0.9001 -0.3414  2.6973
 9390SOL    HW239804   2.745   3.980   0.746  0.2244 -1.6782  1.5432
 9391SOL     OW39805   2.395   2.573   6.257 -0.2865 -0.6167  0.3753
 9391SOL    HW139806   2.424   2.607   6.341 -3.0361  2.4388  0.0499
 9391SOL    HW239807   2.481   2.552   6.220  0.6461  2.3434  0.8517
 9392SOL     OW39808   4.657   2.446   5.881 -0.2048  0.1235 -0.6153
 9392SOL    HW139809   0.015   2.431   5.877 -0.1678  0.9648 -2.8801
 9392SOL    HW239810   4.614   2.367   5.848 -2.2001 -0.3554  3.1553
 9393SOL     OW39811   2.617   4.510   7.295  0.4309  0.5205 -0.1178
 9393SOL    HW139812   2.578   4.591   7.329 -0.4148 -0.1009  0.3792
 9393SOL    HW239813   2.626   4.536   7.203 -0.2048  0.0443 -0.3103
 9394SOL     OW39814   3.654   2.180   7.245  0.2868 -0.5095 -0.5906
 9394SOL    HW139815   3.711   2.139   7.310  3.0855  1.6051 -1.7404
 9394SOL    HW239816   3.578   2.123   7.232 -0.2318  0.1558 -0.4231
 9395SOL     OW39817   3.480   0.725   4.706  0.0274  0.2823  0.0469
 9395SOL    HW139818   3.392   0.701   4.736  0.1180 -1.9105 -1.4640
 9395SOL    HW239819   3.470   0.713   4.612  0.0651 -0.4531  0.1384
 9396SOL     OW39820   4.681   4.416   4.935 -0.3491  0.0001  0.5184
 9396SOL    HW139821   4.623   4.340   4.931  1.1633 -1.2473  2.2095
 9396SOL    HW239822   4.662   4.458   4.850 -2.9633  0.2904  1.2581
 9397SOL     OW39823   2.633   3.766   6.919  0.3621 -0.1028  0.2068
 9397SOL    HW139824   2.624   3.695   6.855 -1.2311  1.1847 -1.0118
 9397SOL    HW239825   2.728   3.763   6.931  0.5441  2.8140 -0.5202
 9398SOL     OW39826   1.667   0.542   4.041 -0.5601  0.0325 -0.9811
 9398SOL    HW139827   1.636   0.630   4.019  0.5464  0.9668  1.2447
 9398SOL    HW239828   1.646   0.549   4.134  0.7749  0.4132 -0.7175
 9399SOL     OW39829   4.674   0.556   5.398 -0.4305 -0.2547  0.0937
 9399SOL    HW139830   0.007   0.522   5.455 -0.5003 -0.0261  0.3165
 9399SOL    HW239831   4.605   0.497   5.429 -1.2729  0.2783 -0.7643
 9400SOL     OW39832   0.228   1.928   9.482  0.1186 -0.1203  0.1810
 9400SOL    HW139833   0.164   1.902   9.548 -0.9962  0.7412 -0.5612
 9400SOL    HW239834   0.264   1.843   9.456  1.3923  0.7134 -0.7656
 9401SOL     OW39835   1.686   4.435   7.771  0.3237 -0.0726  0.0222
 9401SOL    HW139836   1.709   4.439   7.678  3.0093 -0.2818  0.6739
 9401SOL    HW239837   1.642   4.350   7.778  1.5141 -0.5087  2.3090
 9402SOL     OW39838   3.811   3.462   8.309 -0.2522 -0.2129 -0.0424
 9402SOL    HW139839   3.880   3.469   8.375  1.6367  0.4111 -2.1060
 9402SOL    HW239840   3.843   3.394   8.250  0.8035  1.3769 -1.2913
 9403SOL     OW39841   4.643   1.228   3.685  0.7233  0.4733  1.0803
 9403SOL    HW139842   4.612   1.220   3.775 -0.2903 -1.9530  0.5165
 9403SOL    HW239843   4.719   1.171   3.681 -0.4894 -1.1433  1.3573
 9404SOL     OW39844   1.679   1.733   4.862 -0.3140 -0.0231 -0.1032
 9404SOL    HW139845   1.731   1.792   4.917  0.7106 -0.0160 -1.0870
 9404SOL    HW239846   1.593   1.718   4.902  0.3125  1.2488  1.7550
 9405SOL     OW39847   4.469   1.827   8.736  0.1053 -0.6175 -0.2195
 9405SOL    HW139848   4.491   1.786   8.820  1.1706  0.9490  0.2754
 9405SOL    HW239849   4.404   1.763   8.707 -0.1275 -0.7963  0.6901
 9406SOL     OW39850   2.803   4.274   7.344 -0.0925 -0.5362  0.0234
 9406SOL    HW139851   2.855   4.344   7.382 -0.2533  1.2029 -2.9670
 9406SOL    HW239852   2.740   4.331   7.299 -0.6438 -0.8824  0.3606
 9407SOL     OW39853   0.505   0.403  13.262 -0.3161 -0.1634  0.0618
 9407SOL    HW139854   0.518   0.383  13.170  2.8223 -0.6010  0.6133
 9407SOL    HW239855   0.411   0.386  13.269 -0.6621  1.8318  0.1982
 9408SOL     OW39856   1.497   2.223   4.347 -0.6119  0.2300 -0.8118
 9408SOL    HW139857   1.456   2.255   4.428  1.5954  2.0065 -0.4055
 9408SOL    HW239858   1.586   2.251   4.367 -0.5026 -0.1940 -0.7040
 9409SOL     OW39859   1.852   3.237   8.489 -0.2875 -0.3409 -0.3433
 9409SOL    HW139860   1.853   3.322   8.533  1.3150 -0.5580  0.0490
 9409SOL    HW239861   1.778   3.195   8.534 -2.0580  0.3089 -2.6514
 9410SOL     OW39862   3.637   2.905  12.801  0.1569  0.8169  0.1168
 9410SOL    HW139863   3.719   2.914  12.752  0.5226 -2.4194  0.1100
 9410SOL    HW239864   3.670   2.874  12.886 -1.4761  2.3969  1.3181
 9411SOL     OW39865   2.651   2.861   9.361  0.0612 -0.1766  0.1225
 9411SOL    HW139866   2.630   2.775   9.398 -1.1076  0.1423  0.1890
 9411SOL    HW239867   2.567   2.902   9.343  0.3010  0.1874 -0.1702
 9412SOL     OW39868   2.055   2.261   6.032  0.3072 -0.2175 -0.4216
 9412SOL    HW139869   2.109   2.308   5.968  0.9044 -0.7182 -0.2816
 9412SOL    HW239870   2.117   2.247   6.103  0.1055 -2.0775 -0.6209
 9413SOL     OW39871   3.375   3.446   4.812 -0.5349  0.0243  0.5390
 9413SOL    HW139872   3.350   3.538   4.810  0.7099  0.4315  3.1404
 9413SOL    HW239873   3.410   3.445   4.902 -0.7860 -1.0093  0.6263
 9414SOL     OW39874   2.077   2.172   6.386  0.2142  0.3625 -0.2499
 9414SOL    HW139875   2.117   2.119   6.317 -0.2252  0.1314 -0.3270
 9414SOL    HW239876   2.084   2.261   6.353 -1.6407  0.8294  0.6238
 9415SOL     OW39877   4.521   2.117   4.692  0.0045 -0.0249  0.3435
 9415SOL    HW139878   4.463   2.180   4.648 -0.8366 -1.2395 -0.3010
 9415SOL    HW239879   4.576   2.177   4.742  0.4734  1.9809 -2.5568
 9416SOL     OW39880   4.570   0.016   5.591 -0.2227  0.3038 -0.1923
 9416SOL    HW139881   4.575   4.730   5.684 -1.4366 -3.7076 -1.0616
 9416SOL    HW239882   4.656   0.056   5.577  0.8537 -1.8321  0.3122
 9417SOL     OW39883   3.934   1.712  11.203 -0.0771  0.0107 -0.1756
 9417SOL    HW139884   3.891   1.767  11.138 -0.3487 -0.6065 -0.5207
 9417SOL    HW239885   4.025   1.725  11.176  0.7169 -2.6431  1.1884
 9418SOL     OW39886   0.294   2.035   2.228 -0.0542  0.5874  0.1076
 9418SOL    HW139887   0.248   1.983   2.294  1.0096  0.4050  0.7033
 9418SOL    HW239888   0.377   2.042   2.275 -0.0832  0.4010  0.1888
 9419SOL     OW39889   3.022   3.731   6.420  0.2918 -0.0523  0.1208
 9419SOL    HW139890   2.953   3.797   6.431  0.6941  0.4987 -0.7008
 9419SOL    HW239891   3.076   3.773   6.353 -2.3478  2.3347 -0.4877
 9420SOL     OW39892   4.315   2.993  15.805 -0.3589  0.4563 -0.4257
 9420SOL    HW139893   4.245   2.991  15.740 -2.1541  1.8078  1.4608
 9420SOL    HW239894   4.268   2.992  15.888  1.5896 -0.1580  0.6658
 9421SOL     OW39895   3.415   2.027   6.272 -0.8631  0.4866  0.5817
 9421SOL    HW139896   3.429   1.999   6.362 -1.6118  0.3705  0.6581
 9421SOL    HW239897   3.328   1.993   6.254 -0.9419  2.1036 -2.1580
 9422SOL     OW39898   4.144   3.949   5.612 -0.2070  0.0897 -0.0147
 9422SOL    HW139899   4.068   3.909   5.655 -0.2464 -0.4059 -0.5366
 9422SOL    HW239900   4.123   3.958   5.519 -3.4471 -0.9086  0.6201
 9423SOL     OW39901   2.831   1.686  14.616  0.4465  0.2035 -0.5131
 9423SOL    HW139902   2.875   1.601  14.622  0.9893  0.6297  1.8303
 9423SOL    HW239903   2.868   1.732  14.541 -2.5627  0.4107 -1.8966
 9424SOL     OW39904   4.142   0.048   3.628 -0.3803 -0.3618  0.3835
 9424SOL    HW139905   4.131   0.085   3.715 -0.9967  0.1104  0.1039
 9424SOL    HW239906   4.084   4.710   3.642  0.8477 -1.7629 -1.9647
 9425SOL     OW39907   3.689   0.000   1.985  0.3820 -0.3652 -0.6419
 9425SOL    HW139908   3.640   0.072   1.945 -0.5680  0.6983  2.4491
 9425SOL    HW239909   3.755   0.052   2.031  0.3779 -0.2714 -0.7416
 9426SOL     OW39910   0.622   3.094   6.549  0.0385 -0.1739  0.6722
 9426SOL    HW139911   0.551   3.032   6.567 -0.3377  0.5935  1.8033
 9426SOL    HW239912   0.575   3.177   6.542  1.5288  0.5431 -0.9007
 9427SOL     OW39913   2.736   0.620  12.939  0.0538 -0.1753  0.2258
 9427SOL    HW139914   2.807   0.684  12.943  0.3165 -0.6435  2.7705
 9427SOL    HW239915   2.758   0.553  13.003  1.4969 -0.0192 -0.0946
 9428SOL     OW39916   4.020   0.668   2.782 -0.0036 -0.1271  0.0100
 9428SOL    HW139917   3.969   0.745   2.761 -0.3598  0.3308  2.5191
 9428SOL    HW239918   3.954   0.600   2.794 -0.5068  0.3881  0.1671
 9429SOL     OW39919   3.658   2.662   5.106 -0.1911 -0.0769 -0.1206
 9429SOL    HW139920   3.582   2.673   5.049  0.4211  0.0218 -0.9127
 9429SOL    HW239921   3.720   2.638   5.037  0.3890 -1.1352  0.7748
 9430SOL     OW39922   1.321   4.573  11.347 -0.2992  0.2760  0.5377
 9430SOL    HW139923   1.383   4.626  11.297  0.6442 -0.1933  1.2024
 9430SOL    HW239924   1.332   4.584  11.441 -0.3247  1.5391  0.3856
 9431SOL     OW39925   3.447   1.658   7.241  0.5155  0.4391 -0.1721
 9431SOL    HW139926   3.464   1.633   7.151 -0.7992 -2.0728  0.2724
 9431SOL    HW239927   3.359   1.693   7.231  0.4312  0.4475  0.5886
 9432SOL     OW39928   4.528   2.332   6.176 -0.1671 -0.4446  0.5981
 9432SOL    HW139929   4.591   2.285   6.122  0.9356  0.4222  1.1328
 9432SOL    HW239930   4.542   2.305   6.267  1.8813 -1.2062  0.0497
 9433SOL     OW39931   0.008   3.889   8.633 -0.0576  0.0013  0.1061
 9433SOL    HW139932   4.702   3.884   8.547 -0.5396 -2.6826  0.5057
 9433SOL    HW239933   0.047   3.802   8.633 -1.4435 -0.6260  0.1077
 9434SOL     OW39934   0.772   1.757   0.086  0.0746 -0.1620  0.6925
 9434SOL    HW139935   0.685   1.720   0.099  0.1443  0.5152  3.1718
 9434SOL    HW239936   0.761   1.838   0.136 -0.7637  0.0786  0.1182
 9435SOL     OW39937   1.570   3.028  15.443  0.6413  0.2617 -0.5220
 9435SOL    HW139938   1.542   2.944  15.406  0.0756  0.5972 -0.8651
 9435SOL    HW239939   1.503   3.087  15.406  1.3078  2.3918  1.6304
 9436SOL     OW39940   4.568   0.250   2.334 -0.1827 -0.1811  0.0309
 9436SOL    HW139941   4.614   0.174   2.298  2.5265  0.5514  1.9214
 9436SOL    HW239942   4.612   0.319   2.283 -1.4818 -0.3788 -1.3605
 9437SOL     OW39943   3.926   1.538   7.467 -0.0474  0.1997 -0.2170
 9437SOL    HW139944   3.865   1.558   7.395  0.4350 -0.5023 -0.8171
 9437SOL    HW239945   3.980   1.470   7.427  0.7689 -0.8146  2.6232
 9438SOL     OW39946   0.961   3.768   8.399  0.2811 -0.1875 -0.1851
 9438SOL    HW139947   0.990   3.710   8.469  0.6014  1.0888  0.7448
 9438SOL    HW239948   1.007   3.740   8.320 -0.4577 -0.5613 -0.4887
 9439SOL     OW39949   3.540   0.774   9.162  0.0042  0.6407 -0.0898
 9439SOL    HW139950   3.544   0.681   9.185 -0.1870  1.1644  2.1315
 9439SOL    HW239951   3.463   0.776   9.105  0.6314 -0.9679 -0.9865
 9440SOL     OW39952   2.196   4.665  15.797  0.0141  0.2701 -0.2437
 9440SOL    HW139953   2.147   4.652  15.879  0.4150 -1.5089 -0.2960
 9440SOL    HW239954   2.184   0.023  15.805 -2.3826 -0.1415  0.9362
 9441SOL     OW39955   4.676   2.398   3.245  0.5681  0.3429 -0.3468
 9441SOL    HW139956   0.014   2.454   3.222  0.2340  0.2226 -1.7179
 9441SOL    HW239957   4.594   2.433   3.211 -0.6829 -0.0196  2.2883
 9442SOL     OW39958   1.947   4.415   3.586 -0.5062  0.1049 -0.4400
 9442SOL    HW139959   1.880   4.483   3.594  1.5151  2.2082 -1.3550
 9442SOL    HW239960   2.007   4.435   3.514 -0.5293 -0.7126 -0.6798
 9443SOL     OW39961   4.278   1.059  11.432  0.0975 -0.2396  0.1008
 9443SOL    HW139962   4.245   1.101  11.512 -3.1099  0.5047 -1.6111
 9443SOL    HW239963   4.273   0.965  11.453 -3.0085 -0.1710 -0.3950
 9444SOL     OW39964   0.742   0.007   0.615  0.5347  0.0021  0.0309
 9444SOL    HW139965   0.775   0.053   0.692  0.2427 -1.5084  1.0560
 9444SOL    HW239966   0.779   4.657   0.630 -2.2662 -1.2008  0.1581
 9445SOL     OW39967   1.434   4.568   9.403 -0.5625  0.7085 -0.4205
 9445SOL    HW139968   1.347   4.549   9.366 -0.3380  1.7834 -1.5047
 9445SOL    HW239969   1.455   4.656   9.374 -0.1502  0.6960 -0.1669
 9446SOL     OW39970   3.409   2.060   8.739  0.1277 -0.3119  0.4251
 9446SOL    HW139971   3.476   2.013   8.790  0.5966  0.4232  0.4884
 9446SOL    HW239972   3.376   2.121   8.804  0.0251 -0.3114  0.3719
 9447SOL     OW39973   2.236   3.056   4.272  0.2748  0.5994 -0.2098
 9447SOL    HW139974   2.148   3.020   4.277 -0.2234  1.6319 -1.8250
 9447SOL    HW239975   2.235   3.136   4.324 -2.5659  0.7988 -0.5721
 9448SOL     OW39976   1.766   1.788   7.463 -0.3044  0.1338 -1.0413
 9448SOL    HW139977   1.708   1.714   7.448  0.3122 -0.1809 -1.9159
 9448SOL    HW239978   1.826   1.737   7.517 -4.1846  0.0073  3.0903
 9449SOL     OW39979   4.410   1.314   3.545  0.6933  0.2737  0.6303
 9449SOL    HW139980   4.369   1.238   3.504  1.0527  0.2600  0.2901
 9449SOL    HW239981   4.486   1.268   3.581 -0.1693 -0.3774  1.6356
 9450SOL     OW39982   4.236   3.092  13.428  0.1732 -0.1975 -0.1172
 9450SOL    HW139983   4.330   3.108  13.432  0.1098  0.3468 -1.0037
 9450SOL    HW239984   4.200   3.163  13.481 -0.9083 -0.1578 -0.9133
 9451SOL     OW39985   1.511   3.918   5.903  0.0113 -0.1865  0.4431
 9451SOL    HW139986   1.535   3.999   5.948 -3.9178  0.8415  0.6683
 9451SOL    HW239987   1.580   3.919   5.837  0.6843 -1.7752  1.1539
 9452SOL     OW39988   2.996   4.176   4.652  0.1473 -0.2947  0.0875
 9452SOL    HW139989   2.936   4.122   4.704  0.1635  1.7247  2.2310
 9452SOL    HW239990   2.947   4.194   4.572 -0.3136  0.7166  0.5952
 9453SOL     OW39991   3.406   3.916   9.518 -0.4113 -0.6497  0.5497
 9453SOL    HW139992   3.398   3.912   9.422  2.6063 -3.8635  0.3975
 9453SOL    HW239993   3.374   3.829   9.543 -1.5202  0.0707  1.5606
 9454SOL     OW39994   3.465   0.915   4.902 -0.5790 -0.0298 -0.1415
 9454SOL    HW139995   3.479   0.863   4.822  1.2771 -0.9280  0.7701
 9454SOL    HW239996   3.444   0.847   4.966 -0.6103 -0.1014 -0.2272
 9455SOL     OW39997   3.280   3.081   2.265 -0.3339 -0.3300 -0.2049
 9455SOL    HW139998   3.314   3.134   2.193  0.7935 -1.3463 -0.4268
 9455SOL    HW239999   3.319   3.131   2.336 -1.0006  0.6704 -0.5598
 9456SOL     OW40000   0.400   1.031   3.434  0.2976 -0.3285  0.1226
 9456SOL    HW140001   0.441   0.997   3.513  0.9866 -1.0829 -0.5537
 9456SOL    HW240002   0.474   1.081   3.398  0.2418 -0.0489  0.3972
 9457SOL     OW40003   2.224   3.859   3.582  0.1762 -0.5242 -0.3159
 9457SOL    HW140004   2.190   3.770   3.589 -1.4795  0.1655  0.4287
 9457SOL    HW240005   2.228   3.867   3.487  0.4630  3.2987  0.0176
 9458SOL     OW40006   2.801   0.577  16.246 -0.0864 -0.2956  0.7051
 9458SOL    HW140007   2.896   0.570  16.233  0.1188  1.5856  1.2419
 9458SOL    HW240008   2.760   0.492  16.231 -1.0614  0.4144 -0.6136
 9459SOL     OW40009   2.704   0.320   7.516  0.0027 -0.8486 -0.2596
 9459SOL    HW140010   2.738   0.405   7.544 -1.5844  0.2638 -1.6904
 9459SOL    HW240011   2.788   0.275   7.510  0.3980 -0.2746  1.0168
 9460SOL     OW40012   4.569   0.394   7.725 -0.3934  0.2805 -0.4916
 9460SOL    HW140013   4.617   0.349   7.655  0.1732 -1.2356  0.8790
 9460SOL    HW240014   4.502   0.440   7.674  0.5517  0.4194 -1.5886
 9461SOL     OW40015   2.778   2.685   4.221  0.1239  0.4246  0.3577
 9461SOL    HW140016   2.739   2.599   4.234  2.3152 -0.4679  0.9745
 9461SOL    HW240017   2.836   2.685   4.297 -0.5730 -3.4854  0.8680
 9462SOL     OW40018   3.365   2.855   9.215  0.4570  0.6164 -0.3087
 9462SOL    HW140019   3.421   2.933   9.217  0.5406  0.5201  0.8822
 9462SOL    HW240020   3.298   2.873   9.149  0.0207  0.9404  0.2183
 9463SOL     OW40021   2.801   0.278   4.701  0.8321 -0.2137 -0.1618
 9463SOL    HW140022   2.708   0.278   4.723  1.1673 -4.1597  1.1962
 9463SOL    HW240023   2.802   0.337   4.625 -0.5482 -0.9310 -0.7354
 9464SOL     OW40024   1.978   2.408   9.996 -0.2407 -0.2461 -0.2822
 9464SOL    HW140025   1.993   2.335  10.056 -0.3938 -0.6732 -0.7643
 9464SOL    HW240026   1.986   2.361   9.913  0.1281  1.8838 -1.4502
 9465SOL     OW40027   0.172   4.051   3.928 -0.4932 -0.6248 -0.1527
 9465SOL    HW140028   0.119   3.972   3.917  0.9960 -1.4438 -1.5578
 9465SOL    HW240029   0.170   4.057   4.023 -2.1549  2.1053 -0.3827
 9466SOL     OW40030   1.526   3.381   7.516 -0.3098 -0.9832 -0.3413
 9466SOL    HW140031   1.556   3.411   7.602  2.8018  0.3429 -1.9286
 9466SOL    HW240032   1.602   3.403   7.463  0.9623 -2.2227  0.9629
 9467SOL     OW40033   1.636   0.699  13.581  0.0140 -0.2983 -0.1384
 9467SOL    HW140034   1.606   0.612  13.607 -0.5705  0.3123  1.2038
 9467SOL    HW240035   1.615   0.747  13.660  0.5484  0.5280 -0.5028
 9468SOL     OW40036   3.545   0.973   3.481 -0.4028 -0.4047  0.4681
 9468SOL    HW140037   3.536   1.039   3.550 -0.5706 -1.0003  1.0204
 9468SOL    HW240038   3.474   0.999   3.423 -1.6784 -1.2311  1.6520
 9469SOL     OW40039   2.512   4.692  13.703  0.8924  0.0984 -0.1184
 9469SOL    HW140040   2.451   4.639  13.652 -1.3909  1.0011  1.6559
 9469SOL    HW240041   2.457   4.697  13.782  1.6882  1.2533  0.3614
 9470SOL     OW40042   4.159   2.896   7.741 -0.6593  0.5796 -0.1933
 9470SOL    HW140043   4.086   2.839   7.718 -0.6512  0.1833  0.7813
 9470SOL    HW240044   4.123   2.921   7.826 -2.9414 -0.2135 -0.9380
 9471SOL     OW40045   2.415   0.864   7.224  0.2896 -0.0617 -0.1649
 9471SOL    HW140046   2.447   0.817   7.147  0.2892  1.5311 -1.1430
 9471SOL    HW240047   2.476   0.937   7.224 -1.2478  1.2243 -0.5123
 9472SOL     OW40048   0.274   4.383   7.262  0.3032 -1.1211  0.6026
 9472SOL    HW140049   0.332   4.445   7.305 -0.4605 -1.5118  2.1995
 9472SOL    HW240050   0.289   4.391   7.167 -0.7979 -1.0656  0.4334
 9473SOL     OW40051   3.400   3.180   6.747 -0.1204 -0.4288  0.1617
 9473SOL    HW140052   3.377   3.087   6.746 -1.7679  0.0076 -3.0183
 9473SOL    HW240053   3.492   3.170   6.722  0.1435  2.0937  0.1289
 9474SOL     OW40054   0.853   3.585   0.037 -0.9098  0.2957  0.7041
 9474SOL    HW140055   0.906   3.568  17.703  0.3821 -2.1220  2.1016
 9474SOL    HW240056   0.916   3.601   0.107 -0.5133 -0.4133  0.5164
 9475SOL     OW40057   1.096   2.542  10.248  0.1076  0.3461 -0.0543
 9475SOL    HW140058   1.092   2.517  10.156 -0.0256 -1.3487  0.4028
 9475SOL    HW240059   1.064   2.463  10.293 -1.6737  1.2634  0.2882
 9476SOL     OW40060   0.888   3.133  12.743 -0.2322 -0.0286  0.1125
 9476SOL    HW140061   0.871   3.074  12.670 -1.8266  1.4942 -0.7610
 9476SOL    HW240062   0.846   3.213  12.709  3.3647  1.2080 -1.3863
 9477SOL     OW40063   3.320   1.357   1.763 -0.2015  0.6309  0.3555
 9477SOL    HW140064   3.343   1.370   1.855 -0.0440 -1.1259  0.5520
 9477SOL    HW240065   3.339   1.443   1.725 -4.2916  0.9690 -0.9626
 9478SOL     OW40066   3.273   0.223   2.742 -0.3018  0.2906  0.2479
 9478SOL    HW140067   3.238   0.302   2.783 -0.3782 -0.2531  1.2268
 9478SOL    HW240068   3.334   0.190   2.809 -0.2694  0.3902  0.2678
 9479SOL     OW40069   3.543   2.008   8.439 -0.2136 -0.0377  0.6517
 9479SOL    HW140070   3.547   2.058   8.520 -0.3878  1.3848 -0.2085
 9479SOL    HW240071   3.451   2.014   8.411  0.8398  0.0535 -2.8324
 9480SOL     OW40072   3.950   0.569   2.394 -0.0606  0.5946 -0.1773
 9480SOL    HW140073   3.946   0.521   2.476  0.8829  1.8349  0.6020
 9480SOL    HW240074   4.029   0.623   2.399  1.6944 -1.8767 -1.1168
 9481SOL     OW40075   0.949   2.227   8.957 -0.0461 -0.2075 -0.2272
 9481SOL    HW140076   0.878   2.175   8.994 -0.7561  0.7564 -0.2050
 9481SOL    HW240077   0.914   2.308   8.995 -1.8690 -1.1807  0.1377
 9482SOL     OW40078   4.652   4.032   0.487 -0.4075  0.1613 -0.0975
 9482SOL    HW140079   4.718   4.059   0.422  0.7554 -0.6276  0.7491
 9482SOL    HW240080   4.691   4.072   0.565 -0.8848  1.3778 -0.4846
 9483SOL     OW40081   0.082   0.601   4.115  0.1083 -0.6802 -0.3008
 9483SOL    HW140082   0.129   0.633   4.037  2.4154  0.9100  1.7098
 9483SOL    HW240083   0.066   0.516   4.076 -0.4721  0.2357 -2.0559
 9484SOL     OW40084   2.538   0.752   1.861  0.4704 -0.4150  0.0750
 9484SOL    HW140085   2.608   0.716   1.807 -0.4260 -2.4188  0.2264
 9484SOL    HW240086   2.465   0.690   1.850 -0.2825  0.6111 -0.6890
 9485SOL     OW40087   1.201   2.316   6.622 -0.0800  0.3167 -0.4510
 9485SOL    HW140088   1.292   2.346   6.634  0.1265  0.2309 -1.8039
 9485SOL    HW240089   1.156   2.398   6.644  0.9978  0.4521  1.2494
 9486SOL     OW40090   4.603   0.877   3.754 -0.2861 -0.0217 -0.3548
 9486SOL    HW140091   4.680   0.822   3.740  1.6158  2.1710  1.4116
 9486SOL    HW240092   4.578   0.913   3.669  1.1084 -0.6592 -1.0294
 9487SOL     OW40093   0.256   2.964  17.311 -0.1557  0.0343  0.0635
 9487SOL    HW140094   0.198   2.897  17.347  2.3042 -1.6296  0.9295
 9487SOL    HW240095   0.278   2.920  17.230 -0.4817 -0.9275  0.4976
 9488SOL     OW40096   4.581   3.066   3.678  0.2241 -0.4259 -0.4538
 9488SOL    HW140097   4.582   3.119   3.598 -1.3644  0.2330 -0.0409
 9488SOL    HW240098   4.625   3.116   3.745 -0.7284 -2.3552  1.6151
 9489SOL     OW40099   1.097   1.625   8.663 -0.1078  0.5186 -0.2616
 9489SOL    HW140100   1.054   1.709   8.653 -1.6150 -0.0596  1.3466
 9489SOL    HW240101   1.187   1.643   8.637  0.7788  1.1292  3.2055
 9490SOL     OW40102   1.056   1.484   3.519  0.8438  0.0040  0.3535
 9490SOL    HW140103   1.064   1.518   3.608 -0.0160  0.2742  0.3287
 9490SOL    HW240104   1.136   1.513   3.475 -1.8547  0.8757 -4.0656
 9491SOL     OW40105   0.385   1.516   4.030 -0.3547  0.1470 -0.0933
 9491SOL    HW140106   0.344   1.438   4.068  1.3059 -1.3111 -1.2998
 9491SOL    HW240107   0.307   1.562   4.000 -0.8238  0.8580  2.2092
 9492SOL     OW40108   1.723   1.176  17.368 -0.3217  0.6592 -0.3165
 9492SOL    HW140109   1.699   1.128  17.447 -1.0825  1.1929 -0.2213
 9492SOL    HW240110   1.664   1.251  17.364 -0.1179  0.8054 -0.5973
 9493SOL     OW40111   0.625   0.774   5.796  0.3994 -0.7583 -0.2334
 9493SOL    HW140112   0.677   0.843   5.836  0.1965 -0.9613  0.3793
 9493SOL    HW240113   0.547   0.771   5.851  1.1519  0.5211  0.9015
 9494SOL     OW40114   0.145   4.037   9.337  0.5811 -0.0458  0.3395
 9494SOL    HW140115   0.161   4.081   9.421 -1.8213  0.4688  0.5327
 9494SOL    HW240116   0.107   4.103   9.280  2.3288  1.3868  0.8085
 9495SOL     OW40117   4.295   0.262  10.804  0.1151  0.4300 -0.3867
 9495SOL    HW140118   4.204   0.291  10.803 -0.4031 -1.2109 -0.7577
 9495SOL    HW240119   4.307   0.212  10.885 -0.1457  1.2369  0.1474
 9496SOL     OW40120   1.166   0.501   0.451 -0.5032  0.5404  0.3721
 9496SOL    HW140121   1.157   0.592   0.481 -0.0954  1.2928 -1.7550
 9496SOL    HW240122   1.217   0.467   0.525  2.6023  0.8085 -1.6359
 9497SOL     OW40123   3.515   2.363   6.570  0.9028 -0.2279  0.1396
 9497SOL    HW140124   3.486   2.446   6.607  0.9144 -0.5894  0.9619
 9497SOL    HW240125   3.501   2.305   6.645 -1.6480 -0.5920 -0.6134
 9498SOL     OW40126   2.466   0.613  12.895 -0.0984 -0.2923  0.5851
 9498SOL    HW140127   2.457   0.705  12.872  1.0091  0.2554  2.2946
 9498SOL    HW240128   2.561   0.600  12.894 -0.0043  0.4872 -0.5151
 9499SOL     OW40129   4.042   1.394   8.165  0.4267  0.0364  0.8102
 9499SOL    HW140130   4.134   1.402   8.190  0.2383  2.2253  0.8091
 9499SOL    HW240131   4.052   1.387   8.070  2.0120 -0.8416  1.0548
 9500SOL     OW40132   2.097   4.480   3.357  0.0105 -0.3021 -0.2235
 9500SOL    HW140133   2.092   4.444   3.269 -2.5216 -0.3208 -0.0507
 9500SOL    HW240134   2.192   4.490   3.353  0.4240 -3.3096  2.4531
 9501SOL     OW40135   3.318   3.580   8.679  0.4271  0.7127 -0.0778
 9501SOL    HW140136   3.397   3.617   8.718  2.1090 -0.8336 -2.0025
 9501SOL    HW240137   3.265   3.588   8.759  1.6815 -2.7755  1.0818
 9502SOL     OW40138   1.546   4.505  14.756 -0.1802  0.0410 -0.0891
 9502SOL    HW140139   1.496   4.566  14.700 -0.7072 -1.3778 -1.1577
 9502SOL    HW240140   1.505   4.422  14.733  1.0613 -0.4449 -0.5080
 9503SOL     OW40141   2.020   1.115   4.973  0.8936 -0.2544  0.0087
 9503SOL    HW140142   2.062   1.044   4.925  0.4140 -0.0084 -0.7746
 9503SOL    HW240143   2.072   1.117   5.054  1.2465  3.6297 -0.3277
 9504SOL     OW40144   2.264   2.769   7.220 -0.2271 -0.1282 -0.2296
 9504SOL    HW140145   2.215   2.812   7.149 -0.1960  1.1811  0.5397
 9504SOL    HW240146   2.349   2.813   7.213 -0.3997  0.3142  0.4411
 9505SOL     OW40147   1.307   3.727  10.071 -0.3442 -0.4306  0.1735
 9505SOL    HW140148   1.301   3.678  10.153  0.0076  0.6758  0.8515
 9505SOL    HW240149   1.389   3.774  10.086 -1.8708  1.5584  2.2357
 9506SOL     OW40150   1.454   3.277   8.158  0.0174  0.1702 -0.2166
 9506SOL    HW140151   1.366   3.266   8.195  0.1330  1.0820  0.3208
 9506SOL    HW240152   1.506   3.240   8.229  0.8312  1.6374 -0.0707
 9507SOL     OW40153   3.288   0.930   7.744  0.3527 -0.1021  0.3261
 9507SOL    HW140154   3.328   0.974   7.669  0.3717 -0.8426 -0.0915
 9507SOL    HW240155   3.344   0.856   7.765 -0.9353 -1.2091 -0.1847
 9508SOL     OW40156   3.762   1.430   3.335 -0.3741 -0.6734 -0.1958
 9508SOL    HW140157   3.840   1.374   3.338  1.3548  1.7826  0.2984
 9508SOL    HW240158   3.779   1.495   3.403  1.5170  0.1514 -1.4548
 9509SOL     OW40159   0.821   1.660   2.958  0.1556 -0.1359  0.2103
 9509SOL    HW140160   0.735   1.644   2.996  0.3975  2.2622  1.7559
 9509SOL    HW240161   0.798   1.633   2.869 -0.0337  2.4192 -0.5185
 9510SOL     OW40162   0.419   0.870   3.670 -0.1733  0.4310  0.2982
 9510SOL    HW140163   0.498   0.881   3.723 -0.0479 -0.5666  0.3082
 9510SOL    HW240164   0.364   0.926   3.725  0.7704  1.2961  0.3677
 9511SOL     OW40165   4.697   4.133   0.713 -0.0091 -0.1050  0.1504
 9511SOL    HW140166   4.619   4.164   0.758  1.1011  1.7956  0.7633
 9511SOL    HW240167   0.033   4.155   0.772  0.6342 -2.2110  0.1587
 9512SOL     OW40168   4.145   0.089   9.511 -0.3757  0.2720 -0.4076
 9512SOL    HW140169   4.134   0.035   9.433  0.6564  1.4804 -1.3923
 9512SOL    HW240170   4.118   0.171   9.469 -1.5821  1.3229  2.4214
 9513SOL     OW40171   4.194   2.843   2.718 -0.4258 -0.3012 -0.5322
 9513SOL    HW140172   4.206   2.924   2.669 -0.6366  0.6176  0.9236
 9513SOL    HW240173   4.103   2.859   2.744 -0.3196 -0.3192 -0.1452
 9514SOL     OW40174   3.172   0.014  10.303  0.4024 -0.1623 -0.2770
 9514SOL    HW140175   3.206   0.085  10.357  1.1547 -1.4993  0.9888
 9514SOL    HW240176   3.114   4.716  10.372 -0.9941 -3.1902 -2.9588
 9515SOL     OW40177   4.105   3.774   3.214 -0.2113  0.5579 -0.0822
 9515SOL    HW140178   4.037   3.747   3.276  0.1920 -0.7200 -0.1767
 9515SOL    HW240179   4.087   3.714   3.141  2.7249  1.4393 -1.5349
 9516SOL     OW40180   0.830   1.256   7.383 -1.0892  0.4396 -0.0501
 9516SOL    HW140181   0.894   1.266   7.453  0.6726  2.1212 -1.9046
 9516SOL    HW240182   0.852   1.335   7.333 -0.8607  0.2649 -0.2254
 9517SOL     OW40183   1.619   0.593   6.403  0.3885 -0.1287 -0.1989
 9517SOL    HW140184   1.677   0.517   6.416  0.3458 -0.1251  0.0110
 9517SOL    HW240185   1.608   0.585   6.309 -1.7109  1.9225 -0.1039
 9518SOL     OW40186   2.619   3.171   4.741  0.2911  0.1593 -0.0443
 9518SOL    HW140187   2.573   3.102   4.693 -0.6398  0.1534  0.8585
 9518SOL    HW240188   2.644   3.125   4.821  1.3550 -1.2767 -1.1923
 9519SOL     OW40189   2.093   4.020  11.548  0.1276  0.5939 -0.0432
 9519SOL    HW140190   2.010   4.020  11.499  0.2848  0.2213 -0.3162
 9519SOL    HW240191   2.090   3.925  11.563 -1.6112  0.5133 -0.8563
 9520SOL     OW40192   3.117   3.474   3.018  0.1528  0.2025 -0.1178
 9520SOL    HW140193   3.152   3.387   2.998 -1.3335  0.0220 -1.8774
 9520SOL    HW240194   3.079   3.501   2.935 -1.0162 -0.1019  0.3137
 9521SOL     OW40195   3.578   0.770  10.244  0.2307 -0.9304  0.5487
 9521SOL    HW140196   3.557   0.789  10.336 -2.6599  1.6997 -0.6810
 9521SOL    HW240197   3.528   0.835  10.196 -0.2397 -1.1103  0.7873
 9522SOL     OW40198   1.674   2.928   1.368  0.1679  0.6138  0.9712
 9522SOL    HW140199   1.662   2.882   1.285 -0.3646  0.3406  1.1997
 9522SOL    HW240200   1.721   3.006   1.339  1.6799 -0.5851  0.1869
 9523SOL     OW40201   0.256   3.359   2.436 -0.3927 -0.4267 -0.4881
 9523SOL    HW140202   0.185   3.312   2.479 -1.9404  0.4440 -2.1176
 9523SOL    HW240203   0.217   3.397   2.358 -0.9830  1.4746  0.7326
 9524SOL     OW40204   2.003   1.252  17.665 -0.6032  0.4664  0.1693
 9524SOL    HW140205   2.034   1.247  17.575  1.5202  1.3848  0.8542
 9524SOL    HW240206   2.069   1.199  17.709 -1.9022 -1.0557  0.2987
 9525SOL     OW40207   0.200   3.080  11.041  0.0305  0.0887  0.3319
 9525SOL    HW140208   0.112   3.112  11.063  0.6509  1.5030  0.7316
 9525SOL    HW240209   0.219   3.044  11.127  0.1728 -0.8848 -0.1073
 9526SOL     OW40210   4.202   3.269   7.172 -0.3348 -0.4555 -0.2195
 9526SOL    HW140211   4.268   3.203   7.152  0.1244 -0.5799  1.6598
 9526SOL    HW240212   4.153   3.232   7.246 -0.3198  0.6918  0.3666
 9527SOL     OW40213   1.656   1.102  10.340 -0.1466 -0.4155 -0.0925
 9527SOL    HW140214   1.664   1.081  10.247  0.8162  0.2279 -0.1569
 9527SOL    HW240215   1.562   1.123  10.342 -0.1692 -0.6868  1.1730
 9528SOL     OW40216   0.053   4.659   1.158  0.0825 -0.0282  0.3284
 9528SOL    HW140217   0.135   4.613   1.176  0.3239  0.1814 -0.2322
 9528SOL    HW240218   0.072   4.677   1.066 -0.2157 -3.8934 -0.4894
 9529SOL     OW40219   2.401   3.838   4.782 -0.4947 -0.0994 -0.0574
 9529SOL    HW140220   2.380   3.900   4.712 -0.7951 -0.8371 -0.6195
 9529SOL    HW240221   2.412   3.755   4.736  1.7687 -0.7050  1.5613
 9530SOL     OW40222   3.613   0.013  15.962 -0.0493  0.1241  0.2572
 9530SOL    HW140223   3.541   0.072  15.981  0.6554  1.2843 -0.6986
 9530SOL    HW240224   3.680   0.066  15.918  1.4906 -0.9084  1.3519
 9531SOL     OW40225   0.522   0.070   5.510 -0.2862 -0.4579  0.6042
 9531SOL    HW140226   0.482   0.026   5.585 -1.6178  0.0582  0.1887
 9531SOL    HW240227   0.478   0.154   5.524 -1.1457 -1.0890  1.7525
 9532SOL     OW40228   4.087   3.775   2.774  0.0385  0.3502 -0.0171
 9532SOL    HW140229   4.030   3.718   2.722  0.6908  0.0051 -0.3534
 9532SOL    HW240230   4.095   3.713   2.847 -0.8904  0.4301  0.1535
 9533SOL     OW40231   0.012   3.352  13.921  0.0826 -0.0559  0.0693
 9533SOL    HW140232   0.067   3.401  13.982 -2.7877  0.1438  2.5020
 9533SOL    HW240233   0.028   3.401  13.840  0.1391 -0.4929 -0.1852
 9534SOL     OW40234   0.032   4.405   3.185 -0.9186 -0.5771 -0.2289
 9534SOL    HW140235   4.684   4.423   3.143  1.2538 -0.0142 -4.2255
 9534SOL    HW240236   0.028   4.309   3.191 -1.0446 -0.6073 -0.8019
 9535SOL     OW40237   3.540   3.180   0.671  0.7993  0.0257 -0.3160
 9535SOL    HW140238   3.619   3.213   0.714 -0.3050  1.0791  0.8894
 9535SOL    HW240239   3.521   3.104   0.727 -1.2771  1.4819  0.9557
 9536SOL     OW40240   1.780   0.282  12.085 -0.2280 -0.5767 -0.1627
 9536SOL    HW140241   1.691   0.307  12.059 -0.7563  0.7683  2.8741
 9536SOL    HW240242   1.804   0.217  12.020  2.5621 -0.5231  0.8051
 9537SOL     OW40243   1.491   4.257  14.052 -0.0840  0.0280  0.3521
 9537SOL    HW140244   1.525   4.211  14.129  1.4212 -0.8501 -0.8258
 9537SOL    HW240245   1.565   4.313  14.029  0.8260 -0.3989  2.2152
 9538SOL     OW40246   0.138   1.060   3.576  0.1488 -0.1069 -0.2601
 9538SOL    HW140247   0.222   1.063   3.532  0.2123 -0.4979 -0.1609
 9538SOL    HW240248   0.112   0.971   3.554  1.5292 -0.8378  1.0848
 9539SOL     OW40249   3.959   4.596   3.655  0.5380  0.0787 -0.0803
 9539SOL    HW140250   3.916   4.529   3.602  1.7934 -0.2557 -0.6710
 9539SOL    HW240251   3.924   4.573   3.741 -2.7154  2.9973 -0.6434
 9540SOL     OW40252   2.976   1.617   7.328  0.0555 -0.2217  0.0095
 9540SOL    HW140253   2.984   1.700   7.376  1.0221 -1.3250  1.7324
 9540SOL    HW240254   3.028   1.555   7.379  1.8836 -0.9825 -2.8000
 9541SOL     OW40255   0.419   3.933   4.566  0.3331  0.4934  0.1226
 9541SOL    HW140256   0.334   3.897   4.591  0.1448  0.7672 -0.1327
 9541SOL    HW240257   0.474   3.881   4.624  0.3620 -0.5841 -0.8771
 9542SOL     OW40258   0.625   1.262   9.696 -0.6195 -0.0336  0.6662
 9542SOL    HW140259   0.662   1.326   9.636  0.9139 -1.2816  0.2622
 9542SOL    HW240260   0.641   1.295   9.785 -1.3913  1.1180  0.3638
 9543SOL     OW40261   4.327   1.890   3.365  0.2848  0.2970  0.2563
 9543SOL    HW140262   4.311   1.982   3.345  1.9199  0.1988 -1.5147
 9543SOL    HW240263   4.421   1.891   3.347  0.6612 -2.0923  2.1074
 9544SOL     OW40264   4.651   0.783   6.560 -0.0421  0.2671  0.7900
 9544SOL    HW140265   4.697   0.725   6.499 -0.3443  0.3315  0.5032
 9544SOL    HW240266   4.671   0.731   6.638 -1.8408 -0.8322  0.5307
 9545SOL     OW40267   0.061   2.101  12.093  0.3225 -0.3900  0.1429
 9545SOL    HW140268   0.032   2.024  12.142 -1.0961 -0.8275 -1.3935
 9545SOL    HW240269   0.013   2.164  12.147 -1.8745 -1.2447 -0.8335
 9546SOL     OW40270   0.979   4.135   6.340 -0.0073  0.3647  0.3654
 9546SOL    HW140271   1.032   4.058   6.321 -0.8567 -0.4059  1.0946
 9546SOL    HW240272   0.918   4.092   6.401 -1.8627  0.0801 -1.6890
 9547SOL     OW40273   2.491   4.226   5.943  0.5684  0.7120  0.5411
 9547SOL    HW140274   2.580   4.217   5.907  0.6461  2.5064  0.3030
 9547SOL    HW240275   2.451   4.293   5.888 -1.5674 -1.0843 -0.0939
 9548SOL     OW40276   4.420   0.380  16.316 -0.3990 -0.1459  0.4124
 9548SOL    HW140277   4.373   0.455  16.281 -0.1646  0.3836  1.2403
 9548SOL    HW240278   4.466   0.408  16.395 -0.2287  3.5205 -0.9981
 9549SOL     OW40279   0.416   2.661   2.639  0.0058  0.4578 -0.5469
 9549SOL    HW140280   0.321   2.647   2.633  0.1195  0.0608 -1.3316
 9549SOL    HW240281   0.420   2.649   2.734  1.9041  0.6545 -0.6167
 9550SOL     OW40282   3.399   2.255  11.463  0.1243  0.0045 -0.7573
 9550SOL    HW140283   3.307   2.232  11.454  0.3510 -0.4290 -1.9032
 9550SOL    HW240284   3.449   2.173  11.463 -0.1734 -0.2001  1.4283
 9551SOL     OW40285   2.543   1.134   4.199  0.0426 -0.1696  0.4702
 9551SOL    HW140286   2.618   1.081   4.172  0.3334 -0.7919  2.4784
 9551SOL    HW240287   2.576   1.224   4.210 -0.9357  0.0790  1.4124
 9552SOL     OW40288   4.269   4.693  14.165  0.0478  0.3438 -0.5138
 9552SOL    HW140289   4.291   0.050  14.162 -0.4321  0.4645 -0.1861
 9552SOL    HW240290   4.351   4.663  14.126  1.2075  1.5231  0.9853
 9553SOL     OW40291   4.344   1.394   2.863 -0.1952 -0.3576 -0.1327
 9553SOL    HW140292   4.291   1.315   2.852 -0.8281  0.1274 -0.6143
 9553SOL    HW240293   4.317   1.421   2.951  1.5410  0.1062  0.2476
 9554SOL     OW40294   1.824   0.207   3.658  0.0119 -0.5671  0.4042
 9554SOL    HW140295   1.773   0.154   3.719  0.6573 -2.6404 -0.8582
 9554SOL    HW240296   1.840   0.279   3.719 -2.3355  1.9787 -1.9504
 9555SOL     OW40297   0.864   2.205   6.795  0.0922  0.5871  0.3001
 9555SOL    HW140298   0.924   2.275   6.822  2.1832 -0.8555 -0.6136
 9555SOL    HW240299   0.780   2.246   6.775 -0.9453 -1.4981  0.4345
 9556SOL     OW40300   1.150   2.790   9.837 -0.1675  0.4555 -0.0814
 9556SOL    HW140301   1.069   2.833   9.809 -0.2597  0.2890 -0.0709
 9556SOL    HW240302   1.179   2.783   9.746 -2.6605  2.6155 -1.0355
 9557SOL     OW40303   1.734   2.850   2.980  0.3024  0.3245 -0.4899
 9557SOL    HW140304   1.797   2.912   2.945  0.4724  0.9856  0.9899
 9557SOL    HW240305   1.790   2.773   2.987 -2.6643 -1.7386  0.6699
 9558SOL     OW40306   1.807   2.443   5.497  0.4043 -0.1376  0.0028
 9558SOL    HW140307   1.769   2.520   5.455  0.9827 -0.1193 -0.4854
 9558SOL    HW240308   1.895   2.455   5.462  1.1437  0.1020  1.9575
 9559SOL     OW40309   2.528   4.028  17.429 -0.1784 -0.5587 -0.2842
 9559SOL    HW140310   2.530   3.938  17.397 -0.3280 -1.2397  1.6267
 9559SOL    HW240311   2.567   4.015  17.515 -0.5831 -0.8269 -0.1409
 9560SOL     OW40312   4.513   0.675   9.746 -0.1956  0.3928  0.5772
 9560SOL    HW140313   4.431   0.681   9.794 -0.5343 -1.2625  0.1885
 9560SOL    HW240314   4.583   0.688   9.810  0.3860 -2.4996  0.5015
 9561SOL     OW40315   2.747   2.745   7.394 -0.3301  0.2158 -0.5420
 9561SOL    HW140316   2.821   2.767   7.337 -0.9352  0.1815 -1.3443
 9561SOL    HW240317   2.737   2.650   7.390  0.3851  0.2639 -3.2245
 9562SOL     OW40318   3.991   4.503   9.785 -0.3643 -0.6258 -0.3155
 9562SOL    HW140319   3.950   4.440   9.843 -1.3450  0.1547 -0.1470
 9562SOL    HW240320   4.080   4.509   9.821  0.2342  0.4720 -1.9582
 9563SOL     OW40321   3.787   0.829   6.327 -0.4553 -0.1905 -0.3135
 9563SOL    HW140322   3.779   0.874   6.243  0.1251  0.0027 -0.2666
 9563SOL    HW240323   3.878   0.847   6.352 -0.6217  1.5113 -0.9356
 9564SOL     OW40324   0.321   1.910  16.704  0.2111  0.2527  0.6693
 9564SOL    HW140325   0.325   1.815  16.699 -1.9976  0.1410  1.1403
 9564SOL    HW240326   0.407   1.932  16.668 -0.4067 -1.1445 -1.7143
 9565SOL     OW40327   1.855   1.882   3.251  0.4097 -0.0256 -0.3147
 9565SOL    HW140328   1.805   1.863   3.331 -1.1299  1.6005 -0.9082
 9565SOL    HW240329   1.946   1.881   3.281  0.6819 -0.5941 -1.1599
 9566SOL     OW40330   1.218   2.252  12.106  0.2295 -0.0608 -0.4573
 9566SOL    HW140331   1.230   2.315  12.035 -1.4404 -0.1040 -0.7600
 9566SOL    HW240332   1.215   2.170  12.056  0.3132 -0.6671  0.5277
 9567SOL     OW40333   1.792   2.751   1.938  0.0580  0.1096 -0.7761
 9567SOL    HW140334   1.812   2.826   1.994 -0.2620  0.2382 -0.8383
 9567SOL    HW240335   1.882   2.730   1.913  0.6948  0.7695  0.8927
 9568SOL     OW40336   0.220   0.359   3.940  0.7076  0.2884  0.4390
 9568SOL    HW140337   0.242   0.332   3.851 -0.6896  0.8653 -0.0705
 9568SOL    HW240338   0.125   0.354   3.945  0.6794  1.2886  0.7966
 9569SOL     OW40339   1.224   2.577   4.699  0.0015 -0.5227 -0.0980
 9569SOL    HW140340   1.212   2.575   4.794 -0.7242  1.5735 -0.1385
 9569SOL    HW240341   1.198   2.665   4.671  1.2025  0.6388  2.4213
 9570SOL     OW40342   4.366   1.733   3.598 -0.2174  0.1155  0.0601
 9570SOL    HW140343   4.372   1.794   3.524 -0.1211  1.1991  0.9471
 9570SOL    HW240344   4.445   1.746   3.650  0.6918  2.2017 -1.8244
 9571SOL     OW40345   4.154   0.997  11.796 -0.6111  0.1673  0.3088
 9571SOL    HW140346   4.087   1.011  11.862 -0.4156  3.5454 -0.1814
 9571SOL    HW240347   4.217   0.934  11.830 -1.3116 -1.1276 -0.8164
   4.73646   4.73646  17.74436
