Membrane in water
40347
    1TMC1    C1    1   3.810   1.514  11.232  0.5883  0.3177 -0.2096
    1TMC1    C2    2   3.685   1.547  11.192 -0.4095 -0.7500  0.2605
    1TMC1    C3    3   3.676   1.638  11.096  0.0665 -0.7647 -0.0142
    1TMC1    C4    4   3.923   1.583  11.186 -0.3984  0.4151 -0.1668
    1TMC1    C5    5   3.906   1.669  11.089  0.4831  0.7275 -0.8688
    1TMC1    C6    6   3.786   1.701  11.041  0.2803  0.4454  0.2026
    1TMC1     C    7   3.823   1.378  11.276 -0.5059 -0.2651 -0.1885
    1TMC1     O    8   3.733   1.326  11.343 -0.4866 -0.2891 -0.0434
    1TMC1     H    9   3.595   1.496  11.224 -0.3427 -0.8496  0.2908
    1TMC1    H1   10   4.025   1.569  11.221  0.6876  1.1585 -3.0089
    1TMC1    H2   11   3.766   1.741  10.942 -0.2349  0.8749  0.4764
    1TMC1    C7   12   4.017   1.675  11.003 -0.2072 -0.4246  0.7822
    1TMC1    C8   13   3.556   1.650  11.020  0.4359  0.0558  0.7350
    1TMC1    O1   14   4.071   1.786  11.002  0.2794  0.7737  0.1100
    1TMC1    O2   15   3.514   1.750  10.970  0.2294  0.1658  0.8333
    1TMC1    O3   16   3.968   1.618  10.888 -0.0998  0.7807  0.4706
    1TMC1    H3   17   3.924   1.532  10.900 -0.5738  1.4578  3.6351
    1TMC1    O5   18   3.534   1.524  10.978  0.4296 -0.2857  0.3346
    1TMC1    H5   19   3.603   1.458  10.999 -0.5331 -1.4775 -0.2845
    2MPD2     C   20   4.081   0.928  11.294  0.6816  0.2590  0.1445
    2MPD2    C1   21   3.965   0.966  11.363  0.3263  0.4922  0.2314
    2MPD2    C2   22   3.916   1.096  11.351 -0.0436 -0.2338  0.4840
    2MPD2    C3   23   3.979   1.186  11.267  0.3225  0.3394 -0.1878
    2MPD2    C4   24   4.096   1.149  11.204 -0.2582  0.4633  0.1151
    2MPD2    C5   25   4.145   1.022  11.225  0.1760 -0.3443 -0.0877
    2MPD2     H   26   3.839   1.133  11.418 -0.2862 -1.5735  0.9504
    2MPD2    H1   27   4.160   1.222  11.158  0.9329 -1.9431 -2.0683
    2MPD2    H2   28   4.132   0.833  11.305  0.0211 -0.3099 -1.6064
    2MPD2    H3   29   4.245   0.998  11.191 -0.1730 -0.4687 -1.0058
    2MPD2     N   30   3.942   1.324  11.246 -0.5800  1.0674  0.2228
    2MPD2    H5   31   4.004   1.379  11.188  3.6977 -2.5853  1.3172
    2MPD2    N1   32   3.898   0.868  11.446 -0.2350  0.6083  0.6542
    2MPD2    H7   33   3.815   0.899  11.496  0.9110  2.2723  1.5032
    3TMC1    C1   34   2.543   0.493  10.430  0.0849  0.1159  0.2388
    3TMC1    C2   35   2.405   0.469  10.418 -0.0225 -0.2207 -0.2530
    3TMC1    C3   36   2.365   0.350  10.360 -0.3439  0.4303  0.0842
    3TMC1    C4   37   2.634   0.396  10.399 -0.0064  0.0687  0.2831
    3TMC1    C5   38   2.589   0.280  10.340 -0.4817 -0.0108  0.1927
    3TMC1    C6   39   2.456   0.254  10.319  0.3344  0.0896 -0.5660
    3TMC1     C   40   2.600   0.598  10.509 -0.0265  0.6697  0.3276
    3TMC1     O   41   2.723   0.601  10.516  0.5725 -0.1710  0.2578
    3TMC1     H   42   2.330   0.547  10.428 -0.4441 -0.6247 -0.2556
    3TMC1    H1   43   2.741   0.406  10.406 -0.1442  1.3074  0.7841
    3TMC1    H2   44   2.424   0.161  10.274 -0.5843 -0.5292  1.3714
    3TMC1    C7   45   2.682   0.180  10.306 -0.5478  0.3680  0.6024
    3TMC1    C8   46   2.229   0.312  10.337 -0.2271  0.0125 -0.1540
    3TMC1    O1   47   2.636   0.092  10.235 -0.2847  0.0533 -0.0362
    3TMC1    O2   48   2.194   0.240  10.244  0.3548  0.7516  0.1226
    3TMC1    O3   49   2.760   0.149  10.414 -0.0381  0.0111  0.0528
    3TMC1    H3   50   2.745   0.210  10.489 -0.7545 -0.3752  0.2261
    3TMC1    O5   51   2.175   0.310  10.460  0.4489  0.3514  0.6756
    3TMC1    H5   52   2.220   0.362  10.529  1.9050 -1.8028  1.3209
    4MPD2     C   53   2.603   1.001  10.799  0.2336 -0.3942 -0.1067
    4MPD2    C1   54   2.472   0.984  10.758  0.2659 -0.0015 -0.1250
    4MPD2    C2   55   2.440   0.869  10.689  0.0086 -0.2588  0.0155
    4MPD2    C3   56   2.542   0.781  10.665 -0.4748 -0.2766  0.1386
    4MPD2    C4   57   2.660   0.793  10.727 -0.1096  1.0042  0.6157
    4MPD2    C5   58   2.688   0.899  10.804  0.6170 -0.3255  0.1870
    4MPD2     H   59   2.342   0.862  10.643  0.4423 -0.2987 -0.9066
    4MPD2    H1   60   2.733   0.713  10.720 -1.1346  0.2996 -2.3894
    4MPD2    H2   61   2.633   1.084  10.861 -1.1255  0.2806 -0.3617
    4MPD2    H3   62   2.787   0.914  10.846  0.8080 -0.8029 -0.0881
    4MPD2     N   63   2.508   0.673  10.580  0.6357  0.1700  0.4650
    4MPD2    H5   64   2.407   0.658  10.575  0.5181  1.2806 -0.5796
    4MPD2    N1   65   2.382   1.088  10.770 -0.2518  0.6335 -0.5097
    4MPD2    H7   66   2.285   1.062  10.753 -0.2697  0.6448 -0.4262
    5TCq1    O1   67   2.526   2.800  11.537 -0.0795  0.9210  0.5104
    5TCq1    C1   68   2.640   2.731  11.558 -0.1576  0.2621 -0.2285
    5TCq1    O2   69   2.648   2.610  11.549 -0.0091 -0.4139 -0.3923
    5TCq1    C2   70   2.747   2.826  11.559  0.1939  0.1278  0.3221
    5TCq1    C3   71   2.739   2.930  11.649  0.0708  0.5566 -0.2806
    5TCq1    C4   72   2.846   3.008  11.678 -0.1554  0.4124  0.5573
    5TCq1    C5   73   2.958   2.992  11.602 -0.3705 -0.3132 -0.0647
    5TCq1    C6   74   2.969   2.884  11.516  0.2923  0.0536 -0.2324
    5TCq1    C7   75   2.869   2.796  11.501 -0.8148  0.5914  0.0559
    5TCq1    C8   76   3.080   2.862  11.418 -0.6304  0.0877 -0.6188
    5TCq1    O4   77   3.106   2.745  11.383  0.2488  0.4588 -0.0017
    5TCq1    C9   78   2.831   3.113  11.777  0.0798 -0.2521  0.0291
    5TCq1    O5   79   2.733   3.095  11.854  0.3279  1.0583 -0.0568
    5TCq1    O6   80   2.913   3.210  11.777  0.2185  0.2575  0.2343
    5TCq1    H1   81   2.541   2.897  11.536  1.8500  0.5745 -3.1222
    5TCq1    H2   82   2.646   2.953  11.699  0.0270 -0.6327  0.1653
    5TCq1    H3   83   3.040   3.058  11.629 -2.2762  1.4757  1.4022
    5TCq1    H4   84   2.876   2.713  11.432  1.5149  0.2308  0.7472
    6MPD2     C   85   3.308   3.125  11.270 -0.6466 -0.5241  0.6352
    6MPD2    C1   86   3.249   2.994  11.287 -0.0867 -0.3582 -0.5282
    6MPD2    C2   87   3.294   2.890  11.208 -0.0570  0.4751  0.0654
    6MPD2    C3   88   3.401   2.913  11.117 -0.4035 -0.8376 -0.5568
    6MPD2    C4   89   3.448   3.042  11.095  0.2429 -0.4082  0.0013
    6MPD2    C5   90   3.400   3.152  11.167 -0.0920 -0.2793 -0.3368
    6MPD2     H   91   3.247   2.793  11.219  1.7856 -0.5055 -0.6695
    6MPD2    H1   92   3.504   3.065  11.005  1.5368  0.9975  1.1670
    6MPD2    H2   93   3.271   3.208  11.330  2.0001  2.4023 -1.7865
    6MPD2    H3   94   3.421   3.253  11.133 -1.1467  0.8814  2.5121
    6MPD2     N   95   3.447   2.806  11.038  0.9011  0.1957 -0.4289
    6MPD2    H5   96   3.394   2.719  11.043  0.1066  0.6952 -0.1632
    6MPD2    N1   97   3.154   2.975  11.392 -0.0749 -0.0068 -0.2540
    6MPD2    H7   98   3.131   3.058  11.445  0.7638 -0.2036  0.4216
    7TCq1    O1   99   0.835   2.693  12.769 -0.1189 -0.1109  0.0523
    7TCq1    C1  100   0.805   2.667  12.642  0.8772 -0.2514 -0.1461
    7TCq1    O2  101   0.825   2.745  12.550  0.4337  0.3800  0.0701
    7TCq1    C2  102   0.764   2.533  12.638  0.0088 -0.0696  0.2615
    7TCq1    C3  103   0.670   2.492  12.552 -0.6868  0.4425 -0.2695
    7TCq1    C4  104   0.654   2.362  12.518  0.3487 -0.2882 -1.1228
    7TCq1    C5  105   0.732   2.268  12.576  0.4008  0.7084  0.4622
    7TCq1    C6  106   0.838   2.302  12.659 -0.2035 -0.9334  0.7245
    7TCq1    C7  107   0.852   2.439  12.699 -0.2867  0.0699  0.3495
    7TCq1    C8  108   0.902   2.204  12.749 -0.8830 -0.4111  0.5498
    7TCq1    O4  109   0.836   2.100  12.759  0.0504  0.5115 -0.1927
    7TCq1    C9  110   0.557   2.326  12.417 -0.7361  0.3254  0.0675
    7TCq1    O5  111   0.530   2.202  12.410  0.6781  0.3809  0.4367
    7TCq1    O6  112   0.517   2.413  12.332  0.0630  0.1038  0.1277
    7TCq1    H1  113   0.794   2.621  12.821  1.8774 -1.1884  0.1527
    7TCq1    H2  114   0.616   2.564  12.492 -1.5433  0.4336  0.4821
    7TCq1    H3  115   0.735   2.172  12.525 -1.5557  0.5975  0.5620
    7TCq1    H4  116   0.935   2.483  12.753  1.5913 -2.6716 -0.3192
    8MPD2     C  117   1.248   2.025  13.086  0.0185 -0.5841 -0.1326
    8MPD2    C1  118   1.125   1.969  13.049 -0.3668 -0.5928  0.1427
    8MPD2    C2  119   1.049   2.037  12.955 -0.3717  0.3598 -0.5160
    8MPD2    C3  120   1.089   2.166  12.914  0.5450  0.4871 -0.3247
    8MPD2    C4  121   1.213   2.220  12.952  0.8310 -0.7696 -1.2187
    8MPD2    C5  122   1.288   2.154  13.049 -0.0168 -0.7231  0.0536
    8MPD2     H  123   0.957   1.989  12.922 -1.0364  2.4373 -1.6988
    8MPD2    H1  124   1.248   2.310  12.903  1.9003 -0.3521  0.3124
    8MPD2    H2  125   1.302   1.968  13.161 -1.0205 -0.9976  0.3131
    8MPD2    H3  126   1.380   2.203  13.075 -0.3831 -0.2631  0.4639
    8MPD2     N  127   1.010   2.247  12.828  0.4104  0.0499  0.0219
    8MPD2    H5  128   1.050   2.339  12.811 -1.5554  0.9981  0.6307
    8MPD2    N1  129   1.102   1.843  13.104 -0.4115  0.2007 -0.2422
    8MPD2    H7  130   1.160   1.818  13.183 -0.7686 -2.4122 -0.8230
    9TMC1    C1  131   3.245   1.519  11.314 -0.4183 -0.6102  0.3910
    9TMC1    C2  132   3.153   1.450  11.395 -0.1627  0.2516  0.0831
    9TMC1    C3  133   3.042   1.402  11.318 -0.1389 -0.5376 -0.1065
    9TMC1    C4  134   3.220   1.554  11.186 -0.2186  0.1115  0.4050
    9TMC1    C5  135   3.102   1.515  11.133  0.4529  0.8717 -0.1433
    9TMC1    C6  136   3.012   1.428  11.188 -0.9154 -0.5900  0.6439
    9TMC1     C  137   3.354   1.582  11.378 -0.3564 -0.0676 -0.0799
    9TMC1     O  138   3.406   1.678  11.323 -0.6849  0.1761 -0.3250
    9TMC1     H  139   3.169   1.404  11.492  2.3614 -2.5008 -1.6329
    9TMC1    H1  140   3.284   1.627  11.138 -2.4257  1.9224  0.2552
    9TMC1    H2  141   2.923   1.400  11.133 -0.4084 -2.0607  0.5466
    9TMC1    C7  142   3.052   1.589  11.019  0.4999 -0.4295 -0.5742
    9TMC1    C8  143   2.946   1.309  11.375  0.1058 -0.5797  0.7732
    9TMC1    O1  144   3.119   1.635  10.930 -0.0540 -0.3118  0.3325
    9TMC1    O2  145   2.827   1.307  11.335 -0.4397  0.5827 -0.6288
    9TMC1    O3  146   2.921   1.606  11.031 -0.3056  0.1998 -0.4230
    9TMC1    H3  147   2.890   1.586  11.121  1.3462  2.9352  0.7508
    9TMC1    O5  148   3.021   1.200  11.413  0.5818 -0.0962 -0.2144
    9TMC1    H5  149   3.110   1.200  11.372  1.1931  3.4256  1.0911
   10MPD2     C  150   3.602   1.630  11.541 -0.6686  1.0458  0.5903
   10MPD2    C1  151   3.489   1.567  11.588 -0.0920  0.2264 -0.4960
   10MPD2    C2  152   3.484   1.547  11.720 -0.7285 -0.3917  0.4853
   10MPD2    C3  153   3.582   1.584  11.813 -0.2796 -0.5394  0.3219
   10MPD2    C4  154   3.696   1.650  11.763 -0.2283  0.4349 -0.1007
   10MPD2    C5  155   3.698   1.683  11.625 -0.4497 -0.3060  0.2063
   10MPD2     H  156   3.393   1.497  11.752 -0.0170 -0.8776  1.7303
   10MPD2    H1  157   3.775   1.687  11.828 -2.2661  1.1908  1.9301
   10MPD2    H2  158   3.623   1.652  11.437  1.5646  1.9559  1.2369
   10MPD2    H3  159   3.772   1.748  11.582  0.0844 -0.3419  1.0700
   10MPD2     N  160   3.566   1.565  11.953  0.1043  0.1042 -0.3095
   10MPD2    H5  161   3.644   1.585  12.015  1.6364 -1.6007 -1.6708
   10MPD2    N1  162   3.385   1.527  11.499  0.2818 -0.0447  0.0559
   10MPD2    H7  163   3.332   1.443  11.520 -1.0859  0.8207  0.0780
   11TCq1    O1  164   4.222   0.784  13.788  0.1772  1.3956 -0.0669
   11TCq1    C1  165   4.206   0.760  13.652  0.6525 -0.1653 -0.1307
   11TCq1    O2  166   4.275   0.779  13.552 -0.5543 -0.3412  0.1705
   11TCq1    C2  167   4.080   0.684  13.645  0.0131  0.3996 -0.1236
   11TCq1    C3  168   3.980   0.738  13.709 -0.3973 -0.1366 -0.6988
   11TCq1    C4  169   3.852   0.690  13.676  0.1853  0.5116 -0.4542
   11TCq1    C5  170   3.836   0.592  13.584 -0.0557 -0.3156 -0.0361
   11TCq1    C6  171   3.940   0.536  13.523  0.0218  0.0561  0.4165
   11TCq1    C7  172   4.063   0.592  13.539  0.5149  0.6742 -0.1500
   11TCq1    C8  173   3.911   0.462  13.405  0.3428 -0.0049 -0.9433
   11TCq1    O4  174   3.797   0.456  13.369  0.3623  0.2270  0.1844
   11TCq1    C9  175   3.735   0.736  13.749 -0.2471  0.1515 -0.4823
   11TCq1    O5  176   3.742   0.843  13.821  0.8710 -0.1608  0.3417
   11TCq1    O6  177   3.649   0.648  13.771  0.0782  0.3768  0.5152
   11TCq1    H1  178   4.156   0.739  13.845  0.1712 -0.0459 -1.2319
   11TCq1    H2  179   3.985   0.814  13.786 -2.0157  0.3125 -1.0421
   11TCq1    H3  180   3.733   0.574  13.559 -0.3326  0.0614  0.8373
   11TCq1    H4  181   4.150   0.568  13.480  0.5617  1.2447 -0.3107
   12MPD2     C  182   3.903   0.258  13.203 -0.5017  0.3449  0.1737
   12MPD2    C1  183   4.009   0.271  13.292 -0.1302 -0.3098  1.0987
   12MPD2    C2  184   4.100   0.163  13.306 -0.2189  0.0006  0.0581
   12MPD2    C3  185   4.082   0.047  13.238  0.2616 -0.1630  0.2329
   12MPD2    C4  186   3.981   0.042  13.145 -0.2936  0.2073 -0.2820
   12MPD2    C5  187   3.896   0.147  13.128  0.0798 -0.0835  0.8091
   12MPD2     H  188   4.183   0.170  13.376 -2.1127  2.1355  2.0784
   12MPD2    H1  189   3.968   4.694  13.076 -0.2970  0.2529 -0.3363
   12MPD2    H2  190   3.826   0.333  13.188 -0.1254  0.7360  0.1668
   12MPD2    H3  191   3.807   0.137  13.066  1.9049  1.8000 -2.1288
   12MPD2     N  192   4.157   4.661  13.263  0.0010 -0.1351 -0.6957
   12MPD2    H5  193   4.120   4.593  13.197  1.2552 -0.9622 -0.5254
   12MPD2    N1  194   4.020   0.386  13.380 -0.0935 -0.2277  0.8803
   12MPD2    H7  195   4.089   0.380  13.454 -1.0070  2.3032  1.9354
   13TCq1    O1  196   4.195   0.995  10.860  0.3139  0.2322  0.0942
   13TCq1    C1  197   4.099   0.909  10.884  0.7236  0.0101  0.3304
   13TCq1    O2  198   4.123   0.792  10.904  0.0853 -0.1484 -0.5498
   13TCq1    C2  199   3.979   0.974  10.934 -0.1499 -0.2978  0.5697
   13TCq1    C3  200   3.960   1.108  10.914 -0.6803 -0.6091 -0.3125
   13TCq1    C4  201   3.839   1.157  10.958 -0.4924  0.2185 -0.2892
   13TCq1    C5  202   3.747   1.083  11.022 -0.1355  0.3933  0.0505
   13TCq1    C6  203   3.783   0.955  11.063  0.0839 -0.0030 -0.0240
   13TCq1    C7  204   3.896   0.896  11.011 -0.3514  0.9330 -0.3496
   13TCq1    C8  205   3.676   0.866  11.102 -0.8255 -0.4649 -0.3615
   13TCq1    O4  206   3.563   0.912  11.079  0.3123  0.0522 -0.1284
   13TCq1    C9  207   3.810   1.297  10.942  0.0773  0.1133 -0.0009
   13TCq1    O5  208   3.698   1.333  10.986  0.2158 -0.3672  0.3655
   13TCq1    O6  209   3.902   1.379  10.913 -0.2405  0.1629 -0.1092
   13TCq1    H1  210   4.155   1.074  10.818 -0.8576  0.4616  1.6521
   13TCq1    H2  211   4.029   1.183  10.875  0.1474  0.5666  3.3667
   13TCq1    H3  212   3.653   1.124  11.055 -1.1674 -2.0680  0.1612
   13TCq1    H4  213   3.919   0.790  11.017  1.5759  1.3584 -0.2740
   14MPD2     C  214   3.664   0.535  11.257 -0.3184 -0.0462 -0.1706
   14MPD2    C1  215   3.626   0.635  11.171 -0.3827 -0.2314 -0.2728
   14MPD2    C2  216   3.498   0.637  11.124 -0.2504 -0.2167  0.6732
   14MPD2    C3  217   3.410   0.547  11.176 -0.1751 -1.6832 -0.1879
   14MPD2    C4  218   3.450   0.455  11.270  0.3788 -0.5742  1.0884
   14MPD2    C5  219   3.579   0.435  11.300  0.3415 -1.0439  0.2382
   14MPD2     H  220   3.458   0.720  11.066 -1.3955 -2.8187 -2.2579
   14MPD2    H1  221   3.380   0.388  11.319 -1.0819  0.4455  0.3979
   14MPD2    H2  222   3.764   0.533  11.297 -1.0995  1.9114  1.8186
   14MPD2    H3  223   3.606   0.349  11.360  1.5857  0.2567  1.5377
   14MPD2     N  224   3.277   0.575  11.149  0.7432 -0.0942  0.4552
   14MPD2    H5  225   3.259   0.659  11.095  2.1768 -0.2302 -0.2284
   14MPD2    N1  226   3.715   0.738  11.140 -0.0034  0.6869  0.2718
   14MPD2    H7  227   3.812   0.730  11.170  0.2530 -0.5754 -0.9377
   15TCq1    O1  228   0.140   4.461   1.341  0.0214 -0.0222 -0.1966
   15TCq1    C1  229   0.229   4.407   1.258  0.1164 -0.2890  0.7532
   15TCq1    O2  230   0.340   4.447   1.235 -0.1196 -0.0676 -0.1429
   15TCq1    C2  231   0.168   4.285   1.206 -0.9367 -0.5265 -0.3492
   15TCq1    C3  232   0.035   4.285   1.182 -0.1034  0.5921  0.3071
   15TCq1    C4  233   4.704   4.168   1.144  0.2626 -0.2150  0.1531
   15TCq1    C5  234   0.038   4.052   1.145 -1.2301 -0.6380  0.4977
   15TCq1    C6  235   0.169   4.051   1.170  0.0248  0.2123 -0.2182
   15TCq1    C7  236   0.236   4.168   1.202  0.2436  0.3111  0.4560
   15TCq1    C8  237   0.247   3.924   1.187  0.2658  0.2752  0.1119
   15TCq1    O4  238   0.365   3.935   1.160  0.3842 -0.1242 -0.8180
   15TCq1    C9  239   4.560   4.165   1.126  0.1314  0.4985  0.0252
   15TCq1    O5  240   4.499   4.273   1.106 -0.5072  0.2557  0.3719
   15TCq1    O6  241   4.516   4.049   1.095  0.8742 -0.3000 -0.2249
   15TCq1    H1  242   0.078   4.387   1.358 -0.6959  0.2683 -1.5097
   15TCq1    H2  243   4.716   4.379   1.179 -1.6642 -0.3662 -1.0456
   15TCq1    H3  244   4.721   3.963   1.111  0.3356 -0.3277 -2.6654
   15TCq1    H4  245   0.337   4.166   1.242 -0.3697 -1.7664  1.9492
   16MPD2     C  246   0.143   3.575   1.285 -0.0423 -0.5204 -0.0477
   16MPD2    C1  247   0.217   3.675   1.232 -0.6328  0.3242 -0.0454
   16MPD2    C2  248   0.332   3.633   1.178 -0.1405 -0.6110 -0.0284
   16MPD2    C3  249   0.369   3.498   1.182 -0.0314  0.4112 -0.0791
   16MPD2    C4  250   0.300   3.402   1.248  0.4624  0.4697  0.8871
   16MPD2    C5  251   0.179   3.443   1.294 -0.9263 -0.3904  0.0882
   16MPD2     H  252   0.401   3.708   1.141 -1.6103 -0.2118 -1.9809
   16MPD2    H1  253   0.332   3.300   1.264  1.8516  0.7919  0.1147
   16MPD2    H2  254   0.046   3.599   1.327 -0.0164  2.0969 -1.5001
   16MPD2    H3  255   0.121   3.371   1.352  2.9721 -2.2217  1.6965
   16MPD2     N  256   0.492   3.473   1.118  0.4108  1.2674  0.1467
   16MPD2    H5  257   0.540   3.549   1.072  1.3006  1.4158  1.3309
   16MPD2    N1  258   0.171   3.812   1.239  0.2518  0.2759 -0.0579
   16MPD2    H7  259   0.078   3.836   1.274 -1.0715 -1.2316 -2.5201
   17TMC1    C1  260   3.204   4.010  11.220 -0.2254 -0.2919 -0.0203
   17TMC1    C2  261   3.187   3.882  11.239  0.7717  1.0317 -0.0474
   17TMC1    C3  262   3.204   3.796  11.132  0.1793  0.9187 -0.0526
   17TMC1    C4  263   3.217   4.066  11.095 -0.2842 -0.1501 -0.0556
   17TMC1    C5  264   3.229   3.976  10.991 -0.1675 -0.2801 -0.6543
   17TMC1    C6  265   3.225   3.842  11.001 -0.5195 -0.7947  0.1397
   17TMC1     C  266   3.233   4.091  11.337 -1.0023  1.0708  0.1567
   17TMC1     O  267   3.223   4.042  11.446  0.1899 -0.0827  0.4831
   17TMC1     H  268   3.154   3.842  11.334  0.4981 -0.1465 -0.6376
   17TMC1    H1  269   3.213   4.173  11.077 -0.1897 -0.1460 -0.0523
   17TMC1    H2  270   3.201   3.778  10.917  0.3019 -1.4257  0.3863
   17TMC1    C7  271   3.220   4.040  10.861 -0.2226  0.1733 -0.6196
   17TMC1    C8  272   3.197   3.651  11.154  1.1038 -1.1564  0.5151
   17TMC1    O1  273   3.202   4.160  10.843 -0.3164  0.2187 -0.6092
   17TMC1    O2  274   3.171   3.571  11.065 -0.3176 -0.3407  0.0156
   17TMC1    O3  275   3.277   3.957  10.772 -0.4057  1.0540  0.2152
   17TMC1    H3  276   3.325   3.876  10.798 -3.1344 -0.5089  0.2695
   17TMC1    O5  277   3.277   3.625  11.259  0.2907 -0.1410 -0.1377
   17TMC1    H5  278   3.295   3.710  11.304 -0.4068  0.1344 -0.3745
   18MPD2     C  279   3.287   4.318  11.538 -0.0046  0.4695 -0.1901
   18MPD2    C1  280   3.283   4.327  11.399  0.0374 -0.3784  0.0047
   18MPD2    C2  281   3.308   4.450  11.345  0.4413 -0.2632 -0.3158
   18MPD2    C3  282   3.337   4.561  11.427 -0.2643  0.9491  0.0366
   18MPD2    C4  283   3.347   4.550  11.567 -0.3517  0.1367 -0.2898
   18MPD2    C5  284   3.315   4.426  11.623 -0.3834 -0.4798  0.5682
   18MPD2     H  285   3.307   4.456  11.237 -0.3895 -0.4919 -0.3164
   18MPD2    H1  286   3.383   4.625  11.636 -0.7682 -2.0132  2.2820
   18MPD2    H2  287   3.250   4.226  11.581 -0.4982  2.4901  3.6564
   18MPD2    H3  288   3.315   4.412  11.730  0.6493 -1.2081  0.4734
   18MPD2     N  289   3.380   4.685  11.365 -0.2396 -0.8350  0.0110
   18MPD2    H5  290   3.439   0.012  11.418 -0.2787  0.6256 -1.6823
   18MPD2    N1  291   3.258   4.225  11.309  0.4081 -0.4438 -0.6984
   18MPD2    H7  292   3.265   4.255  11.213  1.7402 -0.6329 -0.6524
   19TMC2    C1  293   0.079   0.521  14.185 -0.0442  0.2117 -0.1935
   19TMC2    C2  294   4.733   0.442  14.265  0.0183  0.1220  0.4429
   19TMC2    C3  295   4.683   0.325  14.208  0.0520 -0.7425 -0.1954
   19TMC2    C4  296   0.134   0.467  14.069  0.4223 -0.7050  0.3926
   19TMC2    C5  297   0.079   0.354  14.016  0.8052 -0.6895  0.7093
   19TMC2    C6  298   4.722   0.281  14.087 -0.3262 -0.1341 -0.7683
   19TMC2     C  299   0.145   0.633  14.254  0.0293 -0.1837 -0.7795
   19TMC2     O  300   0.091   0.662  14.355 -0.0465 -0.0296  0.0982
   19TMC2     H  301   4.696   0.484  14.357  1.1996  1.9255  0.0978
   19TMC2    H1  302   0.216   0.520  14.023  0.1603 -0.7125 -0.0841
   19TMC2    H2  303   4.675   0.192  14.045 -1.5781  0.4383 -0.5474
   19TMC2    C7  304   0.138   0.282  13.909  0.1229 -0.6896  0.1956
   19TMC2    C8  305   4.601   0.236  14.284  0.1567 -0.4810  0.5574
   19TMC2    O1  306   0.114   0.162  13.905 -0.1553  0.1223 -0.2576
   19TMC2    O2  307   4.526   0.258  14.376  0.5796 -0.1750  0.2759
   19TMC2    O5  308   4.676   0.130  14.283 -0.3571 -0.1644 -0.0797
   19TMC2    H5  309   0.021   0.132  14.226 -0.0892  2.1128  0.3853
   20MPD2     C  310   0.286   0.877  14.344 -0.1137  0.1364  0.2226
   20MPD2    C1  311   0.351   0.771  14.284 -0.3511  0.0708 -0.7459
   20MPD2    C2  312   0.490   0.765  14.295  0.0628  0.1384 -0.2501
   20MPD2    C3  313   0.566   0.857  14.363  0.0200  0.4627 -0.5748
   20MPD2    C4  314   0.490   0.959  14.423  0.8448  0.7051 -1.0231
   20MPD2    C5  315   0.358   0.967  14.410  0.2338  0.4451  0.3549
   20MPD2     H  316   0.539   0.699  14.224  1.1499  1.8009 -1.0255
   20MPD2    H1  317   0.540   1.037  14.479  3.1641 -0.8179 -1.0065
   20MPD2    H2  318   0.178   0.889  14.339  0.0061  0.7541 -0.8869
   20MPD2    H3  319   0.299   1.036  14.469 -0.1782  2.1427 -2.0047
   20MPD2     N  320   0.708   0.852  14.379  0.0609 -0.0955 -0.1038
   20MPD2    H5  321   0.750   0.931  14.425 -0.0880  1.1612 -2.1310
   20MPD2    N1  322   0.276   0.663  14.223  0.2782  0.1782  0.2549
   20MPD2    H7  323   0.331   0.598  14.168 -1.0415  1.1092 -2.1713
   21TMC2    C1  324   2.819   0.995  14.422 -0.5487  1.1788  0.2392
   21TMC2    C2  325   2.940   0.932  14.457  0.7648  0.1149 -0.4700
   21TMC2    C3  326   2.947   0.861  14.576 -0.1155 -0.0352 -0.4764
   21TMC2    C4  327   2.699   0.964  14.485 -0.0064 -0.2136 -0.4009
   21TMC2    C5  328   2.709   0.895  14.603 -0.2771 -0.8877 -0.9042
   21TMC2    C6  329   2.831   0.851  14.652 -0.2322 -0.5787 -0.3292
   21TMC2     C  330   2.821   1.086  14.310 -0.5574 -0.2812  1.0010
   21TMC2     O  331   2.860   1.045  14.200  0.8516 -0.2842  0.5393
   21TMC2     H  332   3.022   0.952  14.390  0.8051  0.5937 -0.2735
   21TMC2    H1  333   2.601   0.992  14.447 -0.2363  0.3066  0.5872
   21TMC2    H2  334   2.834   0.791  14.742 -0.6813 -1.4201 -0.8755
   21TMC2    C7  335   2.619   0.934  14.704  0.3108 -0.6907 -0.8610
   21TMC2    C8  336   3.072   0.850  14.643  0.1412  0.0269 -0.4915
   21TMC2    O1  337   2.638   0.887  14.817  0.3606  0.6382  0.0306
   21TMC2    O2  338   3.166   0.921  14.611 -0.1826  0.3654 -0.5759
   21TMC2    O5  339   3.082   0.714  14.656  0.3081 -0.6300  0.3834
   21TMC2    H5  340   3.005   0.655  14.675  0.4542 -0.9877 -0.1252
   22MPD2     C  341   2.619   1.433  14.640  0.3976 -0.1720  0.3554
   22MPD2    C1  342   2.721   1.339  14.661  0.3873  0.3361 -0.1967
   22MPD2    C2  343   2.756   1.266  14.554 -0.5748  0.3641 -0.1947
   22MPD2    C3  344   2.697   1.272  14.430 -0.0383 -0.0738 -0.1762
   22MPD2    C4  345   2.596   1.357  14.412 -0.6223 -0.4492  0.9153
   22MPD2    C5  346   2.561   1.436  14.515  0.1110 -0.3041  0.1253
   22MPD2     H  347   2.848   1.210  14.568 -1.0319 -0.5534 -0.9066
   22MPD2    H1  348   2.538   1.369  14.322 -0.1021  0.0924  0.6562
   22MPD2    H2  349   2.577   1.488  14.723  0.7699  0.5222  0.0916
   22MPD2    H3  350   2.474   1.498  14.499 -0.7342 -1.7928 -1.0472
   22MPD2     N  351   2.743   1.199  14.314 -0.4278  0.4547 -0.0790
   22MPD2    H5  352   2.720   1.236  14.222  1.0960  0.5656 -0.4091
   22MPD2    N1  353   2.790   1.309  14.782  0.3620  0.8056  0.8865
   22MPD2    H7  354   2.846   1.224  14.784 -3.5649 -1.7791  2.2508
   23TMC2    C1  355   3.777   2.314  14.492 -0.0351 -0.2965  0.6998
   23TMC2    C2  356   3.731   2.441  14.469  0.2897  0.4449  0.8514
   23TMC2    C3  357   3.601   2.452  14.430 -0.3241  0.0026 -0.6633
   23TMC2    C4  358   3.707   2.210  14.436  0.0297 -0.5124  0.2483
   23TMC2    C5  359   3.582   2.229  14.378  0.1370 -0.0072 -0.3550
   23TMC2    C6  360   3.524   2.348  14.390  0.6495 -0.5885 -0.0828
   23TMC2     C  361   3.909   2.287  14.543  0.2459  0.3753 -0.0520
   23TMC2     O  362   3.936   2.173  14.566 -0.2013  0.0034 -0.6057
   23TMC2     H  363   3.771   2.528  14.520 -2.1050  2.1967 -0.2656
   23TMC2    H1  364   3.766   2.120  14.432  2.3831  1.0227  0.0206
   23TMC2    H2  365   3.424   2.369  14.357  0.8988  0.5645 -0.0992
   23TMC2    C7  366   3.493   2.109  14.377  0.1780  0.0110 -1.0218
   23TMC2    C8  367   3.559   2.591  14.407  0.9210  0.0601 -0.5273
   23TMC2    O1  368   3.542   2.006  14.423  0.0335 -0.1970 -0.1859
   23TMC2    O2  369   3.617   2.695  14.439 -0.6883 -0.2008  0.3976
   23TMC2    O5  370   3.451   2.603  14.333 -0.2335 -0.3913 -0.4912
   23TMC2    H5  371   3.383   2.535  14.314 -0.9436  0.6997 -1.9547
   24MPD2     C  372   4.330   2.451  14.785  0.2281 -0.3332  0.2457
   24MPD2    C1  373   4.265   2.329  14.793  0.6581 -0.2007 -0.0378
   24MPD2    C2  374   4.159   2.294  14.707 -0.0357  0.0710  0.0373
   24MPD2    C3  375   4.115   2.401  14.621 -0.1765 -0.1410 -0.2604
   24MPD2    C4  376   4.187   2.521  14.611 -0.2609 -0.1510 -0.4371
   24MPD2    C5  377   4.299   2.541  14.694  0.0348 -0.0866 -0.0850
   24MPD2     H  378   4.105   2.201  14.716 -2.0431  1.5199  2.6455
   24MPD2    H1  379   4.153   2.597  14.541  2.3856  0.6245 -0.8594
   24MPD2    H2  380   4.427   2.465  14.832 -1.1860  0.6219  2.9307
   24MPD2    H3  381   4.346   2.638  14.686 -1.7478  0.7935  0.0608
   24MPD2     N  382   3.996   2.394  14.540 -0.0723  0.4241 -0.7845
   24MPD2    H5  383   3.970   2.481  14.494  0.2685  1.2328  0.5218
   24MPD2    N1  384   4.304   2.250  14.900  0.0209  0.6442 -0.3774
   24MPD2    H7  385   4.382   2.292  14.949  0.7929 -0.4764 -0.6280
   25TMC2    C1  386   2.981   4.590  11.297  0.1791  0.5014 -0.7299
   25TMC2    C2  387   2.955   4.643  11.174 -0.9454  0.3511  0.2191
   25TMC2    C3  388   2.975   0.047  11.170 -0.5181 -0.0698  0.3222
   25TMC2    C4  389   3.021   4.659  11.408 -0.5205  0.1680  0.7388
   25TMC2    C5  390   3.046   0.057  11.390 -0.7414 -0.2732 -0.0511
   25TMC2    C6  391   3.018   0.117  11.276 -0.2930  0.1342 -0.0828
   25TMC2     C  392   2.957   4.452  11.322  0.9622  0.1021  1.2889
   25TMC2     O  393   2.921   4.426  11.439  0.3975  0.1063 -0.0916
   25TMC2     H  394   2.894   4.599  11.096 -0.9307 -3.4525  2.3385
   25TMC2    H1  395   3.040   4.616  11.505  1.2958 -0.5355  0.0604
   25TMC2    H2  396   3.018   0.225  11.273  3.1610  0.1444 -0.0119
   25TMC2    C7  397   3.083   0.134  11.506 -0.4664  0.5864  0.0208
   25TMC2    C8  398   2.968   0.095  11.041 -0.1862  0.3168 -0.7610
   25TMC2    O1  399   3.077   0.069  11.608 -0.9650  0.4828 -0.2358
   25TMC2    O2  400   2.883   0.164  10.983 -0.3094 -0.6175 -0.4758
   25TMC2    O5  401   3.061   0.024  10.975  0.2883  0.0551 -0.8671
   25TMC2    H5  402   3.127   4.726  11.040 -1.6631 -0.1948  0.9961
   26MPD2     C  403   2.840   3.968  11.177 -0.8354  0.1625 -0.3960
   26MPD2    C1  404   2.866   4.046  11.071  0.1324 -0.2576 -0.2726
   26MPD2    C2  405   2.917   4.171  11.091 -0.6480  0.1435  0.1169
   26MPD2    C3  406   2.928   4.231  11.213 -0.3207  0.6069 -0.2293
   26MPD2    C4  407   2.893   4.155  11.321 -0.2303 -0.3737 -0.0155
   26MPD2    C5  408   2.848   4.025  11.305  0.5660  0.3322  0.1920
   26MPD2     H  409   2.939   4.233  11.004  0.6629 -0.8555 -0.2706
   26MPD2    H1  410   2.881   4.192  11.423  0.9792 -1.9516  0.7049
   26MPD2    H2  411   2.798   3.870  11.156  0.3387 -0.6232  0.8874
   26MPD2    H3  412   2.801   3.970  11.386  3.5844  1.7366  2.8822
   26MPD2     N  413   2.962   4.367  11.218  0.0738  0.3782 -0.0376
   26MPD2    H5  414   3.000   4.410  11.135 -2.8253  1.8933 -0.6068
   26MPD2    N1  415   2.833   3.999  10.945 -0.0213  0.5420  0.1104
   26MPD2    H7  416   2.800   3.905  10.926 -3.7918  1.7567  0.7240
   27TMC2    C1  417   1.909   1.457  12.016  0.2360  0.5944  0.2437
   27TMC2    C2  418   1.819   1.530  11.947 -0.2469 -1.1310 -0.1900
   27TMC2    C3  419   1.866   1.648  11.906 -0.2876  0.5652 -0.8292
   27TMC2    C4  420   2.039   1.495  12.032  0.5018  0.1722  0.2406
   27TMC2    C5  421   2.069   1.628  12.018  0.0076  0.2992 -0.6405
   27TMC2    C6  422   1.985   1.709  11.944  0.4145 -0.6130  0.3562
   27TMC2     C  423   1.856   1.411  12.143 -0.5387 -0.2881 -0.2475
   27TMC2     O  424   1.915   1.311  12.173 -0.0312  0.2509  0.0191
   27TMC2     H  425   1.715   1.513  11.923 -0.4365  0.0134 -0.2173
   27TMC2    H1  426   2.107   1.443  12.098  1.5942  1.5536  0.1907
   27TMC2    H2  427   2.001   1.808  11.904 -0.1216 -1.4210 -1.8497
   27TMC2    C7  428   2.066   1.680  12.154 -0.3655  0.9912 -0.1551
   27TMC2    C8  429   1.771   1.733  11.837  0.0188  0.3902 -0.2105
   27TMC2    O1  430   2.107   1.606  12.246 -0.4626 -0.0697  0.0856
   27TMC2    O2  431   1.769   1.850  11.863  0.5923  0.1706 -0.2416
   27TMC2    O5  432   1.744   1.676  11.718 -0.8014 -0.4438 -0.5340
   27TMC2    H5  433   1.752   1.579  11.715 -0.1011 -0.3749 -0.8944
   28MPD2     C  434   1.593   1.442  12.573  0.1746 -0.4194  0.2568
   28MPD2    C1  435   1.571   1.558  12.499 -0.1325  0.0121  0.1130
   28MPD2    C2  436   1.641   1.586  12.384  0.1179 -0.2322 -0.1881
   28MPD2    C3  437   1.722   1.487  12.329  0.2333 -0.5719 -0.4858
   28MPD2    C4  438   1.750   1.373  12.410  0.4403  0.0308  0.0780
   28MPD2    C5  439   1.688   1.348  12.529  1.3350  0.3427 -0.2908
   28MPD2     H  440   1.630   1.675  12.323  2.7719 -0.5593 -1.1433
   28MPD2    H1  441   1.799   1.283  12.375  0.6053 -0.7975  2.4463
   28MPD2    H2  442   1.561   1.426  12.676  0.4222  0.0475  0.4085
   28MPD2    H3  443   1.714   1.267  12.596  0.3448 -1.3009 -1.8847
   28MPD2     N  444   1.768   1.500  12.196 -0.1752  0.5516  0.4797
   28MPD2    H5  445   1.741   1.588  12.153  0.1010  0.8597  0.9356
   28MPD2    N1  446   1.482   1.658  12.544  0.9231 -0.1313  0.1646
   28MPD2    H7  447   1.464   1.732  12.478 -1.0736 -1.0903 -0.3609
   29TMC2    C1  448   1.870   3.821  14.500  0.4628 -0.4989 -0.0170
   29TMC2    C2  449   2.002   3.797  14.493 -0.3621  0.4322  0.0613
   29TMC2    C3  450   2.095   3.897  14.479  0.0401  0.6069  0.1690
   29TMC2    C4  451   1.830   3.950  14.483  0.3192  1.1455  0.7811
   29TMC2    C5  452   1.917   4.051  14.448 -0.5042  0.2434  0.2308
   29TMC2    C6  453   2.051   4.021  14.448  0.4780  1.1352  0.3139
   29TMC2     C  454   1.786   3.731  14.430 -0.0968 -0.1024  0.2022
   29TMC2     O  455   1.830   3.618  14.421 -0.8835 -0.6147 -0.3832
   29TMC2     H  456   2.035   3.694  14.485 -1.6460  0.0530 -0.2815
   29TMC2    H1  457   1.728   3.983  14.498  0.1106  0.6939  0.3530
   29TMC2    H2  458   2.120   4.101  14.422 -0.6185  2.1949  0.7042
   29TMC2    C7  459   1.871   4.188  14.444  0.0252 -0.2008  0.1631
   29TMC2    C8  460   2.240   3.873  14.495 -0.7120  0.3276 -0.0406
   29TMC2    O1  461   1.751   4.204  14.415 -0.3105 -0.4796  0.4551
   29TMC2    O2  462   2.326   3.959  14.475 -0.2394 -0.1184  0.0885
   29TMC2    O5  463   2.265   3.753  14.553 -0.0091  0.2586  0.7821
   29TMC2    H5  464   2.186   3.709  14.592 -1.0996 -1.1715 -3.1095
   30MPD2     C  465   1.419   3.655  14.082  0.3652 -0.0088  0.0202
   30MPD2    C1  466   1.531   3.583  14.118 -0.4438  0.0090 -0.5770
   30MPD2    C2  467   1.607   3.611  14.231 -0.3981 -0.0263  0.2937
   30MPD2    C3  468   1.582   3.732  14.290 -0.5361  0.0614  0.1389
   30MPD2    C4  469   1.473   3.801  14.252 -0.7988  0.0335 -0.1866
   30MPD2    C5  470   1.386   3.757  14.155  0.5657 -0.1802 -0.0574
   30MPD2     H  471   1.692   3.548  14.250  0.7478  0.9656 -1.4943
   30MPD2    H1  472   1.455   3.895  14.304  1.2835  0.7356 -0.7526
   30MPD2    H2  473   1.362   3.641  13.991  2.1432  1.4444 -1.3321
   30MPD2    H3  474   1.302   3.814  14.117  0.8798  2.2216  2.8500
   30MPD2     N  475   1.670   3.787  14.382  0.6605 -0.7615 -0.2132
   30MPD2    H5  476   1.642   3.884  14.397  2.0276 -0.4257  0.1682
   30MPD2    N1  477   1.580   3.473  14.054 -0.5398 -0.3951 -0.5487
   30MPD2    H7  478   1.671   3.437  14.078 -1.3946 -0.7836  2.0370
   31TMC2    C1  479   3.818   2.828  15.493  0.2019  0.3730 -0.1958
   31TMC2    C2  480   3.689   2.835  15.452 -0.0757  0.1343  0.1010
   31TMC2    C3  481   3.596   2.813  15.542 -0.1499  0.3016  0.6662
   31TMC2    C4  482   3.852   2.804  15.622  0.8804 -0.7207  0.7266
   31TMC2    C5  483   3.755   2.786  15.711  0.0568 -0.4098 -0.5741
   31TMC2    C6  484   3.627   2.806  15.673 -0.3141 -0.1879  0.2245
   31TMC2     C  485   3.913   2.830  15.389 -0.0183  0.0602 -0.3258
   31TMC2     O  486   3.885   2.890  15.288 -0.4581  0.2966  0.0416
   31TMC2     H  487   3.663   2.851  15.348 -0.1982 -0.8512 -0.0178
   31TMC2    H1  488   3.954   2.813  15.657 -0.2433  1.7448  3.3200
   31TMC2    H2  489   3.550   2.795  15.749  0.2393  0.8673  0.9416
   31TMC2    C7  490   3.778   2.799  15.852  0.6121  0.4431 -0.2162
   31TMC2    C8  491   3.469   2.820  15.493  0.1630 -0.1201 -0.3660
   31TMC2    O1  492   3.702   2.745  15.931  0.1908  0.4708  0.1468
   31TMC2    O2  493   3.444   2.890  15.398  0.4618 -0.1715  0.2244
   31TMC2    O5  494   3.390   2.756  15.579  0.1437 -0.6008  0.4437
   31TMC2    H5  495   3.441   2.699  15.641  2.2178 -0.7899 -1.4257
   32MPD2     C  496   4.332   2.654  15.150 -0.1651  0.4191  0.4251
   32MPD2    C1  497   4.244   2.757  15.114  0.1772 -0.4501 -0.0395
   32MPD2    C2  498   4.126   2.776  15.193 -0.2732 -0.8734 -0.2747
   32MPD2    C3  499   4.111   2.712  15.313 -0.5648 -0.3864 -0.6099
   32MPD2    C4  500   4.201   2.614  15.347  0.0976 -0.6677 -0.3856
   32MPD2    C5  501   4.309   2.585  15.266 -0.2988 -0.1481  1.3599
   32MPD2     H  502   4.071   2.867  15.174  0.6576 -0.3581 -0.5425
   32MPD2    H1  503   4.197   2.570  15.446 -0.3577 -0.4104 -0.2871
   32MPD2    H2  504   4.423   2.639  15.093 -1.7464 -0.7693 -1.7372
   32MPD2    H3  505   4.374   2.505  15.298  1.7438  0.0566 -2.2399
   32MPD2     N  506   4.013   2.747  15.414 -0.6306  0.0007  0.1800
   32MPD2    H5  507   4.003   2.687  15.496  0.6814 -0.4380  0.0190
   32MPD2    N1  508   4.265   2.835  15.002  0.3153 -0.3483  0.2837
   32MPD2    H7  509   4.186   2.892  14.975  0.8522 -0.1341 -0.8387
   33TMC2    C1  510   3.344   0.773  10.489  0.8069 -0.5628  0.0947
   33TMC2    C2  511   3.221   0.734  10.446 -0.6393 -0.0827  0.5216
   33TMC2    C3  512   3.147   0.824  10.384  0.5691  0.1849 -0.6276
   33TMC2    C4  513   3.397   0.901  10.481 -0.5114 -0.2633  1.0900
   33TMC2    C5  514   3.309   0.993  10.433 -0.6525 -0.6889  0.0029
   33TMC2    C6  515   3.185   0.952  10.378  0.5179 -0.3832 -0.5363
   33TMC2     C  516   3.404   0.671  10.573 -1.2719  0.0735 -0.0158
   33TMC2     O  517   3.341   0.584  10.631 -0.8222 -0.2901 -0.0098
   33TMC2     H  518   3.200   0.628  10.450 -1.2678 -0.0714 -3.3902
   33TMC2    H1  519   3.479   0.932  10.546  1.4260 -1.0598 -0.9905
   33TMC2    H2  520   3.132   1.025  10.318  0.0071 -0.1478  0.2040
   33TMC2    C7  521   3.371   1.116  10.387 -0.0324 -0.0710 -0.0303
   33TMC2    C8  522   3.062   0.776  10.279  0.5318 -0.4736  0.4624
   33TMC2    O1  523   3.490   1.117  10.380  0.4425 -0.4144 -0.3105
   33TMC2    O2  524   3.028   0.844  10.184 -0.1712  0.0196 -0.4733
   33TMC2    O5  525   2.983   0.677  10.337  0.0683  0.3052  0.0962
   33TMC2    H5  526   3.002   0.659  10.432  1.5044  1.7692  0.0861
   34MPD2     C  527   3.822   0.542  10.854 -0.1347  0.0211  0.4067
   34MPD2    C1  528   3.697   0.487  10.844  0.8848  0.0107 -0.3928
   34MPD2    C2  529   3.605   0.538  10.762 -0.5331 -0.3826  0.0120
   34MPD2    C3  530   3.623   0.638  10.682 -0.0305  0.3749  0.4363
   34MPD2    C4  531   3.747   0.699  10.689 -0.7908  0.5162  0.4496
   34MPD2    C5  532   3.848   0.650  10.774  0.0212  0.0379 -0.5674
   34MPD2     H  533   3.503   0.501  10.757 -1.1188  1.1521  0.7363
   34MPD2    H1  534   3.768   0.783  10.624 -0.5310  0.6247  0.6716
   34MPD2    H2  535   3.890   0.510  10.933  0.5760 -0.2240 -0.3014
   34MPD2    H3  536   3.939   0.708  10.787  1.3289 -2.1326  0.0422
   34MPD2     N  537   3.536   0.697  10.589  0.3539 -0.9003 -0.9404
   34MPD2    H5  538   3.578   0.775  10.538  0.7324 -0.5816 -0.1385
   34MPD2    N1  539   3.666   0.378  10.931  0.0179 -0.2081  0.1183
   34MPD2    H7  540   3.744   0.361  10.993  2.1245  0.2569 -2.4262
   35TMC2    C1  541   4.684   1.937  11.363  0.4185  0.5461 -0.3914
   35TMC2    C2  542   4.603   2.050  11.347  0.7612 -0.6788  0.2607
   35TMC2    C3  543   4.472   2.024  11.375  0.3494  0.8693  0.3486
   35TMC2    C4  544   4.640   1.810  11.403 -0.2028 -0.6460 -0.1882
   35TMC2    C5  545   4.504   1.793  11.422  0.4498 -0.5155 -0.6719
   35TMC2    C6  546   4.423   1.901  11.420 -0.2973  0.8723 -0.7558
   35TMC2     C  547   0.090   1.967  11.360  0.1089  0.2855  0.5400
   35TMC2     O  548   0.121   2.068  11.301  0.3155  0.8531 -0.1549
   35TMC2     H  549   4.635   2.149  11.315  0.3916  0.3836  3.2535
   35TMC2    H1  550   4.707   1.727  11.421 -1.8525 -1.6770  1.2640
   35TMC2    H2  551   4.323   1.894  11.462  0.4638  1.8291  1.2596
   35TMC2    C7  552   4.459   1.671  11.496  1.0941  0.1338 -0.1270
   35TMC2    C8  553   4.369   2.129  11.362  0.2350  0.1170  0.2305
   35TMC2    O1  554   4.549   1.604  11.545 -0.0310  0.3488  0.4866
   35TMC2    O2  555   4.280   2.138  11.450  0.5185  0.4330 -0.1841
   35TMC2    O5  556   4.423   2.230  11.288 -0.4209 -0.2064 -0.2035
   35TMC2    H5  557   4.490   2.199  11.224  0.8494 -0.2587  1.1427
   36MPD2     C  558   0.589   1.943  11.458 -0.1300 -0.3319 -0.0165
   36MPD2    C1  559   0.527   1.869  11.553 -0.3331  0.0244  0.4326
   36MPD2    C2  560   0.389   1.839  11.534  0.3807 -0.0895 -0.7086
   36MPD2    C3  561   0.311   1.911  11.441 -0.1121 -0.9101  0.4403
   36MPD2    C4  562   0.379   1.992  11.348  0.8465 -0.9704  0.1162
   36MPD2    C5  563   0.517   2.008  11.361  0.2679  0.0554  0.1944
   36MPD2     H  564   0.338   1.781  11.610 -1.5095  1.2094 -0.9663
   36MPD2    H1  565   0.334   2.023  11.254 -0.7163 -3.0740  0.1693
   36MPD2    H2  566   0.694   1.968  11.465 -0.3141  0.3602  0.2775
   36MPD2    H3  567   0.573   2.067  11.289  1.1230 -1.6028 -0.5031
   36MPD2     N  568   0.173   1.892  11.440  0.4680 -0.1901  0.1264
   36MPD2    H5  569   0.132   1.814  11.491 -0.2173  0.1706  0.1357
   36MPD2    N1  570   0.608   1.822  11.656  0.0948 -0.1192  0.1051
   36MPD2    H7  571   0.706   1.842  11.640 -0.0238  0.7001  0.4045
   37TMC2    C1  572   2.905   1.944  11.442 -0.2301 -0.6739 -0.8833
   37TMC2    C2  573   2.830   1.937  11.327 -0.0740 -0.8076 -0.2421
   37TMC2    C3  574   2.898   1.949  11.205  0.1658  0.1983 -0.3221
   37TMC2    C4  575   3.043   1.960  11.449  0.1540 -0.3136 -0.6244
   37TMC2    C5  576   3.108   1.976  11.327 -0.2228  0.4440 -0.0791
   37TMC2    C6  577   3.038   1.969  11.209  0.0349 -0.2629  0.0976
   37TMC2     C  578   2.835   1.925  11.565  0.2525 -0.3238  0.9303
   37TMC2     O  579   2.725   1.871  11.563  0.1940 -0.0369 -0.0048
   37TMC2     H  580   2.722   1.932  11.333 -0.0979  1.8159  1.1721
   37TMC2    H1  581   3.100   1.954  11.540 -2.0367  2.1933  0.9128
   37TMC2    H2  582   3.088   1.981  11.114  1.2989 -0.9960  0.6755
   37TMC2    C7  583   3.240   2.032  11.338  0.0617 -0.0859  0.2290
   37TMC2    C8  584   2.835   1.917  11.072  0.3765  0.4023 -0.8481
   37TMC2    O1  585   3.273   2.069  11.449  0.3764 -0.3490  0.2997
   37TMC2    O2  586   2.901   1.926  10.969  0.1063  0.2251 -0.0680
   37TMC2    O5  587   2.721   1.838  11.084 -0.4645  0.2620  0.7607
   37TMC2    H5  588   2.706   1.804  11.175  0.3531  2.3869  1.7067
   38MPD2     C  589   2.826   1.977  12.074  0.6446  0.2409  0.0123
   38MPD2    C1  590   2.936   2.041  12.028 -0.5453  0.3352 -0.1723
   38MPD2    C2  591   2.960   2.032  11.889  0.3254 -0.2550 -0.7178
   38MPD2    C3  592   2.875   1.975  11.804 -0.5124 -0.6942 -0.3584
   38MPD2    C4  593   2.758   1.923  11.855  0.4704  0.1248 -0.0532
   38MPD2    C5  594   2.736   1.931  11.986 -0.3545 -0.3957 -0.1939
   38MPD2     H  595   3.052   2.080  11.858  0.4310 -0.7841 -1.2040
   38MPD2    H1  596   2.674   1.892  11.794  0.8063 -2.1254  0.6332
   38MPD2    H2  597   2.810   1.960  12.179  0.6614 -0.2575 -0.0616
   38MPD2    H3  598   2.651   1.889  12.038  0.4800 -0.5067  1.0926
   38MPD2     N  599   2.910   1.970  11.671 -0.3020 -0.0929 -0.2785
   38MPD2    H5  600   3.004   2.000  11.648  0.0085 -0.4464  0.5210
   38MPD2    N1  601   3.035   2.099  12.109 -0.4145 -0.1988  0.3880
   38MPD2    H7  602   3.112   2.150  12.067 -0.0597 -0.6076  0.5356
   39TMC2    C1  603   1.182   3.411   1.297  0.7641  0.7733 -0.8529
   39TMC2    C2  604   1.290   3.389   1.376 -0.3132  0.1661 -0.5206
   39TMC2    C3  605   1.348   3.497   1.446  0.0848  0.4271  0.1112
   39TMC2    C4  606   1.126   3.531   1.293 -0.5534  0.1478  0.5667
   39TMC2    C5  607   1.182   3.639   1.366  0.4101 -0.1203 -0.2020
   39TMC2    C6  608   1.295   3.625   1.443 -0.2943 -0.6276  0.6323
   39TMC2     C  609   1.106   3.292   1.250 -0.4304 -0.2396 -0.0759
   39TMC2     O  610   0.983   3.308   1.243  0.4226  0.4114  1.2894
   39TMC2     H  611   1.333   3.290   1.376 -1.3193 -0.2711 -0.1644
   39TMC2    H1  612   1.053   3.562   1.219 -1.3109 -0.3179  1.1169
   39TMC2    H2  613   1.341   3.710   1.492 -0.8858  0.9202 -1.5069
   39TMC2    C7  614   1.149   3.766   1.320  0.1822 -0.4112 -0.3582
   39TMC2    C8  615   1.479   3.469   1.504 -0.2555 -0.2769 -0.3185
   39TMC2    O1  616   1.028   3.791   1.302 -0.3913 -0.0798 -1.1046
   39TMC2    O2  617   1.546   3.369   1.473 -0.1578  0.0089 -0.0571
   39TMC2    O5  618   1.467   3.518   1.628 -0.1935  0.5524  0.0437
   39TMC2    H5  619   1.393   3.581   1.645 -2.0650 -1.6325 -0.0337
   40MPD2     C  620   1.201   2.966   1.105  0.2881  0.7036 -0.2773
   40MPD2    C1  621   1.117   3.057   1.157  0.1160  0.0125 -0.6025
   40MPD2    C2  622   0.975   3.028   1.154 -0.0250  0.2915 -0.0186
   40MPD2    C3  623   0.925   2.908   1.108 -0.3810 -0.2676  0.0825
   40MPD2    C4  624   1.021   2.830   1.046 -0.0013 -0.0056  0.1100
   40MPD2    C5  625   1.154   2.854   1.042  0.0588 -0.1886 -1.0996
   40MPD2     H  626   0.905   3.107   1.178 -0.7207 -0.4119  0.3105
   40MPD2    H1  627   0.998   2.727   1.023  3.6421 -1.0914  1.2490
   40MPD2    H2  628   1.308   2.980   1.117  0.3011 -0.2487  0.7586
   40MPD2    H3  629   1.229   2.791   0.996  2.7630  1.4134  1.1577
   40MPD2     N  630   0.786   2.872   1.094  0.0866 -0.8950 -0.2217
   40MPD2    H5  631   0.766   2.788   1.041  0.2206 -2.2402  1.8413
   40MPD2    N1  632   1.172   3.178   1.213  0.0505 -0.1418 -0.2595
   40MPD2    H7  633   1.272   3.198   1.212  0.2648 -1.0083  5.3049
   41TMC2    C1  634   0.084   2.066  13.510  0.7301 -0.2230  0.2017
   41TMC2    C2  635   0.194   2.018  13.570 -0.7865 -0.2351  0.5982
   41TMC2    C3  636   0.305   2.005  13.491 -0.4072 -0.1300  0.8117
   41TMC2    C4  637   0.081   2.094  13.378  0.6758 -0.3209 -0.0295
   41TMC2    C5  638   0.190   2.074  13.301  0.3077  0.0608  1.0176
   41TMC2    C6  639   0.307   2.037  13.362 -0.1150  0.6182  0.1997
   41TMC2     C  640   4.690   2.016  13.554  0.2294 -0.3562  0.1226
   41TMC2     O  641   4.598   1.993  13.476 -0.2336 -0.2352  0.0763
   41TMC2     H  642   0.199   2.001  13.677  0.0363 -1.3993  0.3800
   41TMC2    H1  643   4.722   2.132  13.341  0.9862  0.0672 -0.4213
   41TMC2    H2  644   0.400   2.027  13.307 -1.0244 -0.2661 -1.1668
   41TMC2    C7  645   0.205   2.155  13.184 -0.3536  0.1664 -0.0018
   41TMC2    C8  646   0.422   1.962  13.568 -0.3215 -0.6967  0.0195
   41TMC2    O1  647   0.144   2.263  13.178 -0.0514  0.0320 -0.0157
   41TMC2    O2  648   0.407   1.884  13.660  0.0796 -0.2183 -0.0638
   41TMC2    O5  649   0.530   2.041  13.536  0.3231  0.3251  0.2673
   41TMC2    H5  650   0.498   2.107  13.470  1.4632 -1.3279 -1.9182
   42MPD2     C  651   4.507   1.835  13.712  0.0027  0.1484  0.2679
   42MPD2    C1  652   4.603   1.917  13.769  0.2130  0.1345 -0.3849
   42MPD2    C2  653   4.614   1.920  13.905 -0.3439  0.3107 -0.4569
   42MPD2    C3  654   4.547   1.827  13.993 -0.8412  0.3682  0.0107
   42MPD2    C4  655   4.454   1.748  13.931 -0.5224 -1.2009 -0.1684
   42MPD2    C5  656   4.432   1.750  13.799 -0.2373 -0.2146 -0.1264
   42MPD2     H  657   4.687   1.991  13.941  0.7814 -0.9705 -0.1708
   42MPD2    H1  658   4.391   1.682  13.988  0.3355 -1.4924  0.4478
   42MPD2    H2  659   4.493   1.823  13.605  1.2526 -1.1739  0.2623
   42MPD2    H3  660   4.359   1.680  13.761 -2.4456  0.7179  2.3305
   42MPD2     N  661   4.554   1.836  14.143 -0.1361  0.3875  0.3681
   42MPD2    H5  662   4.483   1.781  14.188  0.1880  1.3617  2.0747
   42MPD2    N1  663   4.687   2.004  13.694 -0.0944 -0.2949 -0.1005
   42MPD2    H7  664   0.028   2.041  13.751 -1.3077  1.2194  0.5187
   43TMC2    C1  665   1.564   0.110   0.506  0.3748  0.1714  0.1795
   43TMC2    C2  666   1.466   0.168   0.572  0.2207  0.1394 -0.5953
   43TMC2    C3  667   1.490   0.292   0.616  0.6213 -0.0440  0.5991
   43TMC2    C4  668   1.678   0.171   0.462  0.6784 -0.7176  0.5042
   43TMC2    C5  669   1.686   0.299   0.500  0.2273 -0.2098 -0.1350
   43TMC2    C6  670   1.602   0.357   0.587 -0.4018  0.7935 -0.6600
   43TMC2     C  671   1.561   4.704   0.481  0.6102  0.5827 -0.6206
   43TMC2     O  672   1.670   4.659   0.445 -0.3903  0.2290 -0.2610
   43TMC2     H  673   1.389   0.102   0.610  1.8308 -0.8479  0.9488
   43TMC2    H1  674   1.756   0.120   0.407 -1.0157 -2.1804 -0.5355
   43TMC2    H2  675   1.608   0.461   0.616  0.0791  0.3650  0.7736
   43TMC2    C7  676   1.820   0.347   0.481 -0.1163 -0.8087  0.0921
   43TMC2    C8  677   1.380   0.376   0.654  0.2215 -0.5962 -0.0588
   43TMC2    O1  678   1.878   0.313   0.379  0.8506 -0.0848 -0.1115
   43TMC2    O2  679   1.395   0.459   0.741  0.6812  0.1640 -0.4159
   43TMC2    O5  680   1.270   0.303   0.632  0.2543 -0.1029  0.2453
   43TMC2    H5  681   1.280   0.246   0.553  0.0058 -0.2849  0.3479
   44MPD2     C  682   1.354   4.260   0.372  0.1711 -0.7614  0.5159
   44MPD2    C1  683   1.483   4.295   0.371 -0.4250  0.2148  0.5091
   44MPD2    C2  684   1.520   4.421   0.413 -0.0313  0.4951 -0.3326
   44MPD2    C3  685   1.421   4.516   0.440 -0.1114  0.0848 -0.3908
   44MPD2    C4  686   1.289   4.479   0.429 -0.1344  0.2917 -0.0811
   44MPD2    C5  687   1.253   4.346   0.400 -0.6884 -0.6297 -0.4657
   44MPD2     H  688   1.624   4.454   0.415 -0.8410  2.9585  0.3947
   44MPD2    H1  689   1.204   4.546   0.444  0.6276  0.6726  2.6008
   44MPD2    H2  690   1.319   4.162   0.343 -0.4269 -0.7751  1.2902
   44MPD2    H3  691   1.150   4.318   0.385 -0.3685 -1.6434 -0.7807
   44MPD2     N  692   1.440   4.646   0.480  0.2671 -0.6319 -0.0909
   44MPD2    H5  693   1.352   4.690   0.504  0.4579 -0.3398  0.0776
   44MPD2    N1  694   1.579   4.202   0.319 -0.2345  0.2956 -0.0665
   44MPD2    H7  695   1.678   4.223   0.330 -0.4443  1.4281 -0.3523
   45TMC2    C1  696   1.084   2.946   9.486  0.2473 -0.0699  0.2956
   45TMC2    C2  697   1.124   2.815   9.487  0.6061 -0.6020  0.3562
   45TMC2    C3  698   1.256   2.795   9.476  0.1323 -0.2292 -0.5888
   45TMC2    C4  699   1.172   3.051   9.504  0.9669 -0.6652  0.3616
   45TMC2    C5  700   1.304   3.021   9.495  0.0378  0.0777  0.4620
   45TMC2    C6  701   1.347   2.899   9.473 -0.0645 -0.4958 -0.0431
   45TMC2     C  702   0.940   2.988   9.489 -0.1864  0.2337 -0.3557
   45TMC2     O  703   0.914   3.109   9.477  0.6825  0.0756 -0.0896
   45TMC2     H  704   1.053   2.733   9.488  0.4077 -0.3975  2.4017
   45TMC2    H1  705   1.139   3.154   9.509  2.7703 -0.1492  1.5238
   45TMC2    H2  706   1.447   2.878   9.438 -0.5547 -1.6935 -0.7240
   45TMC2    C7  707   1.403   3.121   9.503 -0.1168  0.0274  0.2996
   45TMC2    C8  708   1.315   2.663   9.484 -0.2980  0.7111 -0.0504
   45TMC2    O1  709   1.517   3.086   9.535 -0.4320  0.0773  0.1751
   45TMC2    O2  710   1.262   2.554   9.457 -0.6885  0.1061  0.1278
   45TMC2    O5  711   1.427   2.679   9.564 -0.1530  0.1596  0.2608
   45TMC2    H5  712   1.431   2.771   9.598 -0.6885  0.9733 -1.8428
   46MPD2     C  713   0.656   3.039   9.571 -0.2285  0.2641  0.1401
   46MPD2    C1  714   0.712   2.911   9.551  0.4863  0.8513  0.0913
   46MPD2    C2  715   0.631   2.798   9.580 -0.2017 -0.1499  0.1704
   46MPD2    C3  716   0.500   2.811   9.612  0.2471  0.1153 -0.0800
   46MPD2    C4  717   0.443   2.935   9.632 -0.6576 -0.1964 -0.7663
   46MPD2    C5  718   0.522   3.051   9.616  0.3167  1.0368  0.0871
   46MPD2     H  719   0.675   2.701   9.560 -0.0675  0.4513 -2.3398
   46MPD2    H1  720   0.344   2.949   9.673  0.9208 -0.4161  3.1132
   46MPD2    H2  721   0.715   3.130   9.562 -1.1852  0.8270 -0.5143
   46MPD2    H3  722   0.481   3.146   9.649 -2.3185 -0.8915  2.3906
   46MPD2     N  723   0.426   2.696   9.648  0.2536  0.5423 -0.0730
   46MPD2    H5  724   0.482   2.612   9.661 -0.2575 -0.3347 -3.6044
   46MPD2    N1  725   0.851   2.890   9.522  0.0627 -0.4356  0.4403
   46MPD2    H7  726   0.876   2.792   9.528 -0.4385 -0.6681 -1.3990
   47TMC2    C1  727   3.788   3.611   9.611  0.2401  0.2166 -0.4573
   47TMC2    C2  728   3.772   3.741   9.581 -0.0368 -0.0315 -0.5363
   47TMC2    C3  729   3.641   3.784   9.590  0.5534  0.8136  0.1704
   47TMC2    C4  730   3.686   3.525   9.642 -0.1542  0.3184 -0.3560
   47TMC2    C5  731   3.560   3.576   9.638  0.0559  0.1482 -0.0456
   47TMC2    C6  732   3.535   3.710   9.626  0.1725  0.7234  0.1176
   47TMC2     C  733   3.924   3.580   9.639 -0.1119  0.0728 -0.1773
   47TMC2     O  734   4.000   3.677   9.636 -0.5576 -0.1513 -0.1894
   47TMC2     H  735   3.850   3.810   9.552  0.5687 -0.0243  1.0752
   47TMC2    H1  736   3.705   3.419   9.647 -2.7388  0.0173  2.4048
   47TMC2    H2  737   3.436   3.755   9.623 -0.0387  0.4016  2.1810
   47TMC2    C7  738   3.451   3.486   9.643 -0.1573  0.4710 -0.2682
   47TMC2    C8  739   3.616   3.925   9.564 -0.1638  0.6705 -0.6063
   47TMC2    O1  740   3.343   3.536   9.617  0.2105 -0.1462  0.1895
   47TMC2    O2  741   3.524   3.997   9.604  0.8079  0.7576 -0.1560
   47TMC2    O5  742   3.682   3.955   9.454 -0.1523 -0.2378 -0.1195
   47TMC2    H5  743   3.735   3.891   9.404 -2.0434 -1.2492 -0.8186
   48MPD2     C  744   4.183   3.494   9.766 -0.1909 -1.0697  0.1628
   48MPD2    C1  745   4.069   3.410   9.740  0.8125 -0.2489  0.1084
   48MPD2    C2  746   4.085   3.281   9.769  0.2450 -0.0776  0.3853
   48MPD2    C3  747   4.199   3.229   9.814  0.4898  1.5981  0.0379
   48MPD2    C4  748   4.312   3.307   9.825  0.1348  0.9989  0.8844
   48MPD2    C5  749   4.301   3.437   9.795  0.0727  0.1741 -0.0737
   48MPD2     H  750   4.008   3.208   9.746  0.0859  0.6126 -1.3062
   48MPD2    H1  751   4.407   3.269   9.861  0.7351  1.4254 -0.2451
   48MPD2    H2  752   4.190   3.599   9.740  0.5800 -0.7383  1.7161
   48MPD2    H3  753   4.386   3.503   9.790 -0.2397  0.4277 -2.1137
   48MPD2     N  754   4.209   3.086   9.832 -0.4654  0.2842 -0.1758
   48MPD2    H5  755   4.129   3.024   9.822 -1.4794  1.3273  1.3817
   48MPD2    N1  756   3.947   3.457   9.688  0.8267 -0.1685 -0.0375
   48MPD2    H7  757   3.870   3.392   9.676  0.6000 -0.2504  1.8690
   49TMC2    C1  758   2.211   4.327  10.119  0.1303 -0.4051  0.7715
   49TMC2    C2  759   2.161   4.380  10.005  0.1984 -0.0276  0.5516
   49TMC2    C3  760   2.054   4.317   9.945 -0.0322  0.3934  0.0484
   49TMC2    C4  761   2.159   4.210  10.173 -0.4786 -0.4174  1.1011
   49TMC2    C5  762   2.047   4.152  10.115 -0.5615 -0.0686 -0.6394
   49TMC2    C6  763   2.006   4.205   9.991 -0.2502  0.5994  0.3943
   49TMC2     C  764   2.315   4.409  10.183  0.3129 -0.5002 -0.1612
   49TMC2     O  765   2.354   4.498  10.115  0.2278 -0.4075 -0.0063
   49TMC2     H  766   2.190   4.481   9.977 -1.9961 -0.0063 -1.6361
   49TMC2    H1  767   2.214   4.156  10.249  2.7853  0.3966 -0.6805
   49TMC2    H2  768   1.917   4.161   9.947 -0.7138  0.4276  1.4799
   49TMC2    C7  769   1.996   4.019  10.151 -0.2709  0.1080 -0.5335
   49TMC2    C8  770   2.007   4.370   9.822  0.2573  0.0620  0.0636
   49TMC2    O1  771   1.879   3.998  10.121  0.1421  0.0725 -0.4554
   49TMC2    O2  772   2.072   4.438   9.746 -0.5500 -0.4656 -0.1802
   49TMC2    O5  773   1.872   4.380   9.828 -0.3035 -0.2599 -0.0103
   49TMC2    H5  774   1.836   4.353   9.916  2.0214  2.2600  1.6837
   50MPD2     C  775   2.552   4.516  10.323  0.3473  1.1450 -0.3438
   50MPD2    C1  776   2.465   4.429  10.376 -0.3633  0.3998 -0.5773
   50MPD2    C2  777   2.474   4.398  10.511  0.1572 -0.3963 -0.0928
   50MPD2    C3  778   2.574   4.441  10.595  0.5239  0.1836 -0.0679
   50MPD2    C4  779   2.674   4.509  10.534  0.2214  0.2088  0.3418
   50MPD2    C5  780   2.660   4.548  10.402 -0.3568 -0.3272 -0.1150
   50MPD2     H  781   2.388   4.341  10.546  0.1530 -0.8323 -0.8223
   50MPD2    H1  782   2.750   4.565  10.588  0.7613  0.7494 -0.9942
   50MPD2    H2  783   2.551   4.547  10.219 -1.1223 -0.8248 -0.9041
   50MPD2    H3  784   2.731   4.618  10.360 -1.2413  1.3374  1.1690
   50MPD2     N  785   2.574   4.423  10.738 -0.3712 -0.0148 -0.0507
   50MPD2    H5  786   2.637   4.482  10.791  1.0723  0.1438 -1.9250
   50MPD2    N1  787   2.350   4.372  10.310 -0.2272  0.2361 -0.3552
   50MPD2    H7  788   2.296   4.312  10.372  0.5355 -0.0842 -0.0060
   51TMC2    C1  789   2.955   4.545   0.952  0.0794 -0.1564 -0.4581
   51TMC2    C2  790   2.854   4.635   0.979  0.0529 -0.1703  0.3970
   51TMC2    C3  791   2.872   4.724   1.078  1.5153  0.2923  0.3359
   51TMC2    C4  792   3.057   4.539   1.038  0.4878  0.1771 -0.1016
   51TMC2    C5  793   3.065   4.626   1.139  0.1859  0.2804  0.3060
   51TMC2    C6  794   2.982   4.734   1.153  0.1242 -0.5103 -0.4318
   51TMC2     C  795   2.932   4.417   0.880 -0.6638 -0.8434  0.5723
   51TMC2     O  796   2.999   4.317   0.908  0.3947 -0.8043  0.3133
   51TMC2     H  797   2.766   4.634   0.915  0.4912 -0.6142 -0.1982
   51TMC2    H1  798   3.123   4.454   1.032 -0.9530 -1.0322  1.1057
   51TMC2    H2  799   2.984   0.051   1.248  0.9492 -0.5746 -0.4171
   51TMC2    C7  800   3.128   4.579   1.267  0.3352  0.3644  0.4557
   51TMC2    C8  801   2.774   0.090   1.090 -0.4467  0.0385  0.7716
   51TMC2    O1  802   3.203   4.660   1.319 -0.0936  0.2450 -0.6738
   51TMC2    O2  803   2.687   0.099   1.002 -0.6070  0.2781 -0.8789
   51TMC2    O5  804   2.748   0.109   1.218 -0.1287 -0.1389  0.2758
   51TMC2    H5  805   2.795   0.048   1.279  0.6197 -0.1836 -0.3577
   52MPD2     C  806   2.642   4.143   0.556 -0.3969 -0.3906 -0.3060
   52MPD2    C1  807   2.721   4.095   0.662  0.7417 -0.2114  0.5148
   52MPD2    C2  808   2.783   4.187   0.739  0.4083 -0.3176 -0.6545
   52MPD2    C3  809   2.767   4.321   0.722 -0.5028 -1.2587 -0.0731
   52MPD2    C4  810   2.680   4.361   0.625  0.9000 -0.3052  0.3972
   52MPD2    C5  811   2.621   4.278   0.535 -0.1031 -0.2129  0.0702
   52MPD2     H  812   2.855   4.147   0.810  1.8501 -1.0742 -2.5266
   52MPD2    H1  813   2.655   4.466   0.619 -0.4774 -0.8314 -2.8660
   52MPD2    H2  814   2.609   4.077   0.477 -0.3213 -1.0249  0.1914
   52MPD2    H3  815   2.573   4.318   0.446 -2.2891 -1.1087  0.8393
   52MPD2     N  816   2.814   4.427   0.804  0.0357 -0.0159 -0.2352
   52MPD2    H5  817   2.769   4.517   0.793 -1.2002 -0.8667 -2.0031
   52MPD2    N1  818   2.738   3.960   0.679  0.2942 -0.3888 -0.0994
   52MPD2    H7  819   2.766   3.934   0.773 -1.2194 -0.0698  0.4503
   53TMC2    C1  820   3.636   2.663  11.370 -0.4220  0.1649  0.0896
   53TMC2    C2  821   3.680   2.776  11.314 -0.3843  0.6297  0.2505
   53TMC2    C3  822   3.623   2.891  11.367 -0.1229 -0.2123 -1.0667
   53TMC2    C4  823   3.555   2.654  11.487 -0.3107  0.2342 -0.2820
   53TMC2    C5  824   3.515   2.772  11.539  0.1949  0.8795  0.0004
   53TMC2    C6  825   3.552   2.889  11.484 -0.6086 -0.1061 -0.3719
   53TMC2     C  826   3.656   2.551  11.285 -0.4640 -0.1174  0.1795
   53TMC2     O  827   3.750   2.559  11.208 -0.4946  0.0121 -0.1869
   53TMC2     H  828   3.738   2.771  11.223 -1.3986 -0.6208 -0.3329
   53TMC2    H1  829   3.518   2.560  11.527  1.0666 -0.2944 -0.2726
   53TMC2    H2  830   3.511   2.984  11.514  1.0741  0.4859  0.0343
   53TMC2    C7  831   3.418   2.763  11.651  0.1368 -0.0881 -0.4085
   53TMC2    C8  832   3.679   3.016  11.332  0.3177 -0.1099 -0.2171
   53TMC2    O1  833   3.373   2.649  11.677  0.1861 -0.1842  0.3221
   53TMC2    O2  834   3.681   3.107  11.415 -0.1240 -0.3778 -0.0164
   53TMC2    O5  835   3.760   3.007  11.221  0.7696  0.4460 -0.3815
   53TMC2    H5  836   3.724   2.945  11.154 -3.0940  1.1498  1.0982
   54MPD2     C  837   3.641   2.286  11.153 -0.6338 -0.6789 -0.0751
   54MPD2    C1  838   3.549   2.324  11.248  1.2921  0.3191 -0.2895
   54MPD2    C2  839   3.439   2.245  11.275  0.3304  0.8658 -0.4872
   54MPD2    C3  840   3.425   2.130  11.198 -0.1292 -0.7409 -0.2336
   54MPD2    C4  841   3.518   2.081  11.111  0.4249 -0.5034  0.6509
   54MPD2    C5  842   3.621   2.167  11.097  0.4297 -0.2735  0.0283
   54MPD2     H  843   3.365   2.285  11.344  2.7852  0.7405  2.2085
   54MPD2    H1  844   3.523   1.983  11.064  0.4256 -0.7637  1.2009
   54MPD2    H2  845   3.737   2.334  11.138 -0.8963 -0.0812  0.1635
   54MPD2    H3  846   3.704   2.130  11.039  1.0131  0.5650  0.3425
   54MPD2     N  847   3.310   2.044  11.221  0.5053  0.8141  0.2379
   54MPD2    H5  848   3.297   1.964  11.159  0.5576  0.4383  0.7043
   54MPD2    N1  849   3.559   2.455  11.308  0.4711 -0.3502  0.2408
   54MPD2    H7  850   3.479   2.469  11.369 -0.9883 -0.0948 -1.7245
   55TMC2    C1  851   4.332   3.758   0.722  0.1016  0.0173  0.4762
   55TMC2    C2  852   4.394   3.692   0.620 -0.4428  0.2083 -0.0338
   55TMC2    C3  853   4.418   3.556   0.645  0.4058 -0.0922 -0.8322
   55TMC2    C4  854   4.303   3.702   0.837  0.5424 -0.1734 -1.1227
   55TMC2    C5  855   4.304   3.563   0.843 -0.2537 -0.5602  0.3685
   55TMC2    C6  856   4.370   3.486   0.756 -0.2659  0.5245  0.4781
   55TMC2     C  857   4.298   3.901   0.711  0.4830 -0.1570 -0.0599
   55TMC2     O  858   4.207   3.937   0.791 -0.0499 -0.2499 -0.0170
   55TMC2     H  859   4.405   3.740   0.524 -0.0827  2.6400  1.2231
   55TMC2    H1  860   4.283   3.764   0.924  1.1217 -2.4567  0.6244
   55TMC2    H2  861   4.385   3.379   0.771  0.6920  0.6164  0.1939
   55TMC2    C7  862   4.261   3.497   0.963  0.1979  0.5587  0.1398
   55TMC2    C8  863   4.499   3.487   0.558  0.7643 -0.5736  0.3076
   55TMC2    O1  864   4.288   3.379   0.969 -0.1436 -0.0468  0.1842
   55TMC2    O2  865   4.501   3.366   0.537 -0.0990  0.3573 -0.4159
   55TMC2    O5  866   4.556   3.582   0.480  0.2046  0.1436  1.0804
   55TMC2    H5  867   4.582   3.546   0.393 -1.1246  0.8418  0.3800
   56MPD2     C  868   4.432   4.153   0.469 -0.2567  0.0950  0.4552
   56MPD2    C1  869   4.338   4.097   0.559 -0.2175  0.0108  0.7110
   56MPD2    C2  870   4.221   4.163   0.585 -0.4350 -0.7485 -0.3235
   56MPD2    C3  871   4.201   4.282   0.516  0.3186  0.2397 -0.3289
   56MPD2    C4  872   4.292   4.333   0.425 -0.2315 -0.8863  0.8187
   56MPD2    C5  873   4.403   4.259   0.400 -0.2595 -0.2745 -0.8602
   56MPD2     H  874   4.143   4.126   0.650 -0.9822 -0.9392 -1.0945
   56MPD2    H1  875   4.281   4.433   0.384  0.6260 -1.0490  0.1950
   56MPD2    H2  876   4.519   4.094   0.445 -0.2393 -0.0168  0.7999
   56MPD2    H3  877   4.477   4.289   0.328 -1.2579  0.0047 -1.7635
   56MPD2     N  878   4.078   4.351   0.535 -0.3503 -0.1845 -0.4479
   56MPD2    H5  879   4.013   4.311   0.602  0.3864  3.0187  2.1681
   56MPD2    N1  880   4.366   3.967   0.607 -0.0694 -0.4375 -0.2840
   56MPD2    H7  881   4.448   3.922   0.567 -1.3701 -2.9001 -0.1934
   57TMC2    C1  882   3.274   0.887  13.666 -0.7843 -0.1860  0.1012
   57TMC2    C2  883   3.193   0.869  13.565 -0.6616 -0.4443 -0.0652
   57TMC2    C3  884   3.242   0.852  13.439  0.4723 -0.3117  0.0678
   57TMC2    C4  885   3.411   0.870  13.651  0.0195  0.5571 -0.7628
   57TMC2    C5  886   3.460   0.853  13.525  0.0261 -0.0553 -0.1452
   57TMC2    C6  887   3.373   0.846  13.416  0.7992  0.5556 -0.2531
   57TMC2     C  888   3.225   0.980  13.761 -0.0591  0.1033  0.1885
   57TMC2     O  889   3.135   1.054  13.726  0.1754 -0.3020 -0.5296
   57TMC2     H  890   3.087   0.891  13.562 -0.6515 -0.3489  0.2917
   57TMC2    H1  891   3.475   0.902  13.733 -0.0691  0.3047 -0.5958
   57TMC2    H2  892   3.400   0.811  13.317 -0.3104 -1.2289  0.0676
   57TMC2    C7  893   3.588   0.918  13.492 -0.3974  0.3921 -0.2662
   57TMC2    C8  894   3.146   0.863  13.326  0.3722  0.5373 -0.0847
   57TMC2    O1  895   3.599   1.026  13.549 -0.1631  0.5170 -0.4754
   57TMC2    O2  896   3.026   0.844  13.340  0.5759 -0.1892  0.8304
   57TMC2    O5  897   3.196   0.970  13.256  0.1283  0.2322  0.2552
   57TMC2    H5  898   3.280   1.005  13.292  0.4594  2.1746 -2.3977
   58MPD2     C  899   3.238   1.212  14.217  0.0379 -0.2039 -0.2419
   58MPD2    C1  900   3.153   1.232  14.109 -0.1467  0.4350  0.0320
   58MPD2    C2  901   3.171   1.156  13.996  0.0807 -0.2417 -0.2781
   58MPD2    C3  902   3.250   1.043  14.002  0.1692  0.7604 -0.6755
   58MPD2    C4  903   3.320   1.011  14.118 -0.3612  0.1694 -0.5652
   58MPD2    C5  904   3.322   1.099  14.218 -0.3181  0.3211 -0.3169
   58MPD2     H  905   3.119   1.184  13.905  0.7006 -0.8279 -0.8120
   58MPD2    H1  906   3.393   0.931  14.131  0.2337  0.9504  0.8811
   58MPD2    H2  907   3.242   1.282  14.300 -1.4391 -0.3606 -0.0300
   58MPD2    H3  908   3.396   1.076  14.294 -0.8007  0.5746  0.2366
   58MPD2     N  909   3.283   0.966  13.882  0.0259  0.0565  0.3640
   58MPD2    H5  910   3.357   0.898  13.894  0.1500 -0.1034 -1.2807
   58MPD2    N1  911   3.072   1.341  14.085  0.0878  0.5200 -0.4387
   58MPD2    H7  912   3.014   1.337  14.002  1.1914  1.6455 -1.2658
   59TMC2    C1  913   1.098   1.222  12.834 -0.0205 -0.6630 -0.5598
   59TMC2    C2  914   1.179   1.113  12.867 -0.0660 -0.1758 -0.2080
   59TMC2    C3  915   1.144   0.999  12.813  0.3724 -0.0825 -0.5067
   59TMC2    C4  916   0.989   1.216  12.748  0.1412  0.2230  0.1436
   59TMC2    C5  917   0.965   1.091  12.699 -0.1631 -0.7702  0.2051
   59TMC2    C6  918   1.036   0.980  12.732 -0.0822 -0.4420  0.7821
   59TMC2     C  919   1.131   1.350  12.909 -0.2051 -0.0952 -0.4529
   59TMC2     O  920   1.078   1.447  12.858 -0.6130  0.1411 -0.3589
   59TMC2     H  921   1.272   1.116  12.923 -0.1374  0.8701 -0.1534
   59TMC2    H1  922   0.938   1.308  12.722 -3.9073 -2.2200 -0.5108
   59TMC2    H2  923   1.015   0.886  12.683  2.2805 -0.9025  0.6644
   59TMC2    C7  924   0.867   1.076  12.595 -0.7067 -0.1769 -0.0193
   59TMC2    C8  925   1.241   0.884  12.802 -0.0713  0.1076 -0.3254
   59TMC2    O1  926   0.812   0.965  12.585 -0.8153 -0.9306  0.3942
   59TMC2    O2  927   1.354   0.902  12.751  0.2040 -0.9721  0.6996
   59TMC2    O5  928   1.218   0.806  12.909 -0.2864 -0.1836  0.3240
   59TMC2    H5  929   1.125   0.803  12.938 -0.0712 -0.9569  0.9324
   60MPD2     C  930   1.295   1.571  13.018  0.7094  0.2142 -0.6633
   60MPD2    C1  931   1.288   1.443  13.068 -0.0034  0.5500  0.0460
   60MPD2    C2  932   1.371   1.413  13.173 -0.5747 -0.1348 -0.3962
   60MPD2    C3  933   1.454   1.508  13.232 -0.3318  0.0078  0.6683
   60MPD2    C4  934   1.448   1.639  13.199 -0.5453 -0.2728  0.2760
   60MPD2    C5  935   1.371   1.667  13.086 -0.7289  0.0483 -0.4042
   60MPD2     H  936   1.370   1.308  13.196 -2.1201 -0.4110 -1.6785
   60MPD2    H1  937   1.496   1.715  13.260 -2.6148 -0.2161  1.8648
   60MPD2    H2  938   1.236   1.602  12.933 -0.2793 -0.7139 -0.3063
   60MPD2    H3  939   1.363   1.775  13.077  0.2902 -0.0210 -2.0510
   60MPD2     N  940   1.547   1.475  13.341  0.1133  0.4467 -0.6889
   60MPD2    H5  941   1.610   1.550  13.366  1.6719 -0.6278 -1.4238
   60MPD2    N1  942   1.210   1.340  13.018 -0.5982 -0.2165 -0.1580
   60MPD2    H7  943   1.219   1.248  13.061 -0.2423  0.0421  0.3174
   61TMC2    C1  944   0.374   2.652  15.007 -0.2169  0.9605 -0.1562
   61TMC2    C2  945   0.283   2.602  15.096  0.3459  0.0075 -0.1645
   61TMC2    C3  946   0.247   2.678  15.198  0.0600  0.4315 -0.5292
   61TMC2    C4  947   0.422   2.777  15.012 -0.4258  0.0258  0.4968
   61TMC2    C5  948   0.360   2.854  15.109 -0.4767  0.7219  0.3993
   61TMC2    C6  949   0.274   2.811  15.205 -0.8241  0.1346  0.6971
   61TMC2     C  950   0.434   2.569  14.902  0.2425  0.3269 -0.4540
   61TMC2     O  951   0.530   2.618  14.842  0.1541  0.5463  0.1965
   61TMC2     H  952   0.242   2.502  15.082 -0.1940  0.0166  1.3591
   61TMC2    H1  953   0.493   2.819  14.942  0.1447  0.3983  1.2913
   61TMC2    H2  954   0.231   2.878  15.278 -1.6302 -1.0374  1.2882
   61TMC2    C7  955   0.420   2.988  15.125  0.1823  0.0365 -0.0444
   61TMC2    C8  956   0.122   2.633  15.255  0.2682  0.5525 -0.2005
   61TMC2    O1  957   0.461   3.043  15.021  0.8690  0.4872  0.5393
   61TMC2    O2  958   0.122   2.538  15.332 -0.1638  0.1946  0.0542
   61TMC2    O5  959   0.024   2.655  15.162  0.3974 -0.1919  0.5821
   61TMC2    H5  960   0.044   2.734  15.108 -2.5078  0.2788  0.2308
   62MPD2     C  961   0.305   2.264  14.747  0.0308 -0.0976  0.0864
   62MPD2    C1  962   0.395   2.361  14.776 -0.5392 -0.9153  0.2687
   62MPD2    C2  963   0.511   2.354  14.708  0.0038  0.2088 -0.3786
   62MPD2    C3  964   0.534   2.261  14.605 -0.3327 -0.1474 -0.5739
   62MPD2    C4  965   0.447   2.156  14.586 -0.0837 -0.3020  0.2126
   62MPD2    C5  966   0.329   2.160  14.658 -1.3226  0.9436  0.3328
   62MPD2     H  967   0.592   2.420  14.738  0.8750 -1.6943  1.5028
   62MPD2    H1  968   0.472   2.085  14.508 -0.7047 -0.7374  0.4090
   62MPD2    H2  969   0.206   2.264  14.791  1.7192  0.9248  3.9431
   62MPD2    H3  970   0.263   2.077  14.635 -0.6942 -0.1416  2.4085
   62MPD2     N  971   0.657   2.267  14.533  0.2701 -0.0240 -0.0503
   62MPD2    H5  972   0.676   2.178  14.488 -0.5973  0.5526 -1.5673
   62MPD2    N1  973   0.354   2.458  14.873  0.4485  0.1495 -0.2053
   62MPD2    H7  974   0.266   2.442  14.920  1.5348  0.1684  1.8238
   63TMC2    C1  975   4.181   3.066  10.555 -0.0399  0.4362 -0.0148
   63TMC2    C2  976   4.310   3.048  10.604  1.8215  0.2278 -0.2529
   63TMC2    C3  977   4.399   3.144  10.569  0.5210  0.3604 -0.5568
   63TMC2    C4  978   4.140   3.162  10.456  0.2898 -0.7768 -0.7858
   63TMC2    C5  979   4.239   3.246  10.417 -0.1075 -0.3311 -0.1404
   63TMC2    C6  980   4.370   3.236  10.471  0.4681  0.1158  0.3501
   63TMC2     C  981   4.089   2.956  10.579 -0.0211  0.8288 -0.1753
   63TMC2     O  982   3.971   2.965  10.539  0.1738 -0.2676  0.1920
   63TMC2     H  983   4.331   2.979  10.686 -1.9478  0.0179  0.5386
   63TMC2    H1  984   4.036   3.160  10.427 -0.8142  2.5010  2.8113
   63TMC2    H2  985   4.450   3.303  10.440  0.8144  0.7003  2.4861
   63TMC2    C7  986   4.197   3.344  10.319 -0.2293  0.3546 -0.0570
   63TMC2    C8  987   4.534   3.140  10.625 -0.7752 -0.3828  0.9671
   63TMC2    O1  988   4.076   3.338  10.293  0.0838 -0.0827  0.2070
   63TMC2    O2  989   4.588   3.251  10.647 -0.3361  0.0266 -0.1008
   63TMC2    O5  990   4.594   3.038  10.565 -0.1527 -0.4920  0.0139
   63TMC2    H5  991   4.535   2.961  10.580  1.3224 -1.8408 -1.0992
   64MPD2     C  992   4.015   2.451  10.615 -0.4753 -0.1843 -0.5087
   64MPD2    C1  993   4.152   2.471  10.609 -0.0496 -0.2327 -0.0186
   64MPD2    C2  994   4.194   2.605  10.608  0.0677 -0.2206  0.0432
   64MPD2    C3  995   4.106   2.709  10.616  0.0662  0.1993 -0.0219
   64MPD2    C4  996   3.971   2.692  10.622 -0.0004 -0.3881  0.6172
   64MPD2    C5  997   3.930   2.561  10.611 -0.1770  0.4029 -0.9373
   64MPD2     H  998   4.300   2.624  10.613  0.0853 -0.2863 -0.0622
   64MPD2    H1  999   3.894   2.766  10.639  0.1379 -0.0501 -0.2380
   64MPD2    H2 1000   3.961   2.357  10.618 -0.1459 -0.3649 -0.3184
   64MPD2    H3 1001   3.824   2.543  10.600 -0.3082 -0.7926  2.0642
   64MPD2     N 1002   4.159   2.842  10.609 -0.6935  0.4386  0.0129
   64MPD2    H5 1003   4.257   2.865  10.591 -1.2900  2.8949 -0.0968
   64MPD2    N1 1004   4.248   2.370  10.604  0.1002  0.3838  0.2634
   64MPD2    H7 1005   4.343   2.402  10.593  0.4879 -0.7096  0.4150
   65TMC2    C1 1006   0.722   2.023  15.177  0.3300  0.3364 -0.5268
   65TMC2    C2 1007   0.701   1.982  15.048  0.2784 -0.6034  0.3153
   65TMC2    C3 1008   0.707   2.079  14.955  0.0630  0.0127 -0.1187
   65TMC2    C4 1009   0.762   2.149  15.207  0.1791  0.6087  0.4649
   65TMC2    C5 1010   0.763   2.244  15.111 -0.4160 -0.7698 -0.1568
   65TMC2    C6 1011   0.729   2.211  14.980 -0.3314  0.1770 -0.3620
   65TMC2     C 1012   0.696   1.932  15.289  0.5318  0.3191  0.3434
   65TMC2     O 1013   0.691   1.984  15.398  0.2172 -0.8481 -0.0597
   65TMC2     H 1014   0.667   1.883  15.023  0.5162  0.1035 -2.8396
   65TMC2    H1 1015   0.803   2.158  15.307 -0.0453  1.6756  0.4630
   65TMC2    H2 1016   0.740   2.277  14.896 -2.4467  0.7677 -0.1682
   65TMC2    C7 1017   0.759   2.386  15.131 -0.4970  0.5075  0.8240
   65TMC2    C8 1018   0.712   2.042  14.817 -0.7223  0.4007 -0.0988
   65TMC2    O1 1019   0.754   2.455  15.028  0.3349 -0.5315 -0.5466
   65TMC2    O2 1020   0.663   1.934  14.784 -0.1143  0.0044 -0.4492
   65TMC2    O5 1021   0.832   2.090  14.775  0.1165  0.4964  0.4097
   65TMC2    H5 1022   0.895   2.142  14.830  2.1672 -0.7151 -0.8022
   66MPD2     C 1023   0.655   1.704  15.475 -0.0867 -1.3110  0.0305
   66MPD2    C1 1024   0.739   1.703  15.370  0.2133  0.0247 -0.2158
   66MPD2    C2 1025   0.805   1.581  15.356 -0.1511  0.1081 -0.6110
   66MPD2    C3 1026   0.798   1.477  15.451 -0.0340 -0.6152  0.1908
   66MPD2    C4 1027   0.710   1.488  15.555 -0.0044 -0.0559 -0.7893
   66MPD2    C5 1028   0.634   1.598  15.560  0.0652  0.2706  0.0491
   66MPD2     H 1029   0.880   1.564  15.280 -0.2910  1.1654 -0.9880
   66MPD2    H1 1030   0.706   1.414  15.634 -2.9129  0.8233 -0.1146
   66MPD2    H2 1031   0.597   1.791  15.504  0.0231 -0.9055 -0.9969
   66MPD2    H3 1032   0.561   1.615  15.638  0.0578  0.7386 -0.0555
   66MPD2     N 1033   0.871   1.355  15.434 -0.2016 -0.6581 -0.3242
   66MPD2    H5 1034   0.862   1.299  15.519 -1.6943  1.4005  0.8683
   66MPD2    N1 1035   0.740   1.804  15.264  0.3728  0.4710 -0.2250
   66MPD2    H7 1036   0.777   1.769  15.176 -0.3635  0.7246 -0.6289
   67TMC2    C1 1037   1.559   1.398  14.236 -0.2391  0.4509 -0.3523
   67TMC2    C2 1038   1.523   1.515  14.181  0.4298  0.1967 -0.3195
   67TMC2    C3 1039   1.486   1.613  14.270 -0.2382 -0.2814 -0.3036
   67TMC2    C4 1040   1.582   1.382  14.368 -0.2418 -0.9171  0.2540
   67TMC2    C5 1041   1.545   1.477  14.454 -0.1603 -0.1900  0.1088
   67TMC2    C6 1042   1.506   1.595  14.400  0.7660 -0.5344  0.6733
   67TMC2     C 1043   1.579   1.285  14.156 -0.4322  0.8025  0.1711
   67TMC2     O 1044   1.656   1.201  14.192 -0.2556  0.1594 -0.0489
   67TMC2     H 1045   1.510   1.527  14.074  2.7859  0.9991 -0.5156
   67TMC2    H1 1046   1.635   1.291  14.393 -1.1940 -1.0086  1.8935
   67TMC2    H2 1047   1.470   1.674  14.465  0.2435 -0.8873  0.8140
   67TMC2    C7 1048   1.573   1.451  14.599 -0.1136 -0.5456 -0.2062
   67TMC2    C8 1049   1.462   1.747  14.222 -0.0250  0.7579  0.2437
   67TMC2    O1 1050   1.508   1.517  14.684  0.0721 -0.9930 -0.2611
   67TMC2    O2 1051   1.492   1.785  14.109  0.9159  0.5728 -0.1833
   67TMC2    O5 1052   1.344   1.784  14.281 -0.6383 -0.8361 -0.2433
   67TMC2    H5 1053   1.323   1.757  14.373  0.8851  1.6141  0.8117
   68MPD2     C 1054   1.673   1.211  13.891 -0.1970 -0.2626  0.8655
   68MPD2    C1 1055   1.541   1.217  13.929 -0.0403  1.0533  0.1058
   68MPD2    C2 1056   1.437   1.173  13.850  0.5116  0.3299  0.7101
   68MPD2    C3 1057   1.468   1.091  13.744 -0.3222  0.2069  0.2945
   68MPD2    C4 1058   1.603   1.080  13.703 -0.1534 -0.5004  0.2769
   68MPD2    C5 1059   1.699   1.145  13.773 -0.6106 -0.6225  0.4894
   68MPD2     H 1060   1.333   1.182  13.877  0.2851 -2.6213  0.8611
   68MPD2    H1 1061   1.629   1.023  13.614  1.2375 -2.1009  1.7099
   68MPD2    H2 1062   1.754   1.252  13.950 -0.5923 -2.4604  2.9099
   68MPD2    H3 1063   1.800   1.138  13.736 -1.9727 -2.6618 -2.8723
   68MPD2     N 1064   1.372   1.024  13.671  0.5781 -0.2625  0.1982
   68MPD2    H5 1065   1.398   0.980  13.583 -0.4626 -1.7572  0.6284
   68MPD2    N1 1066   1.501   1.289  14.041 -0.0346 -0.0876 -0.1193
   68MPD2    H7 1067   1.409   1.331  14.045  0.6051  1.3830 -1.0050
   69TMC2    C1 1068   3.516   2.714  12.501  0.2805 -0.5493 -0.1683
   69TMC2    C2 1069   3.576   2.790  12.595 -0.0032  0.3858  0.0039
   69TMC2    C3 1070   3.707   2.827  12.581  0.9155  0.2444  0.3207
   69TMC2    C4 1071   3.581   2.663  12.389 -0.1088 -0.0300 -0.0178
   69TMC2    C5 1072   3.712   2.706  12.380  0.4835 -0.0196 -0.3728
   69TMC2    C6 1073   3.771   2.798  12.464 -0.1630 -0.6422 -0.1540
   69TMC2     C 1074   3.388   2.654  12.531  0.2840  0.5484 -0.1668
   69TMC2     O 1075   3.359   2.631  12.647 -0.1225  0.8295 -0.4213
   69TMC2     H 1076   3.514   2.812  12.681 -2.3852 -1.1043 -1.3222
   69TMC2    H1 1077   3.538   2.595  12.317  0.3767  0.6421 -0.9586
   69TMC2    H2 1078   3.874   2.831  12.456  0.2957 -2.0767 -0.1746
   69TMC2    C7 1079   3.796   2.653  12.270 -0.0060 -0.9777 -0.0640
   69TMC2    C8 1080   3.780   2.890  12.692  0.2492 -0.4711 -0.0492
   69TMC2    O1 1081   3.877   2.730  12.215  0.1827  0.1316  0.2667
   69TMC2    O2 1082   3.746   2.993  12.743  0.7367 -0.0477  0.3726
   69TMC2    O5 1083   3.910   2.833  12.702  0.3886 -0.0356 -0.3574
   69TMC2    H5 1084   3.926   2.744  12.664 -0.8180 -0.0337 -0.8715
   70MPD2     C 1085   3.090   2.609  12.319 -0.4531 -0.1978  0.0736
   70MPD2    C1 1086   3.176   2.577  12.422  0.9271  0.1302 -0.2147
   70MPD2    C2 1087   3.129   2.499  12.525  0.2342 -0.6052  0.3557
   70MPD2    C3 1088   3.012   2.428  12.504 -0.7128  0.8155 -0.0871
   70MPD2    C4 1089   2.934   2.450  12.390 -0.0950  0.1373 -0.0639
   70MPD2    C5 1090   2.974   2.545  12.303  0.6944 -0.3075  0.3107
   70MPD2     H 1091   3.180   2.493  12.620  1.2749 -1.9267 -0.2727
   70MPD2    H1 1092   2.842   2.395  12.376  0.6727 -1.2933  0.5402
   70MPD2    H2 1093   3.122   2.687  12.252  3.6013 -2.9718 -1.2295
   70MPD2    H3 1094   2.912   2.570  12.217  0.9839 -0.5522  0.0311
   70MPD2     N 1095   2.954   2.333  12.598  0.1446  0.3127  0.2085
   70MPD2    H5 1096   2.865   2.286  12.584  0.6518 -0.4189 -0.5862
   70MPD2    N1 1097   3.306   2.643  12.429  0.4873 -0.5786 -0.1082
   70MPD2    H7 1098   3.340   2.691  12.347  1.9173 -0.5570  0.4944
   71TMC2    C1 1099   0.081   2.531   1.203 -0.2067 -0.1899 -0.9977
   71TMC2    C2 1100   0.174   2.511   1.301  0.5449 -0.3139  0.1261
   71TMC2    C3 1101   0.156   2.573   1.415  0.2371 -1.2064 -0.5821
   71TMC2    C4 1102   4.718   2.629   1.211 -0.3349  0.0216 -0.2417
   71TMC2    C5 1103   4.695   2.687   1.331  0.6795  0.0392 -0.1681
   71TMC2    C6 1104   0.048   2.655   1.435  1.0199  0.0080  0.1564
   71TMC2     C 1105   0.122   2.504   1.073  0.0032 -0.5497 -0.3787
   71TMC2     O 1106   0.240   2.476   1.053 -0.0041  0.1042 -0.4999
   71TMC2     H 1107   0.252   2.438   1.286  2.0177  1.4187 -0.6270
   71TMC2    H1 1108   4.655   2.657   1.127 -0.1421  0.6716 -0.1674
   71TMC2    H2 1109   0.030   2.703   1.531  1.0688  0.1122  0.1134
   71TMC2    C7 1110   4.588   2.778   1.357 -0.9443 -0.7295  0.5667
   71TMC2    C8 1111   0.250   2.588   1.526  0.1616 -0.1437 -0.0611
   71TMC2    O1 1112   4.534   2.791   1.470  0.0688  1.1892  0.5729
   71TMC2    O2 1113   0.244   2.673   1.617  0.1045  0.8073 -0.0508
   71TMC2    O5 1114   0.360   2.514   1.493  0.3359 -0.1627 -0.0986
   71TMC2    H5 1115   0.345   2.436   1.435 -1.4505  0.3258 -0.3077
   72MPD2     C 1116   0.066   2.405   0.572  0.0232  0.4179  0.4674
   72MPD2    C1 1117   0.176   2.434   0.645  0.2308 -0.6592 -0.1343
   72MPD2    C2 1118   0.155   2.472   0.778 -0.0901 -0.7129  0.2067
   72MPD2    C3 1119   0.029   2.458   0.843  0.3541 -0.0641  0.3374
   72MPD2    C4 1120   4.659   2.421   0.770 -0.3381 -0.0218 -0.3115
   72MPD2    C5 1121   4.677   2.398   0.632 -0.9346 -0.0584  0.3371
   72MPD2     H 1122   0.240   2.514   0.829  0.1760 -0.4176 -0.4813
   72MPD2    H1 1123   4.559   2.402   0.805 -0.0676 -2.0568 -0.6304
   72MPD2    H2 1124   0.065   2.374   0.468 -0.4184  1.5200  0.1494
   72MPD2    H3 1125   4.596   2.368   0.567 -0.6244 -0.5795  0.1903
   72MPD2     N 1126   0.017   2.479   0.986 -0.1366 -0.3542  0.2745
   72MPD2    H5 1127   4.659   2.467   1.024 -1.5338  3.2374 -2.0360
   72MPD2    N1 1128   0.308   2.433   0.599 -0.3252 -0.3500 -0.3361
   72MPD2    H7 1129   0.382   2.474   0.655  1.8729 -3.4848 -0.9542
   73TMC2    C1 1130   0.512   0.297  14.008  0.3904 -0.1389  0.4479
   73TMC2    C2 1131   0.422   0.250  14.098 -0.4585 -0.0104  0.7788
   73TMC2    C3 1132   0.421   0.121  14.121  0.1271  0.3664  0.0240
   73TMC2    C4 1133   0.578   0.222  13.920 -0.0807 -0.0751 -0.5557
   73TMC2    C5 1134   0.574   0.091  13.943 -0.3470 -0.0944  0.0894
   73TMC2    C6 1135   0.495   0.037  14.046 -0.2071 -0.7900 -1.1715
   73TMC2     C 1136   0.533   0.440  14.017  0.1257 -0.0523 -0.2883
   73TMC2     O 1137   0.449   0.523  14.044  0.4400  0.4647  0.3574
   73TMC2     H 1138   0.363   0.312  14.164 -0.7213  2.0993 -1.4718
   73TMC2    H1 1139   0.625   0.261  13.830 -0.1852 -0.7870 -0.9191
   73TMC2    H2 1140   0.511   4.666  14.062 -0.0858 -0.6859 -0.6187
   73TMC2    C7 1141   0.697   0.021  13.899 -0.2091 -0.3160  0.0420
   73TMC2    C8 1142   0.311   0.058  14.187 -0.3776  0.4885  0.4610
   73TMC2    O1 1143   0.695   4.637  13.892 -0.3361  0.3521  0.0576
   73TMC2    O2 1144   0.195   0.098  14.192 -0.1426  0.5581 -0.6814
   73TMC2    O5 1145   0.342   4.672  14.226  0.1700  0.1858 -0.0481
   73TMC2    H5 1146   0.437   4.650  14.235 -0.3095 -0.9786  1.9502
   74MPD2     C 1147   0.893   0.804  13.987  0.9285 -0.1253 -0.5115
   74MPD2    C1 1148   0.957   0.686  14.024  0.9713  0.1656 -0.5659
   74MPD2    C2 1149   0.875   0.575  14.019  0.7008  0.5709  0.4832
   74MPD2    C3 1150   0.740   0.583  13.997 -0.0758  0.2218  0.1337
   74MPD2    C4 1151   0.682   0.701  13.974  0.1483  0.0538  0.2385
   74MPD2    C5 1152   0.758   0.813  13.971 -0.2143 -0.0055 -0.7308
   74MPD2     H 1153   0.911   0.473  14.018 -3.0317 -0.7911  2.6909
   74MPD2    H1 1154   0.577   0.715  13.953  0.0602  2.4009  2.2552
   74MPD2    H2 1155   0.946   0.897  13.969  1.8302 -0.0775  2.5440
   74MPD2    H3 1156   0.709   0.909  13.957 -1.7115 -0.6647  0.0128
   74MPD2     N 1157   0.664   0.458  14.007  0.6331 -0.4323 -0.3087
   74MPD2    H5 1158   0.724   0.377  13.998  1.8219  0.3895  0.2784
   74MPD2    N1 1159   1.097   0.681  14.037 -0.1393  0.0050  0.4959
   74MPD2    H7 1160   1.158   0.762  14.030  2.4743 -1.7821  2.6939
   75TMC2    C1 1161   1.158   0.938  13.606  0.4967  0.0705 -0.2714
   75TMC2    C2 1162   1.219   0.853  13.518  0.0114  0.5779 -0.6148
   75TMC2    C3 1163   1.139   0.791  13.427 -0.0122  0.5695  0.0480
   75TMC2    C4 1164   1.025   0.959  13.593  0.1629 -0.1750  0.5771
   75TMC2    C5 1165   0.955   0.912  13.488  0.1468  0.2600  0.4854
   75TMC2    C6 1166   1.012   0.825  13.404  0.1774  0.8090  0.0088
   75TMC2     C 1167   1.232   1.011  13.710  0.4419 -0.0753 -0.0709
   75TMC2     O 1168   1.175   1.048  13.812 -0.7034 -0.4953 -0.7587
   75TMC2     H 1169   1.321   0.817  13.523  0.7171  2.4275 -1.7582
   75TMC2    H1 1170   0.967   1.024  13.658 -1.5920 -1.3244  0.1751
   75TMC2    H2 1171   0.967   0.804  13.309 -0.7068 -2.0137  1.0701
   75TMC2    C7 1172   0.825   0.967  13.443 -0.0169 -0.3352 -0.1647
   75TMC2    C8 1173   1.204   0.715  13.328 -0.4630  0.8726  0.0764
   75TMC2    O1 1174   0.769   0.913  13.350  0.8900  0.0984  0.3111
   75TMC2    O2 1175   1.295   0.762  13.262  0.2797 -0.0966  0.7053
   75TMC2    O5 1176   1.121   0.606  13.294 -0.3630  0.0176  0.7417
   75TMC2    H5 1177   1.036   0.587  13.339  0.3594 -4.5026  0.2546
   76TMC2    C1 1178   4.228   1.661  11.969 -0.2174  0.3033 -0.0067
   76TMC2    C2 1179   4.117   1.584  11.939 -0.2056 -0.0659 -0.4879
   76TMC2    C3 1180   4.053   1.516  12.040  0.0957  0.2521 -0.7937
   76TMC2    C4 1181   4.273   1.676  12.096  0.0374  0.5365  0.3315
   76TMC2    C5 1182   4.203   1.618  12.201 -0.0550 -0.4639  0.5730
   76TMC2    C6 1183   4.092   1.534  12.175 -0.2696  0.3617 -0.4971
   76TMC2     C 1184   4.262   1.766  11.875 -0.5282 -0.0207 -0.0359
   76TMC2     O 1185   4.177   1.802  11.791 -0.1356 -0.4419 -0.5284
   76TMC2     H 1186   4.081   1.578  11.837 -1.5625 -0.1472 -0.0031
   76TMC2    H1 1187   4.352   1.749  12.114  0.2583  0.6179 -1.0248
   76TMC2    H2 1188   4.041   1.470  12.247  1.0407  0.8461  0.8717
   76TMC2    C7 1189   4.263   1.603  12.332  0.1642 -0.5851  0.2925
   76TMC2    C8 1190   3.956   1.425  11.998 -0.0985 -0.2817 -0.5755
   76TMC2    O1 1191   4.196   1.541  12.416 -0.0879  0.5431  0.0386
   76TMC2    O2 1192   3.922   1.403  11.884  0.2627  0.4580  0.0577
   76TMC2    O5 1193   3.875   1.397  12.108  0.0165 -0.2960  0.5642
   76TMC2    H5 1194   3.901   1.427  12.198 -0.6097 -1.8307  1.2590
   77MPD2     C 1195   4.626   2.086  11.715 -0.2159  0.0098  0.1027
   77MPD2    C1 1196   4.487   2.096  11.731  0.1205 -0.5348  0.0588
   77MPD2    C2 1197   4.411   1.991  11.769  0.3926  0.0377  0.6225
   77MPD2    C3 1198   4.475   1.876  11.801  0.0351  0.3558  0.1248
   77MPD2    C4 1199   4.610   1.862  11.782 -0.3538  0.1036  0.4875
   77MPD2    C5 1200   4.685   1.968  11.733 -1.1101 -0.0666  0.1289
   77MPD2     H 1201   4.304   2.008  11.765  0.1399 -1.3433  1.6380
   77MPD2    H1 1202   4.669   1.775  11.810 -2.4927 -0.8601  1.9456
   77MPD2    H2 1203   4.688   2.169  11.684 -0.4232  0.4199  0.7746
   77MPD2    H3 1204   0.058   1.966  11.736 -1.0605 -0.2638 -1.7624
   77MPD2     N 1205   4.404   1.773  11.871 -0.1335  0.0090  0.7984
   77MPD2    H5 1206   4.453   1.697  11.918  1.2104 -0.1488 -0.8812
   77MPD2    N1 1207   4.424   2.214  11.702 -0.2210  0.2057  1.0217
   77MPD2    H7 1208   4.327   2.224  11.732 -0.7991 -0.8550 -0.4350
   78TMC2    C1 1209   4.505   2.115   0.233  0.0774 -0.1468 -0.0415
   78TMC2    C2 1210   4.393   2.159   0.287 -0.4438 -0.0803 -0.2631
   78TMC2    C3 1211   4.378   2.159   0.428  0.2132  0.2735  0.3774
   78TMC2    C4 1212   4.604   2.064   0.314 -0.0061 -0.1278  0.1238
   78TMC2    C5 1213   4.593   2.078   0.447  0.1754  0.0190 -0.1937
   78TMC2    C6 1214   4.484   2.129   0.511 -0.7308  0.0621  0.5330
   78TMC2     C 1215   4.517   2.127   0.088  1.3077 -0.0428 -0.2961
   78TMC2     O 1216   4.411   2.149   0.023 -0.0817 -0.2475  0.0065
   78TMC2     H 1217   4.309   2.191   0.227  0.8011  3.3712 -0.1549
   78TMC2    H1 1218   4.694   2.021   0.271 -0.7736 -0.4793 -1.1354
   78TMC2    H2 1219   4.464   2.129   0.617 -1.3004 -0.2926  0.4247
   78TMC2    C7 1220   4.713   2.050   0.527  0.0170 -0.0664  0.4121
   78TMC2    C8 1221   4.268   2.229   0.490 -0.7638 -0.3934  0.2504
   78TMC2    O1 1222   0.086   2.026   0.472 -0.5169 -0.4427  0.0274
   78TMC2    O2 1223   4.267   2.274   0.607  0.5055  0.1598  0.5791
   78TMC2    O5 1224   4.156   2.195   0.420 -0.1569 -0.2433 -0.1881
   78TMC2    H5 1225   4.169   2.152   0.332  0.4430 -0.3007 -0.0729
   79MPD1     C 1226   0.045   2.054  17.410  0.0165 -0.3584  0.1479
   79MPD1    C1 1227   4.646   2.053  17.428 -0.3845  1.0877  0.2219
   79MPD1    C2 1228   4.591   2.069  17.554  0.6590  0.4969 -0.2020
   79MPD1    C3 1229   4.681   2.090  17.658  0.6651  0.7303  0.7116
   79MPD1    C4 1230   0.083   2.100  17.643 -0.1165 -0.3837 -0.4953
   79MPD1    C5 1231   0.128   2.079  17.518 -0.4153  0.8126  0.1436
   79MPD1     H 1232   4.484   2.056  17.565  0.7862 -0.5302 -0.2060
   79MPD1    H1 1233   0.145   2.122  17.730  0.2285  2.2008 -1.3868
   79MPD1    H2 1234   0.080   2.037  17.309 -1.4310 -0.9597 -0.2603
   79MPD1    H3 1235   0.235   2.067  17.503 -0.7018  0.0639 -1.3291
   79MPD1     N 1236   4.644   2.112   0.053 -0.5016  0.3627  0.0832
   79MPD1    H5 1237   4.725   2.123   0.113 -0.6445 -0.4453  0.4236
   79MPD1    N1 1238   4.570   1.997  17.322  0.3134 -0.2050  0.6468
   79MPD1    H6 1239   4.475   2.031  17.308 -0.0442 -1.5399 -0.1012
   79MPD1    H7 1240   4.613   2.014  17.231 -0.9125 -2.9712 -0.4365
   80TMC2    C1 1241   2.777   1.494  11.711 -0.0952  0.2205  0.1318
   80TMC2    C2 1242   2.684   1.507  11.618 -0.6724 -0.2314  0.2995
   80TMC2    C3 1243   2.588   1.413  11.598  0.3279  0.2160  0.2553
   80TMC2    C4 1244   2.783   1.379  11.785 -0.2933  0.0051  0.1344
   80TMC2    C5 1245   2.689   1.279  11.754 -0.2993  1.1308  0.3725
   80TMC2    C6 1246   2.586   1.297  11.666 -0.0109  0.1811  0.4236
   80TMC2     C 1247   2.900   1.556  11.672  0.2436  0.4729 -0.2898
   80TMC2     O 1248   2.912   1.572  11.551  0.4118 -0.6049  0.2136
   80TMC2     H 1249   2.678   1.594  11.555 -1.4250  0.6037  1.5148
   80TMC2    H1 1250   2.871   1.357  11.845 -1.1661 -0.2659  1.3071
   80TMC2    H2 1251   2.507   1.223  11.654 -2.3956  2.4495  2.1730
   80TMC2    C7 1252   2.681   1.153  11.832  0.2171  0.5037 -0.1527
   80TMC2    C8 1253   2.505   1.425  11.484  0.0360 -0.0268 -0.0906
   80TMC2    O1 1254   2.629   1.054  11.782 -0.2468 -0.0417 -0.5021
   80TMC2    O2 1255   2.488   1.532  11.425 -0.0346  0.0196 -0.0161
   80TMC2    O5 1256   2.464   1.308  11.430  0.6915 -0.4822 -0.2880
   80TMC2    H5 1257   2.505   1.231  11.474 -1.2314 -2.4656 -2.0086
   81MPD2     C 1258   3.146   1.715  11.667  0.2536  0.4158 -0.2596
   81MPD2    C1 1259   3.083   1.671  11.785  0.5223 -0.1693 -0.3637
   81MPD2    C2 1260   3.148   1.712  11.904 -0.2214 -0.3540 -0.1563
   81MPD2    C3 1261   3.261   1.796  11.903 -0.6238  0.5322  0.0545
   81MPD2    C4 1262   3.304   1.844  11.783  0.1452  0.1029 -0.5603
   81MPD2    C5 1263   3.260   1.796  11.665 -0.2593 -0.1290 -0.4036
   81MPD2     H 1264   3.106   1.692  12.002  2.1278 -0.3839  0.8431
   81MPD2    H1 1265   3.382   1.919  11.780 -0.2912  0.4809 -2.6415
   81MPD2    H2 1266   3.110   1.687  11.568 -0.2249 -0.8791  0.2721
   81MPD2    H3 1267   3.313   1.823  11.575  0.3944  2.8611  0.8690
   81MPD2     N 1268   3.319   1.854  12.024 -0.1710 -0.0830 -0.0966
   81MPD2    H5 1269   3.386   1.928  12.010 -0.0759  0.0489  1.0699
   81MPD2    N1 1270   2.973   1.591  11.779  0.3781  0.6035 -0.1777
   81MPD2    H7 1271   2.926   1.567  11.866 -0.7186  0.8793 -0.6964
   82TMC2    C1 1272   1.622   0.662  11.209  0.1621  0.1646 -0.5960
   82TMC2    C2 1273   1.744   0.695  11.260  0.8549 -0.3100 -0.0421
   82TMC2    C3 1274   1.786   0.623  11.370  0.2684 -0.2340 -0.3388
   82TMC2    C4 1275   1.540   0.563  11.264 -0.0163  0.6280 -0.4264
   82TMC2    C5 1276   1.586   0.496  11.377  0.1271  0.9225 -0.3037
   82TMC2    C6 1277   1.704   0.532  11.436  0.3590 -0.2447  0.0402
   82TMC2     C 1278   1.553   0.736  11.106  0.2680  0.1310  0.3121
   82TMC2     O 1279   1.454   0.688  11.056 -0.0798 -0.1921  0.4472
   82TMC2     H 1280   1.815   0.760  11.210 -0.9944  2.7178  1.2275
   82TMC2    H1 1281   1.440   0.537  11.230 -1.1440  2.2668  1.6242
   82TMC2    H2 1282   1.747   0.472  11.516 -1.5714  0.5408  1.6673
   82TMC2    C7 1283   1.496   0.424  11.457  0.2165 -0.6119  0.3155
   82TMC2    C8 1284   1.921   0.631  11.423  0.0889 -0.3918  0.7647
   82TMC2    O1 1285   1.515   0.420  11.577 -0.5298 -0.0337  0.0064
   82TMC2    O2 1286   1.972   0.540  11.490 -0.4234  0.3109  0.0624
   82TMC2    O5 1287   1.986   0.735  11.379 -0.8097 -0.8602 -0.0584
   82TMC2    H5 1288   1.927   0.807  11.347  1.2661  0.3742 -1.0775
   83MPD2     C 1289   1.462   1.190  10.909  0.5259 -0.0341  0.1128
   83MPD2    C1 1290   1.420   1.071  10.852  0.6454  0.4363  0.1096
   83MPD2    C2 1291   1.470   0.955  10.919 -0.0125  0.2392  0.1111
   83MPD2    C3 1292   1.555   0.976  11.028 -0.1602  0.0148 -0.1328
   83MPD2    C4 1293   1.607   1.094  11.062  0.2862 -0.4176  0.2595
   83MPD2    C5 1294   1.556   1.208  11.004  0.2170 -0.4199 -0.2711
   83MPD2     H 1295   1.438   0.861  10.875  1.3878 -1.4927  2.8253
   83MPD2    H1 1296   1.671   1.110  11.148  0.1799 -1.9529  0.6187
   83MPD2    H2 1297   1.422   1.286  10.878 -1.6592 -1.1599 -0.5704
   83MPD2    H3 1298   1.578   1.308  11.040 -3.3835  1.1696 -2.4075
   83MPD2     N 1299   1.601   0.867  11.107 -0.2842  0.3371  0.5740
   83MPD2    H5 1300   1.663   0.888  11.185  1.5619 -2.1936 -0.2047
   83MPD2    N1 1301   1.326   1.069  10.747  0.1172 -0.0473 -0.3839
   83MPD2    H7 1302   1.290   1.158  10.716 -0.6143  0.1351  0.9829
   84TMC2    C1 1303   2.589   4.429  11.158  0.3303 -0.4924  0.2853
   84TMC2    C2 1304   2.564   4.311  11.224 -0.1751 -0.1078 -0.6088
   84TMC2    C3 1305   2.518   4.205  11.156  0.7860 -0.1256  0.2283
   84TMC2    C4 1306   2.571   4.444  11.020  0.0150 -0.2652 -0.2422
   84TMC2    C5 1307   2.519   4.335  10.956 -0.5720 -0.2627 -0.9407
   84TMC2    C6 1308   2.490   4.221  11.020  0.0938 -0.3080 -0.0184
   84TMC2     C 1309   2.579   4.550  11.241 -0.3939  0.1464  0.0460
   84TMC2     O 1310   2.588   4.655  11.177  0.1063  0.3518 -0.3893
   84TMC2     H 1311   2.580   4.295  11.330  1.0012  2.4345 -0.4235
   84TMC2    H1 1312   2.572   4.540  10.970  0.6818  0.5384  1.3416
   84TMC2    H2 1313   2.443   4.138  10.967 -0.5226 -0.2794  0.4822
   84TMC2    C7 1314   2.488   4.341  10.808  0.7572 -0.1787 -0.4663
   84TMC2    C8 1315   2.498   4.065  11.212 -0.3156 -0.3655 -0.1180
   84TMC2    O1 1316   2.431   4.247  10.752 -0.1421  0.3929 -0.1417
   84TMC2    O2 1317   2.505   3.968  11.139  0.0329  0.0405  0.1200
   84TMC2    O5 1318   2.499   4.073  11.343  0.2391 -0.2902 -0.4809
   84TMC2    H5 1319   2.467   4.159  11.377 -1.2673 -0.4761 -1.4207
   85TMC2    C1 1320   3.322   3.217  15.399 -0.9412 -0.2123  0.3667
   85TMC2    C2 1321   3.228   3.196  15.310  0.0098 -0.2594  0.1507
   85TMC2    C3 1322   3.246   3.244  15.185  0.3251  0.2143  0.1255
   85TMC2    C4 1323   3.443   3.288  15.369  0.2383 -0.4016 -0.4479
   85TMC2    C5 1324   3.447   3.342  15.245  0.0099  0.4673  0.5293
   85TMC2    C6 1325   3.353   3.321  15.145  0.4483  0.2222 -0.0299
   85TMC2     C 1326   3.309   3.140  15.528 -0.1496 -0.1600  0.8382
   85TMC2     O 1327   3.200   3.095  15.559 -0.1373 -0.2846  0.0984
   85TMC2     H 1328   3.136   3.151  15.345 -0.0281 -0.7337 -0.5583
   85TMC2    H1 1329   3.521   3.311  15.441  1.8329  0.9132 -2.5905
   85TMC2    H2 1330   3.368   3.351  15.042 -0.8700  0.3892 -0.1771
   85TMC2    C7 1331   3.576   3.407  15.205  0.5131 -0.1423  0.5505
   85TMC2    C8 1332   3.159   3.208  15.072 -0.3096  0.1815  1.0875
   85TMC2    O1 1333   3.676   3.404  15.279 -0.6890 -0.3833 -0.8916
   85TMC2    O2 1334   3.152   3.284  14.976 -0.1575 -0.1846  0.5274
   85TMC2    O5 1335   3.194   3.077  15.058  0.3220  0.1833 -0.6045
   85TMC2    H5 1336   3.195   3.020  15.137  0.7005 -1.2538 -1.6557
   86MPD2     C 1337   3.467   2.971  15.973  0.2254 -0.2440  0.7435
   86MPD2    C1 1338   3.364   2.926  15.893  0.1217 -0.4957  0.2984
   86MPD2    C2 1339   3.350   2.990  15.766 -0.0036 -0.5718  0.4566
   86MPD2    C3 1340   3.437   3.087  15.721 -0.0311  0.4811  0.2476
   86MPD2    C4 1341   3.553   3.117  15.795  0.3346  0.2701 -0.1051
   86MPD2    C5 1342   3.563   3.057  15.923 -0.2015  0.1083 -0.4213
   86MPD2     H 1343   3.274   2.959  15.695 -1.4578  0.3890  1.5900
   86MPD2    H1 1344   3.619   3.192  15.754 -0.3624 -0.0759 -1.8266
   86MPD2    H2 1345   3.475   2.936  16.075  1.5895  0.2547  0.8063
   86MPD2    H3 1346   3.645   3.090  15.985  1.1453 -1.8506 -1.1572
   86MPD2     N 1347   3.424   3.141  15.595 -0.3408 -0.2644 -0.3434
   86MPD2    H5 1348   3.498   3.203  15.565  0.3692 -0.9115  0.0556
   86MPD2    N1 1349   3.285   2.816  15.917  0.5527 -0.0168  0.1579
   86MPD2    H7 1350   3.214   2.795  15.847 -0.5677  1.6067  0.8171
   87TMC2    C1 1351   0.437   0.933   0.948 -0.1973 -0.1319 -0.6474
   87TMC2    C2 1352   0.460   0.942   1.087  0.6122  0.0369  0.7841
   87TMC2    C3 1353   0.392   1.038   1.155 -0.0803 -0.1330 -0.8387
   87TMC2    C4 1354   0.337   1.008   0.887  1.3681 -0.2524 -0.2968
   87TMC2    C5 1355   0.265   1.093   0.959 -0.1308 -0.6331 -0.4612
   87TMC2    C6 1356   0.288   1.103   1.091  0.7612  0.1116  0.5510
   87TMC2     C 1357   0.548   0.893   0.869  0.5522  0.7258  0.4961
   87TMC2     O 1358   0.526   0.809   0.777 -0.1942  0.4010 -0.1108
   87TMC2     H 1359   0.547   0.897   1.134 -0.0204 -0.7268  1.2185
   87TMC2    H1 1360   0.330   1.014   0.779 -0.3352  0.1602 -0.1655
   87TMC2    H2 1361   0.239   1.165   1.166  1.2086 -0.6715  1.4979
   87TMC2    C7 1362   0.192   1.191   0.888 -0.6771 -0.3629  0.1527
   87TMC2    C8 1363   0.425   1.074   1.292  0.0670  0.1163 -0.1241
   87TMC2    O1 1364   0.203   1.187   0.766  0.1403  0.3698  0.1713
   87TMC2    O2 1365   0.416   1.188   1.332  0.3649  0.1426 -0.3428
   87TMC2    O5 1366   0.484   0.962   1.348 -0.0645 -0.1782 -0.4891
   87TMC2    H5 1367   0.495   0.887   1.286  1.2488  0.0465 -0.5424
   88MPD2     C 1368   0.049   1.504   1.033 -0.0861  0.6046  0.4279
   88MPD2    C1 1369   0.101   1.420   0.937  0.3921 -0.5049  0.2451
   88MPD2    C2 1370   0.108   1.466   0.806  0.1616  0.0609 -0.7316
   88MPD2    C3 1371   0.058   1.592   0.778  0.3629  0.0166  0.6083
   88MPD2    C4 1372   0.023   1.680   0.884  0.5713 -0.4317  0.3585
   88MPD2    C5 1373   0.014   1.632   1.008  0.1755 -0.5152  0.1192
   88MPD2     H 1374   0.141   1.409   0.719  2.8853  2.1367 -1.0563
   88MPD2    H1 1375   4.732   1.782   0.859  0.3134 -0.6987 -0.4916
   88MPD2    H2 1376   0.046   1.473   1.137  0.8406 -2.2006 -0.3829
   88MPD2    H3 1377   4.704   1.698   1.081 -0.3232 -0.0808 -0.5927
   88MPD2     N 1378   0.066   1.643   0.650 -0.2791 -0.2737  0.9792
   88MPD2    H5 1379   0.039   1.740   0.641  2.6995  0.4925  0.4195
   88MPD2    N1 1380   0.146   1.291   0.975  0.0997 -0.2768  0.2991
   88MPD2    H7 1381   0.156   1.279   1.076 -0.6906 -1.9503  0.1907
   89TMC2    C1 1382   1.683   4.418   1.132 -0.1007 -0.2632 -0.5717
   89TMC2    C2 1383   1.782   4.347   1.066  0.4745 -0.1646  0.3891
   89TMC2    C3 1384   1.905   4.405   1.057 -0.0024  0.7430 -0.3990
   89TMC2    C4 1385   1.703   4.552   1.156 -0.1199 -0.2741 -0.3462
   89TMC2    C5 1386   1.831   4.609   1.138  0.2762  0.0001  0.1417
   89TMC2    C6 1387   1.939   4.539   1.083  0.8870  0.6762  0.4892
   89TMC2     C 1388   1.543   4.375   1.148  0.7444  0.5059 -0.0900
   89TMC2     O 1389   1.465   4.468   1.152  0.3361  0.0111 -0.0090
   89TMC2     H 1390   1.771   4.239   1.072 -0.6307 -0.1641 -1.6547
   89TMC2    H1 1391   1.624   4.609   1.204 -1.6464 -2.1514 -0.6100
   89TMC2    H2 1392   2.038   4.579   1.066  1.6033 -1.2552  0.0446
   89TMC2    C7 1393   1.854   0.016   1.178 -0.2049 -0.1632 -0.1080
   89TMC2    C8 1394   2.013   4.324   0.998  0.1642  0.4412  0.2301
   89TMC2    O1 1395   1.774   0.062   1.256 -0.5446 -0.0477 -0.4039
   89TMC2    O2 1396   1.982   4.219   0.940 -0.3251  0.3765  0.3938
   89TMC2    O5 1397   2.096   4.322   1.101 -0.4021 -0.1320 -0.1309
   89TMC2    H5 1398   2.094   4.400   1.161 -2.2083 -0.9109  0.7988
   90MPD2     C 1399   1.148   4.052   1.249 -0.0302  0.1899  0.3611
   90MPD2    C1 1400   1.267   3.985   1.265  0.0825  0.0356 -0.0475
   90MPD2    C2 1401   1.385   4.042   1.219  0.1051 -0.8576 -0.0614
   90MPD2    C3 1402   1.391   4.177   1.182 -0.2245  0.5212  0.3750
   90MPD2    C4 1403   1.270   4.244   1.158 -0.0349  0.2689  0.6443
   90MPD2    C5 1404   1.155   4.183   1.204  0.5016 -0.0167 -0.9042
   90MPD2     H 1405   1.477   3.984   1.220 -0.7546 -2.2219 -0.2723
   90MPD2    H1 1406   1.264   4.347   1.123  1.5859  0.2646  0.3546
   90MPD2    H2 1407   1.049   4.019   1.277  0.0336  0.4021  0.8310
   90MPD2    H3 1408   1.062   4.239   1.204  0.7824  0.4441 -1.1925
   90MPD2     N 1409   1.518   4.243   1.166 -0.6530  0.5601  1.0027
   90MPD2    H5 1410   1.603   4.188   1.176 -1.4457 -0.8710  0.0025
   90MPD2    N1 1411   1.263   3.845   1.297 -0.0698 -0.4657 -0.0690
   90MPD2    H7 1412   1.347   3.791   1.311  0.1443  0.1207  0.8856
   91TMC2    C1 1413   3.802   3.809  15.908 -0.6686  0.3079 -0.1745
   91TMC2    C2 1414   3.871   3.870  16.015  0.1904 -0.2009  0.1371
   91TMC2    C3 1415   3.810   3.879  16.136  0.3101 -0.1232  0.2426
   91TMC2    C4 1416   3.672   3.765  15.925  0.3545 -0.1033  0.1176
   91TMC2    C5 1417   3.618   3.779  16.048  0.5224 -0.0771 -0.1919
   91TMC2    C6 1418   3.683   3.836  16.155 -0.1333  0.0092  0.4165
   91TMC2     C 1419   3.850   3.818  15.772 -0.5858 -0.4355  0.8206
   91TMC2     O 1420   3.826   3.722  15.702 -0.2487  0.6646  0.3990
   91TMC2     H 1421   3.969   3.915  15.998  0.4118 -0.6160  0.3106
   91TMC2    H1 1422   3.627   3.707  15.846 -1.2182  1.0558  0.1674
   91TMC2    H2 1423   3.631   3.843  16.250  3.1970 -0.5804  2.2904
   91TMC2    C7 1424   3.475   3.755  16.064 -0.3825 -0.0130 -0.4075
   91TMC2    C8 1425   3.878   3.963  16.222  0.1853 -0.3403 -0.2208
   91TMC2    O1 1426   3.436   3.755  16.181 -0.4661 -0.2508  0.3874
   91TMC2    O2 1427   3.951   4.054  16.188  0.5244  0.7816  0.0357
   91TMC2    O5 1428   3.841   3.921  16.348  0.7638 -0.2646 -0.0989
   91TMC2    H5 1429   3.796   3.835  16.354  0.4871  0.0590  2.3792
   92MPD2     C 1430   3.999   3.851  15.520  0.3859  0.3624  0.1989
   92MPD2    C1 1431   4.009   3.933  15.634 -0.3661  0.6012  0.2154
   92MPD2    C2 1432   4.109   4.035  15.630 -0.6188  0.2880  0.2469
   92MPD2    C3 1433   4.203   4.048  15.524  0.0155  0.1295 -0.2183
   92MPD2    C4 1434   4.197   3.956  15.427  0.0304  1.2091 -0.7904
   92MPD2    C5 1435   4.093   3.864  15.425  0.4063  0.4080  0.6483
   92MPD2     H 1436   4.109   4.104  15.714  0.2254 -0.5371  0.9275
   92MPD2    H1 1437   4.258   3.954  15.337  0.0085  0.0359 -0.7799
   92MPD2    H2 1438   3.923   3.775  15.500 -0.4383  1.3381 -0.3455
   92MPD2    H3 1439   4.071   3.798  15.343 -3.0556  0.4645  1.5581
   92MPD2     N 1440   4.302   4.154  15.527 -0.8080  0.2156 -0.6981
   92MPD2    H5 1441   4.365   4.151  15.448  0.3380 -0.8764  0.2538
   92MPD2    N1 1442   3.925   3.923  15.751  0.1422  0.5733 -0.2428
   92MPD2    H7 1443   3.931   3.993  15.825 -2.0177  1.4956 -0.9625
   93TMC2    C1 1444   1.296   4.200  13.894 -0.3228  0.8469 -0.1789
   93TMC2    C2 1445   1.218   4.273  13.983  0.4918 -0.0322 -0.1334
   93TMC2    C3 1446   1.270   4.383  14.049  1.2499 -0.2501  0.0719
   93TMC2    C4 1447   1.431   4.230  13.887 -0.4947  0.2451 -0.5103
   93TMC2    C5 1448   1.476   4.346  13.943 -0.3533  0.8783 -0.4523
   93TMC2    C6 1449   1.400   4.425  14.024 -0.2726  0.8991  0.9464
   93TMC2     C 1450   1.279   4.054  13.883 -0.0911 -0.1779  0.3580
   93TMC2     O 1451   1.368   3.985  13.932  0.8419  0.1580  0.3082
   93TMC2     H 1452   1.117   4.243  14.010  0.3383 -0.1778 -0.8671
   93TMC2    H1 1453   1.504   4.167  13.837 -0.1216  1.5512 -1.6265
   93TMC2    H2 1454   1.441   4.506  14.084 -0.7379  1.0108  1.1080
   93TMC2    C7 1455   1.619   4.369  13.924  0.0340 -0.1566 -0.1470
   93TMC2    C8 1456   1.191   4.434  14.162 -0.4065  0.3479  0.4135
   93TMC2    O1 1457   1.677   4.313  13.831  0.7117 -0.2460  0.0127
   93TMC2    O2 1458   1.072   4.424  14.147  0.0503  0.0620 -0.4652
   93TMC2    O5 1459   1.249   4.368  14.266 -0.6935 -0.1516  0.2265
   93TMC2    H5 1460   1.342   4.341  14.250  0.0527  1.5228  1.6589
   94MPD2     C 1461   1.186   3.787  13.805  0.3839  0.1592 -0.3204
   94MPD2    C1 1462   1.112   3.896  13.786 -0.0082  0.2580 -0.0724
   94MPD2    C2 1463   0.989   3.887  13.724 -0.3278 -0.1619  0.4978
   94MPD2    C3 1464   0.944   3.765  13.683 -0.0183  0.3255 -0.2553
   94MPD2    C4 1465   1.025   3.655  13.709  0.5386  0.0588 -0.4307
   94MPD2    C5 1466   1.142   3.660  13.779  0.1325  0.4292 -0.0868
   94MPD2     H 1467   0.934   3.978  13.703 -0.6450 -0.7359 -1.1465
   94MPD2    H1 1468   0.974   3.561  13.690  0.4620 -0.2009  1.0408
   94MPD2    H2 1469   1.290   3.792  13.838  0.1786 -1.3983  0.5854
   94MPD2    H3 1470   1.201   3.570  13.791  1.4124  0.9220 -2.8017
   94MPD2     N 1471   0.819   3.751  13.621  0.0510 -0.9423  0.0782
   94MPD2    H5 1472   0.782   3.659  13.598  0.4218 -0.9781 -0.3873
   94MPD2    N1 1473   1.157   4.024  13.817  0.4675 -0.1342  0.3769
   94MPD2    H7 1474   1.098   4.105  13.806  0.5344 -0.0965  0.2986
   95TMC2    C1 1475   0.882   0.966  16.287 -0.1858  0.2380 -0.2108
   95TMC2    C2 1476   0.859   0.856  16.368  0.0839 -0.4777  0.1604
   95TMC2    C3 1477   0.783   0.882  16.483 -0.1514  0.6882 -0.0730
   95TMC2    C4 1478   0.865   1.094  16.335  0.2173  0.1363 -0.0604
   95TMC2    C5 1479   0.785   1.109  16.448  0.6050  0.1398 -0.3891
   95TMC2    C6 1480   0.738   1.003  16.517  0.1482  0.4229 -0.5702
   95TMC2     C 1481   0.914   0.947  16.145  0.1363  0.2386  0.0675
   95TMC2     O 1482   0.919   1.045  16.077  0.0938 -0.0786 -0.0193
   95TMC2     H 1483   0.890   0.757  16.338  1.1089 -0.7993  2.2765
   95TMC2    H1 1484   0.889   1.179  16.273  0.4669 -0.6062 -0.9938
   95TMC2    H2 1485   0.677   1.016  16.606 -0.2110 -0.3764 -0.6992
   95TMC2    C7 1486   0.760   1.243  16.499  0.2399 -0.1598  1.1369
   95TMC2    C8 1487   0.710   0.768  16.535  0.2044  0.5840  0.1906
   95TMC2    O1 1488   0.665   1.252  16.575  0.2756 -0.3341 -0.4018
   95TMC2    O2 1489   0.712   0.656  16.482  0.2566 -0.0858 -0.0038
   95TMC2    O5 1490   0.690   0.786  16.673  0.1904  0.2248 -0.3045
   95TMC2    H5 1491   0.715   0.876  16.701 -0.8970  1.2617 -2.7244
   96MPD2     C 1492   1.087   0.649  15.759 -0.0229 -1.3520  0.4293
   96MPD2    C1 1493   1.078   0.786  15.773 -0.1224 -0.6149  0.3371
   96MPD2    C2 1494   1.027   0.841  15.889 -0.2643 -0.3108 -0.5675
   96MPD2    C3 1495   1.000   0.763  15.996 -0.2733 -0.3598  0.0238
   96MPD2    C4 1496   1.024   0.629  15.986 -0.1420 -0.5824  0.2623
   96MPD2    C5 1497   1.056   0.571  15.866  0.6377 -0.5160  1.0164
   96MPD2     H 1498   1.005   0.946  15.899 -0.6846 -0.3926 -0.6190
   96MPD2    H1 1499   0.995   0.565  16.069  0.7620 -1.1232  0.1641
   96MPD2    H2 1500   1.123   0.598  15.670 -3.6748  0.7901 -2.2268
   96MPD2    H3 1501   1.055   0.463  15.856 -0.7113 -0.3979 -0.0001
   96MPD2     N 1502   0.947   0.816  16.119 -0.3863  0.1660  0.3554
   96MPD2    H5 1503   0.940   0.745  16.191 -1.0550  0.8899  1.0037
   96MPD2    N1 1504   1.114   0.863  15.657 -0.7155 -0.0584 -0.0152
   96MPD2    H7 1505   1.137   0.804  15.577 -0.6353  0.7017 -0.5529
   97TMC2    C1 1506   2.851   2.616  17.697 -0.2287 -0.4298  0.2702
   97TMC2    C2 1507   2.923   2.519  17.626 -0.0908  0.1015 -0.0464
   97TMC2    C3 1508   3.047   2.559  17.583 -0.4993 -0.3816  0.4449
   97TMC2    C4 1509   2.901   2.744  17.720  0.5114 -0.6158  0.3374
   97TMC2    C5 1510   3.027   2.768  17.677  0.6608 -0.2388 -0.0384
   97TMC2    C6 1511   3.099   2.684  17.599  0.4580  0.2793  0.4618
   97TMC2     C 1512   2.729   2.583   0.032  0.0435 -0.6075  0.3156
   97TMC2     O 1513   2.655   2.671   0.078  0.9782  0.4405  0.4246
   97TMC2     H 1514   2.893   2.415  17.616  0.5555 -0.0220 -0.7390
   97TMC2    H1 1515   2.843   2.822   0.029  1.0449  1.9870 -3.0982
   97TMC2    H2 1516   3.204   2.706  17.583  0.3265  0.2499 -0.4103
   97TMC2    C7 1517   3.071   2.905  17.702 -0.2126 -0.4947  0.0745
   97TMC2    C8 1518   3.116   2.454  17.505 -0.2866 -0.4011  0.0408
   97TMC2    O1 1519   3.016   2.971   0.050 -0.3468 -0.3167  0.0359
   97TMC2    O2 1520   3.090   2.338  17.534  0.4703 -0.2398  0.0825
   97TMC2    O5 1521   3.109   2.506  17.382 -0.1448  0.6087  0.4225
   97TMC2    H5 1522   3.113   2.604  17.384  0.6351  0.5773  0.2049
   98MPD2     C 1523   2.423   2.237   0.280  0.1490 -0.0316 -0.0228
   98MPD2    C1 1524   2.406   2.374   0.275  0.5943 -0.8275  1.0333
   98MPD2    C2 1525   2.506   2.455   0.208  0.0393  0.1338  0.1691
   98MPD2    C3 1526   2.617   2.385   0.158  0.4298 -0.2674 -0.4490
   98MPD2    C4 1527   2.632   2.250   0.180 -0.4819  0.1096  0.4243
   98MPD2    C5 1528   2.534   2.175   0.239  0.2652 -0.0029  0.2174
   98MPD2     H 1529   2.493   2.560   0.183 -0.6340  0.1627  0.6331
   98MPD2    H1 1530   2.713   2.194   0.135 -0.8805 -0.7299  0.7490
   98MPD2    H2 1531   2.343   2.176   0.323  1.4062 -0.7660  1.2888
   98MPD2    H3 1532   2.542   2.068   0.251 -0.2103 -0.3633 -2.6490
   98MPD2     N 1533   2.714   2.451   0.068 -0.3717  0.1018  0.6424
   98MPD2    H5 1534   2.786   2.387   0.035 -0.4790 -0.3745  1.3301
   98MPD2    N1 1535   2.292   2.429   0.332 -0.0942  0.2041  0.1907
   98MPD2    H7 1536   2.224   2.362   0.364 -0.2943 -0.5817 -1.8554
   99TMC2    C1 1537   2.165   1.039   0.791  0.0581  0.1391  0.4333
   99TMC2    C2 1538   2.225   1.157   0.749 -0.7601  0.2599  0.4074
   99TMC2    C3 1539   2.187   1.276   0.816  0.0837 -0.4671 -0.0703
   99TMC2    C4 1540   2.083   1.036   0.899  0.1700 -0.6400 -0.6888
   99TMC2    C5 1541   2.059   1.155   0.972  0.0234 -0.0510  0.4602
   99TMC2    C6 1542   2.112   1.273   0.932  0.0489 -0.4511 -0.7139
   99TMC2     C 1543   2.187   0.920   0.707  0.7569 -0.0608  0.5516
   99TMC2     O 1544   2.299   0.911   0.654  0.1630  0.0477  0.3743
   99TMC2     H 1545   2.295   1.155   0.665  0.4734 -0.4154  1.4464
   99TMC2    H1 1546   2.060   0.941   0.948  0.0225 -0.9564 -1.3753
   99TMC2    H2 1547   2.088   1.366   0.984  0.1772 -0.2423 -1.0262
   99TMC2    C7 1548   1.978   1.156   1.088  0.3451 -0.2265  0.0483
   99TMC2    C8 1549   2.228   1.404   0.762  0.2021 -0.6575  0.2851
   99TMC2    O1 1550   1.976   1.254   1.159 -0.7994 -0.0876  0.1548
   99TMC2    O2 1551   2.220   1.511   0.818 -0.1696 -0.4330  0.0350
   99TMC2    O5 1552   2.178   1.388   0.637 -0.0545  0.1238 -0.3020
   99TMC2    H5 1553   2.199   1.308   0.583  1.2741 -0.5141  1.1641
  100MPD2     C 1554   2.210   0.645   0.591  0.0803  0.3404  0.3628
  100MPD2    C1 1555   2.101   0.701   0.654 -0.7851  0.0454  0.9211
  100MPD2    C2 1556   1.990   0.620   0.653  0.2190  0.4426  0.0482
  100MPD2    C3 1557   1.990   0.502   0.580 -0.0114 -0.3905 -0.5750
  100MPD2    C4 1558   2.101   0.451   0.517  0.0054 -0.0501 -0.1747
  100MPD2    C5 1559   2.217   0.519   0.536  0.5988 -0.0897  0.2286
  100MPD2     H 1560   1.903   0.652   0.708 -0.5610  0.8263 -1.4117
  100MPD2    H1 1561   2.101   0.364   0.453  0.0060 -0.0556 -0.1671
  100MPD2    H2 1562   2.296   0.706   0.571  1.0057 -0.7694  0.9183
  100MPD2    H3 1563   2.304   0.480   0.484  0.0862 -0.1777 -0.5610
  100MPD2     N 1564   1.861   0.443   0.573 -0.5450 -0.5301  0.1459
  100MPD2    H5 1565   1.781   0.467   0.631 -0.0526  0.1589  0.5348
  100MPD2    N1 1566   2.087   0.827   0.716  0.1101 -0.0199  1.1833
  100MPD2    H7 1567   1.996   0.857   0.750 -0.1250  0.5169  0.0941
  101TMC2    C1 1568   2.141   1.861  12.847  0.0141  0.0880 -0.0432
  101TMC2    C2 1569   2.040   1.957  12.828 -0.2969 -0.0080  0.2050
  101TMC2    C3 1570   2.049   2.054  12.738 -0.1293 -0.3582 -0.1848
  101TMC2    C4 1571   2.253   1.862  12.763  0.2291 -0.0769  0.8281
  101TMC2    C5 1572   2.256   1.960  12.664 -0.1175  0.5189 -0.8131
  101TMC2    C6 1573   2.156   2.056  12.653  0.5221 -0.2597  0.0073
  101TMC2     C 1574   2.112   1.753  12.938  1.0083  0.2004 -0.0241
  101TMC2     O 1575   2.041   1.783  13.031 -0.2847 -0.3392  0.3364
  101TMC2     H 1576   1.953   1.954  12.892  0.8892 -1.2623  1.7397
  101TMC2    H1 1577   2.335   1.793  12.777 -1.5404 -2.7701 -1.9510
  101TMC2    H2 1578   2.145   2.114  12.562  0.8170 -0.7564 -0.3430
  101TMC2    C7 1579   2.321   1.913  12.539 -0.3202  0.6250 -0.0097
  101TMC2    C8 1580   1.962   2.161  12.756  0.1233 -0.9097  0.0025
  101TMC2    O1 1581   2.328   1.791  12.530  0.1023 -0.2496 -0.6858
  101TMC2    O2 1582   1.881   2.160  12.849  0.3001  0.0032  0.1538
  101TMC2    O5 1583   1.955   2.261  12.659 -0.3556  0.6888 -0.7721
  101TMC2    H5 1584   2.031   2.276  12.599 -0.2996 -0.5774 -1.0212
  102MPD2     C 1585   2.226   1.403  12.924  0.6088  0.1064  0.2438
  102MPD2    C1 1586   2.160   1.513  12.979  0.3390  0.6065  0.2509
  102MPD2    C2 1587   2.106   1.497  13.108  0.0304 -0.2623  0.3473
  102MPD2    C3 1588   2.097   1.369  13.161  0.3363  0.5414  1.1331
  102MPD2    C4 1589   2.162   1.259  13.103 -0.2952 -0.3987 -0.4139
  102MPD2    C5 1590   2.231   1.280  12.984  0.0738 -0.3852 -0.2815
  102MPD2     H 1591   2.064   1.584  13.156 -1.0012  0.3135 -1.5915
  102MPD2    H1 1592   2.168   1.158  13.142  0.6968 -0.3576 -0.4547
  102MPD2    H2 1593   2.272   1.408  12.826  1.5725 -0.8355  0.6483
  102MPD2    H3 1594   2.273   1.198  12.927 -3.5221 -1.8087 -0.8203
  102MPD2     N 1595   2.028   1.354  13.282 -0.1476 -0.1468 -0.2907
  102MPD2    H5 1596   2.003   1.441  13.328  1.2293  0.6348 -1.0255
  102MPD2    N1 1597   2.160   1.631  12.902  0.3806 -0.0369  0.5902
  102MPD2    H7 1598   2.212   1.635  12.815 -0.1221  1.0679  0.3399
  103TMC2    C1 1599   0.328   1.738  12.386  1.3451 -0.5647  0.0200
  103TMC2    C2 1600   0.380   1.801  12.282  0.4054 -0.1232  0.0616
  103TMC2    C3 1601   0.475   1.901  12.299 -0.2661 -0.0717  0.9835
  103TMC2    C4 1602   0.375   1.759  12.514 -0.4198 -0.4595  0.3896
  103TMC2    C5 1603   0.471   1.852  12.524 -0.8554 -0.2543  0.2826
  103TMC2    C6 1604   0.525   1.926  12.422  0.2374 -0.4433 -0.3619
  103TMC2     C 1605   0.193   1.682  12.362  0.1486  0.5235 -0.2034
  103TMC2     O 1606   0.148   1.683  12.249 -0.3138 -0.1542  0.1868
  103TMC2     H 1607   0.324   1.804  12.189  0.5743 -0.4386 -0.0502
  103TMC2    H1 1608   0.317   1.728  12.600 -0.6176 -1.8123 -0.2162
  103TMC2    H2 1609   0.622   1.970  12.438  0.6175 -1.1230 -0.8178
  103TMC2    C7 1610   0.481   1.909  12.655 -0.0799 -0.0163  0.4761
  103TMC2    C8 1611   0.498   1.991  12.186 -0.5667  0.2972 -0.6859
  103TMC2    O1 1612   0.480   1.827  12.749  0.1287 -0.4885  0.1250
  103TMC2    O2 1613   0.494   1.947  12.071  0.7033  0.2771 -0.1306
  103TMC2    O5 1614   0.612   2.059  12.225 -0.0079  0.5637 -0.4610
  103TMC2    H5 1615   0.591   2.089  12.316  2.3256  1.9644 -0.3772
  104MPD2     C 1616   4.689   1.554  12.615 -0.2097  0.5191 -0.2100
  104MPD2    C1 1617   4.723   1.603  12.489  0.0446  0.2229  0.3937
  104MPD2    C2 1618   4.623   1.636  12.399 -0.8113  0.7206 -0.0354
  104MPD2    C3 1619   4.491   1.614  12.433 -0.6284  0.4769  0.2647
  104MPD2    C4 1620   4.459   1.579  12.559  0.3125  0.5553  0.4921
  104MPD2    C5 1621   4.557   1.543  12.643  0.3843 -0.2394 -0.3515
  104MPD2     H 1622   4.642   1.675  12.300 -0.9740 -0.0432 -0.3628
  104MPD2    H1 1623   4.359   1.600  12.596  0.1793 -1.3812  1.2268
  104MPD2    H2 1624   0.030   1.547  12.692  0.2478 -0.9648 -0.7820
  104MPD2    H3 1625   4.526   1.497  12.737  2.3180 -3.0136 -1.0542
  104MPD2     N 1626   4.399   1.625  12.326  0.3131 -0.1399 -0.0995
  104MPD2    H5 1627   4.433   1.669  12.241  1.0997  0.4871  0.5563
  104MPD2    N1 1628   0.132   1.627  12.474  0.0953 -0.0115  0.1023
  104MPD2    H7 1629   0.194   1.603  12.550 -0.8034  0.3064  0.9260
  105TMC2    C1 1630   1.146   0.439   0.261  0.3469 -0.1747  0.1095
  105TMC2    C2 1631   1.076   0.481   0.151  0.0093 -0.3735  0.2864
  105TMC2    C3 1632   0.980   0.579   0.165  0.4824  0.2076 -0.1275
  105TMC2    C4 1633   1.126   0.502   0.385  0.2769  0.5192  0.1284
  105TMC2    C5 1634   1.036   0.599   0.392 -0.4110 -0.2498  0.3150
  105TMC2    C6 1635   0.960   0.638   0.284 -0.2442 -0.5519  0.0771
  105TMC2     C 1636   1.273   0.362   0.249  0.2012 -0.2655 -0.6018
  105TMC2     O 1637   1.328   0.327   0.352 -0.1275  0.3729  0.4016
  105TMC2     H 1638   1.106   0.434   0.058 -0.2132  0.6383 -0.3046
  105TMC2    H1 1639   1.160   0.460   0.479 -0.1629  0.5315  0.2895
  105TMC2    H2 1640   0.888   0.718   0.298 -0.3862 -0.9449  1.5869
  105TMC2    C7 1641   1.057   0.696   0.492  0.1782 -0.0411 -0.1967
  105TMC2    C8 1642   0.894   0.613   0.057  0.5934 -0.6161  0.7721
  105TMC2    O1 1643   1.173   0.731   0.514 -0.3700 -0.6575  0.3364
  105TMC2    O2 1644   0.837   0.719   0.046  0.0765 -0.7896  0.0040
  105TMC2    O5 1645   0.858   0.503  17.729 -0.4714 -0.2050  0.1962
  105TMC2    H5 1646   0.914   0.425   0.010  1.9171  1.1292 -1.2360
  106MPD2     C 1647   1.703   0.263  17.726  0.5691 -0.2788 -0.4441
  106MPD2    C1 1648   1.625   0.351  17.659  0.3517  0.8163  0.1583
  106MPD2    C2 1649   1.503   0.390  17.707  0.6829 -0.0779  0.4629
  106MPD2    C3 1650   1.460   0.336   0.087 -0.0979 -0.2226  0.5496
  106MPD2    C4 1651   1.542   0.255   0.165 -0.5888  0.0049 -0.8633
  106MPD2    C5 1652   1.671   0.226   0.116 -0.1475  0.4817 -0.4330
  106MPD2     H 1653   1.441   0.465  17.658 -0.1941 -0.9229  0.2792
  106MPD2    H1 1654   1.510   0.208   0.258  0.8407  1.9124  0.5924
  106MPD2    H2 1655   1.804   0.235  17.697  0.2905 -2.3161  0.5963
  106MPD2    H3 1656   1.732   0.145   0.153 -1.3316 -0.8024 -1.2818
  106MPD2     N 1657   1.329   0.374   0.125  0.5959 -0.0024  0.1028
  106MPD2    H5 1658   1.270   0.428   0.062  0.9243  2.5657  2.0103
  106MPD2    N1 1659   1.661   0.422  17.541  0.1317 -0.3852  0.5551
  106MPD2    H7 1660   1.586   0.468  17.490 -0.8612  1.3048  3.5843
  107TMC2    C1 1661   2.252   0.634  11.636 -0.2997 -0.3945 -0.5095
  107TMC2    C2 1662   2.302   0.684  11.518 -0.0908 -0.3264  0.4489
  107TMC2    C3 1663   2.379   0.591  11.447 -0.5468  0.5829  1.0249
  107TMC2    C4 1664   2.277   0.514  11.684 -0.0089  0.4892  0.3724
  107TMC2    C5 1665   2.355   0.430  11.612 -0.2526 -0.4344  0.4112
  107TMC2    C6 1666   2.413   0.467  11.493  0.3846 -0.0504 -0.4062
  107TMC2     C 1667   2.169   0.708  11.726  0.4507  0.6029  0.6134
  107TMC2     O 1668   2.153   0.654  11.836 -0.3922  0.3551 -0.2366
  107TMC2     H 1669   2.278   0.778  11.469 -0.3341  0.1611  1.5075
  107TMC2    H1 1670   2.244   0.478  11.781  3.2415 -1.2302  0.8524
  107TMC2    H2 1671   2.484   0.404  11.443  0.1556 -2.9722  2.9797
  107TMC2    C7 1672   2.373   0.292  11.658 -0.6716 -0.5371 -0.8776
  107TMC2    C8 1673   2.461   0.642  11.339 -0.5989 -0.3047  0.5034
  107TMC2    O1 1674   2.344   0.271  11.776 -0.3888 -0.0526 -0.0489
  107TMC2    O2 1675   2.493   0.760  11.322 -0.6892 -0.2388  0.0227
  107TMC2    O5 1676   2.493   0.546  11.252  0.7376 -0.5540 -0.5026
  107TMC2    H5 1677   2.452   0.458  11.269  2.2961 -1.8115 -3.2898
  108MPD2     C 1678   1.957   1.005  11.678 -0.4061  0.4678  0.9556
  108MPD2    C1 1679   2.032   0.914  11.743 -0.5374  0.2939  0.3575
  108MPD2    C2 1680   2.014   0.910  11.881  0.0523  0.0400  0.0573
  108MPD2    C3 1681   1.929   1.001  11.946  0.8027 -0.6969  0.7101
  108MPD2    C4 1682   1.873   1.102  11.875 -0.8794  0.2108  0.5068
  108MPD2    C5 1683   1.883   1.096  11.743 -0.1242  0.3071 -0.1965
  108MPD2     H 1684   2.066   0.835  11.940 -1.8576 -0.2182  1.4244
  108MPD2    H1 1685   1.804   1.167  11.929 -0.7435  0.8801 -0.1382
  108MPD2    H2 1686   1.966   1.013  11.570  1.4366 -0.5956  1.0233
  108MPD2    H3 1687   1.823   1.166  11.685 -0.1768 -0.3103 -0.8882
  108MPD2     N 1688   1.905   0.996  12.078  0.4351  0.2630 -0.3953
  108MPD2    H5 1689   1.854   1.075  12.117 -2.2209 -1.9359  0.5605
  108MPD2    N1 1690   2.109   0.822  11.669  0.3390 -0.2732 -0.6907
  108MPD2    H7 1691   2.112   0.850  11.571  1.0228 -2.2650 -1.2501
  109TMC2    C1 1692   1.213   1.904  17.716 -0.4961  0.2078 -0.2518
  109TMC2    C2 1693   1.262   1.901  17.591  0.4055  0.0939  0.1282
  109TMC2    C3 1694   1.396   1.914  17.573 -0.0530 -1.0961 -0.6009
  109TMC2    C4 1695   1.286   1.932   0.084  0.6944 -0.3501  0.0792
  109TMC2    C5 1696   1.417   1.966   0.064  0.4866  0.0020 -0.1184
  109TMC2    C6 1697   1.472   1.949  17.684  0.1391  0.0299 -0.2283
  109TMC2     C 1698   1.074   1.874  17.718 -0.0439  0.3262 -0.0463
  109TMC2     O 1699   1.011   1.901  17.615  0.1191 -0.1150 -0.1772
  109TMC2     H 1700   1.204   1.873  17.503  0.3268  2.0596 -0.4467
  109TMC2    H1 1701   1.243   1.931   0.183 -1.6933  1.4687 -0.9309
  109TMC2    H2 1702   1.579   1.960  17.682  0.3226 -1.7328  0.3410
  109TMC2    C7 1703   1.483   2.054   0.157 -0.3843  0.1590 -0.3933
  109TMC2    C8 1704   1.453   1.855  17.456 -0.8357 -0.7645 -0.1605
  109TMC2    O1 1705   1.598   2.081   0.133 -0.5634 -0.1060  0.1574
  109TMC2    O2 1706   1.382   1.796  17.376  0.4656 -0.1141  0.0024
  109TMC2    O5 1707   1.575   1.810  17.493 -0.4672  0.0170  0.1500
  109TMC2    H5 1708   1.635   1.869  17.544 -0.4627 -1.1790  1.5235
  110MPD2     C 1709   0.652   1.706   0.216 -0.0111 -0.3884  0.2370
  110MPD2    C1 1710   0.750   1.733   0.311 -0.1225  0.2052  0.4338
  110MPD2    C2 1711   0.870   1.795   0.272 -0.7609 -0.0143  0.4028
  110MPD2    C3 1712   0.900   1.804   0.141  0.5423 -0.3163 -0.0629
  110MPD2    C4 1713   0.809   1.760   0.044 -0.1159  0.6673  0.0901
  110MPD2    C5 1714   0.688   1.712   0.084 -0.3072  0.2664  0.1836
  110MPD2     H 1715   0.951   1.811   0.342 -0.5755  0.6148  0.0453
  110MPD2    H1 1716   0.839   1.752  17.680  2.5553 -1.4758  1.0488
  110MPD2    H2 1717   0.552   1.675   0.243 -0.5214  0.4120 -0.7544
  110MPD2    H3 1718   0.615   1.673   0.014 -0.4584 -1.0125  1.0601
  110MPD2     N 1719   1.028   1.850   0.108  0.3442 -0.2171 -0.1141
  110MPD2    H5 1720   1.091   1.869   0.186  1.7226  0.3282 -1.3658
  110MPD2    N1 1721   0.720   1.732   0.444 -0.2744 -0.4101 -0.4711
  110MPD2    H7 1722   0.622   1.715   0.466 -0.2767  0.5189  0.2154
  111TMC2    C1 1723   2.308   2.303  10.924 -0.3386  0.1458  0.0459
  111TMC2    C2 1724   2.355   2.269  10.800  0.3795 -0.5216 -0.3943
  111TMC2    C3 1725   2.470   2.207  10.787  0.4440  0.0968 -0.2695
  111TMC2    C4 1726   2.378   2.287  11.039  0.7032 -0.9074 -0.1923
  111TMC2    C5 1727   2.500   2.219  11.026 -0.2867  0.1270 -0.6647
  111TMC2    C6 1728   2.548   2.180  10.903  0.5179  0.0198 -1.2068
  111TMC2     C 1729   2.193   2.393  10.928 -0.0288 -0.0176  0.1285
  111TMC2     O 1730   2.147   2.408  10.817  0.2775 -0.4636  0.2138
  111TMC2     H 1731   2.305   2.309  10.713  1.2560  0.2621 -0.5406
  111TMC2    H1 1732   2.325   2.283  11.134  0.8360 -0.1635 -0.0870
  111TMC2    H2 1733   2.649   2.144  10.891 -0.2948 -2.1899 -1.5261
  111TMC2    C7 1734   2.586   2.210  11.143  0.0130 -0.0999 -0.0738
  111TMC2    C8 1735   2.532   2.185  10.652  0.0828 -0.1964 -0.3428
  111TMC2    O1 1736   2.540   2.177  11.250 -0.7142 -0.1777  0.2217
  111TMC2    O2 1737   2.508   2.257  10.556  0.0942  0.1506 -0.0995
  111TMC2    O5 1738   2.644   2.110  10.662 -0.0158  0.4959 -0.2824
  111TMC2    H5 1739   2.627   2.030  10.716  0.9882 -0.4766 -1.3824
  112MPD2     C 1740   1.824   2.700  11.142  0.4791  0.0371 -0.1853
  112MPD2    C1 1741   1.846   2.648  11.012  0.4466  0.1042 -0.1629
  112MPD2    C2 1742   1.944   2.561  10.976 -0.3137  0.5648 -0.1113
  112MPD2    C3 1743   2.039   2.526  11.080  0.0370 -0.1165  0.0510
  112MPD2    C4 1744   2.006   2.560  11.207 -0.0919  0.1138 -0.1033
  112MPD2    C5 1745   1.912   2.650  11.238 -1.2382  1.1458 -0.9236
  112MPD2     H 1746   1.948   2.539  10.870 -1.2351  1.7411 -0.3978
  112MPD2    H1 1747   2.072   2.530  11.288  2.1839 -1.0464 -2.3762
  112MPD2    H2 1748   1.737   2.760  11.165  0.1890  0.0910 -1.4011
  112MPD2    H3 1749   1.894   2.678  11.342 -0.8413 -1.5555 -0.1378
  112MPD2     N 1750   2.150   2.437  11.051 -0.4019  0.0127 -0.6696
  112MPD2    H5 1751   2.202   2.398  11.128 -0.9912 -0.7781 -0.6738
  112MPD2    N1 1752   1.772   2.687  10.902  0.1898 -0.1425 -0.8695
  112MPD2    H7 1753   1.809   2.662  10.811  0.2816 -0.5581 -0.7193
  113TMC2    C1 1754   0.038   4.342   0.746  0.1859 -0.3229  0.0964
  113TMC2    C2 1755   4.651   4.397   0.736  0.9375 -0.2298  0.9474
  113TMC2    C3 1756   4.549   4.313   0.777  0.4648  0.4534 -0.2530
  113TMC2    C4 1757   0.064   4.212   0.758 -0.0960  0.4871  0.0684
  113TMC2    C5 1758   4.701   4.132   0.781  0.3342  0.4999 -0.6506
  113TMC2    C6 1759   4.569   4.180   0.805 -0.3963  0.7666  0.5614
  113TMC2     C 1760   0.149   4.435   0.740  0.4268 -0.0302 -0.4708
  113TMC2     O 1761   0.123   4.543   0.686  0.1393  0.8456 -0.5077
  113TMC2     H 1762   4.640   4.505   0.738 -2.4771 -0.4846 -2.9511
  113TMC2    H1 1763   0.160   4.165   0.742 -0.2016 -1.3547  4.9656
  113TMC2    H2 1764   4.487   4.116   0.834  0.2270 -0.2818  0.0115
  113TMC2    C7 1765   4.732   3.985   0.789 -0.1981  0.4179  0.6003
  113TMC2    C8 1766   4.421   4.378   0.788  0.3490 -0.2126 -0.1398
  113TMC2    O1 1767   0.092   3.948   0.722  0.1759 -0.1069  0.4701
  113TMC2    O2 1768   4.387   4.467   0.709  0.0669 -0.2298  0.1952
  113TMC2    O5 1769   4.361   4.347   0.908 -0.1930  0.3198  0.2648
  113TMC2    H5 1770   4.420   4.293   0.966 -0.3313 -0.7670 -0.6153
  114MPD2     C 1771   0.563   4.630   0.994 -0.4826  0.3518  0.5145
  114MPD2    C1 1772   0.467   4.696   0.915  0.4161 -0.6605 -0.2702
  114MPD2    C2 1773   0.363   4.618   0.869 -0.7424  0.5028 -0.0293
  114MPD2    C3 1774   0.354   4.478   0.883 -0.1087 -0.2269 -0.2969
  114MPD2    C4 1775   0.452   4.418   0.953  0.4357  0.1117 -0.3349
  114MPD2    C5 1776   0.557   4.491   1.008  0.2980 -0.0228 -0.2991
  114MPD2     H 1777   0.291   4.663   0.801 -1.7571 -0.1507  0.6086
  114MPD2    H1 1778   0.444   4.312   0.974  1.1486 -0.2932 -2.1328
  114MPD2    H2 1779   0.645   4.682   1.041  0.4016 -1.1364  0.6225
  114MPD2    H3 1780   0.628   4.434   1.065  0.3073  2.1815  1.8897
  114MPD2     N 1781   0.253   4.399   0.819 -0.3326 -0.0230 -0.1701
  114MPD2    H5 1782   0.260   4.300   0.843  0.7135 -0.1286 -0.8734
  114MPD2    N1 1783   0.460   0.105   0.911  0.2958 -0.7419  0.1171
  114MPD2    H7 1784   0.382   0.152   0.865  0.5098 -0.1276  0.3912
  115TMC2    C1 1785   1.547   2.581  17.490 -0.0991 -0.3168 -0.2662
  115TMC2    C2 1786   1.643   2.484  17.489 -0.8123  0.1572 -1.0483
  115TMC2    C3 1787   1.774   2.528  17.501 -1.1816  0.7242 -0.3292
  115TMC2    C4 1788   1.568   2.714  17.488  0.2086  0.1107 -1.1208
  115TMC2    C5 1789   1.699   2.746  17.477 -0.1369 -0.3232  0.2245
  115TMC2    C6 1790   1.802   2.662  17.502  0.4250 -0.9367 -0.4683
  115TMC2     C 1791   1.414   2.536  17.460  0.3169  0.3249 -0.3900
  115TMC2     O 1792   1.399   2.416  17.482 -0.1350  0.0074  0.1684
  115TMC2     H 1793   1.618   2.379  17.489 -2.7014  0.5993 -1.4442
  115TMC2    H1 1794   1.490   2.787  17.467 -0.8670  0.3062  3.5377
  115TMC2    H2 1795   1.907   2.684  17.514 -0.2109  0.7147  2.1312
  115TMC2    C7 1796   1.736   2.878  17.428 -0.3159  0.2622  0.7012
  115TMC2    C8 1797   1.880   2.439  17.468  0.3116  0.3562  0.2582
  115TMC2    O1 1798   1.654   2.968  17.456  0.6068  0.1054  0.2445
  115TMC2    O2 1799   1.977   2.486  17.414 -0.5160  0.0883  0.4854
  115TMC2    O5 1800   1.894   2.356  17.578 -0.4764 -0.4320  0.4331
  115TMC2    H5 1801   1.809   2.345  17.625 -1.7321  1.6420 -1.3204
  116MPD2     C 1802   1.044   2.490  17.116  0.4551 -0.6894 -0.1210
  116MPD2    C1 1803   1.090   2.398  17.203 -0.1312 -0.7463 -0.2090
  116MPD2    C2 1804   1.183   2.437  17.302  0.5408 -0.6271  0.3682
  116MPD2    C3 1805   1.217   2.571  17.313 -0.4171 -0.3247  0.4176
  116MPD2    C4 1806   1.159   2.661  17.228 -0.3776 -0.1912  0.2670
  116MPD2    C5 1807   1.086   2.619  17.119  0.2913  0.0419 -0.4410
  116MPD2     H 1808   1.232   2.358  17.357  2.1467  0.0519 -0.0777
  116MPD2    H1 1809   1.180   2.767  17.242 -0.9797 -0.0478  0.0799
  116MPD2    H2 1810   0.979   2.463  17.034 -0.2288 -0.2387  0.2746
  116MPD2    H3 1811   1.052   2.690  17.044  1.2593  0.4826 -0.4659
  116MPD2     N 1812   1.327   2.617  17.388  0.1173  0.2635  0.4396
  116MPD2    H5 1813   1.330   2.718  17.393  0.5831  0.2465  0.4582
  116MPD2    N1 1814   1.060   2.263  17.177  0.3762  0.1672 -0.3410
  116MPD2    H7 1815   1.006   2.240  17.095  0.0557 -0.3796  0.0184
  117TMC2    C1 1816   0.488   4.277  13.706  0.2393  0.1019 -0.3092
  117TMC2    C2 1817   0.590   4.253  13.615  0.2276 -0.6744  0.1415
  117TMC2    C3 1818   0.631   4.357  13.537  0.2367 -0.2935  0.1226
  117TMC2    C4 1819   0.432   4.398  13.709  0.5268 -0.3346 -0.1876
  117TMC2    C5 1820   0.468   4.502  13.624 -0.4938 -0.0612 -0.0148
  117TMC2    C6 1821   0.578   4.485  13.546 -0.1000  0.2373 -0.0734
  117TMC2     C 1822   0.397   4.168  13.741 -0.1976 -0.2772 -0.3450
  117TMC2     O 1823   0.438   4.062  13.786 -0.1678  0.6644  0.3521
  117TMC2     H 1824   0.606   4.148  13.592 -1.9015 -0.5735 -1.7905
  117TMC2    H1 1825   0.353   4.405  13.783  1.2454  2.1167  0.3745
  117TMC2    H2 1826   0.624   4.568  13.493  1.5374 -0.5588  0.0812
  117TMC2    C7 1827   0.417   4.629  13.660  0.3768 -0.1253 -0.3371
  117TMC2    C8 1828   0.764   4.355  13.470  0.0576  0.3934  0.6189
  117TMC2    O1 1829   0.364   4.628  13.770  0.7946  0.3369  0.1718
  117TMC2    O2 1830   0.814   4.445  13.414 -0.0872 -0.4950  0.5522
  117TMC2    O5 1831   0.831   4.248  13.529 -0.2079  0.1597 -0.5360
  117TMC2    H5 1832   0.772   4.185  13.576  1.1769  0.0655  1.1084
  118MPD2     C 1833   0.477   0.231  13.523 -0.1781 -0.2957 -1.2179
  118MPD2    C1 1834   0.426   0.138  13.607 -0.4685  0.9201 -0.2979
  118MPD2    C2 1835   0.332   0.184  13.701  0.8242  0.3030 -0.1192
  118MPD2    C3 1836   0.301   0.320  13.716  0.5865  0.1629  0.1417
  118MPD2    C4 1837   0.356   0.406  13.622 -0.2693 -0.7553  0.4199
  118MPD2    C5 1838   0.442   0.366  13.533 -0.7665  0.2659  0.0518
  118MPD2     H 1839   0.293   0.112  13.773  3.3540  0.2070  1.1637
  118MPD2    H1 1840   0.343   0.513  13.630 -1.2710 -0.9454  1.1976
  118MPD2    H2 1841   0.562   0.206  13.461  1.6361  0.6291  0.9060
  118MPD2    H3 1842   0.496   0.435  13.468 -0.1829 -1.2685 -1.1061
  118MPD2     N 1843   0.214   0.360  13.819 -0.2348 -0.3995 -0.2616
  118MPD2    H5 1844   0.214   0.461  13.827  1.4746 -0.4505  0.5169
  118MPD2    N1 1845   0.458   0.005  13.585 -0.4250  0.1480 -0.5222
  118MPD2    H7 1846   0.515   4.715  13.505  1.9105  1.1553  0.8077
  119TMC2    C1 1847   2.711   1.068  13.369  0.2452 -0.6102 -0.7813
  119TMC2    C2 1848   2.728   0.937  13.334  0.5187 -0.0823  0.3880
  119TMC2    C3 1849   2.662   0.850  13.422  0.0729  0.3774  0.1011
  119TMC2    C4 1850   2.637   1.104  13.476 -0.3140  0.0381  0.0692
  119TMC2    C5 1851   2.588   1.014  13.564  0.2448 -0.5842  0.3477
  119TMC2    C6 1852   2.592   0.879  13.537  0.0188 -0.2885  0.4259
  119TMC2     C 1853   2.827   1.159  13.337 -0.2593  0.4420  0.0956
  119TMC2     O 1854   2.860   1.181  13.223 -0.4140  0.3608 -0.1670
  119TMC2     H 1855   2.784   0.906  13.247 -0.6447  0.1176 -0.4315
  119TMC2    H1 1856   2.615   1.209  13.494 -0.5490  0.0570 -0.3465
  119TMC2    H2 1857   2.545   0.798  13.591  0.9426  0.8103  2.8837
  119TMC2    C7 1858   2.546   1.064  13.694 -0.1205 -0.4550  0.0709
  119TMC2    C8 1859   2.685   0.707  13.400 -0.0881 -0.6418  0.3624
  119TMC2    O1 1860   2.585   1.170  13.739  0.0574  0.0754  0.2046
  119TMC2    O2 1861   2.611   0.615  13.434 -0.2378 -0.1093 -0.1199
  119TMC2    O5 1862   2.793   0.697  13.319 -0.5589 -0.3522  0.0048
  119TMC2    H5 1863   2.863   0.765  13.335 -0.1968 -0.5689 -0.6465
  120MPD2     C 1864   3.038   1.593  13.482  0.0109 -0.4526  0.1080
  120MPD2    C1 1865   3.020   1.515  13.595 -0.6408 -0.1215 -0.2918
  120MPD2    C2 1866   2.980   1.391  13.578 -0.2112  0.3627 -0.3191
  120MPD2    C3 1867   2.938   1.345  13.452  0.8462 -0.2099 -0.0865
  120MPD2    C4 1868   2.933   1.435  13.349 -0.7593 -0.4770  0.2626
  120MPD2    C5 1869   2.992   1.558  13.363  0.4980 -0.2725 -0.3055
  120MPD2     H 1870   2.968   1.312  13.651  0.0192 -0.4832 -1.1838
  120MPD2    H1 1871   2.891   1.412  13.251  0.2722  0.8622 -0.4931
  120MPD2    H2 1872   3.077   1.693  13.490 -0.1024 -0.4370  0.5029
  120MPD2    H3 1873   3.007   1.629  13.283 -2.8614 -0.6134 -1.2301
  120MPD2     N 1874   2.878   1.217  13.452  0.3084 -0.4185  0.6953
  120MPD2    H5 1875   2.861   1.168  13.540  0.4030  1.0770  1.5330
  120MPD2    N1 1876   3.036   1.551  13.729  0.5578 -0.1035 -0.2801
  120MPD2    H7 1877   3.034   1.480  13.801  0.6218 -0.3736 -0.5412
  121TMC2    C1 1878   4.704   2.459  14.205 -0.0418  0.0114 -0.3179
  121TMC2    C2 1879   4.691   2.584  14.261  0.2319 -0.7768 -0.7114
  121TMC2    C3 1880   4.587   2.606  14.351  0.5755 -0.4607  0.1328
  121TMC2    C4 1881   4.605   2.372  14.217 -0.2683 -0.3159 -0.1577
  121TMC2    C5 1882   4.492   2.404  14.298 -0.1615 -0.4635  0.5509
  121TMC2    C6 1883   4.479   2.523  14.370  0.3097 -0.0830  0.4121
  121TMC2     C 1884   0.067   2.429  14.108  0.2181 -0.1616 -0.6177
  121TMC2     O 1885   0.084   2.311  14.078 -0.0585 -0.1897 -0.0160
  121TMC2     H 1886   0.032   2.659  14.248  0.6276 -1.5328 -2.7031
  121TMC2    H1 1887   4.606   2.274  14.171 -1.1271 -1.4839  2.3204
  121TMC2    H2 1888   4.396   2.556  14.431 -0.5782  1.3421 -1.5868
  121TMC2    C7 1889   4.382   2.313  14.283 -0.3942 -0.3960  0.7465
  121TMC2    C8 1890   4.564   2.738  14.400  0.7946 -0.6867 -0.3797
  121TMC2    O1 1891   4.410   2.203  14.241  0.3160  0.6301  0.1469
  121TMC2    O2 1892   4.489   2.762  14.494  0.5795 -0.0262 -0.0807
  121TMC2    O5 1893   4.569   2.814  14.288  0.2557 -0.2490  0.5809
  121TMC2    H5 1894   4.588   2.763  14.207 -0.7151  0.3964 -0.0590
  122MPD2     C 1895   0.306   2.460  13.950  0.0623  0.1545  0.0258
  122MPD2    C1 1896   0.205   2.552  13.946  0.4225 -0.4902 -0.0078
  122MPD2    C2 1897   0.226   2.654  13.855  0.8792  0.4962 -0.7858
  122MPD2    C3 1898   0.333   2.667  13.776  0.4566  0.0155 -0.6210
  122MPD2    C4 1899   0.428   2.567  13.780 -0.5652  0.1166 -0.0347
  122MPD2    C5 1900   0.405   2.457  13.856  0.0418 -0.1878 -0.2904
  122MPD2     H 1901   0.146   2.728  13.853  0.4628  0.0270 -1.5142
  122MPD2    H1 1902   0.485   2.558  13.688  1.0262  0.7089  0.9021
  122MPD2    H2 1903   0.305   2.377  14.020  0.5440  0.6707  0.6438
  122MPD2    H3 1904   0.473   2.373  13.851 -0.9657 -0.8000 -3.6776
  122MPD2     N 1905   0.330   2.759  13.666  0.4634 -0.0285 -0.8072
  122MPD2    H5 1906   0.410   2.750  13.604  1.0113  0.1176 -0.1241
  122MPD2    N1 1907   0.097   2.546  14.037  0.4426  0.1245  0.6221
  122MPD2    H7 1908   0.035   2.627  14.035  1.3435  0.8214  0.7103
  123TMC2    C1 1909   2.526   1.112  10.429 -0.3505 -0.6134  0.2392
  123TMC2    C2 1910   2.645   1.144  10.489  0.1294 -0.5668  0.5773
  123TMC2    C3 1911   2.747   1.056  10.464 -0.1678  0.0471  0.3324
  123TMC2    C4 1912   2.505   1.002  10.348 -0.6881  0.5019 -0.3639
  123TMC2    C5 1913   2.610   0.918  10.334 -0.7386  0.2381 -0.2756
  123TMC2    C6 1914   2.729   0.940  10.387  0.1717  0.0774  0.3829
  123TMC2     C 1915   2.418   1.210  10.439  0.1752  0.1961 -0.8090
  123TMC2     O 1916   2.447   1.322  10.474  0.0351  0.4002 -0.3399
  123TMC2     H 1917   2.650   1.226  10.560 -2.2823  1.1394 -1.2631
  123TMC2    H1 1918   2.406   0.973  10.314 -1.4005  1.9539  0.4477
  123TMC2    H2 1919   2.808   0.866  10.388  0.7079  0.6471  0.4431
  123TMC2    C7 1920   2.581   0.798  10.248  0.3911 -0.0648 -0.1736
  123TMC2    C8 1921   2.878   1.075  10.509 -0.4941 -0.0508  0.1930
  123TMC2    O1 1922   2.460   0.770  10.242 -0.3426 -0.1044  0.0991
  123TMC2    O2 1923   2.944   0.977  10.536 -0.2152 -0.4185 -0.0886
  123TMC2    O5 1924   2.917   1.172  10.424  0.1783 -0.0236 -0.2414
  123TMC2    H5 1925   2.857   1.248  10.438 -0.0171 -0.3444  0.6413
  124MPD2     C 1926   1.939   1.367  10.375  0.1986  0.2935  0.5909
  124MPD2    C1 1927   1.951   1.236  10.335  0.0553 -0.1383  0.8452
  124MPD2    C2 1928   2.068   1.174  10.362  0.1090 -0.1691 -0.2675
  124MPD2    C3 1929   2.176   1.233  10.416 -0.2404 -0.2748  0.4472
  124MPD2    C4 1930   2.161   1.364  10.464 -0.1164 -0.1951  0.1225
  124MPD2    C5 1931   2.042   1.427  10.440  0.4174 -0.1208  0.4113
  124MPD2     H 1932   2.070   1.074  10.319 -2.4067  0.3884 -1.6760
  124MPD2    H1 1933   2.236   1.425  10.513  0.6086  0.0837 -1.3476
  124MPD2    H2 1934   1.853   1.430  10.353  0.3617  0.5313  0.6281
  124MPD2    H3 1935   2.026   1.521  10.491  2.2689 -0.6144  1.9337
  124MPD2     N 1936   2.297   1.159  10.413 -0.3613 -0.1910  0.4865
  124MPD2    H5 1937   2.286   1.059  10.402 -2.3559  0.1174 -0.3159
  124MPD2    N1 1938   1.836   1.169  10.275  0.5824  0.4959  0.3047
  124MPD2    H7 1939   1.756   1.227  10.250 -0.4130 -0.7505  0.5825
  125TMC2    C1 1940   2.622   3.042   9.589 -0.2259  0.5227 -0.4407
  125TMC2    C2 1941   2.587   3.146   9.512  0.2656  0.7008  1.0176
  125TMC2    C3 1942   2.686   3.209   9.448  0.2256  0.1580  0.8757
  125TMC2    C4 1943   2.747   3.002   9.603  0.1172 -0.0103  0.5297
  125TMC2    C5 1944   2.842   3.073   9.537 -0.3756 -0.3615  0.1425
  125TMC2    C6 1945   2.823   3.184   9.464 -0.3591 -0.0291  0.4751
  125TMC2     C 1946   2.515   2.942   9.626  0.8812  0.7483  0.0511
  125TMC2     O 1947   2.424   2.931   9.544 -0.2964 -0.4571 -0.0496
  125TMC2     H 1948   2.486   3.173   9.485  0.4105  1.8608  1.6348
  125TMC2    H1 1949   2.775   2.917   9.664 -2.3983 -1.8480 -0.9025
  125TMC2    H2 1950   2.895   3.203   9.386 -2.0466 -0.0251 -1.0775
  125TMC2    C7 1951   2.980   3.036   9.561 -0.0901  0.2657  0.1789
  125TMC2    C8 1952   2.642   3.324   9.370  0.2522 -0.0759 -1.0042
  125TMC2    O1 1953   2.991   2.919   9.591 -0.6362 -0.4408  0.0162
  125TMC2    O2 1954   2.528   3.345   9.328  0.4784 -0.2180  0.2276
  125TMC2    O5 1955   2.738   3.416   9.362  0.4890 -0.2452  0.4659
  125TMC2    H5 1956   2.813   3.385   9.417  1.6281 -1.7353 -1.9498
  126MPD1     C 1957   2.300   2.605   9.946 -0.4121 -0.3835 -0.0293
  126MPD1    C1 1958   2.402   2.660  10.016 -0.3334  0.0132  0.5816
  126MPD1    C2 1959   2.486   2.747   9.944  0.1852 -0.4246 -0.5556
  126MPD1    C3 1960   2.454   2.788   9.813 -0.3307  0.5619 -0.5750
  126MPD1    C4 1961   2.342   2.739   9.750 -0.6131  0.2272 -0.8768
  126MPD1    C5 1962   2.271   2.648   9.821 -1.5490  0.5501  0.5863
  126MPD1     H 1963   2.582   2.776   9.985 -0.3461  0.0308  0.3843
  126MPD1    H1 1964   2.299   2.764   9.654 -1.6018  1.3578 -0.1437
  126MPD1    H2 1965   2.228   2.536   9.989 -1.1480  0.7615  0.5753
  126MPD1    H3 1966   2.186   2.605   9.768  0.7312 -1.4941 -1.4302
  126MPD1     N 1967   2.534   2.878   9.746  0.0682 -0.2217 -0.2989
  126MPD1    H5 1968   2.618   2.907   9.795 -0.0829  0.5583 -0.4946
  126MPD1    N1 1969   2.439   2.595  10.137  0.4141 -0.1974  0.1955
  126MPD1    H6 1970   2.502   2.660  10.183 -0.8957  1.3343 -0.1943
  126MPD1    H7 1971   2.357   2.595  10.197  1.8405 -2.1941  2.1616
  127TMC2    C1 1972   3.872   1.866  10.003  0.9376  0.2353  0.5592
  127TMC2    C2 1973   3.964   1.770   9.994 -0.0619 -0.0971  0.6916
  127TMC2    C3 1974   3.935   1.657  10.058  0.0617 -0.1030  0.2668
  127TMC2    C4 1975   3.756   1.843  10.078  0.8724  0.2865 -0.3051
  127TMC2    C5 1976   3.728   1.726  10.132  0.7304 -0.1595 -0.1635
  127TMC2    C6 1977   3.816   1.621  10.117 -0.0244  0.0562  0.7646
  127TMC2     C 1978   3.897   2.001   9.947  0.3805  0.3176 -0.5500
  127TMC2     O 1979   4.000   2.019   9.885 -0.4302  0.1566 -0.0524
  127TMC2     H 1980   4.056   1.792   9.941 -1.0876  1.3715 -0.5004
  127TMC2    H1 1981   3.684   1.924  10.080  0.5513 -0.0277  1.4839
  127TMC2    H2 1982   3.809   1.539  10.188 -2.7651 -0.1577  0.2253
  127TMC2    C7 1983   3.596   1.707  10.184  0.6078  0.2999 -1.2130
  127TMC2    C8 1984   4.046   1.562  10.073 -0.7794  0.5772  0.6056
  127TMC2    O1 1985   3.518   1.803  10.195 -0.6165 -0.7153  0.0061
  127TMC2    O2 1986   4.165   1.587  10.050  0.4624  0.5002 -0.2833
  127TMC2    O5 1987   3.989   1.440  10.042  0.0138  0.1761  0.0979
  127TMC2    H5 1988   3.891   1.443  10.054  0.0633 -0.5353  0.7055
  128MPD2     C 1989   3.671   2.276   9.870  0.1674  0.0766  0.5182
  128MPD2    C1 1990   3.784   2.218   9.912  0.5559 -0.4477  0.1542
  128MPD2    C2 1991   3.902   2.293   9.921 -0.0032 -0.0896 -0.4282
  128MPD2    C3 1992   3.898   2.427   9.899  0.4068 -0.4799  0.3935
  128MPD2    C4 1993   3.784   2.486   9.857  0.4642 -0.0356  0.3702
  128MPD2    C5 1994   3.675   2.405   9.836 -0.7070 -0.1491  0.4558
  128MPD2     H 1995   3.990   2.241   9.956  0.2279 -0.0185 -0.9093
  128MPD2    H1 1996   3.762   2.590   9.839  1.5687 -0.2101 -2.0119
  128MPD2    H2 1997   3.575   2.225   9.861 -0.6534  1.6720  0.3041
  128MPD2    H3 1998   3.585   2.463   9.815 -0.6444  0.4719  1.8686
  128MPD2     N 1999   4.019   2.502   9.900 -0.1318  0.0874  0.3302
  128MPD2    H5 2000   4.103   2.451   9.924  0.1970  0.5934  0.2316
  128MPD2    N1 2001   3.783   2.077   9.940 -0.2760 -0.1139  0.4745
  128MPD2    H7 2002   3.691   2.044   9.967  0.6315  0.1313  3.8331
  129TMC2    C1 2003   2.129   2.837   1.073 -0.6238  0.5874  0.2058
  129TMC2    C2 2004   2.229   2.791   0.989 -0.0925 -0.7375 -0.1575
  129TMC2    C3 2005   2.214   2.662   0.960 -0.2403 -0.5645  0.1154
  129TMC2    C4 2006   2.036   2.755   1.135 -0.4482  0.5212  0.3810
  129TMC2    C5 2007   2.017   2.627   1.089  0.6777  0.0307 -0.5391
  129TMC2    C6 2008   2.103   2.579   0.989  0.2509  0.1955 -0.2285
  129TMC2     C 2009   2.137   2.971   1.119  0.5135 -0.0702 -0.0168
  129TMC2     O 2010   2.081   3.004   1.224 -0.7908 -0.3930 -0.5766
  129TMC2     H 2011   2.312   2.854   0.960 -1.7095  0.7346 -1.5943
  129TMC2    H1 2012   1.967   2.792   1.210  1.1851  0.0496  2.1086
  129TMC2    H2 2013   2.086   2.477   0.955 -0.3995  0.2519 -0.0753
  129TMC2    C7 2014   1.903   2.539   1.124 -0.2864  0.4018 -0.2339
  129TMC2    C8 2015   2.317   2.607   0.870 -0.4217 -0.2099 -0.2553
  129TMC2    O1 2016   1.861   2.483   1.025  0.1585 -0.6845 -0.3569
  129TMC2    O2 2017   2.379   2.659   0.779  0.0271 -0.2676 -0.5801
  129TMC2    O5 2018   2.368   2.506   0.941 -0.1390  0.1152 -0.4559
  129TMC2    H5 2019   2.313   2.478   1.018  0.0388  0.6229 -0.1448
  130MPD2     C 2020   2.237   3.252   1.182  0.1403 -0.1142 -0.0170
  130MPD2    C1 2021   2.275   3.185   1.072 -0.0333 -0.3900  0.0923
  130MPD2    C2 2022   2.359   3.244   0.980  0.4946  0.2336 -0.3464
  130MPD2    C3 2023   2.419   3.369   1.002  0.4341 -0.3086 -0.1023
  130MPD2    C4 2024   2.368   3.440   1.114 -0.2671 -0.6537 -0.0255
  130MPD2    C5 2025   2.280   3.378   1.202 -0.0287 -0.5720  0.0172
  130MPD2     H 2026   2.375   3.189   0.888  2.7979  0.1571  0.1126
  130MPD2    H1 2027   2.388   3.545   1.134 -0.3342  0.0013 -3.4172
  130MPD2    H2 2028   2.173   3.205   1.256 -0.5098  0.5519 -0.1510
  130MPD2    H3 2029   2.262   3.436   1.292  0.5901  0.4433 -0.5105
  130MPD2     N 2030   2.506   3.425   0.912  0.3174 -0.1105  0.0293
  130MPD2    H5 2031   2.523   3.380   0.823 -1.5053 -0.8962  0.0657
  130MPD2    N1 2032   2.227   3.055   1.042 -0.1694 -0.1532  0.0805
  130MPD2    H7 2033   2.263   3.010   0.958  0.7272 -0.2253  0.5020
  131TMC2    C1 2034   2.011   1.795   9.895  0.3037 -0.9125 -0.6325
  131TMC2    C2 2035   2.078   1.796  10.017  0.0777 -0.4058  0.2108
  131TMC2    C3 2036   2.131   1.916  10.064  0.1777 -0.6795 -0.4043
  131TMC2    C4 2037   1.988   1.916   9.827  0.8642 -0.6648  0.4040
  131TMC2    C5 2038   2.026   2.033   9.886 -0.1329 -0.0068 -0.8369
  131TMC2    C6 2039   2.103   2.032   9.999 -0.1045 -0.3225 -0.2725
  131TMC2     C 2040   1.958   1.668   9.845 -0.5169 -0.5538  0.4461
  131TMC2     O 2041   1.997   1.573   9.913  0.2737 -0.1171 -0.2369
  131TMC2     H 2042   2.087   1.709  10.080  0.6171  1.0096  2.0734
  131TMC2    H1 2043   1.911   1.925   9.751 -0.6124 -1.7524  1.7829
  131TMC2    H2 2044   2.166   2.115  10.027 -1.8298  1.7176 -2.4002
  131TMC2    C7 2045   1.957   2.156   9.852  0.9897 -0.0990 -0.5098
  131TMC2    C8 2046   2.227   1.917  10.179  0.5253 -0.1622  0.3496
  131TMC2    O1 2047   1.897   2.153   9.747 -0.3732 -0.0145  0.4252
  131TMC2    O2 2048   2.224   1.821  10.256  0.6080  0.2270 -0.6275
  131TMC2    O5 2049   2.328   2.001  10.156  0.2912  0.2590  0.0300
  131TMC2    H5 2050   2.327   2.046  10.069  2.1082  2.4290  1.1125
  132MPD2     C 2051   1.731   1.558   9.569 -0.0479 -0.6750 -0.2749
  132MPD2    C1 2052   1.796   1.563   9.691  0.3590 -0.3158  0.5973
  132MPD2    C2 2053   1.779   1.451   9.779  0.0564 -0.5416 -0.3768
  132MPD2    C3 2054   1.709   1.338   9.732  0.2229  0.5537  0.1166
  132MPD2    C4 2055   1.632   1.340   9.614 -0.1228  0.1827  0.4846
  132MPD2    C5 2056   1.640   1.459   9.536  1.1048 -0.0161 -1.0088
  132MPD2     H 2057   1.820   1.448   9.880  1.8524  1.0474 -1.0668
  132MPD2    H1 2058   1.560   1.263   9.593  0.2160  0.0451 -0.1878
  132MPD2    H2 2059   1.717   1.644   9.503  3.6807  1.2783  1.5115
  132MPD2    H3 2060   1.581   1.468   9.446  0.5516  2.0183 -0.4323
  132MPD2     N 2061   1.712   1.225   9.815  0.1009  0.2635 -0.8478
  132MPD2    H5 2062   1.780   1.229   9.890  0.3064 -0.0237 -1.0205
  132MPD2    N1 2063   1.886   1.668   9.726 -0.4198  0.0368 -0.0628
  132MPD2    H7 2064   1.909   1.738   9.656 -1.7411  0.0917 -0.4346
  133TMC2    C1 2065   4.052   2.308   9.627 -0.1811  0.3471  0.1319
  133TMC2    C2 2066   4.017   2.419   9.555  0.0855  0.4175  0.5648
  133TMC2    C3 2067   3.890   2.419   9.493 -0.8683 -0.6972  0.3372
  133TMC2    C4 2068   3.969   2.194   9.629  0.1041  0.1003  0.2388
  133TMC2    C5 2069   3.851   2.203   9.564 -0.2749  0.3700  0.8291
  133TMC2    C6 2070   3.807   2.314   9.500 -0.1619 -0.0966  0.1318
  133TMC2     C 2071   4.188   2.301   9.682 -0.6039 -0.0286  0.5829
  133TMC2     O 2072   4.269   2.389   9.650 -0.0490  0.4374 -0.7112
  133TMC2     H 2073   4.071   2.513   9.552 -1.7468  1.4714  0.7051
  133TMC2    H1 2074   3.985   2.105   9.690 -1.6903 -0.9222 -0.7727
  133TMC2    H2 2075   3.723   2.314   9.432 -0.2115 -0.2581  0.1940
  133TMC2    C7 2076   3.767   2.086   9.557 -0.5880  0.2472  0.0231
  133TMC2    C8 2077   3.834   2.554   9.458 -0.5608  0.6371  0.3122
  133TMC2    O1 2078   3.819   1.980   9.589  0.0212  0.0213  0.7604
  133TMC2    O2 2079   3.907   2.649   9.428  0.2079 -0.1472 -0.5997
  133TMC2    O5 2080   3.721   2.561   9.527  0.1143  0.0627  0.3451
  133TMC2    H5 2081   3.673   2.480   9.552 -1.5188  0.6175 -0.9365
  134MPD2     C 2082   4.317   2.026   9.889 -0.0879 -0.9439  0.7132
  134MPD2    C1 2083   4.320   2.149   9.824  0.3736 -0.0116  0.1657
  134MPD2    C2 2084   4.435   2.235   9.825  0.2726 -0.6299 -0.2715
  134MPD2    C3 2085   4.557   2.181   9.863  0.2722 -0.3645  0.3769
  134MPD2    C4 2086   4.554   2.063   9.929 -0.1211  0.2188 -0.1978
  134MPD2    C5 2087   4.432   1.990   9.947 -1.0264  0.1693  0.2100
  134MPD2     H 2088   4.439   2.341   9.800  0.1495 -0.3112  1.0765
  134MPD2    H1 2089   4.649   2.026   9.966  0.3155 -0.1791 -1.7184
  134MPD2    H2 2090   4.226   1.968   9.900 -0.2351 -0.6279  1.1108
  134MPD2    H3 2091   4.427   1.906  10.016 -2.3408  0.3919  0.3770
  134MPD2     N 2092   4.683   2.242   9.844 -0.0453 -0.3449  0.5119
  134MPD2    H5 2093   0.024   2.212   9.904  0.0762 -0.0698  0.4932
  134MPD2    N1 2094   4.204   2.189   9.750  0.4554 -0.1013 -0.1495
  134MPD2    H7 2095   4.134   2.116   9.744 -0.0674  0.4424 -0.7092
  135TMC2    C1 2096   2.668   3.735   9.933 -1.0420 -0.0594 -0.9680
  135TMC2    C2 2097   2.566   3.637   9.940  0.6021  0.2366  0.2693
  135TMC2    C3 2098   2.556   3.570  10.063 -0.0235 -0.3035  0.0503
  135TMC2    C4 2099   2.755   3.764  10.037 -0.1230 -0.4116  0.0646
  135TMC2    C5 2100   2.734   3.687  10.150 -0.6413  0.1900 -0.9748
  135TMC2    C6 2101   2.637   3.596  10.166  0.7166  0.6808  0.2898
  135TMC2     C 2102   2.654   3.823   9.823  0.0791 -0.2385 -0.3393
  135TMC2     O 2103   2.544   3.830   9.764 -0.1317  0.0312 -0.0106
  135TMC2     H 2104   2.503   3.600   9.860  0.0638 -1.3980  1.4622
  135TMC2    H1 2105   2.824   3.847  10.045 -1.7000  1.0535 -1.6479
  135TMC2    H2 2106   2.635   3.531  10.253 -0.2301 -0.6999 -0.7593
  135TMC2    C7 2107   2.799   3.739  10.272  0.6082  0.1904  0.2998
  135TMC2    C8 2108   2.450   3.482  10.083  0.1506  0.0238  0.9937
  135TMC2    O1 2109   2.901   3.801  10.257  0.0024 -0.1739 -0.0913
  135TMC2    O2 2110   2.334   3.522  10.076 -0.5364 -0.4127  0.2005
  135TMC2    O5 2111   2.485   3.383  10.166  0.1703 -0.2928 -0.3078
  135TMC2    H5 2112   2.578   3.353  10.158 -0.3798 -2.2753  0.8031
  136MPD2     C 2113   2.686   4.046   9.641  0.2759 -0.1266 -0.0600
  136MPD2    C1 2114   2.788   3.971   9.685 -0.1219  0.7459 -0.4376
  136MPD2    C2 2115   2.908   3.966   9.610 -0.5709  0.5477  0.1768
  136MPD2    C3 2116   2.920   4.034   9.493 -0.5543 -0.1286 -0.2012
  136MPD2    C4 2117   2.808   4.098   9.445  1.0363 -0.2123  0.5860
  136MPD2    C5 2118   2.707   4.122   9.526 -0.4431  0.2585  0.0840
  136MPD2     H 2119   2.990   3.906   9.647 -0.9399 -0.4916 -0.6690
  136MPD2    H1 2120   2.806   4.158   9.355  0.4368 -1.7856 -0.4612
  136MPD2    H2 2121   2.589   4.071   9.682  1.2796 -2.7041  3.8689
  136MPD2    H3 2122   2.632   4.194   9.496 -1.4036 -1.5524 -1.8235
  136MPD2     N 2123   3.033   4.018   9.404  0.1265  0.2930  0.0200
  136MPD2    H5 2124   3.011   4.043   9.308  0.9352 -1.1160 -0.5384
  136MPD2    N1 2125   2.772   3.877   9.795 -0.1040  0.7374  0.1739
  136MPD2    H7 2126   2.852   3.844   9.849 -1.0735  0.4641  1.4359
  137TMC2    C1 2127   3.122   3.367   9.872 -0.0958 -0.0595  0.0100
  137TMC2    C2 2128   3.166   3.499   9.879  0.8399 -0.0583 -0.0591
  137TMC2    C3 2129   3.080   3.589   9.824  0.1477  1.1235 -0.0145
  137TMC2    C4 2130   3.000   3.337   9.821 -0.0210 -0.4433 -0.4688
  137TMC2    C5 2131   2.928   3.439   9.770 -0.0470 -0.1620 -0.0137
  137TMC2    C6 2132   2.968   3.565   9.756  0.2657 -0.5860  0.4388
  137TMC2     C 2133   3.167   3.279   9.977  0.1110 -0.1380 -0.2987
  137TMC2     O 2134   3.216   3.329  10.077 -0.6416 -0.2461  0.5804
  137TMC2     H 2135   3.251   3.528   9.939 -0.6747  1.1627  1.5015
  137TMC2    H1 2136   2.957   3.237   9.825  1.0146 -0.7861  1.9130
  137TMC2    H2 2137   2.899   3.642   9.724 -0.2334 -0.1657  2.5223
  137TMC2    C7 2138   2.789   3.424   9.751  0.4900 -0.3912  0.2017
  137TMC2    C8 2139   3.123   3.724   9.846 -0.0883 -0.1727 -0.2722
  137TMC2    O1 2140   2.752   3.479   9.645  0.7286 -0.2463  0.4304
  137TMC2    O2 2141   3.054   3.824   9.871  0.1360  0.0041 -0.2472
  137TMC2    O5 2142   3.235   3.724   9.783  0.1420  0.0988 -0.0505
  137TMC2    H5 2143   3.253   3.642   9.732 -1.1143  0.4806 -1.1160
  138MPD2     C 2144   3.119   2.913  10.000 -0.6025 -0.2442  0.0846
  138MPD2    C1 2145   3.156   3.041  10.045  0.2628 -0.4739 -0.3595
  138MPD2    C2 2146   3.208   3.052  10.172 -0.2110  0.0503 -0.3076
  138MPD2    C3 2147   3.223   2.947  10.259  0.5021 -0.1157 -0.5640
  138MPD2    C4 2148   3.170   2.829  10.217 -0.8798  0.2547 -0.2344
  138MPD2    C5 2149   3.116   2.811  10.090  0.2959  0.0971  0.0475
  138MPD2     H 2150   3.239   3.150  10.208 -0.3505 -0.8257  2.1813
  138MPD2    H1 2151   3.157   2.740  10.277 -0.5483 -0.4825 -1.2589
  138MPD2    H2 2152   3.088   2.894   9.898  0.2612  2.0983 -0.6234
  138MPD2    H3 2153   3.070   2.718  10.060 -0.8694  0.8034 -0.3552
  138MPD2     N 2154   3.282   2.961  10.384  0.2515 -0.0349  0.4532
  138MPD2    H5 2155   3.324   3.053  10.397  0.7746 -0.0419 -1.1826
  138MPD2    N1 2156   3.136   3.152   9.958  0.5778  0.1953  0.3449
  138MPD2    H7 2157   3.099   3.129   9.866 -2.7057 -0.4177  1.8343
  139TMC2    C1 2158   4.634   0.949  13.604 -0.3104 -0.7063 -0.0802
  139TMC2    C2 2159   4.723   1.005  13.521 -0.5271 -0.1761  0.2502
  139TMC2    C3 2160   4.684   1.119  13.463 -0.5502 -0.3259 -0.3693
  139TMC2    C4 2161   4.506   0.998  13.623  0.5748  0.5210 -0.4718
  139TMC2    C5 2162   4.469   1.108  13.556  0.4224  0.0979  0.3363
  139TMC2    C6 2163   4.559   1.172  13.473  0.5647 -0.4860  0.2512
  139TMC2     C 2164   4.663   0.808  13.640 -0.6601  0.0155  0.3471
  139TMC2     O 2165   0.040   0.768  13.625 -0.4841  0.5234  0.1814
  139TMC2     H 2166   0.087   0.964  13.506 -0.5058 -0.0246 -0.0397
  139TMC2    H1 2167   4.432   0.938  13.674  1.3647  0.2228  0.3209
  139TMC2    H2 2168   4.521   1.248  13.406  0.1461 -1.4434 -0.5894
  139TMC2    C7 2169   4.341   1.168  13.590  0.5429 -0.1581 -0.7258
  139TMC2    C8 2170   0.014   1.152  13.339 -0.0800  0.7637 -0.5587
  139TMC2    O1 2171   4.295   1.244  13.506  0.0189  0.3679  0.0410
  139TMC2    O2 2172   4.691   1.190  13.237  0.5163  0.0966  0.0552
  139TMC2    O5 2173   0.145   1.122  13.351  0.0699  0.1327 -0.1949
  139TMC2    H5 2174   0.195   1.107  13.434 -1.2452  1.3833  0.8037
  140MPD2     C 2175   4.483   0.564  13.846 -0.1412 -0.5904  0.3960
  140MPD2    C1 2176   4.566   0.612  13.745 -0.6935 -0.6552 -0.2769
  140MPD2    C2 2177   4.634   0.521  13.661 -0.1245 -0.4813 -0.1681
  140MPD2    C3 2178   4.616   0.384  13.678 -0.4065  0.1090  0.6096
  140MPD2    C4 2179   4.531   0.339  13.777  0.2163 -0.1836  0.9432
  140MPD2    C5 2180   4.465   0.433  13.856 -0.3026  0.3947  0.8258
  140MPD2     H 2181   4.677   0.548  13.565 -0.2019  1.9788  0.4915
  140MPD2    H1 2182   4.530   0.236  13.811  0.9007 -0.3543  0.4508
  140MPD2    H2 2183   4.426   0.627  13.913  1.2200  0.8900  0.1749
  140MPD2    H3 2184   4.403   0.395  13.936 -0.4893 -0.0169  0.4836
  140MPD2     N 2185   4.688   0.292  13.594 -0.2816  0.7150  0.6458
  140MPD2    H5 2186   0.001   0.332  13.514 -1.0086  1.9069  0.7930
  140MPD2    N1 2187   4.578   0.752  13.726 -0.4571 -0.4755  0.1179
  140MPD2    H7 2188   4.517   0.818  13.773 -2.1624 -0.6807 -1.8320
  141TMC2    C1 2189   4.619   1.929  14.356 -0.4133  0.2242 -0.1428
  141TMC2    C2 2190   4.559   1.831  14.431 -0.2934  0.4958  0.2060
  141TMC2    C3 2191   4.538   1.856  14.564  0.1069 -0.5759 -0.0440
  141TMC2    C4 2192   4.652   2.057  14.409 -0.3706  0.5318 -0.4163
  141TMC2    C5 2193   4.615   2.078  14.536  0.4322 -0.2614 -0.7617
  141TMC2    C6 2194   4.562   1.977  14.620 -0.2430  0.3091 -1.0154
  141TMC2     C 2195   4.636   1.918  14.211  0.9415 -0.8894  0.3401
  141TMC2     O 2196   4.727   1.986  14.163 -0.2806 -0.1623 -0.7144
  141TMC2     H 2197   4.526   1.734  14.397 -0.3342  0.6308 -0.1408
  141TMC2    H1 2198   4.683   2.137  14.342 -1.0042  1.3017  0.2135
  141TMC2    H2 2199   4.539   2.004  14.723 -1.6184 -0.8352 -1.0327
  141TMC2    C7 2200   4.650   2.202  14.604 -0.4071 -0.3235 -1.2235
  141TMC2    C8 2201   4.502   1.751  14.659 -0.6705 -0.0301 -0.2888
  141TMC2    O1 2202   4.618   2.214  14.722  0.6204  0.8222 -0.1641
  141TMC2    O2 2203   4.456   1.775  14.767  0.9533 -0.0816  0.2100
  141TMC2    O5 2204   4.568   1.638  14.620 -0.4246 -0.0690 -0.2485
  141TMC2    H5 2205   4.623   1.650  14.540 -2.1051  3.1544 -0.9470
  142TMC2    C1 2206   2.131   0.108   9.885  0.8712  0.5472  0.6350
  142TMC2    C2 2207   2.169   0.062   9.770 -0.4908 -0.4619 -0.1787
  142TMC2    C3 2208   2.285   0.124   9.718  0.0225 -0.2918 -0.3080
  142TMC2    C4 2209   2.182   0.216   9.943  0.5537 -0.6536  0.2242
  142TMC2    C5 2210   2.281   0.285   9.880  0.1373 -0.2673 -0.3993
  142TMC2    C6 2211   2.346   0.231   9.774 -0.4501 -0.3791  0.2850
  142TMC2     C 2212   2.064   0.008   9.964 -0.4049  0.0570 -0.4720
  142TMC2     O 2213   1.984   4.667   9.910  0.0035  0.2820 -0.5628
  142TMC2     H 2214   2.134   4.705   9.724  0.0217  0.2168 -1.9334
  142TMC2    H1 2215   2.148   0.263  10.034  0.6215 -2.2059  1.0379
  142TMC2    H2 2216   2.425   0.291   9.731 -0.2105 -1.1165 -0.3014
  142TMC2    C7 2217   2.349   0.390   9.957  0.6153  0.3904 -0.8758
  142TMC2    C8 2218   2.341   0.064   9.601 -0.1281  0.9434 -0.5525
  142TMC2    O1 2219   2.288   0.467  10.030  0.2937  0.1908  0.2379
  142TMC2    O2 2220   2.271   0.024   9.509 -0.2273  0.1788  0.1494
  142TMC2    O5 2221   2.475   0.081   9.603  0.3590  0.0765  0.1340
  142TMC2    H5 2222   2.507   0.114   9.690 -1.1309  0.0913  0.6665
  143MPD2     C 2223   2.010   4.522  10.420 -0.0090  0.3572 -0.3721
  143MPD2    C1 2224   1.935   4.503  10.307 -0.2564  0.2379 -0.0676
  143MPD2    C2 2225   1.958   4.586  10.201  0.2921  0.6169 -0.1737
  143MPD2    C3 2226   2.069   4.672  10.203 -0.6806 -0.6099 -0.1723
  143MPD2    C4 2227   2.146   4.675  10.319  0.0344  0.2092 -1.4192
  143MPD2    C5 2228   2.113   4.606  10.425 -0.3337  0.4481  0.1010
  143MPD2     H 2229   1.898   4.586  10.111 -0.4255 -0.8414  0.3002
  143MPD2    H1 2230   2.242   4.724  10.326 -0.9610  1.8841  0.4979
  143MPD2    H2 2231   1.980   4.467  10.509  0.8861 -1.5286 -1.2291
  143MPD2    H3 2232   2.170   4.634  10.513 -0.2709  2.7629 -0.6898
  143MPD2     N 2233   2.099   0.018  10.092  0.4979  0.6414 -0.1624
  143MPD2    H5 2234   2.173   0.085  10.109  0.8551  0.1222  0.2944
  143MPD2    N1 2235   1.837   4.403  10.303 -0.5062  0.3178  0.4266
  143MPD2    H7 2236   1.812   4.353  10.388 -0.0197 -0.7982 -0.0798
  144TMC2    C1 2237   1.323   4.184   0.816 -0.0831  0.4687 -0.4348
  144TMC2    C2 2238   1.379   4.058   0.804 -0.9364 -0.6790  0.6661
  144TMC2    C3 2239   1.510   4.054   0.767  0.0350  0.0971 -0.3929
  144TMC2    C4 2240   1.408   4.296   0.809  0.0090 -0.4627  0.5760
  144TMC2    C5 2241   1.536   4.282   0.781 -0.2524 -0.4132 -0.8719
  144TMC2    C6 2242   1.595   4.165   0.754  0.1191  0.2196  0.6648
  144TMC2     C 2243   1.181   4.196   0.788  0.4242  0.0221 -0.4891
  144TMC2     O 2244   1.129   4.087   0.761  0.2617 -1.0091  0.1006
  144TMC2     H 2245   1.318   3.968   0.799 -0.0885 -1.3590  2.9334
  144TMC2    H1 2246   1.365   4.394   0.830 -0.7193 -0.2973 -1.7091
  144TMC2    H2 2247   1.698   4.157   0.721  0.2812 -0.8709  1.4551
  144TMC2    C7 2248   1.628   4.398   0.784  0.6411 -0.5644 -0.7567
  144TMC2    C8 2249   1.533   3.930   0.698 -0.3159  0.3708  0.0578
  144TMC2    O1 2250   1.742   4.382   0.746  0.0933  0.0663  0.4887
  144TMC2    O2 2251   1.443   3.869   0.644 -0.3122  0.6166  0.3860
  144TMC2    O5 2252   1.664   3.903   0.698 -0.7079 -0.1976 -0.3049
  144TMC2    H5 2253   1.713   3.949   0.769 -0.0638 -1.2503 -0.0635
  145MPD2     C 2254   0.733   4.432   0.652 -0.2618  0.3374  0.0467
  145MPD2    C1 2255   0.788   4.305   0.625 -0.1545  0.2593 -0.4158
  145MPD2    C2 2256   0.918   4.275   0.666  0.0507 -0.3842 -0.5328
  145MPD2    C3 2257   0.997   4.361   0.736 -0.6385  0.1353 -0.4058
  145MPD2    C4 2258   0.944   4.487   0.758 -0.4383 -0.6950  0.4987
  145MPD2    C5 2259   0.823   4.522   0.715  0.8355  0.1201  0.7169
  145MPD2     H 2260   0.958   4.180   0.632 -1.9917 -1.0529 -1.0417
  145MPD2    H1 2261   1.003   4.563   0.807 -3.5893  0.8946  1.7609
  145MPD2    H2 2262   0.632   4.468   0.632 -0.7138 -0.6563  0.5429
  145MPD2    H3 2263   0.785   4.623   0.726  0.7298  0.4234 -2.6731
  145MPD2     N 2264   1.126   4.324   0.786  0.4189  0.0060  0.5669
  145MPD2    H5 2265   1.173   4.396   0.840  0.6311 -0.7347  1.3762
  145MPD2    N1 2266   0.709   4.208   0.562 -0.1602  0.2960 -0.2521
  145MPD2    H7 2267   0.768   4.127   0.542 -2.1783 -1.2149 -0.1274
  146TMC2    C1 2268   2.552   3.391  12.307  0.1991 -0.4301  0.4310
  146TMC2    C2 2269   2.520   3.425  12.176 -0.0290 -0.3082  0.2638
  146TMC2    C3 2270   2.601   3.380  12.075 -0.4128 -0.6466  0.6514
  146TMC2    C4 2271   2.656   3.307  12.327 -0.0619 -0.1489  0.1142
  146TMC2    C5 2272   2.738   3.256  12.227  0.4541 -0.7687 -0.6629
  146TMC2    C6 2273   2.707   3.295  12.096  0.5657 -0.6170  0.2474
  146TMC2     C 2274   2.460   3.439  12.407 -0.1198 -0.2120 -0.1072
  146TMC2     O 2275   2.382   3.523  12.365  0.5098 -0.8418  0.3308
  146TMC2     H 2276   2.431   3.480  12.150  0.1312 -0.8380 -1.3807
  146TMC2    H1 2277   2.677   3.273  12.428 -0.2462 -2.0824 -0.4960
  146TMC2    H2 2278   2.778   3.258  12.023  0.5435 -0.3382  0.0868
  146TMC2    C7 2279   2.866   3.198  12.253  0.2842  0.4218  0.1597
  146TMC2    C8 2280   2.566   3.410  11.936  0.3960 -0.4049  0.2932
  146TMC2    O1 2281   2.956   3.227  12.180  0.4254  0.5302 -0.1287
  146TMC2    O2 2282   2.498   3.506  11.910  0.7466 -0.2660  0.2952
  146TMC2    O5 2283   2.649   3.351  11.852  0.0772  0.0650  0.2532
  146TMC2    H5 2284   2.693   3.267  11.878  1.1011  1.0980  1.8303
  147MPD2     C 2285   3.212   2.975  12.544  0.0440  1.2289  0.5013
  147MPD2    C1 2286   3.095   2.933  12.596 -0.2829  0.0638  0.0513
  147MPD2    C2 2287   2.975   2.978  12.537 -0.0668  0.8672  1.2048
  147MPD2    C3 2288   2.978   3.069  12.429 -0.6316  0.3925 -0.6010
  147MPD2    C4 2289   3.101   3.132  12.398  0.8087  0.0551  0.0611
  147MPD2    C5 2290   3.217   3.082  12.453 -0.3469  0.2747  0.1189
  147MPD2     H 2291   2.886   2.926  12.571  0.3997 -0.7768 -0.1211
  147MPD2    H1 2292   3.117   3.210  12.324  1.6414 -0.4600 -0.3074
  147MPD2    H2 2293   3.304   2.932  12.583  0.4195  1.6826  0.1135
  147MPD2    H3 2294   3.312   3.124  12.424  1.1577 -2.9084  0.5083
  147MPD2     N 2295   2.861   3.111  12.363  0.2272 -0.0007 -0.6958
  147MPD2    H5 2296   2.769   3.080  12.392 -0.3780 -0.5971 -3.2378
  147MPD2    N1 2297   3.108   2.834  12.699 -0.5247  0.0802 -0.3256
  147MPD2    H7 2298   3.203   2.806  12.721 -0.1498  0.6083 -1.2804
  148TMC2    C1 2299   1.487   2.063  10.328 -0.3985 -0.4253  0.2664
  148TMC2    C2 2300   1.577   2.164  10.360  0.1217 -0.5508  0.4897
  148TMC2    C3 2301   1.688   2.141  10.432  0.1292 -0.0603  0.1533
  148TMC2    C4 2302   1.504   1.935  10.372  0.4017  0.1068  0.0290
  148TMC2    C5 2303   1.609   1.917  10.463  0.2347  0.1659 -0.5260
  148TMC2    C6 2304   1.698   2.016  10.487 -0.2731  0.0411  0.5619
  148TMC2     C 2305   1.375   2.096  10.243 -0.0871  0.5553 -0.9241
  148TMC2     O 2306   1.345   2.211  10.235 -0.3724  0.0602 -0.1078
  148TMC2     H 2307   1.556   2.268  10.336 -1.5191 -1.1215 -0.5772
  148TMC2    H1 2308   1.422   1.864  10.367  0.2281  0.2401  1.0382
  148TMC2    H2 2309   1.795   1.998  10.531  0.0759 -1.1298 -0.6531
  148TMC2    C7 2310   1.641   1.773  10.502  0.0410 -0.5174 -0.0624
  148TMC2    C8 2311   1.811   2.217  10.426 -0.1386  0.2703  0.4570
  148TMC2    O1 2312   1.581   1.685  10.448  0.0673  0.2642 -0.6479
  148TMC2    O2 2313   1.902   2.206  10.503 -0.0054  0.1560  0.1534
  148TMC2    O5 2314   1.815   2.284  10.302  0.0125  0.4216  0.0322
  148TMC2    H5 2315   1.731   2.282  10.253  0.3609 -2.0671 -0.4511
  149MPD2     C 2316   1.119   2.095  10.108  0.3846  0.5471 -0.4518
  149MPD2    C1 2317   1.189   1.983  10.136 -0.0360  0.0026 -0.0984
  149MPD2    C2 2318   1.135   1.865  10.094 -0.1436 -0.4585 -0.8167
  149MPD2    C3 2319   1.012   1.847  10.047 -0.3240  0.5208  0.2349
  149MPD2    C4 2320   0.931   1.958  10.048  0.7808 -0.2482 -0.4420
  149MPD2    C5 2321   0.988   2.083  10.073 -0.3289 -0.2152  0.0641
  149MPD2     H 2322   1.191   1.773  10.109 -1.3726 -0.8200  1.6215
  149MPD2    H1 2323   0.837   1.962   9.993 -0.3006  0.5636  1.4851
  149MPD2    H2 2324   1.146   2.196  10.138  0.6208  0.8250 -1.5995
  149MPD2    H3 2325   0.919   2.165  10.057 -0.6740 -0.1766  1.8503
  149MPD2     N 2326   0.968   1.721   9.996 -0.2074  0.3761 -0.0057
  149MPD2    H5 2327   0.869   1.712   9.976 -0.1574 -0.1038 -0.0433
  149MPD2    N1 2328   1.317   1.985  10.188 -0.4965  0.0791  0.1346
  149MPD2    H7 2329   1.365   1.898  10.206 -2.1254 -0.5847  1.2902
  150TMC2    C1 2330   4.354   1.243  12.541 -0.2035  0.3503  0.0854
  150TMC2    C2 2331   4.298   1.266  12.416  0.0411  0.9419 -0.4571
  150TMC2    C3 2332   4.377   1.265  12.304  0.6684 -0.0562 -0.3074
  150TMC2    C4 2333   4.490   1.231  12.551 -0.0375 -0.0527 -0.3405
  150TMC2    C5 2334   4.571   1.242  12.440 -0.6467 -0.4972  0.5628
  150TMC2    C6 2335   4.517   1.269  12.315 -0.5221  0.4860  0.6967
  150TMC2     C 2336   4.274   1.289  12.653  0.0119 -0.1556  0.2575
  150TMC2     O 2337   4.306   1.252  12.764 -0.1133 -0.1388 -0.0021
  150TMC2     H 2338   4.194   1.287  12.393 -0.5922  1.5182  2.9368
  150TMC2    H1 2339   4.537   1.215  12.647  0.9112  1.4479 -0.5501
  150TMC2    H2 2340   4.576   1.290  12.227 -0.7122  1.5403  0.8315
  150TMC2    C7 2341   4.715   1.254  12.457 -0.4310  0.2270  1.2670
  150TMC2    C8 2342   4.320   1.290  12.172 -0.1045 -0.1634  0.2673
  150TMC2    O1 2343   0.039   1.334  12.389  0.0331 -0.3219  0.0515
  150TMC2    O2 2344   4.377   1.352  12.086  0.3334  0.1748 -0.5513
  150TMC2    O5 2345   4.204   1.223  12.156 -0.1688  0.5339 -0.0729
  150TMC2    H5 2346   4.182   1.168  12.235  1.5659 -1.3990 -0.9448
  151MPD2     C 2347   3.786   1.423  12.762  0.4798  0.1487  0.6456
  151MPD2    C1 2348   3.812   1.468  12.638 -0.0474  0.1186 -0.4012
  151MPD2    C2 2349   3.946   1.449  12.593  0.6613  0.3095 -0.2242
  151MPD2    C3 2350   4.043   1.392  12.677 -0.3727  0.2100 -0.9854
  151MPD2    C4 2351   4.011   1.345  12.793 -0.0732  0.0998 -0.5072
  151MPD2    C5 2352   3.884   1.370  12.840 -0.2751  0.1529 -0.2099
  151MPD2     H 2353   3.984   1.478  12.496  0.0879 -1.5229 -1.0035
  151MPD2    H1 2354   4.080   1.288  12.854 -0.8059 -1.7655 -1.4311
  151MPD2    H2 2355   3.684   1.420  12.799  0.7433  1.0790  1.4616
  151MPD2    H3 2356   3.844   1.328  12.931 -1.9473 -2.9535 -2.3687
  151MPD2     N 2357   4.174   1.371  12.617  0.8039  0.6156 -0.2693
  151MPD2    H5 2358   4.174   1.423  12.530  0.3072  0.7915 -0.1665
  151MPD2    N1 2359   3.708   1.505  12.552  0.1614 -0.4934  0.1251
  151MPD2    H7 2360   3.615   1.520  12.588  0.7893 -1.5014  2.1981
  152TMC2    C1 2361   3.793   1.057  12.741  0.0776  0.4983  0.5000
  152TMC2    C2 2362   3.831   1.118  12.624  0.5629  0.0143  0.2475
  152TMC2    C3 2363   3.949   1.084  12.575 -0.1320 -0.4440 -0.3315
  152TMC2    C4 2364   3.891   0.987  12.806  0.2718 -0.0787 -0.0842
  152TMC2    C5 2365   4.020   0.987  12.762  0.3801 -0.3154 -0.4910
  152TMC2    C6 2366   4.056   1.027  12.638  0.6019 -0.5484 -0.2203
  152TMC2     C 2367   3.654   1.052  12.782 -0.6081 -0.2050 -0.4859
  152TMC2     O 2368   3.577   1.141  12.743  0.0527  0.0412 -0.0369
  152TMC2     H 2369   3.761   1.184  12.574  1.3677  0.0643 -0.7996
  152TMC2    H1 2370   3.869   0.948  12.905  2.4315  1.9522  1.2011
  152TMC2    H2 2371   4.146   1.007  12.581  0.1097  0.4939 -1.3562
  152TMC2    C7 2372   4.107   0.905  12.836 -0.5760  0.3308  0.6461
  152TMC2    C8 2373   3.960   1.078  12.433  0.1421  0.4086  0.4537
  152TMC2    O1 2374   4.060   0.798  12.880 -0.2465 -0.3634 -0.0685
  152TMC2    O2 2375   4.064   1.087  12.377  0.1159 -0.0563  0.1259
  152TMC2    O5 2376   3.836   1.032  12.385 -0.7268 -0.1903 -0.4208
  152TMC2    H5 2377   3.770   0.995  12.448  0.4129 -0.7468  0.4689
  153MPD2     C 2378   3.507   0.789  12.983 -0.1889  0.4946 -0.3261
  153MPD2    C1 2379   3.500   0.897  12.899  0.1674 -0.1236  0.1384
  153MPD2    C2 2380   3.377   0.955  12.873  0.2194 -0.0330  0.6607
  153MPD2    C3 2381   3.263   0.913  12.927  0.3102  0.0591  0.9872
  153MPD2    C4 2382   3.271   0.804  13.007  0.8388  0.3587 -0.5004
  153MPD2    C5 2383   3.390   0.736  13.028  0.7519  0.2646  0.1427
  153MPD2     H 2384   3.377   1.032  12.797 -0.3330 -0.2137  0.4795
  153MPD2    H1 2385   3.186   0.753  13.052  0.4553 -0.1511 -1.7927
  153MPD2    H2 2386   3.602   0.739  12.999  0.7649  2.4891  0.2972
  153MPD2    H3 2387   3.383   0.653  13.097 -2.0452 -0.0521 -0.5197
  153MPD2     N 2388   3.143   0.972  12.895  0.3808  0.3956  0.4917
  153MPD2    H5 2389   3.064   0.920  12.931  1.2401 -1.5053 -0.3633
  153MPD2    N1 2390   3.630   0.933  12.844 -1.0609  0.1004 -0.8449
  153MPD2    H7 2391   3.709   0.879  12.876 -1.6506 -1.1828 -1.5453
  154TMC2    C1 2392   1.132   0.160  17.621 -0.2584 -0.3756 -0.4313
  154TMC2    C2 2393   1.183   0.119   0.004  0.5452  0.0357  0.1777
  154TMC2    C3 2394   1.311   0.068  17.739  0.0507 -0.3533  0.6037
  154TMC2    C4 2395   1.198   0.148  17.501 -0.0144  0.7564  0.6454
  154TMC2    C5 2396   1.328   0.095  17.507 -0.1699 -0.7118  0.3308
  154TMC2    C6 2397   1.385   0.054  17.623  0.2504 -0.1851  1.1085
  154TMC2     C 2398   0.999   0.212  17.615 -0.1228 -0.5206  0.0709
  154TMC2     O 2399   0.971   0.275  17.713  0.5872  0.1733 -0.4148
  154TMC2     H 2400   1.140   0.141   0.102 -0.5882  1.0256 -0.5413
  154TMC2    H1 2401   1.162   0.193  17.409 -1.3636 -1.6957 -0.0196
  154TMC2    H2 2402   1.490   0.033  17.637 -0.0800 -0.7907  2.7494
  154TMC2    C7 2403   1.416   0.130  17.392  0.1780 -0.0167 -0.1142
  154TMC2    C8 2404   1.359   4.730   0.117  0.7205 -0.4078 -0.1394
  154TMC2    O1 2405   1.369   0.208  17.311 -0.5589 -0.2074  0.0839
  154TMC2    O2 2406   1.320   0.011   0.232 -0.3373 -0.3125  0.0667
  154TMC2    O5 2407   1.407   4.611   0.070 -0.2633  0.6938  0.0177
  154TMC2    H5 2408   1.415   4.597  17.714  0.7876 -0.9833  0.3628
  155MPD2     C 2409   0.779   0.198  17.326 -0.7868 -0.1714  0.2205
  155MPD2    C1 2410   0.807   0.225  17.460  0.0478 -0.4216 -0.1147
  155MPD2    C2 2411   0.711   0.281  17.544 -0.4845  0.2938 -0.7547
  155MPD2    C3 2412   0.592   0.335  17.491 -0.0115  0.0748 -0.8399
  155MPD2    C4 2413   0.575   0.307  17.350 -0.1512 -0.5930 -0.7836
  155MPD2    C5 2414   0.660   0.232  17.276  0.3608  0.0477 -0.2953
  155MPD2     H 2415   0.739   0.295  17.647 -2.1278  2.9452 -0.6564
  155MPD2    H1 2416   0.493   0.349  17.293 -0.5162  2.3593  1.9105
  155MPD2    H2 2417   0.853   0.151  17.263 -0.5640  0.9406 -0.3364
  155MPD2    H3 2418   0.646   0.205  17.172  2.3479 -1.2472 -0.2333
  155MPD2     N 2419   0.511   0.418  17.570 -0.0352  0.3619 -0.2814
  155MPD2    H5 2420   0.535   0.435  17.667  1.6524 -0.7250 -0.5048
  155MPD2    N1 2421   0.936   0.184  17.497  0.4702  0.1855  0.5536
  155MPD2    H7 2422   0.991   0.131  17.430 -1.0436  0.2112 -0.6825
  156TMC2    C1 2423   3.932   3.227  11.845 -0.0107 -0.3965 -0.1505
  156TMC2    C2 2424   3.952   3.103  11.789 -0.5280 -0.1880 -0.3938
  156TMC2    C3 2425   3.964   3.089  11.651 -0.0259  0.5397  0.5824
  156TMC2    C4 2426   3.903   3.338  11.764 -0.2287 -0.5156 -0.5251
  156TMC2    C5 2427   3.903   3.321  11.627 -0.1330  0.7184  0.5376
  156TMC2    C6 2428   3.917   3.194  11.571  0.4969 -0.1763 -0.7555
  156TMC2     C 2429   3.876   3.248  11.980  0.0924 -0.3811 -0.0010
  156TMC2     O 2430   3.890   3.353  12.041 -0.1462 -0.3743 -0.0415
  156TMC2     H 2431   3.967   3.013  11.848  0.7276  0.4713  0.2929
  156TMC2    H1 2432   3.874   3.435  11.802 -2.6616 -1.4789  0.0850
  156TMC2    H2 2433   3.929   3.186  11.464 -0.9952 -4.4916 -0.5979
  156TMC2    C7 2434   3.845   3.428  11.550 -0.5947  0.5649 -0.1250
  156TMC2    C8 2435   3.954   2.962  11.595 -0.0715  0.8449  0.2568
  156TMC2    O1 2436   3.849   3.543  11.598 -0.2760  0.1564 -0.0786
  156TMC2    O2 2437   3.872   2.881  11.633  0.4338 -0.1083 -0.6087
  156TMC2    O5 2438   4.012   2.965  11.471 -0.1419 -0.3978  0.5002
  156TMC2    H5 2439   4.080   3.036  11.470 -1.0407  0.4675  0.0934
  157MPD2     C 2440   3.626   3.019  12.149  0.5554 -0.0467  0.0515
  157MPD2    C1 2441   3.727   3.117  12.144 -0.4631  0.8937  0.1347
  157MPD2    C2 2442   3.751   3.195  12.255 -0.4316  0.5514 -0.3940
  157MPD2    C3 2443   3.686   3.166  12.374  0.0054 -0.3579 -0.0100
  157MPD2    C4 2444   3.581   3.078  12.371 -0.2720  0.2146  0.3255
  157MPD2    C5 2445   3.555   3.001  12.258 -0.2277  1.0015 -0.8717
  157MPD2     H 2446   3.824   3.275  12.258  0.6014 -0.4102  0.2819
  157MPD2    H1 2447   3.533   3.053  12.465 -2.0467  1.1053 -0.3510
  157MPD2    H2 2448   3.593   2.962  12.063  2.9693 -0.5190 -0.5468
  157MPD2    H3 2449   3.472   2.931  12.259  1.8616 -1.4647  0.0834
  157MPD2     N 2450   3.706   3.257  12.478  0.8110 -0.2537  0.7736
  157MPD2    H5 2451   3.791   3.312  12.472 -0.3438  1.5420  0.7673
  157MPD2    N1 2452   3.796   3.142  12.017 -0.0300 -0.3446 -0.5434
  157MPD2    H7 2453   3.766   3.080  11.943  0.6549 -0.5653 -0.6387
  158TMC2    C1 2454   4.521   2.307  13.252  0.7412  0.0801  0.5923
  158TMC2    C2 2455   4.613   2.361  13.166 -0.3166  0.7640 -0.1514
  158TMC2    C3 2456   4.616   2.309  13.040 -0.6102  0.2247  0.4349
  158TMC2    C4 2457   4.426   2.215  13.214  0.2778  0.2308  0.3098
  158TMC2    C5 2458   4.429   2.180  13.082 -0.2945 -0.2945  0.0407
  158TMC2    C6 2459   4.527   2.222  12.996 -0.1107 -0.0887  0.0848
  158TMC2     C 2460   4.504   2.360  13.385  0.5631  0.5573 -0.0384
  158TMC2     O 2461   4.543   2.474  13.400  0.3178  0.1517 -0.0768
  158TMC2     H 2462   4.697   2.419  13.200  0.5602 -0.1753 -0.6866
  158TMC2    H1 2463   4.336   2.192  13.269  0.2608 -2.8064 -0.9479
  158TMC2    H2 2464   4.525   2.199  12.890 -1.0555  0.0682  0.0676
  158TMC2    C7 2465   4.305   2.138  13.014  1.0178 -0.0245 -0.1865
  158TMC2    C8 2466   4.687   2.378  12.935 -0.0366  0.4266  0.4564
  158TMC2    O1 2467   4.280   2.171  12.901  0.3309 -0.4306  0.2158
  158TMC2    O2 2468   4.648   2.406  12.820  0.3669 -0.0657  0.4213
  158TMC2    O5 2469   0.063   2.432  12.990  0.4276 -0.4078 -0.2491
  158TMC2    H5 2470   0.098   2.383  13.067  0.2795  2.2026  1.5063
  159MPD2     C 2471   4.451   2.280  13.891  0.2581 -0.5726 -0.0781
  159MPD2    C1 2472   4.376   2.186  13.826 -0.5674 -0.4027 -0.7905
  159MPD2    C2 2473   4.392   2.178  13.689 -0.1139  0.6626 -0.4390
  159MPD2    C3 2474   4.456   2.272  13.617 -0.0832 -0.3682  0.3808
  159MPD2    C4 2475   4.529   2.366  13.688 -0.4025  0.2347 -0.0810
  159MPD2    C5 2476   4.531   2.368  13.827 -0.2564 -0.4279 -0.4426
  159MPD2     H 2477   4.342   2.097  13.638 -0.4402  0.2032  0.6363
  159MPD2    H1 2478   4.580   2.444  13.633  0.9659  1.8080  3.4004
  159MPD2    H2 2479   4.440   2.292  13.998 -0.0875 -2.1888  0.0650
  159MPD2    H3 2480   4.588   2.445  13.878 -0.9924 -1.1028  1.3769
  159MPD2     N 2481   4.451   2.267  13.474  0.5151 -0.0204  0.0490
  159MPD2    H5 2482   4.420   2.181  13.430 -1.2871  0.3329  0.6587
  159MPD2    N1 2483   4.294   2.092  13.900 -0.8163  0.8358  0.4324
  159MPD2    H7 2484   4.293   2.102  14.001  1.3819 -2.5256  0.7867
  160TMC2    C1 2485   4.249   0.240   0.899 -0.5487 -0.1668  0.1367
  160TMC2    C2 2486   4.148   0.147   0.882 -0.7565  0.1658  0.0813
  160TMC2    C3 2487   4.182   0.009   0.884 -0.0026  0.8013 -0.5135
  160TMC2    C4 2488   4.376   0.195   0.913  0.4682 -0.5720  0.1608
  160TMC2    C5 2489   4.406   0.064   0.924  0.4356  0.2471  0.0054
  160TMC2    C6 2490   4.312   4.703   0.908 -0.4470 -0.9105  0.8162
  160TMC2     C 2491   4.220   0.383   0.894  0.0403 -0.3817 -0.1287
  160TMC2     O 2492   4.319   0.454   0.889  0.3760 -0.2584  0.1395
  160TMC2     H 2493   4.042   0.169   0.879 -0.4088  1.6613 -1.0845
  160TMC2    H1 2494   4.453   0.271   0.906 -0.0096  0.0011  1.1625
  160TMC2    H2 2495   4.344   4.600   0.914  2.5398 -0.0630 -0.5669
  160TMC2    C7 2496   4.534   0.032   0.976  0.3968  0.3177 -1.0351
  160TMC2    C8 2497   4.086   4.646   0.877 -0.2516  0.1996  0.1119
  160TMC2    O1 2498   4.555   4.646   0.990 -0.2389  0.5945 -0.1942
  160TMC2    O2 2499   3.967   4.671   0.900  0.1414 -0.1713  0.1142
  160TMC2    O5 2500   4.133   4.547   0.792  0.1121 -0.1787 -0.1334
  160TMC2    H5 2501   4.230   4.548   0.779  0.5573  0.9533  3.2311
  161MPD2     C 2502   4.093   0.658   0.922  0.0451 -0.1507  0.0557
  161MPD2    C1 2503   4.034   0.543   0.897  0.2296 -0.5861 -0.1169
  161MPD2    C2 2504   3.896   0.534   0.874 -0.7253 -0.2646 -0.5964
  161MPD2    C3 2505   3.823   0.652   0.879  0.5939 -0.1077  0.0174
  161MPD2    C4 2506   3.885   0.774   0.907 -0.3936 -0.2552 -0.7037
  161MPD2    C5 2507   4.020   0.772   0.929  0.0356  0.6579  0.0827
  161MPD2     H 2508   3.861   0.432   0.859 -0.0426 -0.5115 -0.4870
  161MPD2    H1 2509   3.824   0.863   0.921  2.7286  1.9560 -1.0510
  161MPD2    H2 2510   4.201   0.661   0.937  0.1349 -1.6952 -0.2541
  161MPD2    H3 2511   4.071   0.862   0.962  1.6315 -1.6501  3.9151
  161MPD2     N 2512   3.680   0.656   0.844 -0.0971  0.0298 -0.3479
  161MPD2    H5 2513   3.639   0.748   0.834 -1.8751 -0.4611  2.3231
  161MPD2    N1 2514   4.089   0.414   0.894  0.1214  0.2127 -0.2315
  161MPD2    H7 2515   4.018   0.341   0.884 -0.3040  0.5827  0.0643
  162TMC2    C1 2516   0.979   1.351   0.457 -0.8171  0.2278  0.4941
  162TMC2    C2 2517   0.914   1.252   0.396  0.3720  1.1448 -0.2764
  162TMC2    C3 2518   0.806   1.202   0.458  0.7548  1.0265  0.4195
  162TMC2    C4 2519   0.954   1.405   0.578  0.7543  0.1658  0.3507
  162TMC2    C5 2520   0.854   1.331   0.639  0.5272 -0.1190  0.6123
  162TMC2    C6 2521   0.771   1.238   0.582 -0.3005 -0.3567 -0.4617
  162TMC2     C 2522   1.095   1.414   0.379  0.2055  0.3291 -0.3864
  162TMC2     O 2523   1.134   1.357   0.278  0.1594  0.5877 -0.9772
  162TMC2     H 2524   0.940   1.221   0.295 -0.4294  1.7566 -0.6759
  162TMC2    H1 2525   1.010   1.480   0.632  2.1382 -2.2045  2.1808
  162TMC2    H2 2526   0.705   1.185   0.650 -1.8370 -0.4823 -2.0842
  162TMC2    C7 2527   0.805   1.391   0.762  0.2980 -0.1996 -0.0433
  162TMC2    C8 2528   0.733   1.098   0.396 -0.9652 -0.3129 -1.0355
  162TMC2    O1 2529   0.690   1.388   0.788  0.5560  0.3484  0.4995
  162TMC2    O2 2530   0.650   1.026   0.450  0.4214 -0.2687  0.2357
  162TMC2    O5 2531   0.714   1.140   0.273  0.1528 -0.3165  0.2006
  162TMC2    H5 2532   0.770   1.213   0.241  0.0771 -1.5452 -2.7682
  163MPD2     C 2533   1.496   1.738   0.345  0.4887  0.1129 -0.0224
  163MPD2    C1 2534   1.474   1.630   0.274 -0.1524  0.2691  0.0367
  163MPD2    C2 2535   1.356   1.561   0.294 -0.0232  0.0977 -0.3931
  163MPD2    C3 2536   1.258   1.601   0.387 -0.1106 -0.1032 -0.4009
  163MPD2    C4 2537   1.285   1.711   0.460 -0.1515 -0.0583 -0.0183
  163MPD2    C5 2538   1.398   1.784   0.430 -0.1502 -0.1215 -0.4072
  163MPD2     H 2539   1.343   1.465   0.245  0.1086  0.0296 -0.2937
  163MPD2    H1 2540   1.213   1.749   0.532  1.9470 -2.3925  3.2701
  163MPD2    H2 2541   1.581   1.802   0.324  0.2884  0.8406  1.3676
  163MPD2    H3 2542   1.414   1.877   0.484  0.3029 -0.1671 -0.4639
  163MPD2     N 2543   1.139   1.535   0.426  0.2108 -0.3644  0.2870
  163MPD2    H5 2544   1.088   1.584   0.499 -0.3496  0.8638 -0.9172
  163MPD2    N1 2545   1.558   1.588   0.170 -1.6973  0.9072 -0.0627
  163MPD2    H7 2546   1.524   1.507   0.119 -1.8750  0.8134  0.2048
  164TMC2    C1 2547   2.290   1.291  10.831 -0.5270  0.0027 -0.5583
  164TMC2    C2 2548   2.214   1.231  10.928  0.2072  0.3731  0.6908
  164TMC2    C3 2549   2.178   1.316  11.032 -0.3551  0.2861  0.3471
  164TMC2    C4 2550   2.318   1.423  10.827 -0.9822  0.4147 -0.9494
  164TMC2    C5 2551   2.260   1.503  10.918  0.8582  0.4044 -0.7535
  164TMC2    C6 2552   2.209   1.448  11.030  0.2823 -0.1479  0.3275
  164TMC2     C 2553   2.406   1.219  10.804 -0.1910 -0.1104 -0.4242
  164TMC2     O 2554   2.514   1.285  10.805  0.5520  0.3045 -0.7413
  164TMC2     H 2555   2.188   1.126  10.927  3.4727 -0.4453  0.7917
  164TMC2    H1 2556   2.391   1.461  10.756 -0.7024  1.3684 -0.1454
  164TMC2    H2 2557   2.162   1.508  11.107  1.0643 -0.1225  0.7848
  164TMC2    C7 2558   2.238   1.643  10.895  0.0167 -0.3076 -0.6753
  164TMC2    C8 2559   2.092   1.281  11.142  0.2343 -0.5729 -0.4242
  164TMC2    O1 2560   2.162   1.693  10.976 -0.3294  0.4867  0.2202
  164TMC2    O2 2561   2.117   1.317  11.255 -0.5669 -0.3966  0.0191
  164TMC2    O5 2562   2.025   1.175  11.107  0.2446 -0.1489  0.2190
  164TMC2    H5 2563   1.998   1.180  11.012 -0.7855 -0.9980  0.4614
  165TMC2    C1 2564   3.633   4.422   1.704  0.1045  0.0019 -0.7566
  165TMC2    C2 2565   3.715   4.534   1.720 -0.3989 -0.4776  0.2279
  165TMC2    C3 2566   3.847   4.510   1.727  0.5838 -0.3754 -0.5604
  165TMC2    C4 2567   3.684   4.296   1.700 -0.3890  0.1355  0.9560
  165TMC2    C5 2568   3.821   4.285   1.711  0.1021 -0.5040  0.6837
  165TMC2    C6 2569   3.909   4.386   1.722 -0.2837  0.2501  0.6198
  165TMC2     C 2570   3.507   4.445   1.641  0.1784  0.1225  0.7419
  165TMC2     O 2571   3.498   4.542   1.566  0.3663  0.2507  0.0629
  165TMC2     H 2572   3.668   4.631   1.708  1.1146  0.1040 -0.9258
  165TMC2    H1 2573   3.619   4.215   1.667 -0.3956  0.7285 -0.5061
  165TMC2    H2 2574   4.016   4.370   1.730 -0.2476  0.8459  1.4264
  165TMC2    C7 2575   3.877   4.147   1.687  0.3963 -0.5877 -0.3855
  165TMC2    C8 2576   3.927   4.632   1.718 -0.7123  0.6105 -0.3706
  165TMC2    O1 2577   3.999   4.143   1.656 -0.2326  0.2313  0.3255
  165TMC2    O2 2578   3.883   0.006   1.750  0.2664 -0.0707 -0.0173
  165TMC2    O5 2579   4.030   4.611   1.632  0.2598  0.3082  0.6968
  165TMC2    H5 2580   4.036   4.527   1.581 -1.5039  0.9246 -0.5093
  166MPD2     C 2581   3.032   4.297   1.479  1.0079 -0.8256 -0.5833
  166MPD2    C1 2582   3.116   4.393   1.436  0.0994 -0.4643  0.1325
  166MPD2    C2 2583   3.240   4.419   1.494 -0.2950  0.5376 -0.0390
  166MPD2    C3 2584   3.277   4.342   1.602 -0.6598 -0.7428 -0.4153
  166MPD2    C4 2585   3.193   4.239   1.648 -0.4538  0.6146 -0.2738
  166MPD2    C5 2586   3.073   4.216   1.579 -0.5538 -0.3720 -0.1661
  166MPD2     H 2587   3.309   4.488   1.445 -0.4813  0.4042 -0.4879
  166MPD2    H1 2588   3.227   4.170   1.724  1.1856  0.3306 -1.2702
  166MPD2    H2 2589   2.931   4.288   1.440  0.4798 -1.2158  0.8601
  166MPD2    H3 2590   3.017   4.130   1.614  0.7596 -1.9060 -1.8674
  166MPD2     N 2591   3.408   4.343   1.663 -0.0927  0.0700 -0.1763
  166MPD2    H5 2592   3.427   4.272   1.732  1.2979 -0.8278 -1.4758
  166MPD2    N1 2593   3.076   4.461   1.318  0.3098  0.0778 -0.0715
  166MPD2    H7 2594   2.993   4.427   1.272  1.2392 -1.2644 -0.7741
  167TMC2    C1 2595   1.790   1.693  12.832  0.3290 -0.8964 -0.1019
  167TMC2    C2 2596   1.771   1.741  12.960 -0.5150  0.5533 -0.3394
  167TMC2    C3 2597   1.767   1.650  13.060  0.1238  0.2356 -0.1393
  167TMC2    C4 2598   1.796   1.559  12.807  0.2864  0.6453  0.5363
  167TMC2    C5 2599   1.783   1.469  12.910  0.2480  0.2016 -0.5407
  167TMC2    C6 2600   1.778   1.516  13.041 -0.8592 -0.2388  0.0314
  167TMC2     C 2601   1.760   1.791  12.724 -0.4112  0.3860  0.7158
  167TMC2     O 2602   1.681   1.880  12.747 -0.8421 -0.0933  0.4722
  167TMC2     H 2603   1.778   1.847  12.984 -0.7151  0.2287  1.1766
  167TMC2    H1 2604   1.805   1.527  12.704  0.3381  1.0116  0.4239
  167TMC2    H2 2605   1.779   1.447  13.125  0.8043 -0.7203 -0.3686
  167TMC2    C7 2606   1.834   1.339  12.892  0.3429 -0.0737 -0.3167
  167TMC2    C8 2607   1.799   1.698  13.187  0.8178  0.3391 -0.1579
  167TMC2    O1 2608   1.800   1.252  12.969  0.0201  0.1576 -0.2204
  167TMC2    O2 2609   1.835   1.618  13.270 -0.1014 -0.2514 -0.0919
  167TMC2    O5 2610   1.724   1.809  13.213  0.0697  0.2733  0.8563
  167TMC2    H5 2611   1.701   1.873  13.142  0.6661  1.1121  1.4218
  168MPD2     C 2612   1.795   1.953  12.474  0.0065  0.6389  0.0674
  168MPD2    C1 2613   1.852   1.831  12.488 -0.7583  0.5976  0.4942
  168MPD2    C2 2614   1.924   1.771  12.387  0.6572 -1.0013 -0.1072
  168MPD2    C3 2615   1.954   1.854  12.275  0.1239  0.0294 -0.1891
  168MPD2    C4 2616   1.894   1.982  12.267 -0.5279 -0.7907  0.9244
  168MPD2    C5 2617   1.821   2.034  12.370 -0.1256 -0.7043  0.1745
  168MPD2     H 2618   1.968   1.673  12.399  2.0251 -0.5268 -1.2364
  168MPD2    H1 2619   1.901   2.052  12.185  1.2398  0.2213  1.9461
  168MPD2    H2 2620   1.729   2.001  12.546 -3.2783  0.1243 -2.5716
  168MPD2    H3 2621   1.780   2.134  12.356 -1.8118 -1.5382 -0.8850
  168MPD2     N 2622   2.027   1.809  12.161 -0.1957  0.2811  0.0503
  168MPD2    H5 2623   2.039   1.876  12.085  2.0008  0.3808  0.4630
  168MPD2    N1 2624   1.837   1.763  12.609  0.1137 -0.1955 -0.0119
  168MPD2    H7 2625   1.899   1.683  12.610  0.4562  0.0277 -2.0318
  169MPD1     C 2626   4.126   1.304   8.551  0.6011 -0.0856  0.7004
  169MPD1    C1 2627   4.168   1.188   8.624 -0.3438 -0.6308 -0.2466
  169MPD1    C2 2628   4.167   1.191   8.763 -0.0603 -0.1641  0.1160
  169MPD1    C3 2629   4.125   1.306   8.833  0.1510 -0.0598  0.9642
  169MPD1    C4 2630   4.078   1.413   8.760  1.0154 -0.5502 -0.1802
  169MPD1    C5 2631   4.088   1.417   8.621  0.1256 -0.2035  0.2601
  169MPD1     H 2632   4.208   1.109   8.821  0.7006  1.0214  1.2583
  169MPD1    H1 2633   4.039   1.505   8.802 -0.3604 -0.6959 -1.1352
  169MPD1    H2 2634   4.125   1.307   8.443  1.6789 -0.9708  0.6657
  169MPD1    H3 2635   4.050   1.498   8.559 -0.5444 -0.7166 -0.0003
  169MPD1     N 2636   4.128   1.305   8.971  0.1672 -0.1957 -0.2275
  169MPD1    H5 2637   4.168   1.219   9.006  0.3085 -0.6007 -1.3704
  169MPD1    N1 2638   4.208   1.073   8.553  0.1480  0.2360 -0.7890
  169MPD1    H6 2639   4.223   1.089   8.453  0.3241  0.6163 -0.7008
  169MPD1    H7 2640   4.286   1.021   8.592  0.2762 -0.4588 -1.9578
  170MPD1     C 2641   3.854   3.276  13.012 -0.3033  0.2452 -0.1213
  170MPD1    C1 2642   3.900   3.404  13.049 -0.8569  0.7836 -0.1212
  170MPD1    C2 2643   3.805   3.505  13.060  0.1413 -0.6681  0.6715
  170MPD1    C3 2644   3.674   3.484  13.026 -0.2312 -0.1248 -0.1649
  170MPD1    C4 2645   3.625   3.355  12.997 -0.0933  0.4559 -0.1790
  170MPD1    C5 2646   3.720   3.258  12.985 -0.6017  0.4417 -0.9225
  170MPD1     H 2647   3.827   3.606  13.092 -0.5693 -0.5992  0.9253
  170MPD1    H1 2648   3.521   3.328  12.987  0.0097  0.5205 -1.4325
  170MPD1    H2 2649   3.919   3.189  13.009 -2.1972 -1.1972  0.8163
  170MPD1    H3 2650   3.681   3.164  12.948  0.4611 -0.8760  1.2793
  170MPD1     N 2651   3.596   3.603  13.045  0.6410 -0.2572  0.2957
  170MPD1    H5 2652   3.647   3.681  13.084  1.3080 -0.4448 -0.1921
  170MPD1    N1 2653   4.020   3.423  13.120  0.0276 -0.3439  0.2793
  170MPD1    H6 2654   4.061   3.516  13.113  0.6250 -0.6941 -0.8234
  170MPD1    H7 2655   4.091   3.361  13.083 -0.0345  0.6229 -1.4215
  171MPD1     C 2656   1.680   0.193  15.626 -0.2335 -0.2538  0.4662
  171MPD1    C1 2657   1.635   0.075  15.563  0.2647  1.0109  0.1033
  171MPD1    C2 2658   1.720   4.703  15.564 -0.1598  0.8259  0.1948
  171MPD1    C3 2659   1.854   4.721  15.592 -0.3291  0.6137 -0.3762
  171MPD1    C4 2660   1.896   0.103  15.652  0.0828  0.1434  0.7919
  171MPD1    C5 2661   1.806   0.212  15.662  0.6759 -0.0852  0.3913
  171MPD1     H 2662   1.692   4.605  15.527 -2.3482  1.7702 -0.6239
  171MPD1    H1 2663   1.984   0.102  15.714  1.6227  0.1702 -1.3812
  171MPD1    H2 2664   1.624   0.285  15.632  2.1893  1.1155  1.7963
  171MPD1    H3 2665   1.841   0.303  15.709 -1.5485  1.1188 -0.3003
  171MPD1     N 2666   1.950   4.615  15.593 -0.1844 -0.3436  0.1160
  171MPD1    H5 2667   2.042   4.621  15.636  0.0401  1.7711 -0.6461
  171MPD1    N1 2668   1.502   0.056  15.526  0.0866 -0.5991  0.6275
  171MPD1    H6 2669   1.497   0.006  15.437 -0.0938 -1.2711  1.0169
  171MPD1    H7 2670   1.463   0.145  15.494  0.4997 -0.6320  0.0336
  172MPD1     C 2671   0.674   3.565   0.392 -0.5292  0.1464  0.1458
  172MPD1    C1 2672   0.718   3.652   0.485  0.1438  0.2714 -0.2544
  172MPD1    C2 2673   0.804   3.756   0.459  0.0608 -0.0140 -0.4806
  172MPD1    C3 2674   0.830   3.781   0.327  0.0281  0.4400 -0.2898
  172MPD1    C4 2675   0.776   3.695   0.235  0.5105 -0.6585  0.3783
  172MPD1    C5 2676   0.703   3.584   0.264 -0.1910  0.0065  0.4080
  172MPD1     H 2677   0.837   3.820   0.540 -0.1421 -0.1396 -0.3002
  172MPD1    H1 2678   0.794   3.709   0.129  0.5432  2.5011  0.8208
  172MPD1    H2 2679   0.612   3.479   0.414 -0.9221  0.4105  0.0607
  172MPD1    H3 2680   0.665   3.522   0.184  0.7995  0.0001 -0.0487
  172MPD1     N 2681   0.901   3.892   0.276 -0.8820 -0.0646 -0.1434
  172MPD1    H5 2682   0.906   3.896   0.175  3.5287 -0.2622  0.0781
  172MPD1    N1 2683   0.692   3.607   0.615  0.6248  0.9066 -0.9822
  172MPD1    H6 2684   0.598   3.569   0.625  0.7630  0.6439 -0.6688
  172MPD1    H7 2685   0.712   3.676   0.688  1.4777  1.0704 -1.3656
  173MPD1     C 2686   1.767   4.029  14.060 -0.0067  0.2810 -0.7854
  173MPD1    C1 2687   1.759   3.895  14.021 -0.2191  0.8403  0.1331
  173MPD1    C2 2688   1.878   3.816  14.045  0.5879 -0.4758  0.7361
  173MPD1    C3 2689   1.984   3.880  14.104 -0.5904  1.2067  0.1757
  173MPD1    C4 2690   1.991   4.016  14.131  1.0420 -0.4956  0.1930
  173MPD1    C5 2691   1.874   4.089  14.120  0.2010 -0.0224  0.8518
  173MPD1     H 2692   1.879   3.711  14.019  0.7577 -1.0158  2.9288
  173MPD1    H1 2693   2.080   4.060  14.176  1.2885 -0.1906 -0.6020
  173MPD1    H2 2694   1.684   4.091  14.029  0.2904  0.5558 -1.0309
  173MPD1    H3 2695   1.872   4.194  14.149 -0.6527 -0.0210  0.7952
  173MPD1     N 2696   2.092   3.789  14.118  0.8042  0.0740  0.2223
  173MPD1    H5 2697   2.076   3.690  14.098  1.9331 -0.0665 -0.0065
  173MPD1    N1 2698   1.658   3.850  13.947 -0.1815  0.1327 -0.3048
  173MPD1    H6 2699   1.658   3.749  13.961  0.5181 -0.0107 -1.3557
  173MPD1    H7 2700   1.565   3.883  13.972 -0.5973 -2.0824  1.1606
  174MPD1     C 2701   2.985   3.910  13.797 -0.4527  0.0500 -0.4686
  174MPD1    C1 2702   2.975   3.774  13.816  0.8818 -0.0888  0.1277
  174MPD1    C2 2703   2.878   3.734  13.898 -0.2062 -0.1301  0.1258
  174MPD1    C3 2704   2.778   3.822  13.946 -0.4139 -0.2088 -0.0053
  174MPD1    C4 2705   2.784   3.953  13.920  0.4959 -0.1483  0.8731
  174MPD1    C5 2706   2.892   3.993  13.844  0.4446  0.3251 -0.4127
  174MPD1     H 2707   2.857   3.628  13.909  0.3789 -0.2909 -0.3278
  174MPD1    H1 2708   2.703   4.017  13.953 -0.7188 -0.1638 -2.0712
  174MPD1    H2 2709   3.077   3.957  13.765 -0.0950 -0.2018  0.1929
  174MPD1    H3 2710   2.898   4.100  13.824 -0.7888  0.0023 -2.4782
  174MPD1     N 2711   2.673   3.777  14.026 -0.1333 -0.2634 -0.6517
  174MPD1    H5 2712   2.603   3.843  14.057  0.7338 -0.6616  2.1619
  174MPD1    N1 2713   3.087   3.698  13.777  0.0762  0.1798  0.2699
  174MPD1    H6 2714   3.122   3.720  13.684 -3.9783  0.4774 -1.1460
  174MPD1    H7 2715   3.055   3.602  13.766  2.6732 -0.6140 -0.5282
  175MPD1     C 2716   0.750   0.775  15.595 -0.2305  0.0892 -0.2694
  175MPD1    C1 2717   0.714   0.639  15.583  0.3369  0.2258  0.6669
  175MPD1    C2 2718   0.688   0.568  15.702  0.8930 -0.4404 -0.1603
  175MPD1    C3 2719   0.699   0.637  15.829 -0.4119 -0.1103  0.1618
  175MPD1    C4 2720   0.720   0.771  15.833  0.1686  0.3516 -0.3341
  175MPD1    C5 2721   0.752   0.834  15.717 -0.0762 -0.1616 -0.0679
  175MPD1     H 2722   0.657   0.465  15.687 -1.6536  0.2433  0.4309
  175MPD1    H1 2723   0.728   0.831  15.923  2.2547 -1.3004  0.6097
  175MPD1    H2 2724   0.777   0.827  15.504 -1.0377  0.8497 -0.0787
  175MPD1    H3 2725   0.794   0.933  15.721  1.2121 -0.7411  0.9178
  175MPD1     N 2726   0.663   0.578  15.950  0.0580 -0.0525  0.5967
  175MPD1    H5 2727   0.657   0.636  16.032  1.6548  0.6049  0.2496
  175MPD1    N1 2728   0.720   0.576  15.452  0.1299  0.8031  0.4983
  175MPD1    H6 2729   0.663   0.492  15.455 -1.6224  1.9304 -1.0041
  175MPD1    H7 2730   0.693   0.640  15.378  2.7284  0.1052 -1.0771
  176MPD1     C 2731   2.580   1.603   0.359  0.4861  0.3129  0.5226
  176MPD1    C1 2732   2.656   1.655   0.250  0.7644  0.0727 -0.1872
  176MPD1    C2 2733   2.587   1.725   0.157 -0.1930  0.1580  0.2601
  176MPD1    C3 2734   2.450   1.745   0.170  0.5740 -0.5894 -0.3029
  176MPD1    C4 2735   2.377   1.684   0.275  0.1735 -0.0166  0.1028
  176MPD1    C5 2736   2.450   1.610   0.363  0.0085 -0.4685 -0.2334
  176MPD1     H 2737   2.646   1.774   0.081  0.0457 -2.0790 -0.9826
  176MPD1    H1 2738   2.269   1.686   0.287 -0.0987 -2.9243 -1.8514
  176MPD1    H2 2739   2.633   1.546   0.433  1.8411  0.5055 -0.2988
  176MPD1    H3 2740   2.396   1.578   0.451  0.7397  1.2299  0.8327
  176MPD1     N 2741   2.385   1.835   0.077 -0.2013 -0.4727  0.3765
  176MPD1    H5 2742   2.444   1.887   0.014 -0.3984  0.3641  0.8794
  176MPD1    N1 2743   2.796   1.643   0.241  0.5021 -0.2240  0.1969
  176MPD1    H6 2744   2.828   1.653   0.145 -0.1264 -0.4164 -0.0277
  176MPD1    H7 2745   2.834   1.563   0.292  1.2533 -0.1387 -0.2176
  177MPD1     C 2746   0.222   2.531  10.201  0.0692  0.0768 -0.2993
  177MPD1    C1 2747   0.233   2.642  10.116 -0.3271  0.4801  0.0771
  177MPD1    C2 2748   0.122   2.675  10.034  0.1779 -0.2210 -0.1469
  177MPD1    C3 2749   0.002   2.603  10.052 -0.5143 -0.5338  0.7918
  177MPD1    C4 2750   4.722   2.506  10.147  0.1009 -0.0462 -0.0131
  177MPD1    C5 2751   0.103   2.462  10.208  0.3076  0.0812  0.0218
  177MPD1     H 2752   0.120   2.759   9.966  1.4525  0.1597  0.2932
  177MPD1    H1 2753   4.635   2.445  10.166  0.6296 -0.3850  1.3043
  177MPD1    H2 2754   0.308   2.506  10.263  2.3747  1.4334 -2.9517
  177MPD1    H3 2755   0.088   2.378  10.275  1.7462 -0.6984 -0.6284
  177MPD1     N 2756   4.618   2.656   9.994 -0.3676  0.2514  0.2616
  177MPD1    H5 2757   4.632   2.728   9.925 -1.2839 -0.5765 -0.7979
  177MPD1    N1 2758   0.360   2.691  10.091 -0.1430 -0.8067  0.2374
  177MPD1    H6 2759   0.409   2.700  10.180 -1.5153  0.1673  0.8859
  177MPD1    H7 2760   0.352   2.782  10.048  0.9167 -0.7009  0.2669
  178MPD1     C 2761   3.346   1.901  17.353 -0.1640 -0.1753  0.1463
  178MPD1    C1 2762   3.406   1.945  17.235  0.5193  0.1600  0.0736
  178MPD1    C2 2763   3.376   2.070  17.191 -0.9324 -0.4644 -0.0617
  178MPD1    C3 2764   3.266   2.132  17.243 -0.0284  0.1044  0.2280
  178MPD1    C4 2765   3.200   2.081  17.353  0.1291 -0.3282 -0.2587
  178MPD1    C5 2766   3.238   1.960  17.409  0.3934 -0.0450 -0.2827
  178MPD1     H 2767   3.442   2.110  17.116  0.2123 -3.4119 -0.6148
  178MPD1    H1 2768   3.118   2.138  17.397  1.2433  1.2456 -0.1898
  178MPD1    H2 2769   3.380   1.810  17.401  0.1678  0.6610  1.4840
  178MPD1    H3 2770   3.194   1.924  17.501  0.8529  0.9807  0.3453
  178MPD1     N 2771   3.234   2.267  17.203  0.1666  0.0135 -0.7994
  178MPD1    H5 2772   3.156   2.314  17.250  0.3492 -0.0910 -0.3918
  178MPD1    N1 2773   3.530   1.886  17.208 -0.9777  0.1948 -0.3418
  178MPD1    H6 2774   3.550   1.788  17.224 -1.8557  0.2328  0.9640
  178MPD1    H7 2775   3.554   1.907  17.111  1.4465  0.8031  0.3987
  179MPD1     C 2776   3.493   1.228  15.954 -0.2133  0.3160 -0.4713
  179MPD1    C1 2777   3.368   1.260  16.001  1.0599  0.2084  0.5477
  179MPD1    C2 2778   3.254   1.201  15.954  0.6251  0.0067 -0.4922
  179MPD1    C3 2779   3.263   1.088  15.871  0.3439  0.1684 -0.7408
  179MPD1    C4 2780   3.388   1.047  15.834 -0.5984 -0.5849 -0.6247
  179MPD1    C5 2781   3.499   1.120  15.870 -0.0533 -0.4224 -0.0795
  179MPD1     H 2782   3.167   1.258  15.984  0.0247 -1.0430 -0.2394
  179MPD1    H1 2783   3.407   0.979  15.752 -0.0139  1.3557 -2.1173
  179MPD1    H2 2784   3.588   1.275  15.977 -0.9262  1.6942 -0.3201
  179MPD1    H3 2785   3.597   1.098  15.830 -0.2687 -1.1424 -0.2064
  179MPD1     N 2786   3.156   1.020  15.818 -0.6466 -0.4768 -0.4928
  179MPD1    H5 2787   3.172   0.933  15.767  2.5312 -1.2280  1.7490
  179MPD1    N1 2788   3.359   1.383  16.066  0.3429  0.2103  0.0583
  179MPD1    H6 2789   3.429   1.385  16.139 -1.2263 -1.0423  1.6125
  179MPD1    H7 2790   3.270   1.389  16.115 -0.0378 -1.5175 -0.4120
  180MPD1     C 2791   1.084   2.560  14.921 -0.4800 -0.1135 -0.4060
  180MPD1    C1 2792   1.063   2.490  14.801 -0.1815  0.1085  0.2901
  180MPD1    C2 2793   1.170   2.493  14.715 -0.3846 -0.0654 -0.6054
  180MPD1    C3 2794   1.291   2.556  14.735  0.4721  0.3790 -0.2078
  180MPD1    C4 2795   1.305   2.629  14.851  0.6120 -0.1756 -0.3035
  180MPD1    C5 2796   1.202   2.625  14.943  0.0096  0.0770 -0.1395
  180MPD1     H 2797   1.152   2.433  14.626 -2.1856 -1.0897  0.4461
  180MPD1    H1 2798   1.389   2.693  14.877  0.3784 -0.8206  2.0353
  180MPD1    H2 2799   1.015   2.566  15.004 -0.5390 -1.4678 -0.3511
  180MPD1    H3 2800   1.209   2.694  15.027 -1.4094 -0.1493  0.1703
  180MPD1     N 2801   1.393   2.564  14.636 -0.4243  0.2704 -0.4282
  180MPD1    H5 2802   1.374   2.502  14.558  1.0143  1.0189 -1.3739
  180MPD1    N1 2803   0.943   2.421  14.776 -0.0920  0.2407 -0.0779
  180MPD1    H6 2804   0.915   2.424  14.679 -1.7647  2.9736  0.5009
  180MPD1    H7 2805   0.864   2.453  14.832 -0.9259  1.1789 -1.8220
  181MPD1     C 2806   3.519   0.798   9.714 -0.3261  0.5281  0.9040
  181MPD1    C1 2807   3.615   0.895   9.738  0.2972 -0.3507  0.4889
  181MPD1    C2 2808   3.727   0.865   9.823  0.2644  0.9265  0.0125
  181MPD1    C3 2809   3.742   0.744   9.883  0.3339  0.5272 -0.0885
  181MPD1    C4 2810   3.629   0.658   9.873  0.5466 -0.4874  0.4286
  181MPD1    C5 2811   3.533   0.686   9.785  0.2585  0.4677  0.0791
  181MPD1     H 2812   3.811   0.931   9.843 -0.0084  1.1084  0.5457
  181MPD1    H1 2813   3.621   0.563   9.925  0.5134 -0.6657  0.0989
  181MPD1    H2 2814   3.443   0.814   9.639  0.8764 -0.9869 -0.6427
  181MPD1    H3 2815   3.459   0.607   9.776 -0.5920  1.2473  0.1990
  181MPD1     N 2816   3.848   0.698   9.963  0.2969  0.3501  0.0356
  181MPD1    H5 2817   3.847   0.597   9.977 -2.7647  0.5164  1.0999
  181MPD1    N1 2818   3.616   1.019   9.671  0.3042  0.0663 -0.1117
  181MPD1    H6 2819   3.666   1.088   9.727 -1.0692  0.2893  0.8369
  181MPD1    H7 2820   3.527   1.053   9.635 -0.1331  1.0944  1.9231
  182MPD1     C 2821   0.107   3.218   0.978 -0.1416  0.0160  0.0348
  182MPD1    C1 2822   0.043   3.121   0.913  0.6530 -0.7851  0.2058
  182MPD1    C2 2823   0.073   3.109   0.778 -0.1437  0.2263  0.2106
  182MPD1    C3 2824   0.164   3.205   0.717  0.5524  0.0318  0.0308
  182MPD1    C4 2825   0.221   3.300   0.795  0.1142  0.7715 -0.5048
  182MPD1    C5 2826   0.200   3.293   0.927 -0.3387  0.6854 -0.7502
  182MPD1     H 2827   0.007   3.047   0.719 -0.7596  0.0787  1.0488
  182MPD1    H1 2828   0.287   3.376   0.753  0.4195  0.4048 -0.6933
  182MPD1    H2 2829   0.096   3.235   1.085  0.6382  0.1401  0.0922
  182MPD1    H3 2830   0.262   3.353   0.992  0.6354  1.9697 -2.8546
  182MPD1     N 2831   0.186   3.216   0.579  0.0881 -0.9000 -0.1726
  182MPD1    H5 2832   0.238   3.294   0.541  3.3206 -1.5575  2.9417
  182MPD1    N1 2833   4.680   3.044   0.979  0.2251 -0.3179  0.5157
  182MPD1    H6 2834   4.731   3.007   1.059 -1.2600 -1.1217  1.1043
  182MPD1    H7 2835   4.654   2.961   0.927  0.6951 -0.8056  1.0606
  183MPD1     C 2836   4.103   4.335   9.326 -0.7814 -0.5095  0.5134
  183MPD1    C1 2837   4.074   4.461   9.374  1.0194  0.1132 -0.5488
  183MPD1    C2 2838   4.160   4.516   9.468  0.2267  0.1422  0.4305
  183MPD1    C3 2839   4.258   4.445   9.533 -0.2132  0.1368  0.4117
  183MPD1    C4 2840   4.271   4.313   9.500  0.9511 -0.1268  0.0434
  183MPD1    C5 2841   4.200   4.263   9.393 -0.4094  0.7437 -0.8423
  183MPD1     H 2842   4.133   4.617   9.496 -0.2467  0.7914 -2.3831
  183MPD1    H1 2843   4.356   4.260   9.541  0.9814  0.6095  0.9514
  183MPD1    H2 2844   4.047   4.290   9.245 -2.8874 -0.3736  1.9040
  183MPD1    H3 2845   4.218   4.160   9.366  0.9382  0.5558  0.7048
  183MPD1     N 2846   4.342   4.519   9.623  0.0520  0.0289 -0.1757
  183MPD1    H5 2847   4.345   4.620   9.631  1.2722  0.0542 -0.9782
  183MPD1    N1 2848   3.972   4.532   9.321 -0.1113 -0.1560 -0.1505
  183MPD1    H6 2849   3.908   4.461   9.286 -0.5956 -0.6935  1.8711
  183MPD1    H7 2850   3.926   4.585   9.394 -0.9143  1.1704 -1.6102
  184MPD1     C 2851   4.123   1.890  10.272  0.2302 -0.2474  0.3519
  184MPD1    C1 2852   4.004   1.911  10.337  0.2992 -0.1620 -0.5179
  184MPD1    C2 2853   3.947   2.039  10.320  0.0156  0.1784 -0.7592
  184MPD1    C3 2854   4.023   2.150  10.284 -0.6929  0.2325  1.1121
  184MPD1    C4 2855   4.152   2.121  10.249 -0.1313 -1.0537  0.0422
  184MPD1    C5 2856   4.197   1.992  10.229 -0.5684  0.5864  0.0593
  184MPD1     H 2857   3.842   2.048  10.346 -0.2087  0.7733 -1.8991
  184MPD1    H1 2858   4.220   2.199  10.216 -0.4344  0.1701  2.2805
  184MPD1    H2 2859   4.167   1.791  10.279 -0.7368 -0.6653  0.5299
  184MPD1    H3 2860   4.293   1.970  10.184  0.8866  1.9901  2.4704
  184MPD1     N 2861   3.975   2.283  10.270 -0.7251  0.3330  0.0705
  184MPD1    H5 2862   4.045   2.350  10.241  0.5335 -0.5522  1.0488
  184MPD1    N1 2863   3.926   1.804  10.387 -0.1627 -0.0052 -0.0737
  184MPD1    H6 2864   3.872   1.827  10.470 -2.1372  0.8904 -1.6091
  184MPD1    H7 2865   3.999   1.738  10.415 -2.0322 -0.3809  3.8321
  185MPD1     C 2866   3.127   2.443   9.890 -0.6025  0.1331  0.2605
  185MPD1    C1 2867   3.212   2.527   9.827  0.3718 -0.8036 -0.0527
  185MPD1    C2 2868   3.327   2.571   9.893 -0.3857  0.4088 -0.4073
  185MPD1    C3 2869   3.350   2.542  10.031 -0.4474 -0.1644 -0.3808
  185MPD1    C4 2870   3.257   2.463  10.090  0.5176 -0.1810  0.1684
  185MPD1    C5 2871   3.152   2.410  10.020 -0.5089  0.9522 -0.2474
  185MPD1     H 2872   3.403   2.621   9.835 -0.5385  0.4869 -0.5389
  185MPD1    H1 2873   3.271   2.424  10.190  0.3463 -0.9206 -0.0919
  185MPD1    H2 2874   3.034   2.395   9.862 -1.0116  2.0007 -1.5340
  185MPD1    H3 2875   3.075   2.357  10.075 -0.7767  1.2702 -0.3210
  185MPD1     N 2876   3.458   2.583  10.105  0.4290  0.5577  0.4329
  185MPD1    H5 2877   3.471   2.561  10.203  0.3832 -3.8483 -0.5245
  185MPD1    N1 2878   3.193   2.545   9.690 -0.4584  0.1116  0.4092
  185MPD1    H6 2879   3.094   2.559   9.671 -1.0189 -1.1710  2.4169
  185MPD1    H7 2880   3.247   2.619   9.646  0.2818 -0.9403 -0.4848
  186MPD1     C 2881   2.483   2.201  16.119 -0.0475  1.2388 -0.3597
  186MPD1    C1 2882   2.481   2.064  16.132 -0.1109  0.0905  0.0685
  186MPD1    C2 2883   2.598   1.995  16.130 -0.9447  0.7269 -0.6198
  186MPD1    C3 2884   2.719   2.060  16.127 -0.8511 -0.0303  0.0640
  186MPD1    C4 2885   2.722   2.193  16.121  0.0682  0.4478 -0.2054
  186MPD1    C5 2886   2.604   2.264  16.120 -0.2364  0.2250  0.1907
  186MPD1     H 2887   2.588   1.888  16.142  1.3788  0.4021 -1.4730
  186MPD1    H1 2888   2.814   2.251  16.107  2.8016 -3.5819  1.2304
  186MPD1    H2 2889   2.397   2.266  16.127 -0.7116  0.1009  1.6746
  186MPD1    H3 2890   2.603   2.373  16.119  1.1032  0.2692  2.8369
  186MPD1     N 2891   2.843   1.995  16.112 -0.9889 -0.4456 -0.0826
  186MPD1    H5 2892   2.928   2.043  16.083 -0.9372 -0.0695  0.6909
  186MPD1    N1 2893   2.362   1.994  16.127 -0.1601  0.3950  0.8027
  186MPD1    H6 2894   2.281   2.035  16.172 -0.8674 -1.3755  1.1276
  186MPD1    H7 2895   2.380   1.900  16.160 -0.3232  0.7482  1.8976
  187MPD1     C 2896   2.451   1.830  16.435 -0.2766 -0.3104  0.4808
  187MPD1    C1 2897   2.553   1.919  16.454 -0.0549  0.7982  0.9114
  187MPD1    C2 2898   2.526   2.043  16.521 -0.3945  0.1819  0.4924
  187MPD1    C3 2899   2.396   2.075  16.553 -0.0396 -0.0638 -0.7421
  187MPD1    C4 2900   2.292   1.986  16.523  0.0066 -0.2365 -0.4810
  187MPD1    C5 2901   2.323   1.865  16.461 -0.1910  0.3660 -0.5405
  187MPD1     H 2902   2.604   2.111  16.551  0.2772 -1.5393  2.6674
  187MPD1    H1 2903   2.188   2.012  16.536 -0.2364 -0.7324 -1.4598
  187MPD1    H2 2904   2.474   1.731  16.398 -0.9271  0.9426 -3.2559
  187MPD1    H3 2905   2.249   1.793  16.428  0.3790  0.7340 -2.6082
  187MPD1     N 2906   2.364   2.200  16.610  0.7593 -0.1803 -0.1165
  187MPD1    H5 2907   2.442   2.266  16.613  0.0802  0.6738 -1.6480
  187MPD1    N1 2908   2.684   1.878  16.442 -1.2169 -0.1625  0.1891
  187MPD1    H6 2909   2.691   1.835  16.351  2.1136  1.7745 -0.4647
  187MPD1    H7 2910   2.748   1.955  16.423 -0.0155 -1.5246 -1.2814
  188MPD1     C 2911   1.108   3.120   9.908  0.6514  0.1546  0.4667
  188MPD1    C1 2912   1.014   3.021   9.890  0.4679  0.8081 -0.4984
  188MPD1    C2 2913   1.060   2.885   9.858 -0.2089  0.3462  0.3215
  188MPD1    C3 2914   1.194   2.858   9.866  0.0167 -0.1484 -0.0736
  188MPD1    C4 2915   1.282   2.961   9.882 -0.0264  0.4032  0.5052
  188MPD1    C5 2916   1.237   3.090   9.892  0.2441 -0.4513 -0.0434
  188MPD1     H 2917   0.989   2.805   9.843  0.4339 -0.1006 -0.3038
  188MPD1    H1 2918   1.390   2.954   9.883  0.0666  1.9212  1.0483
  188MPD1    H2 2919   1.069   3.221   9.916  3.6477  1.4885 -1.9044
  188MPD1    H3 2920   1.308   3.170   9.911 -2.4612  1.9654 -0.1789
  188MPD1     N 2921   1.228   2.720   9.861 -0.4713  0.1466 -0.3022
  188MPD1    H5 2922   1.150   2.658   9.845 -0.6408 -0.0831  1.3649
  188MPD1    N1 2923   0.877   3.058   9.878  0.3065 -0.1385  0.3074
  188MPD1    H6 2924   0.815   2.979   9.894 -0.7872  0.5988 -0.2541
  188MPD1    H7 2925   0.844   3.135   9.937 -0.6710 -0.5081  0.2424
  189MPD1     C 2926   3.555   3.739   0.997  0.2921 -0.7554 -0.3248
  189MPD1    C1 2927   3.595   3.825   0.897  0.3779  0.7900 -0.2948
  189MPD1    C2 2928   3.535   3.809   0.772 -0.3615 -0.1204 -0.2725
  189MPD1    C3 2929   3.442   3.712   0.747  0.3754 -0.2434  0.8540
  189MPD1    C4 2930   3.410   3.626   0.849 -0.4776  0.1196  0.0763
  189MPD1    C5 2931   3.470   3.641   0.971  0.2121 -0.0615 -0.4121
  189MPD1     H 2932   3.559   3.882   0.696  1.7916  0.3547  0.8587
  189MPD1    H1 2933   3.327   3.557   0.846 -1.4765  1.2926  0.9287
  189MPD1    H2 2934   3.574   3.758   1.102 -3.0398  0.8088 -0.0263
  189MPD1    H3 2935   3.431   3.587   1.056 -0.5228 -0.3086 -0.9021
  189MPD1     N 2936   3.382   3.706   0.623  0.0844  0.5021 -0.1231
  189MPD1    H5 2937   3.390   3.790   0.566 -0.1153  0.2198 -0.5721
  189MPD1    N1 2938   3.661   3.948   0.924  0.4210  0.9830 -0.2484
  189MPD1    H6 2939   3.731   3.964   0.852 -0.7512 -1.0314 -1.8483
  189MPD1    H7 2940   3.716   3.932   1.009  1.0776 -1.2559 -1.1040
  190MPD1     C 2941   2.752   2.031  14.732 -0.8419  0.0541 -0.0251
  190MPD1    C1 2942   2.889   2.029  14.744 -0.6336 -0.0279 -0.2438
  190MPD1    C2 2943   2.942   2.107  14.844 -0.1508 -0.2411 -0.5533
  190MPD1    C3 2944   2.862   2.179  14.936 -0.1587  0.2093 -0.3664
  190MPD1    C4 2945   2.724   2.169  14.931  0.1230 -0.1826  1.0610
  190MPD1    C5 2946   2.677   2.099  14.825  1.1832 -0.4750 -0.1266
  190MPD1     H 2947   3.048   2.128  14.846 -0.6891  2.3717  0.0577
  190MPD1    H1 2948   2.657   2.219  15.000 -1.6191  2.0501 -2.1953
  190MPD1    H2 2949   2.695   1.972  14.661 -0.8913  1.7925 -1.4188
  190MPD1    H3 2950   2.569   2.103  14.823  1.2273 -0.1564 -2.0937
  190MPD1     N 2951   2.925   2.260  15.034 -0.5111  0.1372 -0.2395
  190MPD1    H5 2952   3.025   2.270  15.020 -0.6283 -1.8804 -2.5244
  190MPD1    N1 2953   2.965   1.978  14.633 -0.0052  0.3077  0.0973
  190MPD1    H6 2954   3.062   1.957  14.655  0.1778 -0.2667 -1.2810
  190MPD1    H7 2955   2.910   1.899  14.600  3.1162 -1.3286 -1.1668
  191MPD1     C 2956   2.011   4.611  12.950  0.0101 -0.3727  0.4448
  191MPD1    C1 2957   2.083   4.591  12.837  0.1197  0.2183 -0.2568
  191MPD1    C2 2958   2.057   4.679  12.734  0.0323  0.8342  0.2109
  191MPD1    C3 2959   1.964   0.045  12.740  0.2303 -0.4042 -0.4654
  191MPD1    C4 2960   1.895   0.061  12.855  0.3122  0.3166 -0.0228
  191MPD1    C5 2961   1.919   4.712  12.959 -0.0964  0.6091  0.2394
  191MPD1     H 2962   2.124   4.669  12.651  0.6909 -0.0726  0.8553
  191MPD1    H1 2963   1.829   0.145  12.877 -0.7124 -0.4544 -0.1186
  191MPD1    H2 2964   2.028   4.542  13.032 -1.4568 -3.5888 -1.9259
  191MPD1    H3 2965   1.872   4.730  13.055 -0.2204 -0.0010  0.2910
  191MPD1     N 2966   1.952   0.127  12.624  0.3237  0.5922 -0.6248
  191MPD1    H5 2967   2.011   0.107  12.544  0.8838  0.1197 -0.0970
  191MPD1    N1 2968   2.190   4.500  12.842 -0.7212  0.3655  0.0972
  191MPD1    H6 2969   2.163   4.417  12.896 -2.0618  2.5181  2.7274
  191MPD1    H7 2970   2.207   4.458  12.751  0.0951  1.7009 -0.3620
  192MPD1     C 2971   1.596   0.868  11.891 -0.7841 -1.3921  0.2727
  192MPD1    C1 2972   1.548   0.858  12.019 -0.2673 -0.1125 -0.4783
  192MPD1    C2 2973   1.600   0.763  12.099  0.0316 -0.5120 -0.0023
  192MPD1    C3 2974   1.698   0.677  12.055 -0.5982  0.9538  0.3536
  192MPD1    C4 2975   1.755   0.691  11.926  0.1234  0.0186 -0.0188
  192MPD1    C5 2976   1.693   0.786  11.848  0.3600  0.1709 -0.6416
  192MPD1     H 2977   1.557   0.745  12.197 -1.0436 -0.1736 -0.4062
  192MPD1    H1 2978   1.828   0.628  11.877 -0.6271 -0.1825 -0.8987
  192MPD1    H2 2979   1.560   0.947  11.826 -0.8197 -0.2311  1.7064
  192MPD1    H3 2980   1.724   0.785  11.745 -0.5729 -2.6216 -0.9136
  192MPD1     N 2981   1.755   0.581  12.142 -0.2213 -0.5564 -0.7577
  192MPD1    H5 2982   1.817   0.511  12.102 -0.1870 -0.7764 -0.3244
  192MPD1    N1 2983   1.434   0.932  12.044  0.0028 -0.3407  0.2295
  192MPD1    H6 2984   1.429   0.972  12.138  0.1182  0.8358 -0.2695
  192MPD1    H7 2985   1.413   1.002  11.974  2.3912 -0.4974 -0.6401
  193MPD1     C 2986   1.751   4.520  15.844 -0.1137  0.1106 -0.0735
  193MPD1    C1 2987   1.816   4.399  15.860  1.0129 -0.2785 -0.0521
  193MPD1    C2 2988   1.903   4.387  15.966 -0.8041  0.2312  0.4260
  193MPD1    C3 2989   1.945   4.501  16.036  0.0066 -0.0084  0.4032
  193MPD1    C4 2990   1.881   4.618  16.012 -0.5786  0.6043 -0.2042
  193MPD1    C5 2991   1.798   4.637  15.905  0.0171 -0.1354  0.0546
  193MPD1     H 2992   1.913   4.290  16.013 -0.6065  0.1620  0.2389
  193MPD1    H1 2993   1.915   4.701  16.073  0.1748  2.5121 -3.2174
  193MPD1    H2 2994   1.670   4.532  15.773  1.0349  1.7668 -1.1129
  193MPD1    H3 2995   1.752   4.734  15.900  2.2375  0.9111 -0.2325
  193MPD1     N 2996   2.029   4.496  16.148  0.5127  0.5566 -0.2852
  193MPD1    H5 2997   2.027   4.572  16.215 -0.8624  2.6929 -2.7631
  193MPD1    N1 2998   1.761   4.280  15.804  0.3591  0.3618 -0.6470
  193MPD1    H6 2999   1.807   4.189  15.808  0.6981  0.6453  1.8524
  193MPD1    H7 3000   1.708   4.301  15.720 -0.2589  2.0545  0.1760
  194MPD1     C 3001   3.886   2.411  17.384  0.2105  0.4903  0.6313
  194MPD1    C1 3002   3.985   2.375  17.299  0.1796 -0.6550 -1.1570
  194MPD1    C2 3003   4.063   2.268  17.346  0.4056  0.4775 -0.0031
  194MPD1    C3 3004   4.051   2.211  17.468  0.1738 -0.1128 -0.1433
  194MPD1    C4 3005   3.957   2.269  17.557  0.2307  0.2401  0.2039
  194MPD1    C5 3006   3.877   2.366  17.509 -0.0881  0.2498 -0.7300
  194MPD1     H 3007   4.148   2.232  17.289  1.3347 -0.6694  2.1174
  194MPD1    H1 3008   3.947   2.235  17.659 -0.6565  1.0650  0.3875
  194MPD1    H2 3009   3.823   2.496  17.361  1.1068  0.9289 -0.2047
  194MPD1    H3 3010   3.804   2.413  17.574  3.3752  2.3005  1.7317
  194MPD1     N 3011   4.132   2.102  17.517 -0.3832 -0.1529  0.0275
  194MPD1    H5 3012   4.114   2.068  17.611  1.0897 -2.0795 -0.3798
  194MPD1    N1 3013   3.996   2.418  17.163 -0.2834 -0.1176 -0.0880
  194MPD1    H6 3014   3.959   2.513  17.158  3.0651  1.1810 -0.2588
  194MPD1    H7 3015   4.090   2.416  17.124  0.8664 -0.6108  2.7109
  195MPD1     C 3016   1.826   3.663   0.488 -0.2065  0.2554 -0.0441
  195MPD1    C1 3017   1.701   3.601   0.488  0.1943 -0.5364  0.0036
  195MPD1    C2 3018   1.695   3.484   0.416 -0.2649 -0.7408  0.3229
  195MPD1    C3 3019   1.795   3.436   0.335 -0.0082  0.2501  0.2450
  195MPD1    C4 3020   1.912   3.506   0.330  0.0919 -0.1896  0.3911
  195MPD1    C5 3021   1.923   3.626   0.398  0.2575  0.4373  0.7849
  195MPD1     H 3022   1.601   3.430   0.427  0.0724 -1.0057  1.8316
  195MPD1    H1 3023   2.003   3.474   0.281  1.1283  3.8727 -0.3874
  195MPD1    H2 3024   1.841   3.755   0.544  2.6651 -0.1635 -0.1525
  195MPD1    H3 3025   2.014   3.685   0.390 -0.2506  0.7057 -2.9676
  195MPD1     N 3026   1.777   3.318   0.260  0.3003  0.1972 -0.1852
  195MPD1    H5 3027   1.852   3.301   0.193  0.3681  0.9614 -0.3090
  195MPD1    N1 3028   1.601   3.628   0.585  0.1474 -0.0506 -0.2463
  195MPD1    H6 3029   1.615   3.726   0.609  0.5679  0.7864 -3.8953
  195MPD1    H7 3030   1.507   3.635   0.547 -0.1204  1.8348  0.7537
  196MPD1     C 3031   0.434   2.545  17.386  0.1267  0.2124 -0.3019
  196MPD1    C1 3032   0.550   2.582  17.435  0.0979  0.0393 -0.2439
  196MPD1    C2 3033   0.578   2.560  17.568 -0.2459 -0.6841  0.4192
  196MPD1    C3 3034   0.517   2.461  17.641  0.9528  0.0967 -0.1380
  196MPD1    C4 3035   0.412   2.394  17.576  0.0389  0.7571  0.2650
  196MPD1    C5 3036   0.372   2.445  17.452  0.3575 -0.3334 -0.7167
  196MPD1     H 3037   0.660   2.616  17.612  1.7806 -3.1870 -0.1527
  196MPD1    H1 3038   0.363   2.308  17.620  1.2318  1.0881  2.2375
  196MPD1    H2 3039   0.396   2.567  17.287 -1.4145  1.3064  0.5216
  196MPD1    H3 3040   0.289   2.393  17.406  0.6078 -0.0482 -1.4866
  196MPD1     N 3041   0.546   2.433   0.037 -0.2962  0.3857 -0.1328
  196MPD1    H5 3042   0.499   2.357   0.085  0.4356  0.0301  0.0115
  196MPD1    N1 3043   0.624   2.680  17.369 -0.0716 -0.3949 -0.7573
  196MPD1    H6 3044   0.721   2.669  17.400  0.0488 -0.5037 -1.1727
  196MPD1    H7 3045   0.626   2.637  17.277  0.7452 -4.3420  1.0845
  197MPD1     C 3046   4.547   0.160  17.346 -0.4219 -0.1712  0.7708
  197MPD1    C1 3047   4.656   0.080  17.311 -0.4510 -0.4812  0.0963
  197MPD1    C2 3048   0.018   0.136  17.228 -0.0330 -0.5035 -0.0140
  197MPD1    C3 3049   0.012   0.267  17.185 -0.9812  0.1292  0.0367
  197MPD1    C4 3050   4.640   0.340  17.222  0.2173  0.1696 -0.1808
  197MPD1    C5 3051   4.544   0.284  17.301  0.4535  0.0379  0.6803
  197MPD1     H 3052   0.097   0.071  17.192 -0.9798 -1.6230 -0.0766
  197MPD1    H1 3053   4.629   0.443  17.191 -0.2507 -0.3237 -1.6714
  197MPD1    H2 3054   4.466   0.118  17.405 -0.8345 -0.1703  0.2007
  197MPD1    H3 3055   4.450   0.338  17.312  1.0304  0.8529  1.6496
  197MPD1     N 3056   0.119   0.337  17.116 -0.5230 -0.1824  0.2705
  197MPD1    H5 3057   0.114   0.433  17.084  0.7013  0.6693  2.6748
  197MPD1    N1 3058   4.653   4.677  17.337  0.1299 -0.1619 -0.3487
  197MPD1    H6 3059   4.602   4.656  17.422  0.9758  1.8404  0.6505
  197MPD1    H7 3060   0.013   4.648  17.357 -0.1181 -0.4166  0.4628
  198MPD1     C 3061   1.986   3.889  15.512  0.1530  0.3329  0.7731
  198MPD1    C1 3062   2.060   3.939  15.619  0.2741  0.1455 -0.3202
  198MPD1    C2 3063   2.195   3.930  15.600 -0.4470 -1.1639 -0.3937
  198MPD1    C3 3064   2.247   3.859  15.494 -0.2362  0.2164 -0.0789
  198MPD1    C4 3065   2.169   3.812  15.393 -0.7549 -0.4407 -0.1410
  198MPD1    C5 3066   2.034   3.826  15.402 -0.1709  0.0788 -0.0787
  198MPD1     H 3067   2.266   3.970  15.672  1.3313 -1.5933 -1.8891
  198MPD1    H1 3068   2.205   3.772  15.299  1.8139 -4.2495  2.4878
  198MPD1    H2 3069   1.879   3.908  15.517  0.1903  0.6965  0.2643
  198MPD1    H3 3070   1.967   3.786  15.327 -0.2901 -0.4494  0.3111
  198MPD1     N 3071   2.392   3.853  15.492  0.3812  0.3241 -0.0265
  198MPD1    H5 3072   2.446   3.908  15.558 -2.1763  2.7936  0.0033
  198MPD1    N1 3073   2.004   4.027  15.703  0.1992  0.1683  0.1364
  198MPD1    H6 3074   2.044   4.028  15.797  0.3317  2.4034  0.0382
  198MPD1    H7 3075   1.908   4.009  15.733  0.3149  1.1397  1.0883
  199MPD1     C 3076   3.740   0.496  10.360 -0.2449 -0.7018 -0.2542
  199MPD1    C1 3077   3.613   0.485  10.293 -0.8148 -0.7242 -0.2684
  199MPD1    C2 3078   3.572   0.598  10.222 -0.1820 -0.3197  0.6458
  199MPD1    C3 3079   3.621   0.724  10.240 -0.2474 -0.3874  0.0960
  199MPD1    C4 3080   3.737   0.734  10.322 -0.1086 -0.6444 -0.2402
  199MPD1    C5 3081   3.804   0.618  10.364  0.3719 -0.3202  0.1949
  199MPD1     H 3082   3.494   0.581  10.149 -0.0530  0.8786  0.2439
  199MPD1    H1 3083   3.788   0.824  10.353  0.8749 -1.3033  0.0416
  199MPD1    H2 3084   3.791   0.406  10.390 -1.6375 -0.7299  2.0649
  199MPD1    H3 3085   3.902   0.639  10.406  0.0571 -0.5944  1.0639
  199MPD1     N 3086   3.563   0.836  10.185  0.3599 -0.4302  0.2140
  199MPD1    H5 3087   3.607   0.926  10.204  0.8599 -0.7274  0.4735
  199MPD1    N1 3088   3.565   0.358  10.257  0.0303  0.0033 -0.6204
  199MPD1    H6 3089   3.584   0.293  10.333  0.1903 -0.5139 -1.1091
  199MPD1    H7 3090   3.466   0.365  10.234  0.5465  0.6215 -2.6283
  200MPD1     C 3091   4.406   0.448  15.224 -0.1924 -0.2966  0.1681
  200MPD1    C1 3092   4.370   0.556  15.298  0.0256  0.1551 -0.1898
  200MPD1    C2 3093   4.261   0.627  15.261 -0.1545 -0.1018  0.5053
  200MPD1    C3 3094   4.165   0.582  15.161 -0.1800 -0.8539  0.1145
  200MPD1    C4 3095   4.192   0.460  15.100 -0.7252  0.2146  0.0644
  200MPD1    C5 3096   4.308   0.393  15.144  0.6768 -0.1970  0.2489
  200MPD1     H 3097   4.242   0.727  15.298  1.1975  0.3333  0.0619
  200MPD1    H1 3098   4.128   0.404  15.033 -1.7923  0.4865  0.8583
  200MPD1    H2 3099   4.501   0.398  15.238 -0.6946 -0.5119  2.7289
  200MPD1    H3 3100   4.332   0.299  15.094 -1.4592 -1.1107  0.9219
  200MPD1     N 3101   4.059   0.666  15.112 -0.2757 -0.0267  0.3262
  200MPD1    H5 3102   4.053   0.761  15.146  0.9781 -0.5037  1.8782
  200MPD1    N1 3103   4.462   0.613  15.394  0.0029 -0.2372 -0.1710
  200MPD1    H6 3104   4.502   0.535  15.446  0.5370  0.9924  1.2521
  200MPD1    H7 3105   4.412   0.662  15.468  0.8004 -0.7457  0.7097
  201MPD1     C 3106   1.289   4.557  13.608  0.0481  0.4489  0.6213
  201MPD1    C1 3107   1.177   4.481  13.570 -0.0827 -0.2771 -0.0733
  201MPD1    C2 3108   1.191   4.348  13.539 -0.1111  0.3388  0.2506
  201MPD1    C3 3109   1.313   4.284  13.549  0.3064  0.6880  0.7965
  201MPD1    C4 3110   1.418   4.363  13.576 -0.0871 -0.3637 -1.0509
  201MPD1    C5 3111   1.409   4.497  13.613 -0.0588 -1.1176 -0.3875
  201MPD1     H 3112   1.101   4.288  13.531  1.5444 -2.2493  1.2560
  201MPD1    H1 3113   1.519   4.326  13.564 -0.0175 -0.7649  0.7520
  201MPD1    H2 3114   1.288   4.654  13.657 -3.6855  1.3024 -1.1332
  201MPD1    H3 3115   1.494   4.551  13.653 -1.0420 -0.5342  0.9052
  201MPD1     N 3116   1.311   4.143  13.523  0.3556  0.1126  0.1039
  201MPD1    H5 3117   1.217   4.106  13.515  0.7196 -0.8843  0.3936
  201MPD1    N1 3118   1.050   4.532  13.596  0.6321 -0.0617 -0.1073
  201MPD1    H6 3119   0.981   4.498  13.529  1.4402 -2.4165  0.2592
  201MPD1    H7 3120   1.052   4.634  13.590 -1.5291  0.0133  0.2933
  202MPD1     C 3121   4.712   3.310  10.300  0.1908  0.2423 -0.1185
  202MPD1    C1 3122   4.692   3.423  10.233  0.7573 -0.2814 -0.3651
  202MPD1    C2 3123   0.061   3.510  10.223  0.3246 -0.6144 -0.0088
  202MPD1    C3 3124   0.154   3.514  10.330 -0.7431 -0.0525 -0.5351
  202MPD1    C4 3125   0.153   3.411  10.424 -0.0174  0.3498  0.0766
  202MPD1    C5 3126   0.072   3.306  10.403 -0.1859  0.5136  0.1345
  202MPD1     H 3127   0.070   3.589  10.150 -2.7632 -0.5448 -0.3336
  202MPD1    H1 3128   0.229   3.395  10.499  0.7766 -2.1217 -1.2323
  202MPD1    H2 3129   4.661   3.214  10.291  2.1238 -0.7078 -0.8622
  202MPD1    H3 3130   0.076   3.220  10.469 -1.8500 -0.8117 -1.4825
  202MPD1     N 3131   0.274   3.595  10.323 -0.1126 -0.6301 -0.2570
  202MPD1    H5 3132   0.348   3.580  10.391  0.5222  0.2172 -0.7488
  202MPD1    N1 3133   4.607   3.411  10.123  0.2830  1.0474 -0.5669
  202MPD1    H6 3134   4.583   3.497  10.074  0.2445  1.1834 -0.3091
  202MPD1    H7 3135   4.521   3.358  10.129  1.4780 -1.0509 -1.8203
  203MPD1     C 3136   4.415   4.407  12.431  0.1489  0.1254  0.7264
  203MPD1    C1 3137   4.385   4.283  12.388  0.6566  0.1221 -1.2103
  203MPD1    C2 3138   4.420   4.170  12.463  0.2653 -0.2485  0.3054
  203MPD1    C3 3139   4.487   4.186  12.584 -0.2350  0.1885 -0.2196
  203MPD1    C4 3140   4.520   4.315  12.624 -0.5105 -0.7828 -0.6017
  203MPD1    C5 3141   4.482   4.422  12.545  0.3076  0.0704 -0.4834
  203MPD1     H 3142   4.394   4.070  12.429  1.5772 -0.4179 -0.1760
  203MPD1    H1 3143   4.567   4.335  12.720 -1.5936  0.8594 -0.4087
  203MPD1    H2 3144   4.377   4.493  12.376 -0.9458 -0.3953  0.6669
  203MPD1    H3 3145   4.517   4.524  12.557  0.2529 -0.3700  3.1543
  203MPD1     N 3146   4.520   4.071  12.654  0.0727  0.7462  0.1396
  203MPD1    H5 3147   4.482   3.985  12.615  1.1226  0.6396 -0.6583
  203MPD1    N1 3148   4.317   4.268  12.270 -0.2954 -1.0324 -0.0022
  203MPD1    H6 3149   4.355   4.328  12.196 -0.6100  1.2581  1.6839
  203MPD1    H7 3150   4.316   4.171  12.241 -0.7840 -0.4318 -2.0496
  204MPD1     C 3151   3.891   1.113   0.239  0.2444  0.1541 -0.3286
  204MPD1    C1 3152   3.890   1.129   0.098  0.1451  0.5641 -0.1665
  204MPD1    C2 3153   3.956   1.038   0.020  0.4886 -0.7864 -0.0583
  204MPD1    C3 3154   3.998   0.911   0.069 -0.7952  0.3402  0.0673
  204MPD1    C4 3155   3.989   0.894   0.209  0.1731  0.4995 -0.7768
  204MPD1    C5 3156   3.934   0.995   0.289 -0.3164  0.2758  0.0482
  204MPD1     H 3157   3.966   1.051  17.653 -0.8730  2.3806  0.2171
  204MPD1    H1 3158   4.024   0.805   0.259 -2.5707  0.2961  0.7827
  204MPD1    H2 3159   3.845   1.175   0.314  0.5232  0.4046 -0.3605
  204MPD1    H3 3160   3.922   0.974   0.394  0.0375 -0.3589 -0.0390
  204MPD1     N 3161   4.064   0.822  17.722  0.1600 -0.3353 -0.1686
  204MPD1    H5 3162   4.040   0.829  17.623  0.9215  0.8450 -0.2697
  204MPD1    N1 3163   3.857   1.253   0.040 -0.0120  0.2163  0.0703
  204MPD1    H6 3164   3.786   1.301   0.095  1.2370  0.7958  1.2020
  204MPD1    H7 3165   3.829   1.236  17.684 -0.5519  1.6364 -0.0190
  205MPD1     C 3166   3.934   4.086  16.639  0.1787  0.7622 -0.0133
  205MPD1    C1 3167   4.056   4.143  16.626  0.5378 -0.7480 -0.0803
  205MPD1    C2 3168   4.117   4.196  16.739 -0.5576  0.0020 -0.0402
  205MPD1    C3 3169   4.067   4.171  16.866  0.2441  0.1868  0.3918
  205MPD1    C4 3170   3.945   4.116  16.874 -0.0240  0.8272  0.0238
  205MPD1    C5 3171   3.880   4.072  16.763 -0.0769 -0.0845 -0.1132
  205MPD1     H 3172   4.212   4.247  16.731 -0.5148 -0.1238 -0.3188
  205MPD1    H1 3173   3.901   4.091  16.970 -1.2181  2.6228 -0.0507
  205MPD1    H2 3174   3.875   4.070  16.550  2.0817 -0.1871 -1.0970
  205MPD1    H3 3175   3.782   4.031  16.782 -0.5741  1.8484  1.4703
  205MPD1     N 3176   4.132   4.192  16.987  0.5558  0.3894  0.1851
  205MPD1    H5 3177   4.075   4.159  17.064  0.2830  1.3421  0.3960
  205MPD1    N1 3178   4.106   4.173  16.500  0.4781 -0.4937 -0.2187
  205MPD1    H6 3179   4.070   4.108  16.431  2.6836  0.3287 -2.1605
  205MPD1    H7 3180   4.208   4.180  16.494  0.1888  2.7497 -1.7131
  206MPD1     C 3181   4.423   2.311  17.188 -0.7880 -0.0561  0.9836
  206MPD1    C1 3182   4.393   2.454  17.178 -0.5144 -0.5998 -0.6984
  206MPD1    C2 3183   4.299   2.481  17.076 -0.2755 -0.1273 -0.5417
  206MPD1    C3 3184   4.287   2.390  16.970  0.3720 -0.0447  0.1934
  206MPD1    C4 3185   4.327   2.261  16.986  0.1731  0.3733  0.5814
  206MPD1    C5 3186   4.394   2.214  17.092 -0.1259  0.3204 -0.1025
  206MPD1     H 3187   4.274   2.585  17.058 -0.8291  0.0563  1.2840
  206MPD1    H1 3188   4.300   2.182  16.916  1.3438  0.4514  0.0491
  206MPD1    H2 3189   4.484   2.275  17.270  1.1923  2.0516  0.4358
  206MPD1    H3 3190   4.434   2.114  17.104  3.2266  1.8392  1.3741
  206MPD1     N 3191   4.220   2.423  16.854  0.0820  0.0678  0.0840
  206MPD1    H5 3192   4.223   2.350  16.784  0.9517 -0.1086  0.3110
  206MPD1    N1 3193   4.420   2.539  17.288  0.6094  0.6008  0.3386
  206MPD1    H6 3194   4.419   2.638  17.263  0.3409  0.1139 -1.5803
  206MPD1    H7 3195   4.504   2.510  17.338 -0.2318 -1.1757  0.7091
  207MPD1     C 3196   1.023   4.228   9.678 -0.2508 -0.0714  0.2969
  207MPD1    C1 3197   0.992   4.199   9.815  0.3692  0.8164  0.2612
  207MPD1    C2 3198   1.097   4.198   9.910  0.4862  0.5084 -0.2004
  207MPD1    C3 3199   1.227   4.213   9.871  0.1257  0.3348  1.0805
  207MPD1    C4 3200   1.261   4.244   9.738  0.2568  0.4355 -0.0536
  207MPD1    C5 3201   1.153   4.245   9.649 -0.5546 -0.5355 -0.1192
  207MPD1     H 3202   1.067   4.187  10.014 -0.0903  1.1209 -0.3086
  207MPD1    H1 3203   1.359   4.246   9.693 -0.3590  1.4490 -1.3399
  207MPD1    H2 3204   0.946   4.242   9.602  0.4627  0.6670 -0.2899
  207MPD1    H3 3205   1.173   4.262   9.543  2.5252  0.4125  0.6258
  207MPD1     N 3206   1.333   4.206   9.966  0.0128 -0.0767 -0.0646
  207MPD1    H5 3207   1.421   4.236   9.925  1.3382 -1.0637  2.0829
  207MPD1    N1 3208   0.853   4.207   9.850  0.0878  0.7557 -0.3003
  207MPD1    H6 3209   0.832   4.193   9.949  0.9867 -0.5787 -0.2977
  207MPD1    H7 3210   0.795   4.152   9.787  0.6962  0.2677 -0.4279
  208MPD1     C 3211   0.321   3.508  16.618  0.0175  0.4285 -0.5919
  208MPD1    C1 3212   0.198   3.559  16.635  0.0643 -0.3012 -0.0858
  208MPD1    C2 3213   0.112   3.518  16.734 -0.2808  0.2893 -0.2371
  208MPD1    C3 3214   0.156   3.419  16.824 -0.2350 -0.4246 -0.6598
  208MPD1    C4 3215   0.287   3.374  16.810  0.0140 -0.1134 -0.2121
  208MPD1    C5 3216   0.364   3.421  16.712 -0.1820 -0.7828  0.4509
  208MPD1     H 3217   0.016   3.568  16.742  0.0133  0.8505 -0.2355
  208MPD1    H1 3218   0.344   3.319  16.884 -0.2173 -1.0695 -0.7292
  208MPD1    H2 3219   0.393   3.535  16.541  0.5361  0.3166 -0.1400
  208MPD1    H3 3220   0.466   3.383  16.714 -0.3390 -1.4262 -3.3862
  208MPD1     N 3221   0.066   3.372  16.923 -0.0814 -0.8871 -0.1893
  208MPD1    H5 3222   4.711   3.418  16.925 -0.9768 -2.6410 -0.6836
  208MPD1    N1 3223   0.138   3.628  16.529  0.0588 -0.0518 -0.3347
  208MPD1    H6 3224   0.048   3.673  16.540  0.2708 -0.1490  1.7129
  208MPD1    H7 3225   0.207   3.680  16.474  1.1146 -1.3101 -0.1915
  209MPD1     C 3226   1.447   3.238  11.602  0.3710  0.2762  1.1413
  209MPD1    C1 3227   1.413   3.259  11.465  0.1676  0.3193 -0.4361
  209MPD1    C2 3228   1.491   3.343  11.384 -0.4439  0.3659 -0.4653
  209MPD1    C3 3229   1.594   3.413  11.445  0.3516  0.7656  0.4365
  209MPD1    C4 3230   1.615   3.410  11.580 -0.2726 -0.1126  0.0677
  209MPD1    C5 3231   1.550   3.313  11.657  0.0858 -0.4989  0.5047
  209MPD1     H 3232   1.475   3.359  11.278 -3.0902  1.7364  0.1519
  209MPD1    H1 3233   1.697   3.462  11.629 -0.1272 -0.3682  0.0947
  209MPD1    H2 3234   1.405   3.151  11.651  0.0195  0.5722  1.3592
  209MPD1    H3 3235   1.568   3.299  11.764  2.1181 -0.5584  0.1590
  209MPD1     N 3236   1.662   3.494  11.347  0.6637  0.1825 -0.1605
  209MPD1    H5 3237   1.631   3.491  11.250 -0.7447 -1.0414  0.3111
  209MPD1    N1 3238   1.329   3.169  11.402  0.2556  0.5297 -0.1565
  209MPD1    H6 3239   1.291   3.214  11.319 -3.2432  1.7098  2.1279
  209MPD1    H7 3240   1.251   3.152  11.464  2.8784 -3.5475  2.0595
  210MPD1     C 3241   2.238   4.393  11.319  0.0462 -0.2584 -0.9171
  210MPD1    C1 3242   2.259   4.271  11.385  0.0561 -0.7069 -0.3168
  210MPD1    C2 3243   2.199   4.156  11.342 -0.5855 -0.6394  0.3570
  210MPD1    C3 3244   2.112   4.146  11.231  0.4797  0.0530 -0.1318
  210MPD1    C4 3245   2.102   4.267  11.166 -0.7020  0.4752  0.2391
  210MPD1    C5 3246   2.164   4.387  11.203 -0.9152 -0.1996  0.0138
  210MPD1     H 3247   2.215   4.071  11.407  0.6068  0.5405  1.6054
  210MPD1    H1 3248   2.041   4.256  11.077 -0.8907 -0.7967  0.5316
  210MPD1    H2 3249   2.281   4.489  11.346 -0.8909 -0.2144  0.4288
  210MPD1    H3 3250   2.140   4.476  11.146  0.1802  0.8841  1.2423
  210MPD1     N 3251   2.058   4.025  11.181  0.4655  0.6091 -0.2406
  210MPD1    H5 3252   2.007   4.026  11.093 -0.4352 -1.3350  0.2674
  210MPD1    N1 3253   2.359   4.271  11.485 -0.6857 -0.0320  0.3499
  210MPD1    H6 3254   2.344   4.201  11.557  1.3075 -0.7011  0.1179
  210MPD1    H7 3255   2.370   4.361  11.531 -1.9925 -1.0473  2.6537
  211MPD1     C 3256   0.195   3.717  15.379 -0.0792  0.6558 -0.1720
  211MPD1    C1 3257   0.111   3.692  15.481  0.2020 -0.7410 -0.2738
  211MPD1    C2 3258   0.044   3.800  15.535 -0.3286 -0.2194 -0.5677
  211MPD1    C3 3259   0.085   3.928  15.514  0.1110  0.2115  0.2400
  211MPD1    C4 3260   0.189   3.949  15.424 -0.4077  0.3716  0.3599
  211MPD1    C5 3261   0.233   3.845  15.350  0.0119 -0.3697  0.3048
  211MPD1     H 3262   4.713   3.779  15.619  1.2452  0.5418  0.8547
  211MPD1    H1 3263   0.237   4.043  15.400 -1.5778  0.8157 -0.2317
  211MPD1    H2 3264   0.238   3.638  15.318  0.0529 -0.2737  1.1287
  211MPD1    H3 3265   0.296   3.869  15.265 -0.0119  1.7144  0.8753
  211MPD1     N 3266   0.007   4.027  15.574 -0.0400  0.0039 -0.2937
  211MPD1    H5 3267   4.663   4.007  15.635 -2.1406  2.0070 -2.3471
  211MPD1    N1 3268   0.073   3.564  15.502 -0.1092  0.0856  0.1060
  211MPD1    H6 3269   0.154   3.504  15.510 -0.2532  0.2216  2.4179
  211MPD1    H7 3270   0.031   3.569  15.594  1.8080  1.2920  0.9295
  212MPD1     C 3271   3.334   2.554  16.628  0.8524 -0.4557 -0.3161
  212MPD1    C1 3272   3.205   2.541  16.663  0.4107 -0.5440  0.0134
  212MPD1    C2 3273   3.162   2.427  16.721 -0.5367 -0.1023  0.1016
  212MPD1    C3 3274   3.249   2.322  16.743  0.4757 -0.1284  0.6868
  212MPD1    C4 3275   3.380   2.334  16.697  0.0329  0.1426  0.1263
  212MPD1    C5 3276   3.423   2.452  16.647  0.5792  0.2673  0.7993
  212MPD1     H 3277   3.059   2.421  16.754 -0.6115 -1.1381 -0.3197
  212MPD1    H1 3278   3.447   2.250  16.697  0.3599  0.4277 -2.9297
  212MPD1    H2 3279   3.361   2.640  16.568  2.1314 -1.2461 -0.8846
  212MPD1    H3 3280   3.528   2.458  16.622  0.7189 -1.2197  1.0431
  212MPD1     N 3281   3.212   2.203  16.811  0.8680 -0.2690  0.1055
  212MPD1    H5 3282   3.287   2.135  16.820  1.2161  0.2526  1.3319
  212MPD1    N1 3283   3.117   2.648  16.638  0.3021  0.4084  0.1203
  212MPD1    H6 3284   3.035   2.641  16.698  0.0742 -2.5670 -0.5370
  212MPD1    H7 3285   3.161   2.739  16.645  1.1895 -0.0265  0.2135
  213MPD1     C 3286   2.094   3.294  16.215 -0.0155 -0.6393  0.2774
  213MPD1    C1 3287   1.981   3.229  16.167  0.5310 -0.6403  0.4919
  213MPD1    C2 3288   1.984   3.188  16.036  0.5138  0.2894 -1.1057
  213MPD1    C3 3289   2.105   3.189  15.970  0.2718 -0.3417 -0.5091
  213MPD1    C4 3290   2.216   3.232  16.023 -0.7876 -0.0662 -0.0382
  213MPD1    C5 3291   2.211   3.277  16.150 -0.3426  0.3103 -0.5897
  213MPD1     H 3292   1.895   3.155  15.983  1.0349 -1.7598 -0.6994
  213MPD1    H1 3293   2.313   3.229  15.975 -0.1909  2.3173  1.0527
  213MPD1    H2 3294   2.088   3.336  16.315 -1.2591  0.7184 -0.3468
  213MPD1    H3 3295   2.307   3.305  16.191 -0.1805 -0.3438 -0.5356
  213MPD1     N 3296   2.100   3.156  15.826  0.2236  0.2608 -0.2088
  213MPD1    H5 3297   2.010   3.138  15.784 -0.2078  0.5084  0.6134
  213MPD1    N1 3298   1.854   3.270  16.212  0.1481  0.2784 -0.7285
  213MPD1    H6 3299   1.788   3.198  16.183 -0.7082  2.0431 -3.1364
  213MPD1    H7 3300   1.857   3.268  16.314  0.5706  0.8254 -0.7293
  214MPD1     C 3301   1.486   2.709  15.637  0.0682 -0.1007  0.0366
  214MPD1    C1 3302   1.539   2.704  15.512 -0.5736  0.1788 -0.5057
  214MPD1    C2 3303   1.663   2.759  15.493 -0.0242  0.3210 -0.8627
  214MPD1    C3 3304   1.741   2.797  15.597 -0.2999 -0.0898  0.0743
  214MPD1    C4 3305   1.683   2.799  15.720 -0.1142 -1.2059  0.7173
  214MPD1    C5 3306   1.557   2.758  15.740 -0.5013  0.0669  0.1231
  214MPD1     H 3307   1.699   2.752  15.391  0.3860  1.7825 -0.8241
  214MPD1    H1 3308   1.745   2.827  15.804  0.7608 -0.7675 -0.0834
  214MPD1    H2 3309   1.385   2.671  15.643  0.5395 -1.4725 -0.7350
  214MPD1    H3 3310   1.525   2.741  15.843 -0.8380 -2.0825 -0.3425
  214MPD1     N 3311   1.860   2.853  15.592 -0.4194 -0.4404 -0.7634
  214MPD1    H5 3312   1.904   2.893  15.674 -1.3698 -1.0568  0.0566
  214MPD1    N1 3313   1.454   2.682  15.404 -0.5631 -0.1808 -0.6560
  214MPD1    H6 3314   1.501   2.635  15.327 -2.4251 -1.5455 -0.9593
  214MPD1    H7 3315   1.368   2.631  15.422 -1.9587  2.4037  0.0110
  215MPD1     C 3316   0.795   3.930  11.015 -0.2008  0.1568 -0.6328
  215MPD1    C1 3317   0.849   4.052  10.983  0.6475  0.0577 -0.1451
  215MPD1    C2 3318   0.981   4.074  11.006 -0.6051  0.8772  0.1616
  215MPD1    C3 3319   1.061   3.967  11.049  0.8910 -1.1155 -0.0647
  215MPD1    C4 3320   1.010   3.839  11.060  0.0442 -0.2758  0.1659
  215MPD1    C5 3321   0.875   3.822  11.050  0.2821 -0.0665  0.1281
  215MPD1     H 3322   1.016   4.177  10.994  0.1626  0.4728 -1.1492
  215MPD1    H1 3323   1.061   3.751  11.100 -0.4891 -1.1926 -1.1721
  215MPD1    H2 3324   0.690   3.908  11.007 -1.0079  4.0874 -0.9085
  215MPD1    H3 3325   0.836   3.724  11.076 -0.8800  0.0970 -0.9895
  215MPD1     N 3326   1.202   3.993  11.073 -0.4691 -0.6692 -0.3230
  215MPD1    H5 3327   1.235   4.088  11.063  0.7562 -1.1654 -0.9724
  215MPD1    N1 3328   0.768   4.160  10.959 -0.1126 -0.1818  0.7038
  215MPD1    H6 3329   0.685   4.139  10.904 -0.0174  2.9224 -0.6448
  215MPD1    H7 3330   0.823   4.230  10.909  0.0401 -1.1965 -0.5557
  216MPD1     C 3331   3.074   1.140   0.659 -0.1687  0.3480 -0.6537
  216MPD1    C1 3332   3.206   1.165   0.662  0.3758 -0.2532 -0.6254
  216MPD1    C2 3333   3.284   1.077   0.596  0.0626 -0.6014  0.3553
  216MPD1    C3 3334   3.237   0.965   0.531 -0.0448  1.2207 -0.1955
  216MPD1    C4 3335   3.097   0.939   0.535  0.5390 -0.3108  0.0376
  216MPD1    C5 3336   3.020   1.024   0.606  0.7034  0.4407 -0.2579
  216MPD1     H 3337   3.392   1.086   0.601 -0.0728  1.0639  0.0029
  216MPD1    H1 3338   3.051   0.854   0.486  0.5869  0.6546 -1.6795
  216MPD1    H2 3339   3.002   1.208   0.703 -0.4554  1.1042 -2.3275
  216MPD1    H3 3340   2.914   1.000   0.612  0.2654  2.4504  0.3767
  216MPD1     N 3341   3.331   0.890   0.456 -0.0271 -0.0030  0.1237
  216MPD1    H5 3342   3.431   0.906   0.457 -0.4101  2.4886  0.1643
  216MPD1    N1 3343   3.256   1.296   0.695  0.0581  0.2706  0.0700
  216MPD1    H6 3344   3.195   1.346   0.760  0.9474  2.0789 -0.4575
  216MPD1    H7 3345   3.342   1.288   0.749 -0.0431 -0.8284  0.0508
  217MPD1     C 3346   3.016   4.377   8.633  0.6756  0.1760 -0.5131
  217MPD1    C1 3347   3.150   4.349   8.633 -0.1099  0.1527  0.4222
  217MPD1    C2 3348   3.191   4.271   8.740 -0.5579 -0.4645  0.1057
  217MPD1    C3 3349   3.106   4.223   8.846  0.1059  0.2262  0.4513
  217MPD1    C4 3350   2.973   4.268   8.843 -0.4014  0.2109  0.0015
  217MPD1    C5 3351   2.933   4.345   8.735  0.3569  0.0415 -0.2655
  217MPD1     H 3352   3.294   4.239   8.743 -1.1687 -2.7333 -3.1451
  217MPD1    H1 3353   2.898   4.258   8.921 -0.5453 -0.9490 -0.2937
  217MPD1    H2 3354   2.969   4.436   8.555  0.0440  0.6978  0.2759
  217MPD1    H3 3355   2.833   4.387   8.734 -0.0657 -0.9668 -0.9400
  217MPD1     N 3356   3.153   4.139   8.953  0.0371  0.2598 -0.5455
  217MPD1    H5 3357   3.082   4.117   9.022  0.1350  2.8447  0.3594
  217MPD1    N1 3358   3.231   4.374   8.524 -0.5347  0.2780 -0.1318
  217MPD1    H6 3359   3.329   4.377   8.549 -0.2927  0.4004 -1.1031
  217MPD1    H7 3360   3.206   4.456   8.468  1.4311  0.5074 -0.6648
  218MPD1     C 3361   1.530   0.250  13.491 -0.1271 -0.5012 -0.6749
  218MPD1    C1 3362   1.518   0.301  13.363 -0.5353  0.2954  0.4886
  218MPD1    C2 3363   1.546   0.212  13.262 -0.0542 -0.2015 -0.0094
  218MPD1    C3 3364   1.591   0.080  13.285 -0.3532 -0.0833  0.2006
  218MPD1    C4 3365   1.600   0.035  13.408 -0.3991 -0.6572 -0.1705
  218MPD1    C5 3366   1.571   0.120  13.511 -0.3192  0.5715  0.2573
  218MPD1     H 3367   1.516   0.242  13.162 -1.4473 -0.8044  0.2319
  218MPD1    H1 3368   1.636   4.671  13.430  1.0267  0.6876  3.5100
  218MPD1    H2 3369   1.510   0.299  13.586  0.3829 -0.5373 -0.5488
  218MPD1    H3 3370   1.577   0.080  13.611 -0.3226  1.2368  0.5261
  218MPD1     N 3371   1.614   4.734  13.172  0.1247  0.3958  0.7041
  218MPD1    H5 3372   1.590   0.038  13.081  1.3926  0.9491  0.6048
  218MPD1    N1 3373   1.450   0.419  13.343 -0.1301 -0.3066  0.2533
  218MPD1    H6 3374   1.481   0.481  13.417  0.4440 -1.8362  1.2893
  218MPD1    H7 3375   1.481   0.467  13.258 -1.9429 -0.1475 -0.3299
  219MPD1     C 3376   1.045   0.050  12.526 -0.0376 -0.7420 -0.1001
  219MPD1    C1 3377   1.132   0.130  12.591 -0.3211 -0.1906  1.0300
  219MPD1    C2 3378   1.244   0.060  12.639  0.0433  0.2751 -0.0115
  219MPD1    C3 3379   1.255   4.660  12.640 -0.0215  0.2863 -0.1583
  219MPD1    C4 3380   1.158   4.587  12.588 -0.3322 -0.0971 -0.6770
  219MPD1    C5 3381   1.055   4.651  12.524 -0.6741 -0.1180 -0.3135
  219MPD1     H 3382   1.326   0.119  12.678  0.9443 -0.3286 -0.9791
  219MPD1    H1 3383   1.151   4.479  12.581  0.3005 -0.2718  1.3930
  219MPD1    H2 3384   0.963   0.089  12.465  1.5696  0.4459 -1.5122
  219MPD1    H3 3385   0.980   4.594  12.470  0.8461 -1.0443 -1.4647
  219MPD1     N 3386   1.365   4.590  12.700  0.4032 -0.2555 -0.2613
  219MPD1    H5 3387   1.362   4.489  12.705  2.2924 -0.2717  0.3301
  219MPD1    N1 3388   1.135   0.268  12.575 -0.5867 -0.1311  0.2277
  219MPD1    H6 3389   1.168   0.315  12.659 -2.0676  0.2966  0.5602
  219MPD1    H7 3390   1.040   0.302  12.560 -1.0013 -0.4941  2.0109
  220MPD1     C 3391   0.843   4.641   9.446 -0.4088 -0.2647  0.6063
  220MPD1    C1 3392   0.777   4.530   9.487 -0.6726  0.4819  0.4446
  220MPD1    C2 3393   0.792   4.488   9.617 -0.0374  0.9118 -0.7030
  220MPD1    C3 3394   0.871   4.553   9.709  0.2041 -0.6474  0.5255
  220MPD1    C4 3395   0.929   4.671   9.668  0.1120 -0.4151  0.3262
  220MPD1    C5 3396   0.911   4.716   9.537  0.2503  1.0081  0.7695
  220MPD1     H 3397   0.743   4.393   9.635  3.1547 -0.9145 -1.7513
  220MPD1    H1 3398   0.984   0.004   9.731 -0.3891 -0.2999  0.6328
  220MPD1    H2 3399   0.827   4.682   9.347  2.4113  1.3609  0.8172
  220MPD1    H3 3400   0.959   0.073   9.508 -0.1090  1.2368  0.9048
  220MPD1     N 3401   0.896   4.503   9.839 -0.1024 -0.3466 -0.8248
  220MPD1    H5 3402   0.840   4.423   9.866 -0.1063  0.5546  1.7979
  220MPD1    N1 3403   0.704   4.456   9.392 -0.9630  0.4513  0.0436
  220MPD1    H6 3404   0.632   4.401   9.438 -1.1937 -1.8128 -3.0000
  220MPD1    H7 3405   0.654   4.526   9.337  1.5868  0.5287 -2.1757
  221MPD1     C 3406   4.293   3.513  16.923 -0.6588  0.1335 -0.1661
  221MPD1    C1 3407   4.411   3.561  16.871 -0.3471  0.6830 -0.1655
  221MPD1    C2 3408   4.436   3.548  16.735  1.3412 -0.2230  0.2947
  221MPD1    C3 3409   4.338   3.497  16.649  0.2547 -0.4599  0.1825
  221MPD1    C4 3410   4.213   3.461  16.703 -0.2091 -0.3783  0.2292
  221MPD1    C5 3411   4.194   3.459  16.837  0.1693 -0.2507 -0.0405
  221MPD1     H 3412   4.535   3.569  16.698  1.3106  1.7068  1.3402
  221MPD1    H1 3413   4.133   3.431  16.636  0.3144 -2.1402  0.3968
  221MPD1    H2 3414   4.263   3.533  17.026  0.0615  0.3009  0.0073
  221MPD1    H3 3415   4.096   3.435  16.878  1.1434 -1.8355  1.3423
  221MPD1     N 3416   4.361   3.479  16.511 -0.8348 -0.8597  0.2153
  221MPD1    H5 3417   4.282   3.442  16.459 -1.0242  1.7360 -1.3567
  221MPD1    N1 3418   4.513   3.620  16.948  0.3871  0.0933  0.0879
  221MPD1    H6 3419   4.594   3.654  16.897 -0.1731 -0.4376 -1.1582
  221MPD1    H7 3420   4.490   3.701  17.004  0.8452  0.4966 -0.3080
  222MPD1     C 3421   3.581   2.987  16.308 -0.1186  0.1287 -0.1314
  222MPD1    C1 3422   3.567   3.055  16.426  0.2525 -0.8498 -0.0560
  222MPD1    C2 3423   3.615   2.985  16.538  0.1529 -0.0182  0.2983
  222MPD1    C3 3424   3.655   2.853  16.529 -0.0015  0.0690  0.2235
  222MPD1    C4 3425   3.640   2.777  16.416  0.0062  0.1793  0.1921
  222MPD1    C5 3426   3.609   2.852  16.299  0.3401  0.2260  0.2307
  222MPD1     H 3427   3.619   3.031  16.636 -1.3392 -1.8973  1.2416
  222MPD1    H1 3428   3.663   2.671  16.413 -0.3228  0.0921  0.7939
  222MPD1    H2 3429   3.570   3.043  16.216 -2.2744 -0.2310 -0.0911
  222MPD1    H3 3430   3.616   2.821  16.196  1.3789 -0.4353  0.4996
  222MPD1     N 3431   3.714   2.780  16.631 -0.0128  0.6344  0.0133
  222MPD1    H5 3432   3.707   2.679  16.625 -0.4733  0.5590  1.9889
  222MPD1    N1 3433   3.550   3.194  16.433 -0.3224  0.2294 -0.1594
  222MPD1    H6 3434   3.504   3.237  16.353 -0.0521  0.7093 -0.0548
  222MPD1    H7 3435   3.499   3.215  16.518 -1.7339 -1.1654 -0.6621
  223MPD1     C 3436   4.075   1.918  16.854  0.0866 -0.4136 -0.3482
  223MPD1    C1 3437   4.108   1.984  16.970 -0.4219  0.0928  0.5483
  223MPD1    C2 3438   4.033   2.098  16.990  0.1103  0.2352  0.3283
  223MPD1    C3 3439   3.959   2.159  16.894  0.4696 -0.6491  0.3783
  223MPD1    C4 3440   3.935   2.089  16.777 -0.5486 -0.0500 -0.0809
  223MPD1    C5 3441   3.997   1.965  16.752 -0.0615  0.1641  0.0264
  223MPD1     H 3442   4.040   2.148  17.087 -1.3494  0.7525  0.1662
  223MPD1    H1 3443   3.859   2.129  16.711 -1.9593 -2.3723  0.1400
  223MPD1    H2 3444   4.114   1.819  16.837 -0.4404 -1.0357  2.0940
  223MPD1    H3 3445   3.973   1.901  16.668 -0.3506  1.7552 -1.1033
  223MPD1     N 3446   3.897   2.281  16.917  0.4639  0.0894  0.7879
  223MPD1    H5 3447   3.912   2.320  17.009 -1.7376 -0.1884  1.2617
  223MPD1    N1 3448   4.167   1.906  17.082 -0.8252  0.3111  0.1246
  223MPD1    H6 3449   4.237   1.841  17.048 -0.3385  0.1713  1.3751
  223MPD1    H7 3450   4.225   1.969  17.138 -1.8363  0.5991  0.8532
  224MPD1     C 3451   3.351   4.720   9.287  0.3714 -0.1572  0.1051
  224MPD1    C1 3452   3.439   4.637   9.221 -0.1545  0.5724 -0.8867
  224MPD1    C2 3453   3.524   4.561   9.302 -0.3916  0.8996  0.2624
  224MPD1    C3 3454   3.535   4.584   9.435 -0.2634 -0.0809 -0.1900
  224MPD1    C4 3455   3.455   4.680   9.494  0.8664 -0.6415  0.1308
  224MPD1    C5 3456   3.368   0.010   9.419  0.3309 -0.4778 -0.0411
  224MPD1     H 3457   3.598   4.501   9.250 -1.6915 -1.6764  1.3854
  224MPD1    H1 3458   3.462   4.693   9.601  1.7686  0.6279 -0.0639
  224MPD1    H2 3459   3.285   0.049   9.230  0.6735 -0.3456 -0.4462
  224MPD1    H3 3460   3.314   0.089   9.470 -1.9057 -0.7588 -1.9453
  224MPD1     N 3461   3.629   4.515   9.523  0.4051  0.6258 -0.0945
  224MPD1    H5 3462   3.631   4.549   9.619 -0.4333 -0.1300  0.1854
  224MPD1    N1 3463   3.420   4.611   9.083  0.1363  0.1906  0.1059
  224MPD1    H6 3464   3.389   4.688   9.025 -0.2122  0.5748  0.8037
  224MPD1    H7 3465   3.496   4.560   9.037  1.4245 -0.2233  2.7036
  225MPD1     C 3466   0.982   0.538  13.728  0.9654  0.1502  0.4339
  225MPD1    C1 3467   0.918   0.428  13.680 -0.6289  0.2570 -0.4902
  225MPD1    C2 3468   0.990   0.328  13.612  0.1099 -0.3852 -0.6976
  225MPD1    C3 3469   1.122   0.342  13.577  0.0524 -0.1492  0.3044
  225MPD1    C4 3470   1.182   0.465  13.615 -0.5424 -0.1794 -1.1218
  225MPD1    C5 3471   1.110   0.558  13.687  0.5103 -0.0145 -0.0655
  225MPD1     H 3472   0.949   0.231  13.588 -1.2647 -0.2492  1.1315
  225MPD1    H1 3473   1.285   0.481  13.586  0.2686 -2.6186  0.4261
  225MPD1    H2 3474   0.930   0.619  13.778  0.7561  0.9835 -1.1507
  225MPD1    H3 3475   1.162   0.645  13.724  0.1274 -0.0525  0.5448
  225MPD1     N 3476   1.193   0.255  13.491  0.1670 -0.4994 -0.6380
  225MPD1    H5 3477   1.272   0.297  13.443 -0.1720  0.7337 -0.1010
  225MPD1    N1 3478   0.782   0.403  13.718  0.1062  0.0420 -0.1002
  225MPD1    H6 3479   0.736   0.353  13.642  0.3198  0.7117 -0.6706
  225MPD1    H7 3480   0.738   0.494  13.729  0.9546  0.2382  1.6464
  226MPD1     C 3481   3.430   0.401   9.373 -0.1342 -0.1146 -0.7004
  226MPD1    C1 3482   3.420   0.537   9.352  0.4888  0.3934  0.0333
  226MPD1    C2 3483   3.522   0.620   9.402 -0.8601  0.3346 -0.8876
  226MPD1    C3 3484   3.635   0.561   9.458 -0.1148  0.3547 -0.4357
  226MPD1    C4 3485   3.652   0.426   9.463 -0.6738  0.7339 -0.9461
  226MPD1    C5 3486   3.549   0.345   9.419 -0.6283  0.2524 -0.4183
  226MPD1     H 3487   3.516   0.726   9.383  0.8200  0.6424  0.3311
  226MPD1    H1 3488   3.736   0.377   9.510 -1.6754 -0.8933 -0.8725
  226MPD1    H2 3489   3.346   0.336   9.351 -0.6963  0.1119  0.8144
  226MPD1    H3 3490   3.550   0.241   9.448  2.5579  0.0654 -1.1642
  226MPD1     N 3491   3.732   0.649   9.513  0.3764 -0.2099 -0.4018
  226MPD1    H5 3492   3.712   0.748   9.506 -0.0920 -0.2615  0.2085
  226MPD1    N1 3493   3.293   0.596   9.311 -0.2714  0.3431  0.6794
  226MPD1    H6 3494   3.299   0.676   9.249 -1.7285 -0.4633 -0.4985
  226MPD1    H7 3495   3.228   0.535   9.260 -2.1605  3.0038 -0.0742
  227MPD1     C 3496   3.748   1.334   9.175  0.3531  0.2968 -0.3346
  227MPD1    C1 3497   3.805   1.220   9.119 -0.1326 -0.6797  0.0889
  227MPD1    C2 3498   3.866   1.134   9.209  0.8532  0.0572  0.1890
  227MPD1    C3 3499   3.874   1.159   9.345  0.3621 -0.5176 -0.4385
  227MPD1    C4 3500   3.819   1.270   9.398  0.5805  0.0704  0.1370
  227MPD1    C5 3501   3.753   1.354   9.314 -0.5293  0.2854 -0.2942
  227MPD1     H 3502   3.901   1.040   9.169  1.5733  0.5185 -0.2692
  227MPD1    H1 3503   3.811   1.292   9.503  0.7436  1.2027 -0.0839
  227MPD1    H2 3504   3.691   1.411   9.124  0.5531  0.9473  0.4085
  227MPD1    H3 3505   3.696   1.435   9.360 -1.5884 -1.3875  1.3296
  227MPD1     N 3506   3.934   1.057   9.425 -0.1103 -0.3103 -0.1643
  227MPD1    H5 3507   3.976   0.974   9.384  1.9722  0.7730 -0.2296
  227MPD1    N1 3508   3.753   1.177   8.997  0.1934  0.1580 -0.3093
  227MPD1    H6 3509   3.764   1.257   8.934 -1.0798  0.1541 -0.5341
  227MPD1    H7 3510   3.815   1.110   8.952 -0.4370  0.3029 -1.3936
  228MPD1     C 3511   3.799   2.371  12.848  0.2363  0.1261 -0.3269
  228MPD1    C1 3512   3.723   2.385  12.736  0.1309  0.4653  0.5542
  228MPD1    C2 3513   3.605   2.455  12.747  0.4493 -0.0377 -0.7668
  228MPD1    C3 3514   3.550   2.485  12.874  0.0153  0.1493  0.6289
  228MPD1    C4 3515   3.632   2.478  12.986 -0.2217  0.3058 -0.0117
  228MPD1    C5 3516   3.757   2.413  12.977  0.3965  0.1338 -0.5379
  228MPD1     H 3517   3.536   2.484  12.669 -2.9188  1.1087  2.6536
  228MPD1    H1 3518   3.592   2.509  13.082  0.1916  0.0704  0.2387
  228MPD1    H2 3519   3.894   2.321  12.833 -0.6722 -1.5155 -0.5902
  228MPD1    H3 3520   3.828   2.406  13.058 -0.0243 -1.5536 -0.3208
  228MPD1     N 3521   3.414   2.512  12.883 -0.4176  0.1235  0.2468
  228MPD1    H5 3522   3.375   2.535  12.792  0.2492 -2.5852 -0.7159
  228MPD1    N1 3523   3.780   2.364  12.607 -0.3044  0.5767  0.2970
  228MPD1    H6 3524   3.853   2.293  12.610 -0.2682  0.6444  1.1380
  228MPD1    H7 3525   3.712   2.335  12.538 -1.7025  4.2283  0.1373
  229MPD1     C 3526   1.852   1.226  15.679  0.1621 -0.0312 -0.2482
  229MPD1    C1 3527   1.935   1.241  15.788 -0.4219  0.5780 -0.5344
  229MPD1    C2 3528   2.061   1.280  15.765  0.1749 -1.1032  0.0706
  229MPD1    C3 3529   2.120   1.293  15.639 -0.0391 -0.6064 -0.4135
  229MPD1    C4 3530   2.033   1.276  15.525  0.3559  0.6817  0.2757
  229MPD1    C5 3531   1.900   1.249  15.550  0.4057  0.0176 -0.2665
  229MPD1     H 3532   2.108   1.311  15.858 -0.5761  4.4812 -1.4186
  229MPD1    H1 3533   2.067   1.301  15.425 -1.4532  0.5643 -0.3638
  229MPD1    H2 3534   1.748   1.198  15.691  0.0295  0.1737 -0.9437
  229MPD1    H3 3535   1.834   1.247  15.463 -2.5805  0.8705  1.9695
  229MPD1     N 3536   2.253   1.332  15.616 -0.3222 -0.1228 -0.2520
  229MPD1    H5 3537   2.290   1.339  15.522  1.6236  0.8850  0.5748
  229MPD1    N1 3538   1.876   1.234  15.913  0.3453  0.0196  0.0328
  229MPD1    H6 3539   1.933   1.242  15.998 -1.9665 -0.2229  1.6152
  229MPD1    H7 3540   1.799   1.168  15.926  0.0632  0.2271 -0.6074
  230MPD1     C 3541   3.149   1.928  15.802 -0.2188  0.4162 -0.3084
  230MPD1    C1 3542   3.183   1.796  15.782  0.1772 -0.3803  0.1109
  230MPD1    C2 3543   3.089   1.697  15.757  0.3620 -0.1113  0.1395
  230MPD1    C3 3544   2.959   1.732  15.751 -0.1586 -0.2771  0.4415
  230MPD1    C4 3545   2.920   1.862  15.760 -0.7524  0.1965  0.9230
  230MPD1    C5 3546   3.015   1.962  15.790 -1.1662 -0.1541  0.2535
  230MPD1     H 3547   3.112   1.592  15.744  0.4690  0.1113 -1.5898
  230MPD1    H1 3548   2.820   1.901  15.752 -1.1062 -0.8139  0.4268
  230MPD1    H2 3549   3.220   2.009  15.809  1.3722 -0.7880 -2.6393
  230MPD1    H3 3550   2.979   2.062  15.812  0.6334  0.8800 -1.4214
  230MPD1     N 3551   2.877   1.624  15.721  0.0824  0.0365 -0.2091
  230MPD1    H5 3552   2.922   1.536  15.697 -1.6304 -1.3175  1.5806
  230MPD1    N1 3553   3.316   1.762  15.788 -0.5932 -0.1831 -0.0630
  230MPD1    H6 3554   3.332   1.670  15.748  2.3878  1.0126 -1.6600
  230MPD1    H7 3555   3.374   1.827  15.734 -2.1836  0.7588 -0.6553
  231MPD1     C 3556   1.049   3.246  15.400 -0.1702 -0.1206  0.2470
  231MPD1    C1 3557   1.021   3.168  15.292 -0.1252 -0.2881  0.3982
  231MPD1    C2 3558   1.117   3.155  15.199 -0.0491 -0.0904 -0.4164
  231MPD1    C3 3559   1.226   3.241  15.192 -0.6541 -0.0130 -0.6300
  231MPD1    C4 3560   1.246   3.329  15.299  0.7713  0.2445  0.0749
  231MPD1    C5 3561   1.164   3.321  15.407  0.1852 -0.4339  0.4666
  231MPD1     H 3562   1.101   3.087  15.116 -1.2115 -0.2495 -0.0617
  231MPD1    H1 3563   1.327   3.401  15.302  0.6472  0.2668  2.2221
  231MPD1    H2 3564   0.973   3.247  15.478 -0.2622 -1.6429  0.1743
  231MPD1    H3 3565   1.172   3.385  15.495  2.0276 -0.5160  0.3593
  231MPD1     N 3566   1.309   3.236  15.076 -0.1592 -0.4384  0.4418
  231MPD1    H5 3567   1.293   3.160  15.010  0.5530  0.1725 -0.4294
  231MPD1    N1 3568   0.910   3.088  15.288 -0.4309 -0.1276 -0.1743
  231MPD1    H6 3569   0.882   3.070  15.192  1.1874 -0.1727 -0.6393
  231MPD1    H7 3570   0.828   3.128  15.333  0.4965  0.5231  0.9496
  232MPD1     C 3571   2.975   0.684  17.642  0.2905 -0.5182 -0.1865
  232MPD1    C1 3572   3.010   0.565  17.700 -0.2049 -1.3212 -0.5871
  232MPD1    C2 3573   2.931   0.448  17.686 -0.1062 -0.2351 -0.5372
  232MPD1    C3 3574   2.828   0.444  17.592 -0.5102 -0.3281  0.4288
  232MPD1    C4 3575   2.801   0.562  17.523 -0.2948  0.6392  0.5877
  232MPD1    C5 3576   2.868   0.678  17.556  0.4990 -0.6201 -0.5570
  232MPD1     H 3577   2.963   0.365   0.009  0.5848 -0.2843 -0.9547
  232MPD1    H1 3578   2.723   0.576  17.449  0.6293  2.2737 -0.0966
  232MPD1    H2 3579   3.038   0.772  17.644 -0.6667  0.1301  1.1300
  232MPD1    H3 3580   2.832   0.772  17.516  1.1307 -0.1473 -0.0092
  232MPD1     N 3581   2.750   0.325  17.582  0.5257 -0.4445 -0.0982
  232MPD1    H5 3582   2.776   0.250  17.645 -0.8561 -0.0964  0.8897
  232MPD1    N1 3583   3.109   0.567   0.057 -0.2829  0.2671  0.9104
  232MPD1    H6 3584   3.154   0.478   0.078 -2.4284 -0.7317  1.2950
  232MPD1    H7 3585   3.179   0.637   0.036  0.6748 -0.8731  0.2749
  233MPD1     C 3586   3.802   4.565  17.647  0.3236 -0.5499 -0.5505
  233MPD1    C1 3587   3.935   4.549  17.627 -0.0168  0.2185 -0.3104
  233MPD1    C2 3588   3.997   4.449  17.700 -0.0106  0.6294  0.1835
  233MPD1    C3 3589   3.932   4.366   0.053 -0.9978 -0.4485  0.4636
  233MPD1    C4 3590   3.798   4.390   0.072  0.1846  0.0343 -0.0930
  233MPD1    C5 3591   3.737   4.486  17.738 -0.0809 -0.6467  0.4761
  233MPD1     H 3592   4.105   4.446  17.692 -0.1566 -1.9377 -0.7654
  233MPD1    H1 3593   3.735   4.327   0.135 -2.0262  0.7127 -1.6128
  233MPD1    H2 3594   3.751   4.633  17.580 -0.7224 -0.3744  0.4253
  233MPD1    H3 3595   3.635   4.511   0.022 -0.4742 -0.0164 -1.7969
  233MPD1     N 3596   3.990   4.259   0.123  0.1449  0.6267 -0.1655
  233MPD1    H5 3597   3.936   4.208   0.191  0.0617  2.9467  1.5248
  233MPD1    N1 3598   4.006   4.646  17.558  0.5257  0.9130 -0.0864
  233MPD1    H6 3599   4.103   4.616  17.552  0.5942  1.7058 -2.7673
  233MPD1    H7 3600   3.963   4.673  17.470 -2.0960  0.0564  0.9036
  234MPD1     C 3601   4.542   2.710   9.574 -0.0904 -1.0523 -0.1147
  234MPD1    C1 3602   4.606   2.821   9.628  0.2426 -0.6188  0.0326
  234MPD1    C2 3603   4.546   2.941   9.593 -0.7905 -0.3523 -0.2086
  234MPD1    C3 3604   4.435   2.955   9.503  0.1653  0.1011 -0.7374
  234MPD1    C4 3605   4.374   2.834   9.459 -0.3589  0.1714  0.1965
  234MPD1    C5 3606   4.435   2.713   9.492  0.3557 -0.4995 -0.0479
  234MPD1     H 3607   4.590   3.024   9.647 -1.1376  0.9545 -1.9381
  234MPD1    H1 3608   4.289   2.824   9.392  1.3724  0.6828 -2.0786
  234MPD1    H2 3609   4.571   2.609   9.603 -1.5461 -0.9904  1.5601
  234MPD1    H3 3610   4.394   2.618   9.458 -0.3025 -0.7890  1.5911
  234MPD1     N 3611   4.388   3.080   9.475  0.4262  0.0506  0.2700
  234MPD1    H5 3612   4.437   3.160   9.512  1.3515 -1.2718  1.9056
  234MPD1    N1 3613   4.700   2.808   9.731  0.1572 -0.0335 -0.3787
  234MPD1    H6 3614   0.049   2.753   9.715  1.3085  1.8388 -0.7404
  234MPD1    H7 3615   4.731   2.899   9.763  0.2903 -1.1586  2.7391
  235MPD1     C 3616   1.786   0.198  10.079  0.3376  0.4340  0.1703
  235MPD1    C1 3617   1.847   0.273  10.179  0.3087  0.3000 -0.0813
  235MPD1    C2 3618   1.811   0.401  10.186 -0.1036 -0.2905  0.0975
  235MPD1    C3 3619   1.736   0.460  10.083  0.0521  0.0695  1.1730
  235MPD1    C4 3620   1.685   0.377   9.984  0.2183 -0.8742  0.3761
  235MPD1    C5 3621   1.719   0.248   9.975  0.2710  0.0870 -0.7713
  235MPD1     H 3622   1.849   0.465  10.265 -1.5266 -2.4025  2.4777
  235MPD1    H1 3623   1.621   0.414   9.904 -0.2810 -2.0517  0.2257
  235MPD1    H2 3624   1.788   0.090  10.088 -1.0663  0.4651  0.8553
  235MPD1    H3 3625   1.677   0.179   9.903  1.0420 -0.6549 -0.5143
  235MPD1     N 3626   1.720   0.601  10.082 -1.0610 -0.4438 -0.3384
  235MPD1    H5 3627   1.767   0.646  10.159 -0.5537 -0.3549 -0.6944
  235MPD1    N1 3628   1.903   0.202  10.295  0.0291  0.0776 -0.0458
  235MPD1    H6 3629   1.984   0.252  10.332 -0.9584  1.3113  0.4545
  235MPD1    H7 3630   1.953   0.126  10.250 -0.2005 -0.3889  0.4857
  236MPD1     C 3631   0.369   1.570   9.459 -0.0094 -0.4709 -0.1059
  236MPD1    C1 3632   0.393   1.433   9.490  0.0469 -0.4871  0.1364
  236MPD1    C2 3633   0.484   1.406   9.589 -0.0111 -0.7015 -0.0865
  236MPD1    C3 3634   0.518   1.507   9.676 -0.3332  0.4684 -0.9244
  236MPD1    C4 3635   0.474   1.638   9.660 -0.3099 -0.5601  0.7397
  236MPD1    C5 3636   0.400   1.669   9.547 -0.7995  0.5714  0.6045
  236MPD1     H 3637   0.524   1.305   9.593 -0.2457 -0.7304  1.8671
  236MPD1    H1 3638   0.498   1.714   9.733  0.8716 -1.7297  1.5677
  236MPD1    H2 3639   0.314   1.590   9.368  0.7718 -0.1807 -0.5143
  236MPD1    H3 3640   0.367   1.772   9.533 -1.1392  0.6348  1.8386
  236MPD1     N 3641   0.608   1.484   9.786  0.5548 -0.6554  0.0212
  236MPD1    H5 3642   0.645   1.563   9.837  0.2077  0.6610 -1.7637
  236MPD1    N1 3643   0.335   1.325   9.420 -0.3422  0.1370  0.1536
  236MPD1    H6 3644   0.257   1.356   9.361 -1.3414  0.3228  1.5662
  236MPD1    H7 3645   0.299   1.258   9.486  0.2960 -0.5697 -0.2197
  237MPD1     C 3646   2.282   4.495  15.105  0.2505 -0.1822  0.1452
  237MPD1    C1 3647   2.226   4.438  14.993  0.4977  0.3417 -0.5654
  237MPD1    C2 3648   2.089   4.450  14.958 -0.4378  0.1866 -0.0192
  237MPD1    C3 3649   2.008   4.517  15.048  0.3188  0.4468 -0.1165
  237MPD1    C4 3650   2.063   4.568  15.165  0.0872 -0.0365  0.0644
  237MPD1    C5 3651   2.195   4.555  15.190 -0.0202 -1.0010  0.0870
  237MPD1     H 3652   2.048   4.416  14.864  1.6160  0.4171 -0.9770
  237MPD1    H1 3653   2.004   4.616  15.242  2.0558 -2.1616  2.8884
  237MPD1    H2 3654   2.383   4.483  15.142 -0.1705 -0.0419  1.3369
  237MPD1    H3 3655   2.239   4.594  15.280 -2.6380 -0.8406  1.2986
  237MPD1     N 3656   1.877   4.545  15.025  0.3993  1.0400  0.7128
  237MPD1    H5 3657   1.841   4.619  15.085  0.9971  1.2877  0.7653
  237MPD1    N1 3658   2.313   4.389  14.891  0.0795 -0.0479 -0.0107
  237MPD1    H6 3659   2.258   4.324  14.835 -2.2000  0.5297  1.5677
  237MPD1    H7 3660   2.390   4.343  14.938 -0.4157 -0.4854  0.3731
  238MPD1     C 3661   3.260   2.729  15.044 -0.4708 -0.4793  0.3202
  238MPD1    C1 3662   3.171   2.777  15.142  0.3384 -0.2970 -0.1203
  238MPD1    C2 3663   3.031   2.764  15.121 -0.0447  0.5354  0.5016
  238MPD1    C3 3664   2.987   2.702  15.003  0.4907  0.2577  0.3437
  238MPD1    C4 3665   3.077   2.654  14.906  0.7221  0.5341  0.2828
  238MPD1    C5 3666   3.213   2.670  14.926  0.0335  0.4784 -0.3267
  238MPD1     H 3667   2.965   2.833  15.171 -0.9063  0.7373 -0.9283
  238MPD1    H1 3668   3.038   2.605  14.817  2.7381 -1.2975  0.4047
  238MPD1    H2 3669   3.368   2.736  15.058 -0.2608 -0.7301 -1.2102
  238MPD1    H3 3670   3.294   2.627  14.868  1.1703 -0.8863  2.2468
  238MPD1     N 3671   2.848   2.691  14.972  0.4654 -0.2427  0.2474
  238MPD1    H5 3672   2.828   2.646  14.883  1.1485 -2.2470  1.0880
  238MPD1    N1 3673   3.209   2.853  15.247 -0.8755 -0.1336 -0.5596
  238MPD1    H6 3674   3.305   2.845  15.278 -1.4379 -1.7338  0.7939
  238MPD1    H7 3675   3.146   2.846  15.327 -3.1441  0.7631 -2.2714
  239MPD1     C 3676   3.806   4.178  14.643  0.1889 -0.4963 -0.5060
  239MPD1    C1 3677   3.669   4.192  14.659 -0.3188  0.0634  0.2959
  239MPD1    C2 3678   3.582   4.171  14.550 -0.1240 -0.2590 -0.0363
  239MPD1    C3 3679   3.631   4.126  14.426 -0.4051 -0.3559  0.2166
  239MPD1    C4 3680   3.769   4.115  14.420 -0.1230  0.4946  0.4061
  239MPD1    C5 3681   3.853   4.140  14.522  0.4913  0.6122 -0.1882
  239MPD1     H 3682   3.479   4.203  14.554 -0.2461 -0.4870 -1.4053
  239MPD1    H1 3683   3.818   4.073  14.333 -0.9207 -0.8480  0.6175
  239MPD1    H2 3684   3.863   4.181  14.735 -1.7988 -0.2934  0.7227
  239MPD1    H3 3685   3.959   4.123  14.506  0.2947 -2.4633  1.6004
  239MPD1     N 3686   3.543   4.093  14.319 -0.0964  0.6569 -0.6125
  239MPD1    H5 3687   3.583   4.067  14.230 -2.8387 -2.6321 -0.8615
  239MPD1    N1 3688   3.617   4.242  14.779 -0.4325 -0.1296 -0.0066
  239MPD1    H6 3689   3.655   4.187  14.857  0.2863 -0.9001 -0.9008
  239MPD1    H7 3690   3.517   4.231  14.793 -0.3735  0.8683  1.1529
  240MPD1     C 3691   2.335   4.022  13.292  0.4192  0.0835 -0.0631
  240MPD1    C1 3692   2.250   3.954  13.371  0.2918 -0.4099 -0.0153
  240MPD1    C2 3693   2.298   3.846  13.438 -0.3362 -0.4340 -0.3450
  240MPD1    C3 3694   2.439   3.819  13.437 -0.0477 -0.1423 -0.5996
  240MPD1    C4 3695   2.523   3.902  13.364  0.0580 -0.1152 -1.4597
  240MPD1    C5 3696   2.469   3.996  13.291  0.6046  0.5508 -0.9202
  240MPD1     H 3697   2.233   3.774  13.487  1.7663 -2.5390 -0.6718
  240MPD1    H1 3698   2.629   3.884  13.349  0.0521 -0.9549 -0.5244
  240MPD1    H2 3699   2.293   4.107  13.240  0.3753 -0.1400 -0.3936
  240MPD1    H3 3700   2.525   4.082  13.256  0.8153 -0.1796 -2.3844
  240MPD1     N 3701   2.480   3.720  13.527 -0.6051  0.1297 -0.3489
  240MPD1    H5 3702   2.407   3.671  13.578  1.5694 -0.8624  1.7805
  240MPD1    N1 3703   2.107   3.974  13.367 -0.2545  0.2834  0.0170
  240MPD1    H6 3704   2.073   4.070  13.368  0.7669  0.6351  1.8976
  240MPD1    H7 3705   2.062   3.922  13.443 -0.4906  0.2320 -0.1567
  241MPD1     C 3706   3.304   3.276  14.059 -0.1163  0.1148  0.5775
  241MPD1    C1 3707   3.301   3.298  13.925  0.4083  0.2202 -0.3935
  241MPD1    C2 3708   3.174   3.311  13.867  0.3468  0.2658 -0.0536
  241MPD1    C3 3709   3.059   3.310  13.949 -0.1529  0.4717 -0.1682
  241MPD1    C4 3710   3.066   3.277  14.081 -0.4578  0.3885 -0.0640
  241MPD1    C5 3711   3.190   3.264  14.140 -0.5023 -0.2104 -0.6171
  241MPD1     H 3712   3.170   3.309  13.759  2.5659 -0.2769 -0.1247
  241MPD1    H1 3713   2.979   3.266  14.144 -0.6036 -1.5597 -0.6284
  241MPD1    H2 3714   3.394   3.251  14.113  0.1924 -2.7082 -1.2700
  241MPD1    H3 3715   3.209   3.234  14.242  0.7054  2.1851 -0.1422
  241MPD1     N 3716   2.934   3.332  13.894  0.1345  0.1483  0.5335
  241MPD1    H5 3717   2.854   3.322  13.956 -0.0874 -1.6504 -0.0296
  241MPD1    N1 3718   3.411   3.298  13.844 -0.0910 -0.0584 -0.0154
  241MPD1    H6 3719   3.400   3.349  13.757 -4.9221 -0.3890  0.4464
  241MPD1    H7 3720   3.478   3.357  13.893  0.8089  0.9664 -2.4847
  242MPD1     C 3721   1.433   2.410  15.826  0.2074 -0.2232 -0.2359
  242MPD1    C1 3722   1.540   2.375  15.902  0.3325  1.3271  0.2966
  242MPD1    C2 3723   1.658   2.333  15.844  0.0273 -0.2225  0.2465
  242MPD1    C3 3724   1.658   2.302  15.706  0.0318  0.3542  0.1191
  242MPD1    C4 3725   1.554   2.339  15.629 -0.1612  0.0884  0.0651
  242MPD1    C5 3726   1.445   2.398  15.687  0.2362  0.4611 -0.7702
  242MPD1     H 3727   1.747   2.308  15.901 -1.2664  0.0067  2.3739
  242MPD1    H1 3728   1.557   2.320  15.522  1.2140 -1.9932  0.4644
  242MPD1    H2 3729   1.346   2.453  15.874 -1.3616 -2.0606 -1.4314
  242MPD1    H3 3730   1.358   2.419  15.624  0.2196  2.4234 -0.0873
  242MPD1     N 3731   1.772   2.250  15.637  0.3662 -0.0867 -0.2084
  242MPD1    H5 3732   1.757   2.241  15.537 -1.2522 -1.2392  0.1381
  242MPD1    N1 3733   1.545   2.411  16.040 -0.0415  0.5272 -0.0264
  242MPD1    H6 3734   1.575   2.336  16.102 -0.8350 -1.1667 -1.7140
  242MPD1    H7 3735   1.467   2.465  16.076  0.2266  0.4512  0.6588
  243MPD1     C 3736   3.201   1.063  17.325  0.8253 -0.4447 -0.2259
  243MPD1    C1 3737   3.236   1.006  17.445 -0.6169  0.2409  0.2514
  243MPD1    C2 3738   3.341   0.914  17.439 -0.3885 -0.2486 -0.0256
  243MPD1    C3 3739   3.400   0.876  17.323  0.1083  0.3672  0.2565
  243MPD1    C4 3740   3.344   0.923  17.200  0.2213 -0.0898  0.0223
  243MPD1    C5 3741   3.231   1.006  17.205  0.6421  0.6351  0.3652
  243MPD1     H 3742   3.381   0.868  17.529 -0.4216  0.9676  0.6133
  243MPD1    H1 3743   3.369   0.881  17.103  0.6342 -1.0400  0.5389
  243MPD1    H2 3744   3.129   1.144  17.327  1.3515  0.0641 -1.8673
  243MPD1    H3 3745   3.185   1.047  17.115  0.9496  1.9883  0.8257
  243MPD1     N 3746   3.493   0.769  17.344 -0.3514 -0.2388 -0.3321
  243MPD1    H5 3747   3.505   0.734  17.438  1.5227  0.4234 -0.3351
  243MPD1    N1 3748   3.183   1.061  17.568  0.4423 -0.2858 -0.1926
  243MPD1    H6 3749   3.204   0.999  17.645  2.3840 -2.0703 -2.1633
  243MPD1    H7 3750   3.086   1.091  17.560  0.3345 -0.5640  0.1066
  244MPD1     C 3751   4.080   0.223   0.219 -0.5886  0.6014 -0.0958
  244MPD1    C1 3752   4.024   0.127   0.134 -0.2253  0.4928 -0.3223
  244MPD1    C2 3753   3.961   0.176   0.020  0.1568 -1.0794 -0.4932
  244MPD1    C3 3754   3.947   0.315  17.727 -0.2227 -0.3400 -0.8225
  244MPD1    C4 3755   3.980   0.399   0.088  0.4067  0.6049 -0.1947
  244MPD1    C5 3756   4.056   0.359   0.188  0.4151 -0.7223  0.1430
  244MPD1     H 3757   3.919   0.104  17.691  1.4519 -2.1494 -0.1443
  244MPD1    H1 3758   3.944   0.500   0.080  0.7567  0.6921 -0.6477
  244MPD1    H2 3759   4.123   0.194   0.314 -1.2951 -0.7515 -0.1910
  244MPD1    H3 3760   4.078   0.441   0.256  0.2960 -1.2088  0.7711
  244MPD1     N 3761   3.890   0.354  17.609 -0.2281  0.5218  0.1381
  244MPD1    H5 3762   3.860   0.280  17.547  0.0206  1.0039 -0.5609
  244MPD1    N1 3763   4.011   4.721   0.161 -0.2702 -0.4569 -0.4736
  244MPD1    H6 3764   4.085   4.677   0.216  0.8114  0.9689 -0.7981
  244MPD1    H7 3765   3.994   4.677   0.070 -1.1760  0.6342 -0.8310
  245MPD1     C 3766   0.793   0.849  12.945 -0.5951 -0.0353  0.2128
  245MPD1    C1 3767   0.902   0.851  13.028  0.1932 -0.1423  0.2767
  245MPD1    C2 3768   0.940   0.975  13.084 -0.3685 -0.3920 -0.4272
  245MPD1    C3 3769   0.857   1.088  13.065  0.2595 -0.0262  0.4655
  245MPD1    C4 3770   0.735   1.077  13.004  0.7550 -0.4871  0.7130
  245MPD1    C5 3771   0.702   0.955  12.940 -0.1171 -0.5720 -0.1774
  245MPD1     H 3772   1.035   0.991  13.133 -0.3878 -0.3953 -0.3886
  245MPD1    H1 3773   0.657   1.151  13.016  0.3068 -0.8016 -0.2307
  245MPD1    H2 3774   0.757   0.753  12.908 -1.9922  1.6362 -2.6773
  245MPD1    H3 3775   0.598   0.951  12.910 -0.5370  0.3197  1.1330
  245MPD1     N 3776   0.885   1.214  13.135 -0.5592 -0.5414  0.0922
  245MPD1    H5 3777   0.970   1.210  13.190 -0.1076 -0.7626 -0.6210
  245MPD1    N1 3778   0.992   0.742  13.025  0.4698 -0.3982  0.1975
  245MPD1    H6 3779   0.950   0.652  13.003 -1.0963  0.4861 -0.4301
  245MPD1    H7 3780   1.038   0.723  13.114  0.6530 -3.0534 -0.4586
  246MPD1     C 3781   3.366   1.817   9.417 -0.3807 -0.3270  0.2549
  246MPD1    C1 3782   3.325   1.944   9.449 -0.2518 -0.8137  0.4192
  246MPD1    C2 3783   3.414   2.031   9.501  0.0049 -0.6208 -0.6471
  246MPD1    C3 3784   3.546   2.006   9.511  0.2495  0.0672  1.1990
  246MPD1    C4 3785   3.588   1.878   9.472  0.2034 -0.3040  0.7188
  246MPD1    C5 3786   3.497   1.791   9.430  0.9993 -0.0151 -0.1689
  246MPD1     H 3787   3.385   2.128   9.540  2.1738 -0.5417  0.7741
  246MPD1    H1 3788   3.693   1.858   9.450 -0.5587 -1.8061 -1.4921
  246MPD1    H2 3789   3.302   1.745   9.367 -1.6593 -1.2794  3.2771
  246MPD1    H3 3790   3.542   1.708   9.376  0.8092 -0.7512  0.8151
  246MPD1     N 3791   3.638   2.108   9.542  0.5230  0.7415  0.0413
  246MPD1    H5 3792   3.597   2.200   9.545  0.1712  0.6078 -0.6422
  246MPD1    N1 3793   3.188   1.976   9.454 -0.3466  0.3257 -0.3787
  246MPD1    H6 3794   3.141   1.937   9.373  0.8088  0.0997 -0.9436
  246MPD1    H7 3795   3.175   2.077   9.448 -0.6115  0.3401  0.4132
  247MPD1     C 3796   0.778   1.737  16.416 -0.9644 -0.1615 -0.7349
  247MPD1    C1 3797   0.680   1.657  16.479 -0.0002 -0.4305  0.0007
  247MPD1    C2 3798   0.702   1.524  16.487  0.0134  0.0958  0.1209
  247MPD1    C3 3799   0.812   1.467  16.428 -0.0231  0.1941 -0.1106
  247MPD1    C4 3800   0.902   1.540  16.357 -0.1293  0.2564  0.1666
  247MPD1    C5 3801   0.884   1.673  16.357 -0.2837  1.5680 -0.3203
  247MPD1     H 3802   0.626   1.468  16.540 -0.8944  1.5737  0.3698
  247MPD1    H1 3803   0.990   1.499  16.310  0.0782  0.4823  0.3585
  247MPD1    H2 3804   0.783   1.844  16.433  1.2581 -0.4100  0.1391
  247MPD1    H3 3805   0.974   1.725  16.327 -0.0866  0.6325 -1.3370
  247MPD1     N 3806   0.834   1.331  16.429 -0.0413  0.4217  0.4481
  247MPD1    H5 3807   0.913   1.297  16.375  0.1152  3.0916 -1.0227
  247MPD1    N1 3808   0.581   1.715  16.562  0.2830  0.1734  0.0847
  247MPD1    H6 3809   0.539   1.797  16.518  2.9442  0.4733 -1.9377
  247MPD1    H7 3810   0.501   1.654  16.573 -0.2326  0.2832 -3.2859
  248MPD1     C 3811   1.872   0.142  17.162  0.1755  0.8518 -0.0384
  248MPD1    C1 3812   1.879   0.056  17.263 -0.3256  0.0527 -0.1056
  248MPD1    C2 3813   1.765   0.025  17.335  0.0351  0.0740 -0.0079
  248MPD1    C3 3814   1.651   0.098  17.320 -0.5579  0.4869 -0.3424
  248MPD1    C4 3815   1.644   0.197  17.224 -0.5002  0.0453  0.3811
  248MPD1    C5 3816   1.758   0.214  17.143 -0.0670  0.2002 -0.3754
  248MPD1     H 3817   1.773   4.682  17.409 -1.9356  1.0538  1.2477
  248MPD1    H1 3818   1.556   0.256  17.201 -0.6214  0.4666  1.8901
  248MPD1    H2 3819   1.961   0.177  17.110  0.0390 -2.1209 -2.2334
  248MPD1    H3 3820   1.765   0.300  17.077 -0.2403  0.4926 -0.0175
  248MPD1     N 3821   1.539   0.071  17.402 -0.1571 -0.2240 -0.4702
  248MPD1    H5 3822   1.546   4.727  17.465  2.1592 -0.3392 -0.8896
  248MPD1    N1 3823   1.987   4.697  17.273  0.9891 -0.6323  0.2486
  248MPD1    H6 3824   1.999   4.677  17.372 -0.3216  2.0191  0.9401
  248MPD1    H7 3825   2.075   0.004  17.244  0.1240  0.1375 -1.2494
  249MPD1     C 3826   1.996   3.557  10.370 -0.2098  0.3631  0.7176
  249MPD1    C1 3827   2.095   3.626  10.435  0.5789  0.2815  0.3279
  249MPD1    C2 3828   2.131   3.756  10.382  0.5058  0.3990 -0.3707
  249MPD1    C3 3829   2.049   3.814  10.280 -0.1093 -0.2501  0.2053
  249MPD1    C4 3830   1.942   3.739  10.225 -0.4216 -0.0427  0.6061
  249MPD1    C5 3831   1.926   3.613  10.268 -0.5800 -0.0862 -0.2986
  249MPD1     H 3832   2.220   3.804  10.422  0.8512 -0.2773 -0.3226
  249MPD1    H1 3833   1.888   3.774  10.138  3.0574  0.0505 -1.5502
  249MPD1    H2 3834   1.976   3.456  10.404 -3.7305  0.6675 -0.4558
  249MPD1    H3 3835   1.849   3.559  10.215 -1.0545  0.0265  0.2795
  249MPD1     N 3836   2.074   3.953  10.245 -0.6106 -0.1637  0.8148
  249MPD1    H5 3837   2.153   3.999  10.288 -1.7404  2.5391 -0.0147
  249MPD1    N1 3838   2.165   3.566  10.536  1.2220 -0.3024  0.1303
  249MPD1    H6 3839   2.120   3.489  10.586  1.0096  0.7731  1.5915
  249MPD1    H7 3840   2.217   3.627  10.598  1.3411 -1.2450  0.9689
  250MPD2     C 3841   4.253   4.584  12.887  0.4698 -0.2822 -0.4008
  250MPD2    C1 3842   4.193   4.703  12.843  0.0014  0.5612  0.3772
  250MPD2    C2 3843   4.105   4.693  12.731  0.7129  0.6239  0.5101
  250MPD2    C3 3844   4.082   4.570  12.667  0.4026  0.0970 -0.0921
  250MPD2    C4 3845   4.151   4.460  12.711 -0.4498  0.6304  0.2947
  250MPD2    C5 3846   4.235   4.466  12.814 -0.8658 -0.5731  0.4292
  250MPD2     H 3847   4.044   0.044  12.707 -0.5931  0.0049  1.5676
  250MPD2    H1 3848   4.135   4.368  12.655  0.9407  1.0789 -0.8370
  250MPD2    H2 3849   4.330   4.578  12.962 -1.1812  0.4414  1.3436
  250MPD2    H3 3850   4.284   4.373  12.840  0.5054 -0.5947 -2.1551
  250MPD2     N 3851   3.981   4.536  12.570  0.2272 -0.7003 -0.1108
  250MPD2    H5 3852   3.990   4.445  12.526  0.2313 -1.0483  0.6108
  250MPD2    N1 3853   4.223   0.089  12.908 -0.1103 -0.0344  0.9621
  250MPD2    H7 3854   4.298   0.097  12.975  0.1854 -1.9588  0.8610
  251TMC3    C1 3855   4.213   0.315  12.954 -0.1325  0.4108 -0.2587
  251TMC3    C2 3856   4.127   0.415  12.993 -0.3582 -0.4622 -0.2841
  251TMC3    C3 3857   4.158   0.504  13.096 -0.2649  0.1836 -0.6375
  251TMC3    C4 3858   4.329   0.304  13.025  0.1384 -0.2259  0.7077
  251TMC3    C5 3859   4.355   0.387  13.137 -1.1702 -0.5321  0.2362
  251TMC3    C6 3860   4.280   0.495  13.167  0.0066 -0.2779  0.4859
  251TMC3     C 3861   4.156   0.205  12.881  0.1201 -0.1007  0.1606
  251TMC3     O 3862   4.047   0.224  12.833  0.1163  0.1065  0.6946
  251TMC3     H 3863   4.041   0.438  12.930 -0.0046 -1.0151 -0.9720
  251TMC3    H1 3864   4.398   0.226  12.997 -0.5249  0.0173 -1.6148
  251TMC3    H2 3865   4.292   0.553  13.258  0.7024  0.6060 -0.1586
  251TMC3    C7 3866   4.486   0.372  13.200 -0.4600  0.6983 -0.0113
  251TMC3    C8 3867   4.059   0.612  13.131 -0.2047 -0.2269  0.6572
  251TMC3    O1 3868   4.527   0.256  13.205  0.1994 -0.4040 -0.1473
  251TMC3    O2 3869   3.943   0.599  13.090 -0.1341 -0.5464  0.5156
  252TMC3    C1 3870   4.137   1.389   9.193 -0.8572 -0.4456  0.0624
  252TMC3    C2 3871   4.188   1.274   9.237  0.5076 -0.3350 -0.0994
  252TMC3    C3 3872   4.205   1.259   9.376 -0.5322  1.0346  0.0071
  252TMC3    C4 3873   4.093   1.487   9.279 -0.1758  0.2618  0.3274
  252TMC3    C5 3874   4.100   1.458   9.416  0.3480  0.3249  0.1297
  252TMC3    C6 3875   4.150   1.344   9.467  0.6147 -0.1324  0.8150
  252TMC3     C 3876   4.103   1.415   9.054  0.6381 -0.1318 -0.1550
  252TMC3     O 3877   4.042   1.517   9.031 -0.3854 -0.3020 -0.0935
  252TMC3     H 3878   4.213   1.192   9.170  1.7825  0.9847 -1.2326
  252TMC3    H1 3879   4.041   1.575   9.244  0.6889  0.0770 -1.4249
  252TMC3    H2 3880   4.162   1.337   9.574  0.4366  0.4221  0.8729
  252TMC3    C7 3881   4.029   1.546   9.503  0.3471  0.8880  0.3795
  252TMC3    C8 3882   4.294   1.151   9.421  0.4859  0.3583 -1.1283
  252TMC3    O1 3883   4.030   1.661   9.464 -0.3482 -0.6397 -0.1566
  252TMC3    O2 3884   4.310   1.069   9.332  0.1310  0.0884 -0.8618
  253MPD2     C 3885   0.775   4.625  15.191 -0.2804 -0.5702  0.5689
  253MPD2    C1 3886   0.661   4.548  15.194 -0.1213 -0.8385  0.0847
  253MPD2    C2 3887   0.583   4.549  15.309 -0.2035 -0.8007  0.6483
  253MPD2    C3 3888   0.625   4.611  15.422 -0.0366 -0.5913  0.6328
  253MPD2    C4 3889   0.747   4.683  15.416 -0.3970 -0.0896 -0.0203
  253MPD2    C5 3890   0.808   4.697  15.299 -0.0189 -0.8562  0.0725
  253MPD2     H 3891   0.485   4.504  15.315 -0.1796 -1.0121 -0.4322
  253MPD2    H1 3892   0.777   0.015  15.495  0.6550  1.2501 -1.5582
  253MPD2    H2 3893   0.831   4.645  15.100 -0.2601  0.3931  0.7925
  253MPD2    H3 3894   0.895   0.026  15.303 -1.6542  1.4763 -1.8349
  253MPD2     N 3895   0.554   4.607  15.542  0.3308 -0.3531 -0.7772
  253MPD2    H5 3896   0.599   4.651  15.622 -1.2854 -1.3876  0.7264
  253MPD2    N1 3897   0.609   4.489  15.074 -0.1821 -0.6344  0.3734
  253MPD2    H7 3898   0.515   4.452  15.082  0.1189 -1.6138 -0.6419
  254TMC3    C1 3899   0.401   4.515  15.707  0.2739  0.3933  0.3574
  254TMC3    C2 3900   0.447   4.614  15.787 -0.4011  0.1930 -0.1730
  254TMC3    C3 3901   0.464   4.591  15.921  0.2743  0.2450  0.1536
  254TMC3    C4 3902   0.375   4.388  15.758 -0.2378  0.3489  0.1002
  254TMC3    C5 3903   0.416   4.366  15.888  1.0279 -0.7119  0.8055
  254TMC3    C6 3904   0.466   4.460  15.970 -0.6066 -0.4877  0.1344
  254TMC3     C 3905   0.454   4.517  15.573 -0.0938 -0.2320 -0.0442
  254TMC3     O 3906   0.434   4.416  15.511 -0.1657 -0.1388 -0.7812
  254TMC3     H 3907   0.453   4.715  15.748  4.0738  0.5237  1.4043
  254TMC3    H1 3908   0.358   4.312  15.683 -0.9309  1.4676 -0.8735
  254TMC3    H2 3909   0.492   4.438  16.073  2.3051  1.1893 -0.2535
  254TMC3    C7 3910   0.365   4.257  15.952  1.2688 -0.1646 -0.6356
  254TMC3    C8 3911   0.457   4.701  16.021  0.0456  0.2690  0.4128
  254TMC3    O1 3912   0.435   4.198  16.032  0.0430 -0.0844 -0.0992
  254TMC3    O2 3913   0.512   4.688  16.130 -0.1974 -0.1372  0.3033
  255MPD2     C 3914   2.745   2.897  11.233  0.1981  0.5513  0.2466
  255MPD2    C1 3915   2.791   3.030  11.211  0.3886  0.5889 -0.9729
  255MPD2    C2 3916   2.910   3.042  11.136 -0.1077  0.0152 -0.7677
  255MPD2    C3 3917   2.962   2.937  11.061 -0.4924  0.5549  0.3767
  255MPD2    C4 3918   2.907   2.815  11.080  0.8926  0.4906  0.3096
  255MPD2    C5 3919   2.808   2.796  11.167 -0.1995 -0.7013  0.6665
  255MPD2     H 3920   2.943   3.139  11.100  1.6768 -0.6405 -0.9221
  255MPD2    H1 3921   2.954   2.728  11.036 -0.2284 -0.4166  0.9112
  255MPD2    H2 3922   2.650   2.876  11.280 -0.0734 -1.0869 -1.0291
  255MPD2    H3 3923   2.770   2.694  11.169 -1.9295 -0.1220 -2.6303
  255MPD2     N 3924   3.063   2.965  10.969  0.2651  0.1537  0.0541
  255MPD2    H5 3925   3.093   3.061  10.956 -0.3371  0.4927  1.1667
  255MPD2    N1 3926   2.716   3.136  11.256 -0.2680 -0.6068 -0.1088
  255MPD2    H7 3927   2.618   3.127  11.280 -0.7364  4.8093 -0.0098
  256TMC3    C1 3928   2.657   3.354  11.246  0.2753 -0.7836 -0.4791
  256TMC3    C2 3929   2.711   3.467  11.187  0.6054  0.4568  0.1704
  256TMC3    C3 3930   2.670   3.496  11.060  0.3330  0.0029 -0.2299
  256TMC3    C4 3931   2.550   3.287  11.189 -0.1172 -0.7270 -0.3771
  256TMC3    C5 3932   2.509   3.327  11.067 -0.8377 -0.9450 -0.1166
  256TMC3    C6 3933   2.579   3.421  10.999  0.5500 -0.5154 -0.2832
  256TMC3     C 3934   2.761   3.264  11.271 -0.0226  0.4761 -0.1583
  256TMC3     O 3935   2.879   3.301  11.268 -0.5670  1.2836 -0.1311
  256TMC3     H 3936   2.806   3.505  11.224 -0.9817  0.8297  3.9293
  256TMC3    H1 3937   2.498   3.199  11.226  1.1936 -0.1472  2.8295
  256TMC3    H2 3938   2.540   3.445  10.901  0.0149  3.3817  0.8848
  256TMC3    C7 3939   2.469   3.212  10.989 -0.8116  0.7221  0.1788
  256TMC3    C8 3940   2.752   3.585  10.982 -0.0248  0.1854  0.1845
  256TMC3    O1 3941   2.534   3.195  10.886 -0.3419 -0.3304  0.2037
  256TMC3    O2 3942   2.819   3.666  11.046  0.1323 -0.0580 -0.5280
  257MPD2     C 3943   2.755   4.285  12.760 -0.3071 -0.4903 -0.0492
  257MPD2    C1 3944   2.855   4.346  12.833  0.1552 -0.7069 -0.2537
  257MPD2    C2 3945   2.956   4.276  12.900  0.4148 -0.2236 -0.0027
  257MPD2    C3 3946   2.962   4.144  12.886  0.2836 -0.5894 -0.0541
  257MPD2    C4 3947   2.860   4.082  12.817 -0.4941  0.4547  0.3481
  257MPD2    C5 3948   2.756   4.145  12.764  0.5167  0.1004 -0.7597
  257MPD2     H 3949   3.033   4.323  12.959  0.9877  0.2544 -1.1392
  257MPD2    H1 3950   2.868   3.974  12.806  2.0399  0.8038 -1.1843
  257MPD2    H2 3951   2.685   4.345  12.704 -0.0658 -1.2782 -1.2034
  257MPD2    H3 3952   2.687   4.085  12.706 -0.8522 -0.3515  1.3571
  257MPD2     N 3953   3.071   4.074  12.950  0.6954  0.0363 -0.3285
  257MPD2    H5 3954   3.139   4.129  13.001  0.7044 -0.6968  0.4432
  257MPD2    N1 3955   2.849   4.484  12.831 -0.0815 -0.1243  0.1002
  257MPD2    H7 3956   2.764   4.530  12.798  0.7364  2.2364  1.2805
  258TMC3    C1 3957   3.245   3.915  12.987  0.2752 -1.0373  0.3694
  258TMC3    C2 3958   3.313   3.801  12.950 -0.4639  0.8213 -0.4268
  258TMC3    C3 3959   3.420   3.755  13.025 -0.0956 -0.0246  0.1611
  258TMC3    C4 3960   3.287   3.983  13.106 -0.0920  0.3767  0.0723
  258TMC3    C5 3961   3.397   3.933  13.172 -1.1337 -0.2287  0.1890
  258TMC3    C6 3962   3.466   3.825  13.135  0.3798 -0.5993 -0.2480
  258TMC3     C 3963   3.111   3.946  12.931  0.4683 -0.7185  0.4996
  258TMC3     O 3964   3.051   3.854  12.874  0.5090 -0.1509 -0.2485
  258TMC3     H 3965   3.288   3.750  12.858 -2.4642  2.5402 -0.8472
  258TMC3    H1 3966   3.237   4.075  13.136 -0.7520 -0.5498  1.7516
  258TMC3    H2 3967   3.533   3.781  13.207 -0.7616  1.1630  1.8738
  258TMC3    C7 3968   3.450   4.004  13.287 -0.5597  0.3992 -0.0196
  258TMC3    C8 3969   3.469   3.625  13.002 -0.4436  0.4931 -0.0017
  258TMC3    O1 3970   3.398   4.114  13.316 -0.0044 -0.3212 -0.1868
  258TMC3    O2 3971   3.403   3.559  12.922  0.6204  0.1011 -0.6335
  259MPD2     C 3972   1.401   0.720   0.290 -0.2242 -0.6781  0.1376
  259MPD2    C1 3973   1.499   0.693   0.390  0.6785 -0.2187 -0.2408
  259MPD2    C2 3974   1.627   0.662   0.346 -0.0469 -0.3181  0.0008
  259MPD2    C3 3975   1.656   0.655   0.209  0.1944 -0.3288  0.3660
  259MPD2    C4 3976   1.559   0.684   0.119 -0.3017  0.4928  0.3076
  259MPD2    C5 3977   1.433   0.718   0.156 -0.1009  0.0276  0.0015
  259MPD2     H 3978   1.707   0.643   0.417  0.8257 -0.3640 -0.9884
  259MPD2    H1 3979   1.578   0.674   0.013  1.4268 -1.5016  0.7860
  259MPD2    H2 3980   1.302   0.754   0.319 -0.2479  0.7997 -1.7015
  259MPD2    H3 3981   1.360   0.756   0.085 -0.8654 -0.8217  0.3351
  259MPD2     N 3982   1.777   0.600   0.166 -0.1665  1.1225  0.4212
  259MPD2    H5 3983   1.819   0.541   0.238 -0.3008 -1.2138 -1.3981
  259MPD2    N1 3984   1.458   0.717   0.520 -0.1372  0.2805 -0.0812
  259MPD2    H7 3985   1.361   0.740   0.538  0.5678  1.2347  2.5070
  260TMC3    C1 3986   1.972   0.585   0.036  0.1547  0.0696  0.3103
  260TMC3    C2 3987   2.054   0.635  17.679 -0.0466 -0.3762  0.7629
  260TMC3    C3 3988   2.164   0.560  17.646  0.3380 -0.3015 -0.5814
  260TMC3    C4 3989   1.999   0.468   0.105 -0.5862 -0.1182  0.0909
  260TMC3    C5 3990   2.121   0.407   0.076 -0.2418 -0.2175  0.1397
  260TMC3    C6 3991   2.212   0.456  17.723 -0.1437 -0.2126 -0.3176
  260TMC3     C 3992   1.840   0.641   0.044  0.3335 -0.3388 -0.0315
  260TMC3     O 3993   1.805   0.733  17.710 -0.7653 -0.3570  0.0836
  260TMC3     H 3994   2.021   0.709  17.606  1.3806  0.5273  1.0502
  260TMC3    H1 3995   1.920   0.413   0.154 -0.0185  0.1005  1.2450
  260TMC3    H2 3996   2.307   0.406  17.705 -0.8611 -1.4950 -0.5191
  260TMC3    C7 3997   2.116   0.262   0.071 -0.7251  0.6192  0.1233
  260TMC3    C8 3998   2.194   0.559  17.505  0.1124 -0.1568  0.2094
  260TMC3    O1 3999   2.185   0.203  17.727 -0.3972  0.3020  0.8599
  260TMC3    O2 4000   2.203   0.661  17.436 -0.5957  0.3823  0.5524
  261MPD2     C 4001   3.633   4.612  11.854 -0.2762  0.3220  0.3010
  261MPD2    C1 4002   3.665   4.692  11.961  0.5207  1.1418  0.1799
  261MPD2    C2 4003   3.696   0.088  11.936  0.2563 -0.1127  0.7228
  261MPD2    C3 4004   3.699   0.139  11.805  0.8034 -0.3230  0.5044
  261MPD2    C4 4005   3.679   0.054  11.696  0.1333  0.2230 -0.5510
  261MPD2    C5 4006   3.644   4.660  11.719  0.4905  0.6126  0.1077
  261MPD2     H 4007   3.731   0.154  12.014 -0.2827  0.1385  0.7503
  261MPD2    H1 4008   3.695   0.084  11.593 -1.4998  0.5850 -0.6935
  261MPD2    H2 4009   3.614   4.505  11.857 -0.4723  0.3422 -0.1771
  261MPD2    H3 4010   3.627   4.586  11.641 -0.9953  0.8732  0.1904
  261MPD2     N 4011   3.725   0.279  11.792 -0.2468  0.1239  0.2698
  261MPD2    H5 4012   3.735   0.326  11.882 -3.7662 -1.3403  1.4456
  261MPD2    N1 4013   3.668   4.652  12.097 -0.2665  0.3990 -0.2066
  261MPD2    H7 4014   3.712   4.720  12.158 -2.8755  1.0620  0.9715
  262TMC3    C1 4015   3.785   0.480  11.684  0.2967  0.2205 -0.4158
  262TMC3    C2 4016   3.755   0.541  11.805  0.3127  0.2261  0.5305
  262TMC3    C3 4017   3.771   0.677  11.804 -0.0021 -0.5263  0.0345
  262TMC3    C4 4018   3.851   0.538  11.580 -0.5094 -0.5547  0.8825
  262TMC3    C5 4019   3.873   0.674  11.589  0.3108  0.7772  0.3374
  262TMC3    C6 4020   3.831   0.744  11.698  0.1756 -0.8980 -0.1230
  262TMC3     C 4021   3.744   0.338  11.668 -0.3068 -0.1082  0.3915
  262TMC3     O 4022   3.747   0.290  11.555 -0.2048 -0.3812  0.3501
  262TMC3     H 4023   3.709   0.492  11.890  0.4601  0.9703  1.0372
  262TMC3    H1 4024   3.882   0.472  11.500  1.3547  3.4128 -1.6279
  262TMC3    H2 4025   3.837   0.852  11.698 -2.2949 -0.7428  0.9839
  262TMC3    C7 4026   3.924   0.732  11.464 -0.5052  0.0271  0.3908
  262TMC3    C8 4027   3.717   0.761  11.916 -0.0611  0.1582  0.0072
  262TMC3    O1 4028   3.968   0.653  11.386  0.3340  0.3205 -0.2996
  262TMC3    O2 4029   3.743   0.881  11.909 -0.1332  0.0346  0.3308
  263MPD2     C 4030   4.155   3.859  12.169 -0.1937  0.2074  0.6916
  263MPD2    C1 4031   4.155   3.791  12.046  0.4742 -0.3919 -0.5017
  263MPD2    C2 4032   4.150   3.869  11.930  0.3734 -0.1481 -0.2698
  263MPD2    C3 4033   4.141   4.007  11.928  0.0069 -0.8251  0.5103
  263MPD2    C4 4034   4.132   4.065  12.052  0.0603 -0.0825  0.3491
  263MPD2    C5 4035   4.134   3.994  12.168 -0.2476 -0.0924  0.2449
  263MPD2     H 4036   4.165   3.810  11.840 -0.9913  1.7068 -1.7236
  263MPD2    H1 4037   4.128   4.172  12.064  3.4756  0.1944 -0.7345
  263MPD2    H2 4038   4.143   3.812  12.266 -1.3352  0.0436  0.4718
  263MPD2    H3 4039   4.133   4.041  12.265 -0.4463 -0.4844  0.4310
  263MPD2     N 4040   4.188   4.080  11.807  0.2148  0.4773 -0.0505
  263MPD2    H5 4041   4.211   4.021  11.727 -3.3650  2.3278 -2.4638
  263MPD2    N1 4042   4.159   3.652  12.047  0.2475 -0.5553  0.6190
  263MPD2    H7 4043   4.169   3.611  12.139  0.8053 -0.1849  0.7255
  264TMC3    C1 4044   4.245   4.240  11.655  0.0185 -0.2279  0.4009
  264TMC3    C2 4045   4.142   4.280  11.576 -0.1518 -0.1796 -0.2151
  264TMC3    C3 4046   4.160   4.277  11.443 -0.5808  0.1374  0.6379
  264TMC3    C4 4047   4.364   4.197  11.615  0.0610 -0.0588  0.8930
  264TMC3    C5 4048   4.371   4.192  11.474 -0.3841  0.0888  0.1271
  264TMC3    C6 4049   4.269   4.221  11.390  0.1070  0.3712  0.3457
  264TMC3     C 4050   4.210   4.217  11.795 -0.1120 -0.3899  0.1745
  264TMC3     O 4051   4.176   4.310  11.866  0.3746 -0.1521 -0.7968
  264TMC3     H 4052   4.050   4.315  11.621  0.3063  0.0273  0.5629
  264TMC3    H1 4053   4.441   4.168  11.686 -1.6709 -2.1788  1.9209
  264TMC3    H2 4054   4.281   4.214  11.282 -0.3184  0.7955  0.2717
  264TMC3    C7 4055   4.488   4.128  11.411  0.0581  0.2842  0.0538
  264TMC3    C8 4056   4.058   4.336  11.359  0.5706 -0.1613 -0.3271
  264TMC3    O1 4057   4.486   4.118  11.290  0.3908 -0.1145 -0.2115
  264TMC3    O2 4058   4.027   4.272  11.261  0.4427  0.1597  0.2853
  265MPD2     C 4059   2.028   4.125  15.033 -0.6922 -0.0484 -0.3213
  265MPD2    C1 4060   2.149   4.124  15.098 -0.1254 -0.6435  0.2707
  265MPD2    C2 4061   2.266   4.085  15.037 -0.0943  0.5500  0.0426
  265MPD2    C3 4062   2.260   4.028  14.910 -0.1807 -0.3381 -0.6748
  265MPD2    C4 4063   2.138   4.028  14.842  0.8341  0.3720 -0.7209
  265MPD2    C5 4064   2.025   4.084  14.901  0.1381 -0.2365  0.5369
  265MPD2     H 4065   2.354   4.076  15.101 -1.2820  0.1691  1.6316
  265MPD2    H1 4066   2.129   4.001  14.738  0.7715 -0.5652 -0.4700
  265MPD2    H2 4067   1.940   4.161  15.087 -1.0233 -0.4439 -0.5956
  265MPD2    H3 4068   1.937   4.107  14.841 -0.2994  0.5796  1.4771
  265MPD2     N 4069   2.366   3.968  14.834 -0.3857  0.1693  0.1901
  265MPD2    H5 4070   2.353   3.922  14.744  0.2803  2.3465 -0.9975
  265MPD2    N1 4071   2.144   4.178  15.227 -0.7456 -0.0126  0.1442
  265MPD2    H7 4072   2.054   4.191  15.270 -0.6800 -0.0028  0.2787
  266TMC3    C1 4073   2.202   4.273  15.425  0.6061 -0.4720 -0.4474
  266TMC3    C2 4074   2.275   4.256  15.538 -0.0215 -0.4016 -0.5606
  266TMC3    C3 4075   2.231   4.314  15.652 -0.0085  0.4538  0.1289
  266TMC3    C4 4076   2.092   4.348  15.424 -0.4285 -0.2893  0.6323
  266TMC3    C5 4077   2.062   4.416  15.542  0.2173  0.0861 -0.4941
  266TMC3    C6 4078   2.127   4.401  15.660 -0.1619 -0.5830 -0.5414
  266TMC3     C 4079   2.244   4.215  15.309  0.4094  0.3549  0.0213
  266TMC3     O 4080   2.366   4.221  15.285  0.4824  0.4309  0.2859
  266TMC3     H 4081   2.361   4.190  15.532  0.2234 -0.1480  0.1295
  266TMC3    H1 4082   2.043   4.361  15.329 -0.0319 -0.3333  0.4198
  266TMC3    H2 4083   2.089   4.445  15.751 -0.5856  0.6555 -1.3203
  266TMC3    C7 4084   1.939   4.489  15.527  0.5718  0.1296 -0.3619
  266TMC3    C8 4085   2.332   4.320  15.764 -0.0721  0.0508  0.7289
  266TMC3    O1 4086   1.851   4.446  15.451 -0.2993 -0.4759  0.0651
  266TMC3    O2 4087   2.438   4.263  15.741 -0.4696 -0.7595  0.1601
  267MPD2     C 4088   4.221   0.519   0.580 -0.1353  0.6131  0.3702
  267MPD2    C1 4089   4.164   0.645   0.573  0.7029  0.2522 -0.1194
  267MPD2    C2 4090   4.038   0.670   0.519  0.4467 -0.8896  0.4127
  267MPD2    C3 4091   3.967   0.551   0.488 -0.4634 -0.8971  0.0708
  267MPD2    C4 4092   4.023   0.430   0.500  0.1157 -0.6923 -0.3113
  267MPD2    C5 4093   4.157   0.411   0.540 -0.1325 -0.4781 -0.4910
  267MPD2     H 4094   3.990   0.766   0.502  0.2398 -1.6406 -3.1877
  267MPD2    H1 4095   3.959   0.344   0.483 -0.0237 -0.3610 -1.4704
  267MPD2    H2 4096   4.324   0.514   0.616  0.0609  0.0550 -0.2612
  267MPD2    H3 4097   4.210   0.317   0.538 -2.5476 -1.8913  1.7365
  267MPD2     N 4098   3.829   0.560   0.447  0.4641  0.6373 -0.0189
  267MPD2    H5 4099   3.787   0.481   0.399  1.4101 -0.4351  0.9426
  267MPD2    N1 4100   4.247   0.751   0.614  0.8787  0.0302 -0.0836
  267MPD2    H7 4101   4.346   0.730   0.622  1.2857  1.4092 -1.6165
  268TMC3    C1 4102   4.334   0.958   0.650 -0.2888  0.1693 -0.7471
  268TMC3    C2 4103   4.364   1.079   0.590  0.3390  0.2409 -0.3781
  268TMC3    C3 4104   4.470   1.146   0.638 -0.5369 -0.1855  0.5787
  268TMC3    C4 4105   4.392   0.922   0.767 -0.0114  0.4631 -0.4738
  268TMC3    C5 4106   4.488   0.995   0.814 -0.3481 -0.1453  0.2842
  268TMC3    C6 4107   4.533   1.108   0.756 -0.0751  0.1423 -0.2505
  268TMC3     C 4108   4.218   0.886   0.615  0.4429  0.1822  1.2698
  268TMC3     O 4109   4.114   0.939   0.588 -0.2577  0.3332 -0.3038
  268TMC3     H 4110   4.315   1.115   0.500 -2.3169 -3.0487 -0.2451
  268TMC3    H1 4111   4.369   0.827   0.814  2.5633 -0.5758 -1.2767
  268TMC3    H2 4112   4.621   1.161   0.791 -0.6412  0.6477  0.4099
  268TMC3    C7 4113   4.546   0.953   0.946  0.5416  0.0841  0.1559
  268TMC3    C8 4114   4.477   1.290   0.616  0.5951  0.0844  0.5567
  268TMC3    O1 4115   4.546   0.834   0.982 -0.3903 -0.3073 -0.0142
  268TMC3    O2 4116   4.494   1.350   0.722  0.1307  0.1146 -0.0672
  269MPD2     C 4117   0.246   0.406  15.516  0.5206 -0.5395 -0.0648
  269MPD2    C1 4118   0.112   0.416  15.544  0.5171  0.4055  0.0591
  269MPD2    C2 4119   0.055   0.535  15.576  0.4042 -0.2234 -0.0386
  269MPD2    C3 4120   0.125   0.645  15.564 -0.5667 -0.5074  0.2845
  269MPD2    C4 4121   0.256   0.638  15.544  0.2572  0.6762  0.0936
  269MPD2    C5 4122   0.318   0.520  15.522 -0.0729 -0.2414  0.0442
  269MPD2     H 4123   4.684   0.552  15.589  0.2270 -0.9101 -0.6151
  269MPD2    H1 4124   0.313   0.729  15.554  1.9071 -0.1015 -2.1062
  269MPD2    H2 4125   0.304   0.315  15.510 -0.6974 -1.2347 -1.2369
  269MPD2    H3 4126   0.425   0.517  15.511  0.0572 -3.0768  2.0311
  269MPD2     N 4127   0.055   0.765  15.575 -0.5993 -0.1476 -0.3395
  269MPD2    H5 4128   4.700   0.758  15.620 -1.1116 -1.2351 -1.5348
  269MPD2    N1 4129   0.042   0.292  15.532 -0.4434  0.1141 -0.0057
  269MPD2    H7 4130   0.095   0.207  15.518 -0.6983 -0.2140  1.0446
  270TMC3    C1 4131   4.615   0.151  15.462  0.0053 -0.0953  0.6997
  270TMC3    C2 4132   4.508   0.128  15.369  0.2298 -1.1289 -0.9203
  270TMC3    C3 4133   4.487   0.001  15.331  0.3179 -0.5633  0.1783
  270TMC3    C4 4134   4.693   0.049  15.514  0.2067  0.3791  0.7249
  270TMC3    C5 4135   4.661   4.660  15.469 -0.4825 -0.6190  0.3096
  270TMC3    C6 4136   4.557   4.635  15.373 -0.1863  0.0467 -0.1425
  270TMC3     C 4137   4.642   0.282  15.512 -0.0841  0.1965  0.0118
  270TMC3     O 4138   4.554   0.365  15.513  0.0002 -0.3843 -0.0151
  270TMC3     H 4139   4.467   0.211  15.313  0.9792  0.2740  0.5983
  270TMC3    H1 4140   0.039   0.065  15.584 -0.6272  1.1907  1.5083
  270TMC3    H2 4141   4.517   4.538  15.345 -0.0504  0.3881 -1.5324
  270TMC3    C7 4142   0.037   4.578  15.438  0.0320 -0.1803 -0.7246
  270TMC3    C8 4143   4.399   4.715  15.219 -0.6666 -0.1092 -0.3197
  270TMC3    O1 4144   0.138   4.593  15.501 -0.1286  0.3953  0.3906
  270TMC3    O2 4145   4.429   4.612  15.159  0.5568  0.0670 -0.0496
  271MPD2     C 4146   3.877   4.710  13.653  0.5137 -0.5152 -0.3274
  271MPD2    C1 4147   3.829   0.022  13.769 -0.3510  0.7073  0.2029
  271MPD2    C2 4148   3.751   0.135  13.760 -0.1649  0.1499  0.5175
  271MPD2    C3 4149   3.708   0.188  13.642 -0.2911  0.1195  0.3651
  271MPD2    C4 4150   3.757   0.141  13.524 -0.7527 -0.2332 -0.3539
  271MPD2    C5 4151   3.850   0.042  13.533 -0.2094  0.0359 -0.2828
  271MPD2     H 4152   3.716   0.172  13.856 -0.6324  0.0379  0.3897
  271MPD2    H1 4153   3.735   0.190  13.430  0.1099  1.3650  0.2768
  271MPD2    H2 4154   3.934   4.617  13.646  2.7888  0.8637 -0.2388
  271MPD2    H3 4155   3.883   0.007  13.436  1.7894  1.5519 -0.1373
  271MPD2     N 4156   3.614   0.295  13.629  0.0840  0.2488 -0.1284
  271MPD2    H5 4157   3.579   0.319  13.536  0.0540  2.1164  0.3510
  271MPD2    N1 4158   3.854   4.704  13.896  0.3497 -0.1364 -0.1588
  271MPD2    H7 4159   3.819   0.019  13.978  1.5203  0.6860 -0.1767
  272TMC3    C1 4160   3.924   4.553  14.058  0.2985  0.0310 -0.0480
  272TMC3    C2 4161   4.001   4.443  14.081  0.3712  0.1542  0.5637
  272TMC3    C3 4162   4.046   4.406  14.205  0.2506 -0.4582 -0.3665
  272TMC3    C4 4163   3.883   4.638  14.154 -0.3824 -0.0483 -0.2135
  272TMC3    C5 4164   3.929   4.602  14.281 -0.0903  0.4814 -0.4521
  272TMC3    C6 4165   4.003   4.485  14.305 -0.0161 -0.8878  0.4402
  272TMC3     C 4166   3.905   4.578  13.919 -0.3837 -0.2988  0.5815
  272TMC3     O 4167   3.940   4.502  13.838  0.1087 -0.1241  0.2409
  272TMC3     H 4168   4.035   4.378  14.002 -1.8761 -0.0132 -0.2528
  272TMC3    H1 4169   3.824   4.727  14.140  1.7285  0.9821 -2.5750
  272TMC3    H2 4170   4.024   4.458  14.408  1.2101  2.0916  0.9485
  272TMC3    C7 4171   3.923   4.698  14.387 -0.2106  0.0206  0.0111
  272TMC3    C8 4172   4.103   4.271  14.219 -0.0776  0.2417 -0.5097
  272TMC3    O1 4173   3.989   4.675  14.487  0.8727  0.0668 -0.0345
  272TMC3    O2 4174   4.093   4.202  14.120 -0.2460  0.1143  0.0674
  273MPD2     C 4175   0.826   3.414  11.858  0.1121  0.0700 -0.1660
  273MPD2    C1 4176   0.720   3.327  11.873  0.2956  0.3900 -1.1740
  273MPD2    C2 4177   0.626   3.322  11.774 -0.0256  0.6715  0.6929
  273MPD2    C3 4178   0.642   3.384  11.653  0.3780 -0.0377 -0.0730
  273MPD2    C4 4179   0.743   3.480  11.645 -0.3027  0.0596  0.0904
  273MPD2    C5 4180   0.829   3.496  11.752 -0.1295  0.0597 -0.2788
  273MPD2     H 4181   0.547   3.250  11.793 -1.1704  1.1595 -2.1680
  273MPD2    H1 4182   0.757   3.547  11.561 -0.0299  0.7142  0.6643
  273MPD2    H2 4183   0.905   3.419  11.932  0.9892  0.3725 -1.1324
  273MPD2    H3 4184   0.919   3.557  11.747  0.5973 -0.9513  0.7667
  273MPD2     N 4185   0.561   3.361  11.540 -0.2004  0.1616  0.1776
  273MPD2    H5 4186   0.492   3.287  11.549 -0.3592  0.5447  2.1088
  273MPD2    N1 4187   0.707   3.255  11.993 -0.1575 -0.6906  0.4458
  273MPD2    H7 4188   0.783   3.277  12.057 -0.4886 -1.0690  0.9668
  274TMC3    C1 4189   0.435   3.381  11.349 -0.8582 -0.4264 -0.1491
  274TMC3    C2 4190   0.420   3.420  11.223  0.2872  0.1933 -0.1130
  274TMC3    C3 4191   0.294   3.397  11.165  0.0532  0.2856 -0.2660
  274TMC3    C4 4192   0.331   3.338  11.426  0.3957  0.4217 -0.2515
  274TMC3    C5 4193   0.209   3.319  11.357  0.0619  0.5138 -0.0591
  274TMC3    C6 4194   0.188   3.340  11.226  0.6567 -0.1492  0.6375
  274TMC3     C 4195   0.557   3.427  11.421  0.1549  0.4665 -0.5040
  274TMC3     O 4196   0.613   3.524  11.374  0.0063 -0.0818 -0.0432
  274TMC3     H 4197   0.505   3.455  11.167  0.2963 -1.0953 -0.8922
  274TMC3    H1 4198   0.329   3.351  11.533 -2.3521 -0.7973 -0.1500
  274TMC3    H2 4199   0.088   3.340  11.184  0.1416  0.0620  1.8716
  274TMC3    C7 4200   0.104   3.262  11.435 -1.3173 -0.4155  0.1991
  274TMC3    C8 4201   0.273   3.452  11.028 -0.2524  0.6409 -0.1377
  274TMC3    O1 4202   4.721   3.286  11.413  0.0781  0.5076  0.0296
  274TMC3    O2 4203   0.176   3.408  10.967  0.2132 -0.0185  0.2748
  275MPD2     C 4204   4.692   0.880  14.780 -0.0900  0.8080  0.1601
  275MPD2    C1 4205   0.003   0.867  14.653  0.2005 -0.3764  0.6345
  275MPD2    C2 4206   4.665   0.896  14.542  0.5586 -0.0537 -0.2341
  275MPD2    C3 4207   4.534   0.945  14.568  0.1660 -0.0633  0.5786
  275MPD2    C4 4208   4.502   0.982  14.701  0.2814 -0.1872 -0.6562
  275MPD2    C5 4209   4.580   0.946  14.805 -0.4785  0.5477 -0.8252
  275MPD2     H 4210   4.702   0.876  14.442  2.3845  0.5529  0.3135
  275MPD2    H1 4211   4.403   1.024  14.713  0.5512  0.2239  0.1202
  275MPD2    H2 4212   0.007   0.837  14.866 -0.2485  0.1543 -0.0660
  275MPD2    H3 4213   4.540   0.939  14.906  3.0825 -1.0914  0.4638
  275MPD2     N 4214   4.437   0.978  14.472 -0.4928 -0.3084  0.1816
  275MPD2    H5 4215   4.343   1.000  14.505 -0.3029  1.8836 -0.7697
  275MPD2    N1 4216   0.122   0.800  14.630 -0.5458 -0.7043 -0.9225
  275MPD2    H7 4217   0.144   0.752  14.543  1.4244 -0.5099 -0.5393
  276TMC3    C1 4218   0.335   0.727  14.665 -0.7453 -0.4176  0.4248
  276TMC3    C2 4219   0.329   0.626  14.578 -0.3016  0.4585  0.2304
  276TMC3    C3 4220   0.444   0.564  14.529 -0.3845 -0.5048  0.1843
  276TMC3    C4 4221   0.456   0.759  14.722  0.2375 -0.5659 -0.0483
  276TMC3    C5 4222   0.566   0.687  14.677 -0.0286 -0.1486 -0.4514
  276TMC3    C6 4223   0.567   0.589  14.585 -0.5400  0.1698 -0.3742
  276TMC3     C 4224   0.222   0.797  14.724  0.1001 -0.1225  0.5524
  276TMC3     O 4225   0.232   0.867  14.826 -0.2862  0.0638 -0.0955
  276TMC3     H 4226   0.241   0.585  14.530  2.0508 -3.1649 -1.0194
  276TMC3    H1 4227   0.466   0.839  14.795 -0.0758 -0.9477  0.4151
  276TMC3    H2 4228   0.658   0.547  14.542 -0.4121 -0.8840  0.9119
  276TMC3    C7 4229   0.689   0.731  14.737  0.1817  0.4298 -0.3597
  276TMC3    C8 4230   0.432   0.454  14.432  0.2618 -0.2048  0.2832
  276TMC3    O1 4231   0.696   0.850  14.757  0.3776 -0.1114  0.5610
  276TMC3    O2 4232   0.330   0.386  14.445 -0.2473 -0.5075  0.2193
  277MPD2     C 4233   2.572   4.555  13.293 -0.1574 -0.1954 -0.4748
  277MPD2    C1 4234   2.460   4.562  13.375  0.4022 -0.1374 -0.3914
  277MPD2    C2 4235   2.449   4.482  13.486  0.0287  0.8608  0.1706
  277MPD2    C3 4236   2.543   4.389  13.516 -0.4534  0.4588 -0.5375
  277MPD2    C4 4237   2.644   4.370  13.426  0.5560 -0.8447  0.5776
  277MPD2    C5 4238   2.658   4.453  13.315  0.1035 -0.7251  0.8195
  277MPD2     H 4239   2.362   4.491  13.550 -2.9996  1.4069 -4.0573
  277MPD2    H1 4240   2.724   4.299  13.439 -0.3154 -1.7544  1.0178
  277MPD2    H2 4241   2.581   4.624  13.210 -1.7408 -1.5032 -1.7348
  277MPD2    H3 4242   2.739   4.433  13.246 -0.8250 -1.7596  0.0280
  277MPD2     N 4243   2.525   4.320  13.645 -0.1713  0.0494  0.5442
  277MPD2    H5 4244   2.443   4.352  13.696 -1.4008  0.5005 -1.6946
  277MPD2    N1 4245   2.363   4.652  13.331 -0.2424 -0.1182  0.1649
  277MPD2    H7 4246   2.382   4.709  13.248  0.4427  0.4574  0.7142
  278TMC3    C1 4247   2.527   4.144  13.794 -0.4857 -0.0778 -0.2244
  278TMC3    C2 4248   2.466   4.028  13.754  0.6641  0.2228 -0.2306
  278TMC3    C3 4249   2.342   4.004  13.800  0.1693  0.4236 -0.0498
  278TMC3    C4 4250   2.467   4.232  13.876 -0.4018 -0.1341 -0.2993
  278TMC3    C5 4251   2.343   4.206  13.911 -0.0812 -1.3927  0.2116
  278TMC3    C6 4252   2.281   4.089  13.884 -0.2351  0.4314 -0.4077
  278TMC3     C 4253   2.589   4.203  13.677  0.1488  0.5412  0.7029
  278TMC3     O 4254   2.671   4.133  13.626 -0.7506 -0.3587 -0.6946
  278TMC3     H 4255   2.514   3.971  13.675 -0.9899  0.0326 -1.1014
  278TMC3    H1 4256   2.516   4.326  13.899  1.2520 -0.9876 -0.3318
  278TMC3    H2 4257   2.182   4.068  13.923 -1.2459  1.6097 -2.3281
  278TMC3    C7 4258   2.264   4.317  13.959 -0.4247  0.4725 -0.1769
  278TMC3    C8 4259   2.296   3.872  13.792 -0.1613  0.0903 -0.8725
  278TMC3    O1 4260   2.333   4.410  14.007  0.3880  0.4333  0.6205
  278TMC3    O2 4261   2.380   3.784  13.803  0.4174 -0.1926  0.3566
  279MPD2     C 4262   1.415   3.854  17.645  0.2145 -0.1850  0.1524
  279MPD2    C1 4263   1.335   3.958  17.604  0.0116  0.0320  0.2187
  279MPD2    C2 4264   1.311   3.981  17.472  0.5334  0.0338  0.3838
  279MPD2    C3 4265   1.374   3.898  17.380 -0.1795 -0.3181 -0.1212
  279MPD2    C4 4266   1.459   3.801  17.422  0.3405  0.9216 -0.0939
  279MPD2    C5 4267   1.480   3.777  17.552 -0.4084  0.4031 -0.1032
  279MPD2     H 4268   1.251   4.066  17.440 -0.4337 -0.7046  0.2404
  279MPD2    H1 4269   1.512   3.734  17.355  1.0471  0.9452  0.4450
  279MPD2    H2 4270   1.419   3.819   0.007 -0.4869  0.1059  0.2781
  279MPD2    H3 4271   1.552   3.699  17.575  0.0272  0.4856 -1.2084
  279MPD2     N 4272   1.358   3.917  17.239 -0.1370 -0.5633  0.1026
  279MPD2    H5 4273   1.419   3.860  17.181  0.2588  1.1256 -1.1494
  279MPD2    N1 4274   1.270   4.028  17.708  0.3696  0.2690 -0.2141
  279MPD2    H7 4275   1.297   4.004   0.063 -0.7782  0.7776  0.2456
  280TMC3    C1 4276   1.119   4.164   0.075 -0.0656  0.0647 -0.0191
  280TMC3    C2 4277   1.099   4.070   0.172  0.0863 -0.0751 -0.6397
  280TMC3    C3 4278   1.005   4.108   0.265 -0.0329 -0.6734  0.2270
  280TMC3    C4 4279   1.064   4.291   0.073  0.5921  0.3528  0.6787
  280TMC3    C5 4280   0.971   4.317   0.169  0.0091  0.6122  0.2831
  280TMC3    C6 4281   0.946   4.229   0.271 -0.0415  0.0558  0.2819
  280TMC3     C 4282   1.179   4.126  17.690  0.1489  0.5508  0.3024
  280TMC3     O 4283   1.175   4.204  17.596  0.6162  0.5474 -0.0990
  280TMC3     H 4284   1.130   3.966   0.167 -1.4357 -0.6065  0.6353
  280TMC3    H1 4285   1.093   4.366   0.000  0.5187 -2.3918 -2.1411
  280TMC3    H2 4286   0.863   4.253   0.335  0.3161  0.0012  0.7660
  280TMC3    C7 4287   0.921   4.449   0.179  0.0055 -0.2653 -0.3340
  280TMC3    C8 4288   0.939   4.009   0.341 -0.5581  0.3587  0.3755
  280TMC3    O1 4289   0.935   4.500   0.289 -0.5806  0.5855  0.7071
  280TMC3    O2 4290   0.895   4.042   0.449  0.0047  0.7367  0.5608
  281TMC3    C1 4291   0.013   0.100  13.483  0.3989  0.4869  0.4179
  281TMC3    C2 4292   0.113   0.174  13.419 -0.6427 -0.0907 -0.6887
  281TMC3    C3 4293   0.164   0.135  13.298  0.5035 -0.5553 -0.1178
  281TMC3    C4 4294   4.699   4.727  13.419  0.4529 -1.1496  0.1982
  281TMC3    C5 4295   0.032   4.680  13.310 -0.2185  0.8946 -0.4412
  281TMC3    C6 4296   0.130   0.014  13.244 -0.3463  0.9002  0.4687
  281TMC3     C 4297   4.675   0.157  13.594  0.7598 -0.2804  0.2260
  281TMC3     O 4298   4.594   0.078  13.651  0.2708  0.2913 -0.3377
  281TMC3     H 4299   0.158   0.261  13.465 -1.3280  1.1816 -2.4635
  281TMC3    H1 4300   4.615   4.668  13.455 -1.8627  1.4896 -0.9515
  281TMC3    H2 4301   0.184   4.707  13.160 -0.8276  0.0679  0.5800
  281TMC3    C7 4302   4.717   4.552  13.260  0.0296 -0.0492  0.1271
  281TMC3    C8 4303   0.280   0.196  13.238  0.1209  0.3366 -0.4767
  281TMC3    O1 4304   4.604   4.542  13.218 -0.3425  0.0776  0.0059
  281TMC3    O2 4305   0.362   0.121  13.188  0.1399 -0.1322 -0.9391
  282MPD2     C 4306   1.821   1.187  14.963  0.1974  0.4601 -0.1573
  282MPD2    C1 4307   1.725   1.290  14.982  0.0114  0.1077 -0.4206
  282MPD2    C2 4308   1.679   1.357  14.864  0.4881 -0.1293 -0.0209
  282MPD2    C3 4309   1.724   1.322  14.738 -0.4953 -0.1821  0.2548
  282MPD2    C4 4310   1.824   1.223  14.725 -0.0358  0.5229 -0.2822
  282MPD2    C5 4311   1.856   1.142  14.833 -0.3061 -0.1830  0.6798
  282MPD2     H 4312   1.603   1.434  14.870  1.0079  0.4706 -1.2109
  282MPD2    H1 4313   1.865   1.209  14.625 -2.0345  1.3735 -1.2447
  282MPD2    H2 4314   1.860   1.133  15.049  2.7801 -0.8831 -2.1765
  282MPD2    H3 4315   1.931   1.065  14.824 -0.9388 -0.6831 -0.1805
  282MPD2     N 4316   1.673   1.361  14.617 -0.5818 -0.3858 -0.4831
  282MPD2    H5 4317   1.718   1.313  14.539 -0.9895  1.2110 -1.7189
  282MPD2    N1 4318   1.659   1.305  15.108  0.0833  0.2426 -0.3034
  282MPD2    H7 4319   1.579   1.368  15.108 -1.2749 -1.5050 -0.6131
  283TMC3    C1 4320   1.591   1.255  15.325  0.3417 -0.6947 -0.8787
  283TMC3    C2 4321   1.518   1.370  15.338 -0.1064  0.2471 -0.4448
  283TMC3    C3 4322   1.412   1.367  15.428 -0.0525 -0.5049 -0.4024
  283TMC3    C4 4323   1.573   1.144  15.405 -1.0324  0.5073 -0.3208
  283TMC3    C5 4324   1.470   1.150  15.497  0.2345 -0.2268 -0.7552
  283TMC3    C6 4325   1.387   1.256  15.505 -0.0430  0.6098  0.3228
  283TMC3     C 4326   1.689   1.233  15.221  0.9933  0.1507  0.1662
  283TMC3     O 4327   1.772   1.153  15.243  0.5360 -0.2041 -0.6054
  283TMC3     H 4328   1.535   1.453  15.271  0.8434  0.4077 -0.0109
  283TMC3    H1 4329   1.648   1.065  15.404 -2.1621 -0.5644 -0.5435
  283TMC3    H2 4330   1.306   1.252  15.576  0.1793  0.4302  0.5648
  283TMC3    C7 4331   1.481   1.070  15.614 -0.6445  0.3578  0.1002
  283TMC3    C8 4332   1.321   1.481  15.451  0.3280  0.2623  0.6440
  283TMC3    O1 4333   1.460   1.132  15.720  0.1759 -0.2645 -0.1344
  283TMC3    O2 4334   1.217   1.460  15.510  0.3507  0.8820 -0.1667
  284MPD2     C 4335   4.446   0.826  12.440  0.0591  0.8441  0.6455
  284MPD2    C1 4336   4.532   0.802  12.336 -0.3198 -0.0051 -0.4005
  284MPD2    C2 4337   4.645   0.733  12.361 -0.5487  0.1739 -0.5193
  284MPD2    C3 4338   4.681   0.691  12.488  0.5473  0.1503 -0.5044
  284MPD2    C4 4339   4.594   0.709  12.590 -0.0434 -0.3469 -0.1333
  284MPD2    C5 4340   4.477   0.775  12.566  0.0010 -0.2040  0.3662
  284MPD2     H 4341   4.713   0.726  12.276  0.0219 -0.2145 -0.0292
  284MPD2    H1 4342   4.619   0.679  12.691 -1.5162  2.2128  0.9953
  284MPD2    H2 4343   4.349   0.870  12.419 -0.1268  0.3158  0.3924
  284MPD2    H3 4344   4.404   0.789  12.646 -1.0703 -0.6406 -0.5349
  284MPD2     N 4345   0.071   0.633  12.507  0.3413 -0.2642  0.0755
  284MPD2    H5 4346   0.064   0.570  12.586 -0.3556  1.4177  1.3578
  284MPD2    N1 4347   4.509   0.838  12.202 -0.5785 -0.1724  0.8679
  284MPD2    H7 4348   4.578   0.795  12.140 -0.7953  1.6220 -0.6111
  285TMC3    C1 4349   4.413   0.908  12.013 -0.6998  0.8564  0.1327
  285TMC3    C2 4350   4.505   0.826  11.950 -0.4216 -0.6970  0.0672
  285TMC3    C3 4351   4.581   0.881  11.843  0.5294 -0.0579  0.0318
  285TMC3    C4 4352   4.382   1.028  11.955  0.6613 -0.1500 -0.6481
  285TMC3    C5 4353   4.449   1.064  11.835  0.6961 -0.2893 -0.4711
  285TMC3    C6 4354   4.551   0.992  11.777 -0.7359  0.1661  0.1538
  285TMC3     C 4355   4.398   0.905  12.154  0.4216 -0.5951 -0.2122
  285TMC3     O 4356   4.309   0.950  12.223 -0.3061 -0.5706  0.5386
  285TMC3     H 4357   4.533   0.730  11.992  0.8799  0.3434  1.5867
  285TMC3    H1 4358   4.326   1.098  12.016  1.3827 -2.2885  2.4963
  285TMC3    H2 4359   4.609   1.024  11.690 -0.7179 -0.2301  0.0218
  285TMC3    C7 4360   4.435   1.200  11.786 -0.1502 -0.2282 -0.0769
  285TMC3    C8 4361   4.635   0.778  11.758  0.0683 -0.6816 -0.2065
  285TMC3    O1 4362   4.531   1.259  11.741  0.0312  0.3956  0.6713
  285TMC3    O2 4363   4.596   0.670  11.784  0.1488  0.0711 -0.5851
  286MPD2     C 4364   0.009   3.127   1.651  0.6166 -0.1023  0.4159
  286MPD2    C1 4365   4.702   3.133   1.519 -0.2611 -0.5222  0.2147
  286MPD2    C2 4366   0.041   3.071   1.427 -0.0848 -0.7158 -0.1899
  286MPD2    C3 4367   0.162   3.014   1.455 -0.3888  0.0321 -0.6845
  286MPD2    C4 4368   0.205   3.013   1.586  0.1868 -0.0872  0.0741
  286MPD2    C5 4369   0.130   3.067   1.687 -0.2384  0.3965  0.6129
  286MPD2     H 4370   0.001   3.068   1.326 -0.7538 -1.5077  0.0961
  286MPD2    H1 4371   0.302   2.975   1.617 -0.7155 -3.7757 -1.6881
  286MPD2    H2 4372   4.676   3.164   1.726  0.0791 -0.1289 -0.0581
  286MPD2    H3 4373   0.162   3.069   1.790  1.0678 -1.0287  0.2302
  286MPD2     N 4374   0.251   2.953   1.361  1.3766 -0.7430 -0.0641
  286MPD2    H5 4375   0.345   2.924   1.385  1.7984 -0.8320 -1.8274
  286MPD2    N1 4376   4.585   3.195   1.469 -0.5063 -0.0289 -0.1033
  286MPD2    H7 4377   4.584   3.212   1.369  0.1258  1.6283  0.1739
  287TMC3    C1 4378   0.328   2.859   1.174 -0.2360 -0.3899 -0.0606
  287TMC3    C2 4379   0.296   2.804   1.051 -0.0340 -0.1667  0.0887
  287TMC3    C3 4380   0.398   2.783   0.963  1.1827 -0.1519  0.0835
  287TMC3    C4 4381   0.454   2.910   1.197 -0.0632  0.6847 -0.3475
  287TMC3    C5 4382   0.557   2.879   1.108  0.6350  0.2155 -0.1228
  287TMC3    C6 4383   0.529   2.824   0.988  0.2097  0.0292 -0.1306
  287TMC3     C 4384   0.215   2.927   1.233  0.4243  0.0462  0.3419
  287TMC3     O 4385   0.104   2.929   1.174  0.8266  0.3480  0.0717
  287TMC3     H 4386   0.195   2.776   1.027 -0.3837  0.1156  1.2226
  287TMC3    H1 4387   0.482   2.965   1.286 -2.9628  0.9896  0.3763
  287TMC3    H2 4388   0.608   2.799   0.918 -1.2453  0.6064 -1.9458
  287TMC3    C7 4389   0.686   2.936   1.153 -0.1880  0.1936 -0.6893
  287TMC3    C8 4390   0.360   2.780   0.818 -0.3023 -0.0140  0.0936
  287TMC3    O1 4391   0.687   3.014   1.243 -0.5338 -0.8281  0.1605
  287TMC3    O2 4392   0.251   2.746   0.793  0.1221 -0.6513  0.3159
  288TMC3    C1 4393   2.531   3.647  14.160 -0.0406 -0.1624  0.5374
  288TMC3    C2 4394   2.505   3.528  14.227 -0.1828 -0.1458  0.8822
  288TMC3    C3 4395   2.374   3.511  14.269 -0.6898 -0.5579  0.2321
  288TMC3    C4 4396   2.437   3.745  14.134 -0.1209 -0.0445  0.5635
  288TMC3    C5 4397   2.308   3.714  14.165  0.8165 -0.0393  0.6390
  288TMC3    C6 4398   2.270   3.600  14.233  0.6480 -0.1906  0.3366
  288TMC3     C 4399   2.654   3.654  14.083 -0.0137  0.5833 -0.0275
  288TMC3     O 4400   2.727   3.559  14.078  0.7703 -0.4713 -0.2665
  288TMC3     H 4401   2.582   3.456  14.248  0.4378  0.4676  0.7169
  288TMC3    H1 4402   2.447   3.835  14.074 -0.8965 -0.6687 -0.5051
  288TMC3    H2 4403   2.177   3.609  14.288  1.6689 -0.2238  2.0457
  288TMC3    C7 4404   2.218   3.824  14.152 -0.6826 -0.5474 -0.5183
  288TMC3    C8 4405   2.374   3.458  14.402 -0.1498  0.5604 -0.9988
  288TMC3    O1 4406   2.271   3.938  14.162  0.8616 -0.0327  0.8364
  288TMC3    O2 4407   2.484   3.445  14.454 -0.3266  0.0075 -0.3501
  289MPD2     C 4408   2.374   3.163  14.198  0.3996  0.6002 -0.1406
  289MPD2    C1 4409   2.350   3.217  14.074  0.1235  0.2052 -0.1026
  289MPD2    C2 4410   2.219   3.207  14.034  0.2528  0.2273 -0.3674
  289MPD2    C3 4411   2.113   3.143  14.099  0.2985  0.0280  0.5843
  289MPD2    C4 4412   2.145   3.085  14.218  0.5526 -0.4564 -1.0224
  289MPD2    C5 4413   2.274   3.105  14.270 -0.2293 -0.0503 -0.1972
  289MPD2     H 4414   2.196   3.246  13.936  0.0642 -1.5890 -1.0334
  289MPD2    H1 4415   2.067   3.041  14.279  0.8400 -0.3955 -0.6199
  289MPD2    H2 4416   2.465   3.184  14.253 -0.2328  1.3964  0.6087
  289MPD2    H3 4417   2.296   3.083  14.374 -3.4024 -0.7064  0.3420
  289MPD2     N 4418   1.993   3.126  14.043  0.6809 -0.3799 -0.2346
  289MPD2    H5 4419   1.925   3.071  14.094  0.5590  0.6536  0.7078
  289MPD2    N1 4420   2.457   3.290  14.006 -1.1139 -0.0817 -0.3201
  289MPD2    H7 4421   2.554   3.280  14.033 -1.0911  0.3729 -0.2445
  290TMC3    C1 4422   1.795   3.176  13.913 -0.1742 -0.2483 -0.7356
  290TMC3    C2 4423   1.733   3.296  13.911  0.8690 -0.0616  0.6114
  290TMC3    C3 4424   1.596   3.291  13.913  0.2153 -0.7059  0.1307
  290TMC3    C4 4425   1.737   3.050  13.921  0.2420 -0.2649  0.7518
  290TMC3    C5 4426   1.599   3.065  13.929  0.1002  0.2339  0.5886
  290TMC3    C6 4427   1.530   3.179  13.928  0.3211  0.4652 -1.1995
  290TMC3     C 4428   1.939   3.197  13.934 -0.3106  0.3487 -0.7103
  290TMC3     O 4429   1.985   3.297  13.880 -0.3503  0.6264  0.5621
  290TMC3     H 4430   1.786   3.390  13.919  2.3813 -0.7593 -1.2300
  290TMC3    H1 4431   1.788   2.955  13.932 -0.9500 -1.0198 -0.1978
  290TMC3    H2 4432   1.423   3.178  13.949  0.5758 -2.3018 -0.0608
  290TMC3    C7 4433   1.517   2.948  13.957 -0.1598  0.1804 -0.1066
  290TMC3    C8 4434   1.519   3.413  13.953 -0.5067 -0.3825 -0.9054
  290TMC3    O1 4435   1.567   2.856  14.019 -0.1535 -0.1359  0.1663
  290TMC3    O2 4436   1.401   3.420  13.907 -0.4005 -0.4136 -0.2839
  291MPD2     C 4437   1.029   2.830  17.561  0.4914 -0.3539  0.0082
  291MPD2    C1 4438   1.098   2.728  17.623  0.0662 -0.0071 -0.1701
  291MPD2    C2 4439   1.211   2.761  17.691  0.5799  0.2554  0.0564
  291MPD2    C3 4440   1.266   2.885  17.681 -0.0710 -0.4177 -0.2959
  291MPD2    C4 4441   1.203   2.989  17.611 -1.0410  0.7760  0.0192
  291MPD2    C5 4442   1.083   2.954  17.550 -0.5182  0.2565 -0.4939
  291MPD2     H 4443   1.262   2.677  17.737  0.7910  0.5227  0.3028
  291MPD2    H1 4444   1.241   3.091  17.607 -1.1575  0.7689 -1.2285
  291MPD2    H2 4445   0.928   2.818  17.526  0.5986 -2.3040  0.3790
  291MPD2    H3 4446   1.021   3.026  17.497  0.4426  2.5649  1.5512
  291MPD2     N 4447   1.387   2.924   0.015  0.0800  0.4281 -0.3907
  291MPD2    H5 4448   1.407   3.024   0.010 -2.4835  1.0057  0.5754
  291MPD2    N1 4449   1.054   2.593  17.617 -0.1420 -0.0889 -0.2343
  291MPD2    H7 4450   1.102   2.522  17.671 -0.8394 -0.0101  0.4890
  292TMC3    C1 4451   0.924   2.412  17.579  0.1698  0.3240 -0.0084
  292TMC3    C2 4452   0.960   2.370  17.701  0.2725  0.2526  0.7678
  292TMC3    C3 4453   0.911   2.244  17.733  0.2732  0.1993 -0.1800
  292TMC3    C4 4454   0.862   2.334  17.487 -0.4054  1.1878  0.4777
  292TMC3    C5 4455   0.852   2.200  17.513 -0.3712  0.6428  0.1186
  292TMC3    C6 4456   0.857   2.159  17.641 -0.1759  0.0059  0.7855
  292TMC3     C 4457   0.951   2.546  17.542 -0.0276  0.1932  0.3281
  292TMC3     O 4458   0.896   2.601  17.447 -0.0373  0.3757 -0.1191
  292TMC3     H 4459   0.967   2.437   0.045  2.0199 -1.3733  1.9411
  292TMC3    H1 4460   0.831   2.378  17.393 -2.2931 -0.2528  0.4062
  292TMC3    H2 4461   0.819   2.061  17.668 -1.1721  0.4247  0.8915
  292TMC3    C7 4462   0.792   2.118  17.415  0.4236  0.3277 -0.0994
  292TMC3    C8 4463   0.871   2.217   0.141  0.5743 -0.4912 -0.1524
  292TMC3    O1 4464   0.726   2.172  17.326  0.3950  0.0580  0.2265
  292TMC3    O2 4465   0.932   2.277   0.225 -0.5817 -0.3171 -0.5992
  293MPD2     C 4466   3.324   0.126  12.446 -0.1038  0.1021  0.0551
  293MPD2    C1 4467   3.209   0.065  12.466  0.4080 -0.1794  0.9768
  293MPD2    C2 4468   3.211   4.682  12.539 -0.3408  0.3915  0.0366
  293MPD2    C3 4469   3.337   4.633  12.587 -0.3029  0.0493 -0.7460
  293MPD2    C4 4470   3.450   4.704  12.564 -0.2363  0.2158 -0.2726
  293MPD2    C5 4471   3.449   0.078  12.483 -0.0122  0.0464  0.1484
  293MPD2     H 4472   3.127   4.614  12.536 -0.2718  0.3576 -1.3666
  293MPD2    H1 4473   3.548   4.678  12.603 -0.6956 -1.2712 -0.1222
  293MPD2    H2 4474   3.326   0.224  12.398  1.3842 -0.6044 -1.3255
  293MPD2    H3 4475   3.538   0.135  12.461 -0.3332  0.3406 -0.3967
  293MPD2     N 4476   3.336   4.517  12.666 -1.0295  0.4271 -0.8547
  293MPD2    H5 4477   3.243   4.477  12.675 -1.8626  2.4208 -0.5622
  293MPD2    N1 4478   3.088   0.115  12.403  0.5142 -0.0188  0.3652
  293MPD2    H7 4479   3.106   0.194  12.341 -1.2741  0.9979  1.1229
  294TMC3    C1 4480   2.878   0.158  12.315  0.3088  0.9135  0.0734
  294TMC3    C2 4481   2.753   0.099  12.291  0.1980  0.2906  0.1153
  294TMC3    C3 4482   2.688   0.148  12.181  0.5771  0.5828  0.0929
  294TMC3    C4 4483   2.918   0.266  12.247 -0.2873 -0.3247 -0.5596
  294TMC3    C5 4484   2.844   0.322  12.151  0.7901 -0.0480 -0.1550
  294TMC3    C6 4485   2.725   0.265  12.116  0.3581 -0.0716  0.2403
  294TMC3     C 4486   2.956   0.072  12.408  0.0222 -0.0449  0.1882
  294TMC3     O 4487   2.898   4.719  12.464 -0.1712  0.3912  0.2995
  294TMC3     H 4488   2.714   0.019  12.352 -0.0185  0.0386 -0.3545
  294TMC3    H1 4489   3.012   0.318  12.258 -1.1383  0.9619  0.5614
  294TMC3    H2 4490   2.670   0.307  12.033  0.1011  0.2196  0.5538
  294TMC3    C7 4491   2.904   0.408  12.055 -0.6816  0.2693 -0.5715
  294TMC3    C8 4492   2.557   0.091  12.137  0.8231  0.6488 -0.5262
  294TMC3    O1 4493   2.991   0.475  12.104  0.5162 -0.1301 -0.2150
  294TMC3    O2 4494   2.466   0.169  12.113 -0.1117 -0.1798  0.0947
  295MPD2     C 4495   3.034   2.931   0.500 -0.1628  0.8336  1.0051
  295MPD2    C1 4496   3.086   3.049   0.444 -0.6323 -0.5901 -1.0030
  295MPD2    C2 4497   3.017   3.166   0.471 -0.1746  0.2762 -0.0282
  295MPD2    C3 4498   2.895   3.163   0.541  0.9413  0.1178  0.0641
  295MPD2    C4 4499   2.842   3.046   0.589 -0.3327 -0.0015  0.2388
  295MPD2    C5 4500   2.917   2.932   0.568 -0.0245  0.4236 -0.3613
  295MPD2     H 4501   3.071   3.251   0.430  1.3971 -1.2503 -1.0807
  295MPD2    H1 4502   2.752   3.047   0.648 -0.0703  0.5678  0.6250
  295MPD2    H2 4503   3.079   2.834   0.484 -0.7326  0.9689 -1.4472
  295MPD2    H3 4504   2.889   2.834   0.605 -2.7504  0.5460 -2.0464
  295MPD2     N 4505   2.827   3.283   0.582 -0.1578  0.0922 -0.5569
  295MPD2    H5 4506   2.751   3.264   0.647  0.7858 -0.0842  0.5007
  295MPD2    N1 4507   3.197   3.051   0.355  0.3822  0.4841  0.2398
  295MPD2    H7 4508   3.213   3.139   0.306  0.2356  1.2741  1.5994
  296TMC3    C1 4509   2.779   3.514   0.616 -0.0196  0.0914  0.0230
  296TMC3    C2 4510   2.774   3.640   0.564  0.8699 -0.1058 -0.3166
  296TMC3    C3 4511   2.722   3.731   0.645 -0.1097 -1.0110 -0.2807
  296TMC3    C4 4512   2.714   3.479   0.728  0.2127  0.0697 -0.8905
  296TMC3    C5 4513   2.668   3.576   0.809 -0.4759  0.4063 -0.3046
  296TMC3    C6 4514   2.675   3.705   0.768 -0.2038  0.1713 -0.3844
  296TMC3     C 4515   2.860   3.415   0.551 -0.7557 -0.6329 -0.5239
  296TMC3     O 4516   2.931   3.462   0.462 -0.0823 -0.1059 -0.1755
  296TMC3     H 4517   2.828   3.657   0.471  0.3741  0.5354 -0.4887
  296TMC3    H1 4518   2.697   3.378   0.762 -2.0421  0.7448 -0.0606
  296TMC3    H2 4519   2.618   3.776   0.825 -0.5994  0.5805 -1.3007
  296TMC3    C7 4520   2.580   3.547   0.922  0.5123 -0.6774 -0.6669
  296TMC3    C8 4521   2.710   3.862   0.587  0.3035  0.9072 -0.5969
  296TMC3    O1 4522   2.572   3.635   1.005  0.0835  0.0145 -0.3902
  296TMC3    O2 4523   2.704   3.871   0.460  0.3160  0.1635 -0.4835
  297MPD2     C 4524   1.024   4.727  16.364  0.3289  0.2667 -0.5513
  297MPD2    C1 4525   1.007   0.124  16.317 -0.1913 -0.2743 -0.4310
  297MPD2    C2 4526   1.122   0.196  16.313  0.0849 -0.1950 -0.5023
  297MPD2    C3 4527   1.243   0.150  16.355  0.1021  0.5244 -0.1862
  297MPD2    C4 4528   1.256   0.018  16.385 -0.5399  0.0520 -0.4652
  297MPD2    C5 4529   1.149   4.673  16.384  0.4978 -0.4517 -0.3071
  297MPD2     H 4530   1.111   0.298  16.278 -0.9706 -0.6625 -1.5099
  297MPD2    H1 4531   1.355   4.711  16.403 -1.0597 -0.7984  0.4009
  297MPD2    H2 4532   0.939   4.661  16.373  0.7517 -0.2370 -0.2489
  297MPD2    H3 4533   1.163   4.568  16.406 -2.0454 -1.3934 -3.2705
  297MPD2     N 4534   1.349   0.241  16.357 -0.4201  0.5186 -0.2820
  297MPD2    H5 4535   1.328   0.339  16.342 -2.0233  0.2477  0.1839
  297MPD2    N1 4536   0.882   0.188  16.299 -0.3996 -0.6818  0.2449
  297MPD2    H7 4537   0.891   0.284  16.268  1.4322 -1.2690 -1.0800
  298TMC3    C1 4538   0.673   0.249  16.284  0.5699 -0.4410  0.3869
  298TMC3    C2 4539   0.692   0.284  16.154  0.2747 -0.4928 -0.0061
  298TMC3    C3 4540   0.629   0.399  16.103 -0.2767  0.4724  0.2803
  298TMC3    C4 4541   0.591   0.315  16.372 -0.0398  0.6575  0.1742
  298TMC3    C5 4542   0.538   0.435  16.325  0.5809 -0.8713 -0.1571
  298TMC3    C6 4543   0.559   0.476  16.193 -0.3423 -0.2201 -0.0784
  298TMC3     C 4544   0.759   0.143  16.332 -0.1148 -0.5027  0.9973
  298TMC3     O 4545   0.726   0.041  16.394 -0.8014 -0.3289  0.0801
  298TMC3     H 4546   0.735   0.209  16.088 -3.5247 -1.7350 -1.0947
  298TMC3    H1 4547   0.584   0.269  16.470 -0.2326 -1.1899 -0.6956
  298TMC3    H2 4548   0.511   0.565  16.152  0.7174  0.6291  0.5036
  298TMC3    C7 4549   0.452   0.507  16.412 -0.3695 -0.4320 -0.3339
  298TMC3    C8 4550   0.649   0.440  15.967  0.4335  0.4743  0.7892
  298TMC3    O1 4551   0.441   0.472  16.527  0.5235 -0.2862 -0.8953
  298TMC3    O2 4552   0.682   0.351  15.889 -0.4542  0.0135 -0.0500
  299MPD2     C 4553   1.428   4.730  10.669  0.1721 -0.1293  0.4680
  299MPD2    C1 4554   1.352   4.670  10.771 -0.3728 -0.1490 -1.2137
  299MPD2    C2 4555   1.219   4.642  10.748  0.1527  0.2538 -0.0878
  299MPD2    C3 4556   1.162   4.677  10.627  0.1223 -0.8027  0.8203
  299MPD2    C4 4557   1.232   0.015  10.532 -0.4792  0.0974  0.0607
  299MPD2    C5 4558   1.360   0.048  10.563 -0.1106 -0.7490  0.2817
  299MPD2     H 4559   1.156   4.601  10.826 -0.9965  2.5365  0.1741
  299MPD2    H1 4560   1.200   0.034  10.430 -1.4985  0.7085  0.4896
  299MPD2    H2 4561   1.534   0.014  10.678  0.1353  0.0162  0.5870
  299MPD2    H3 4562   1.420   0.098  10.488 -0.4709 -0.8814 -0.1024
  299MPD2     N 4563   1.028   4.638  10.608  0.0744  0.1336  0.0400
  299MPD2    H5 4564   0.986   4.577  10.677 -0.9832  1.8005  0.8493
  299MPD2    N1 4565   1.419   4.656  10.896  0.6590 -0.5053 -0.7082
  299MPD2    H7 4566   1.517   4.682  10.898 -0.3873  3.4335  1.1663
  300TMC3    C1 4567   0.809   4.632  10.519  0.8315  0.2950 -0.3908
  300TMC3    C2 4568   0.712   4.702  10.455 -0.0584 -1.0300 -0.5412
  300TMC3    C3 4569   0.587   4.718  10.510  0.1109  0.3108 -0.6258
  300TMC3    C4 4570   0.783   4.575  10.637 -0.2024 -0.3173  0.0737
  300TMC3    C5 4571   0.650   4.588  10.687  0.2919 -0.3148  0.5149
  300TMC3    C6 4572   0.550   4.652  10.621 -0.3295 -0.0380 -0.3390
  300TMC3     C 4573   0.945   4.681  10.503  0.8152 -0.1461  0.0336
  300TMC3     O 4574   0.966   0.020  10.409 -0.3405  0.2991 -0.6710
  300TMC3     H 4575   0.740   0.011  10.360 -2.1242 -1.8775 -1.5348
  300TMC3    H1 4576   0.857   4.517  10.690  0.5964 -0.0075 -0.7157
  300TMC3    H2 4577   0.447   4.655  10.654 -0.4419 -2.4158 -0.4467
  300TMC3    C7 4578   0.616   4.518  10.804  0.2187 -0.2736  0.6407
  300TMC3    C8 4579   0.486   0.064  10.444 -0.2543 -0.1263  0.5993
  300TMC3    O1 4580   0.682   4.417  10.827  0.0365 -0.7346 -0.1950
  300TMC3    O2 4581   0.391   0.091  10.519  0.6647  0.3563  0.4038
  301MPD2     C 4582   3.065   1.162   1.193 -0.1076 -0.2229  0.0341
  301MPD2    C1 4583   3.010   1.134   1.070 -0.3834 -0.2117 -0.1447
  301MPD2    C2 4584   3.068   1.033   1.001 -0.0408 -0.3896  0.0388
  301MPD2    C3 4585   3.182   0.965   1.046  0.4165 -0.2908  0.0509
  301MPD2    C4 4586   3.230   0.994   1.170  0.5481  0.1955  0.5979
  301MPD2    C5 4587   3.175   1.094   1.242 -0.7972 -0.5353 -0.0628
  301MPD2     H 4588   3.027   1.018   0.902 -1.3202  1.8375  0.2393
  301MPD2    H1 4589   3.311   0.931   1.207 -0.7627 -1.5286  0.5642
  301MPD2    H2 4590   3.020   1.240   1.253  2.0005 -0.0256  1.3485
  301MPD2    H3 4591   3.206   1.130   1.340  1.7591 -0.2005 -1.0004
  301MPD2     N 4592   3.251   0.879   0.969 -1.0081  0.6660  0.2147
  301MPD2    H5 4593   3.331   0.830   1.007  0.0485  2.9423  0.9181
  301MPD2    N1 4594   2.900   1.201   1.015  0.2432 -0.0025 -0.3264
  301MPD2    H7 4595   2.875   1.174   0.921  1.1056  3.2522 -1.4558
  302TMC3    C1 4596   3.278   0.698   0.804 -0.1684 -0.1498  0.1049
  302TMC3    C2 4597   3.411   0.688   0.823  1.0346 -0.1663  0.0027
  302TMC3    C3 4598   3.477   0.578   0.771 -0.5171 -0.3105  0.4376
  302TMC3    C4 4599   3.216   0.603   0.731  0.3319 -0.4042  0.7537
  302TMC3    C5 4600   3.286   0.494   0.685 -0.4814  0.4480 -0.1397
  302TMC3    C6 4601   3.418   0.489   0.695  0.2014  0.6938  0.5288
  302TMC3     C 4602   3.196   0.811   0.860 -0.0192  0.3709 -0.3766
  302TMC3     O 4603   3.077   0.800   0.837  0.2709  0.7916  0.1437
  302TMC3     H 4604   3.453   0.762   0.890  0.5808  1.3396 -1.3896
  302TMC3    H1 4605   3.109   0.609   0.715  0.4027 -3.0628 -0.7466
  302TMC3    H2 4606   3.473   0.406   0.653  0.2016  0.8632  0.1888
  302TMC3    C7 4607   3.228   0.412   0.582  0.2777  0.0414  0.2400
  302TMC3    C8 4608   3.611   0.548   0.801  0.1183 -0.5509  0.1751
  302TMC3    O1 4609   3.287   0.305   0.566 -0.4184  0.4861  0.2497
  302TMC3    O2 4610   3.654   0.434   0.778 -0.1481  0.0720 -0.9695
  303MPD2     C 4611   3.052   0.368   9.466 -0.6878 -0.5518  0.1387
  303MPD2    C1 4612   2.929   0.314   9.434 -0.0530 -0.7544  0.4077
  303MPD2    C2 4613   2.819   0.376   9.496 -0.1863  0.6405  0.2188
  303MPD2    C3 4614   2.836   0.488   9.574 -0.4875 -0.1930 -0.1612
  303MPD2    C4 4615   2.961   0.536   9.597  0.3993  0.1573  0.2502
  303MPD2    C5 4616   3.062   0.476   9.546  0.0419 -0.2410  0.1758
  303MPD2     H 4617   2.724   0.339   9.459 -0.3866 -0.0520  1.4536
  303MPD2    H1 4618   2.988   0.619   9.662  0.3522  0.2460  0.1578
  303MPD2    H2 4619   3.140   0.331   9.414 -0.8991 -0.7926 -0.0498
  303MPD2    H3 4620   3.160   0.521   9.559 -0.4787  0.7863  0.5388
  303MPD2     N 4621   2.735   0.564   9.632 -0.2622 -0.1080  0.5917
  303MPD2    H5 4622   2.758   0.656   9.670  0.6116 -0.4366  0.8638
  303MPD2    N1 4623   2.907   0.202   9.356  0.2548  0.4825 -0.1611
  303MPD2    H7 4624   2.816   0.158   9.354  0.0617  0.8953 -0.4395
  304TMC3    C1 4625   2.968   0.020   9.239  0.0460  0.9267 -0.5386
  304TMC3    C2 4626   2.929   4.667   9.339  0.7176  0.0559  0.8771
  304TMC3    C3 4627   2.889   4.544   9.294  0.2789  0.3136 -0.2050
  304TMC3    C4 4628   2.972   4.729   9.107 -0.0382 -0.5307  0.0537
  304TMC3    C5 4629   2.934   4.600   9.070 -0.6566  0.3933  0.1529
  304TMC3    C6 4630   2.900   4.509   9.161  0.6560  0.0719 -0.5785
  304TMC3     C 4631   3.012   0.147   9.284 -0.4037  0.2575 -0.4561
  304TMC3     O 4632   3.112   0.199   9.240 -0.2328  0.5612  0.1982
  304TMC3     H 4633   2.923   4.689   9.445  0.3007 -0.5932  0.9825
  304TMC3    H1 4634   2.998   0.069   9.033  0.8644  0.1203  1.0428
  304TMC3    H2 4635   2.892   4.403   9.142 -0.4376  0.1291 -0.4050
  304TMC3    C7 4636   2.849   4.607   8.956  0.1548 -0.5669 -0.2057
  304TMC3    C8 4637   2.769   4.486   9.346  1.3136 -0.7635 -0.6983
  304TMC3    O1 4638   2.885   4.664   8.855  0.5126 -0.4699 -0.2711
  304TMC3    O2 4639   2.697   4.426   9.265 -0.0961 -0.0670 -0.3249
  305MPD2     C 4640   1.781   1.856  14.070  0.3601  0.3645  0.2509
  305MPD2    C1 4641   1.815   1.724  14.083 -0.2258  0.5329  0.8387
  305MPD2    C2 4642   1.825   1.649  13.971  0.3088 -0.2133  0.2721
  305MPD2    C3 4643   1.791   1.700  13.845  0.4818  0.6065 -0.2510
  305MPD2    C4 4644   1.727   1.822  13.834  0.3269 -0.0778 -0.1686
  305MPD2    C5 4645   1.733   1.902  13.947  0.0580 -0.0690 -0.1733
  305MPD2     H 4646   1.876   1.554  13.987  0.9917 -0.0957 -1.2229
  305MPD2    H1 4647   1.672   1.860  13.749 -0.4650 -2.2828 -0.6378
  305MPD2    H2 4648   1.776   1.921  14.156  1.9201  1.2534 -0.3322
  305MPD2    H3 4649   1.688   2.000  13.944 -0.0685 -0.1113  0.3006
  305MPD2     N 4650   1.798   1.626  13.726  0.1273  0.0659 -0.2452
  305MPD2    H5 4651   1.762   1.672  13.643  0.1344 -1.6996 -1.2301
  305MPD2    N1 4652   1.835   1.680  14.221  0.1837 -0.0015  0.6730
  305MPD2    H7 4653   1.824   1.751  14.294 -2.0603 -0.2350  0.5766
  306TMC3    C1 4654   1.915   1.557  14.396  0.0035 -0.0138 -0.1450
  306TMC3    C2 4655   2.022   1.477  14.428 -0.1811  0.5362 -0.2548
  306TMC3    C3 4656   2.051   1.464  14.563 -0.1547  0.5206 -0.3032
  306TMC3    C4 4657   1.856   1.638  14.489 -0.2855  0.4694 -0.1020
  306TMC3    C5 4658   1.898   1.622  14.621 -0.1904 -0.6051 -0.3431
  306TMC3    C6 4659   2.001   1.542  14.667 -0.0706  0.7496  0.9098
  306TMC3     C 4660   1.873   1.557  14.256 -0.3602 -0.5210  0.2857
  306TMC3     O 4661   1.900   1.457  14.191  0.1690 -0.0132  0.0617
  306TMC3     H 4662   2.071   1.425  14.347  0.4807 -1.2321  1.2834
  306TMC3    H1 4663   1.757   1.680  14.471 -0.6372  0.6163  2.1270
  306TMC3    H2 4664   2.026   1.530  14.771  2.1861 -0.6959  0.2187
  306TMC3    C7 4665   1.811   1.686  14.720  0.5114 -0.1234 -1.0057
  306TMC3    C8 4666   2.169   1.392  14.581 -0.2092 -0.2892 -0.0762
  306TMC3    O1 4667   1.708   1.740  14.680  0.0955  0.4549  0.5651
  306TMC3    O2 4668   2.211   1.327  14.490  0.2389 -0.6070 -0.2796
  307MPD2     C 4669   4.071   3.388   1.176 -0.2399  0.1976 -0.3030
  307MPD2    C1 4670   4.066   3.516   1.123  0.1874 -0.2516 -0.3813
  307MPD2    C2 4671   3.964   3.605   1.174 -0.7851  0.3391 -0.4074
  307MPD2    C3 4672   3.868   3.555   1.259 -0.0130  0.3963 -0.2363
  307MPD2    C4 4673   3.870   3.420   1.299 -0.7615 -0.2014  0.1867
  307MPD2    C5 4674   3.970   3.343   1.260 -0.8175 -0.2277 -0.1512
  307MPD2     H 4675   3.956   3.708   1.141 -0.3035  0.5991  0.2823
  307MPD2    H1 4676   3.790   3.378   1.360  0.9191 -0.3149  2.2864
  307MPD2    H2 4677   4.147   3.317   1.147  1.6499  0.7746  3.3972
  307MPD2    H3 4678   3.966   3.239   1.291 -0.9127 -0.9675 -2.6164
  307MPD2     N 4679   3.755   3.640   1.297 -0.4624  0.1980  0.0540
  307MPD2    H5 4680   3.752   3.732   1.254 -0.0495 -0.3954 -1.2505
  307MPD2    N1 4681   4.158   3.569   1.026  0.0487 -0.3429  0.3808
  307MPD2    H7 4682   4.135   3.663   0.994 -1.2684 -0.4472  1.0241
  308TMC3    C1 4683   3.355   3.816   1.293  0.7128  1.0542  0.5339
  308TMC3    C2 4684   3.416   3.939   1.292  0.5210  0.1225  0.0536
  308TMC3    C3 4685   3.544   3.951   1.335  0.1873  0.8245  0.3167
  308TMC3    C4 4686   3.424   3.706   1.327 -0.0515  0.8506 -0.3273
  308TMC3    C5 4687   3.554   3.719   1.372 -0.0833 -1.2289  0.7751
  308TMC3    C6 4688   3.612   3.842   1.369 -0.3861  0.1888  1.2011
  308TMC3     C 4689   3.240   3.795   1.202 -0.2026  0.0846 -0.4772
  308TMC3     O 4690   3.180   3.692   1.219 -0.1690 -0.7184 -0.0692
  308TMC3     H 4691   3.346   4.022   1.288 -1.6181 -1.5649  2.4810
  308TMC3    H1 4692   3.373   3.611   1.338  0.5057  0.7479  1.4236
  308TMC3    H2 4693   3.713   3.855   1.405 -0.3822 -1.2497  1.7130
  308TMC3    C7 4694   3.642   3.604   1.367 -0.5357 -0.0414 -0.6412
  308TMC3    C8 4695   3.608   4.079   1.349  0.6957 -0.0550  0.3246
  308TMC3    O1 4696   3.601   3.490   1.395 -0.0944 -0.7086  0.3162
  308TMC3    O2 4697   3.695   4.085   1.437  0.2664  0.2135 -0.5448
  309MPD2     C 4698   4.025   0.083  17.049  0.2020  0.3512  0.7926
  309MPD2    C1 4699   3.933   0.096  16.948  0.6620 -0.1063 -0.0798
  309MPD2    C2 4700   3.797   0.069  16.967 -0.8089 -0.4534 -0.0043
  309MPD2    C3 4701   3.749   0.053  17.089  0.7617  0.2764  0.0317
  309MPD2    C4 4702   3.838   0.070  17.193 -0.2593  0.3616  0.2745
  309MPD2    C5 4703   3.968   0.084  17.175  0.0800 -0.1287  0.1482
  309MPD2     H 4704   3.729   0.073  16.882 -0.4282 -0.2023 -0.3032
  309MPD2    H1 4705   3.808   0.052  17.296  0.4542  0.7971  0.5584
  309MPD2    H2 4706   4.132   0.103  17.044  0.3013 -1.2780 -2.9109
  309MPD2    H3 4707   4.025   0.086  17.267  1.2518  1.0747 -0.6115
  309MPD2     N 4708   3.614   0.018  17.107  0.0519  0.7330 -0.0103
  309MPD2    H5 4709   3.565   0.006  17.020 -0.3723 -0.8878  0.4357
  309MPD2    N1 4710   3.970   0.121  16.813 -0.4171 -0.3441 -0.4246
  309MPD2    H7 4711   3.890   0.132  16.752 -1.6300 -1.0163  1.0389
  310TMC3    C1 4712   4.099   0.168  16.624 -0.3206 -0.2008  0.0549
  310TMC3    C2 4713   3.991   0.184  16.539  0.0120 -0.3561  0.1284
  310TMC3    C3 4714   4.005   0.211  16.405 -0.1888  0.1372 -0.3726
  310TMC3    C4 4715   4.226   0.167  16.571 -0.3371  0.2657 -0.3206
  310TMC3    C5 4716   4.234   0.176  16.435  0.2854  0.4485 -0.3587
  310TMC3    C6 4717   4.129   0.195  16.350  0.3556  0.7927 -0.3696
  310TMC3     C 4718   4.094   0.133  16.763 -0.3851 -0.0302  0.6701
  310TMC3     O 4719   4.205   0.118  16.821  0.1744 -0.4789  0.4337
  310TMC3     H 4720   3.890   0.196  16.578 -0.8777 -2.0679 -1.7031
  310TMC3    H1 4721   4.313   0.181  16.636 -0.9120  0.6778  0.3628
  310TMC3    H2 4722   4.144   0.210  16.243 -1.5819  2.0609 -0.4767
  310TMC3    C7 4723   4.365   0.175  16.383 -0.0181  0.0096  0.1682
  310TMC3    C8 4724   3.892   0.198  16.316 -0.0679  0.0081  1.0447
  310TMC3    O1 4725   4.455   0.227  16.446  0.6765 -0.5139 -0.6757
  310TMC3    O2 4726   3.917   0.183  16.197  0.1054 -0.3013 -0.0760
  311MPD2     C 4727   0.715   1.584  12.475 -0.1032 -0.1537  0.1077
  311MPD2    C1 4728   0.773   1.563  12.604  0.2880 -1.1517  0.1602
  311MPD2    C2 4729   0.690   1.503  12.694  0.3401  0.1176 -0.5732
  311MPD2    C3 4730   0.559   1.460  12.665 -0.3560 -0.3663  0.3206
  311MPD2    C4 4731   0.511   1.464  12.535  0.2444  0.2390 -0.2300
  311MPD2    C5 4732   0.590   1.534  12.444  0.7482  0.6362  0.5348
  311MPD2     H 4733   0.724   1.488  12.796  1.6129 -0.7788 -1.1293
  311MPD2    H1 4734   0.412   1.428  12.511  0.5097  0.0579 -1.0349
  311MPD2    H2 4735   0.769   1.643  12.402 -0.2103  1.2869  1.1784
  311MPD2    H3 4736   0.545   1.543  12.346 -1.6530 -0.1551  1.5665
  311MPD2     N 4737   0.476   1.422  12.773  0.4802 -0.0459  0.4415
  311MPD2    H5 4738   0.510   1.399  12.866 -0.6316  1.8721  1.3288
  311MPD2    N1 4739   0.893   1.616  12.632 -0.4804 -0.3629 -0.4143
  311MPD2    H7 4740   0.942   1.598  12.720 -0.0062  0.3383 -0.5340
  312TMC3    C1 4741   0.286   1.330  12.871  0.1558  0.3337  0.1629
  312TMC3    C2 4742   0.162   1.277  12.845  0.8592  0.6478 -0.5164
  312TMC3    C3 4743   0.116   1.169  12.914  0.0060 -0.1458 -0.2353
  312TMC3    C4 4744   0.370   1.265  12.962  0.4445  0.1954 -0.2170
  312TMC3    C5 4745   0.316   1.166  13.039  0.3401 -0.1347 -0.1231
  312TMC3    C6 4746   0.184   1.118  13.020  0.2055 -0.1650  1.1279
  312TMC3     C 4747   0.344   1.409  12.761  0.2523  0.3290 -0.2932
  312TMC3     O 4748   0.263   1.475  12.695  0.2874 -0.1204  0.6905
  312TMC3     H 4749   0.096   1.312  12.766 -0.8421  0.1686  0.6921
  312TMC3    H1 4750   0.463   1.303  13.002  1.7189 -3.7996  0.6087
  312TMC3    H2 4751   0.154   1.029  13.075 -4.9751  0.0545 -1.3249
  312TMC3    C7 4752   0.401   1.118  13.148  0.1659 -0.2966  0.0512
  312TMC3    C8 4753   4.718   1.132  12.896  0.4292 -0.3878  0.1832
  312TMC3    O1 4754   0.446   1.001  13.143  0.0737 -0.2002  0.2243
  312TMC3    O2 4755   4.635   1.219  12.875  0.0537  0.4270  0.3980
  313MPD2     C 4756   4.274   0.899  11.557  0.2035 -0.0809  0.6499
  313MPD2    C1 4757   4.372   0.938  11.471  0.6654 -0.0125 -0.2322
  313MPD2    C2 4758   4.443   0.838  11.398  0.2962 -0.0733  0.3813
  313MPD2    C3 4759   4.409   0.710  11.401  0.3737  0.1339 -0.0574
  313MPD2    C4 4760   4.307   0.673  11.490 -1.0600  0.1043  0.1501
  313MPD2    C5 4761   4.245   0.763  11.570 -0.7119 -0.5964 -0.4050
  313MPD2     H 4762   4.533   0.866  11.343 -0.7187  3.3313  0.4312
  313MPD2    H1 4763   4.283   0.568  11.506 -0.9584  0.1130  0.3533
  313MPD2    H2 4764   4.205   0.966  11.608 -2.1014 -1.0829 -1.1628
  313MPD2    H3 4765   4.169   0.733  11.641  1.3768  0.1835  2.1672
  313MPD2     N 4766   4.495   0.619  11.332  0.4184 -0.0669  0.1135
  313MPD2    H5 4767   4.582   0.655  11.296  0.4653  1.5355  1.8054
  313MPD2    N1 4768   4.392   1.077  11.449  1.0171 -0.7465  0.1281
  313MPD2    H7 4769   4.320   1.143  11.477  1.1873 -0.3404 -0.3977
  314TMC3    C1 4770   4.511   1.264  11.390 -0.2061  0.1462  0.4203
  314TMC3    C2 4771   4.636   1.314  11.377  0.3950 -0.5596 -0.2020
  314TMC3    C3 4772   4.650   1.433  11.302  0.4065  0.7054 -0.4960
  314TMC3    C4 4773   4.403   1.311  11.312 -0.1801 -0.4646  0.2044
  314TMC3    C5 4774   4.426   1.421  11.236  0.3767 -0.3114 -0.0077
  314TMC3    C6 4775   4.543   1.486  11.233  0.3316 -0.3423 -0.4774
  314TMC3     C 4776   4.515   1.122  11.414  0.0136 -0.3059 -0.5859
  314TMC3     O 4777   4.623   1.068  11.404  0.3405  1.0498 -0.1597
  314TMC3     H 4778   4.712   1.284  11.449  2.0529  1.9170 -0.9254
  314TMC3    H1 4779   4.298   1.286  11.321 -0.6878  1.7534  0.5161
  314TMC3    H2 4780   4.557   1.578  11.178  0.0895  1.1977  2.0428
  314TMC3    C7 4781   4.344   1.434  11.127  1.2985 -0.1317 -0.9338
  314TMC3    C8 4782   0.044   1.504  11.289 -0.7210 -0.0645 -0.0414
  314TMC3    O1 4783   4.222   1.459  11.141 -1.1526  0.4497 -0.1675
  314TMC3    O2 4784   0.059   1.589  11.209 -0.2204  0.6087  0.4746
  315MPD2     C 4785   4.715   4.119   0.205 -0.1263  0.2588 -0.5050
  315MPD2    C1 4786   0.077   4.194   0.266 -0.2483 -0.4154 -0.1715
  315MPD2    C2 4787   0.085   4.328   0.220  0.1528  0.6417 -0.1191
  315MPD2    C3 4788   0.009   4.370   0.111  0.7271  0.1071  0.2035
  315MPD2    C4 4789   4.643   4.290   0.055  0.4895 -0.0709  0.0534
  315MPD2    C5 4790   4.633   4.166   0.108  0.2187  0.2144  0.1430
  315MPD2     H 4791   0.168   4.383   0.264  0.0175  2.4317 -2.1696
  315MPD2    H1 4792   4.589   4.314  17.704  0.6406  1.1843  0.3013
  315MPD2    H2 4793   4.719   4.011   0.213 -0.5212  0.3703  1.1685
  315MPD2    H3 4794   4.561   4.098   0.062 -0.1128 -0.1128  1.1592
  315MPD2     N 4795   0.035   4.497   0.062 -0.3815 -0.0268 -0.0370
  315MPD2    H5 4796   0.102   4.555   0.110 -0.3013 -0.3136  0.1964
  315MPD2    N1 4797   0.173   4.143   0.357  0.6424  0.4300  0.2291
  315MPD2    H7 4798   0.248   4.208   0.377  1.4701 -0.0232 -1.3458
  316TMC3    C1 4799   0.051   4.671  17.661  0.0936  0.1729  0.6184
  316TMC3    C2 4800   0.185   4.681  17.648  0.0877 -0.6746 -0.2031
  316TMC3    C3 4801   0.242   0.061  17.596 -0.3541  0.3517  0.4661
  316TMC3    C4 4802   4.702   0.043  17.644  0.1606 -0.6408  0.8503
  316TMC3    C5 4803   0.026   0.160  17.596  0.1948  0.5872  0.0490
  316TMC3    C6 4804   0.161   0.170  17.564  0.0007  0.1714  0.4529
  316TMC3     C 4805   4.728   4.544  17.678  0.0563 -0.2506 -0.4917
  316TMC3     O 4806   4.650   4.503  17.595  0.0035  0.1391 -0.0482
  316TMC3     H 4807   0.245   4.595  17.677  0.0360 -0.8954 -0.7581
  316TMC3    H1 4808   4.596   0.035  17.665 -0.5197  1.3692 -1.7301
  316TMC3    H2 4809   0.209   0.261  17.533  1.7970 -0.4282  1.4348
  316TMC3    C7 4810   4.692   0.278  17.623 -0.3130  0.2683 -0.1274
  316TMC3    C8 4811   0.361   0.090  17.668  0.2162  0.2930  0.6948
  316TMC3    O1 4812   4.604   0.282  17.709  0.1931  0.7233 -0.2100
  316TMC3    O2 4813   0.370   0.202  17.715  0.5622 -0.0880  0.7033
  317MPD2     C 4814   2.303   3.514  12.636 -0.1004  0.2651 -0.1618
  317MPD2    C1 4815   2.402   3.419  12.638 -0.2869 -0.2047 -0.1058
  317MPD2    C2 4816   2.435   3.352  12.762  0.1013 -0.1150  0.0658
  317MPD2    C3 4817   2.344   3.356  12.872 -0.2681 -0.2379 -0.1083
  317MPD2    C4 4818   2.247   3.451  12.864 -0.8332 -0.2018 -0.2408
  317MPD2    C5 4819   2.237   3.533  12.757  0.1245  0.2019  0.2981
  317MPD2     H 4820   2.519   3.284  12.770  1.6761  2.1599  2.8815
  317MPD2    H1 4821   2.174   3.469  12.942 -0.9728 -0.6176 -0.2785
  317MPD2    H2 4822   2.284   3.580  12.553 -2.5288  1.0473  1.0095
  317MPD2    H3 4823   2.152   3.600  12.766 -0.3688 -0.4809  0.7486
  317MPD2     N 4824   2.372   3.275  12.980  0.2990  0.5258  0.2788
  317MPD2    H5 4825   2.464   3.233  12.984  0.6836  1.1584 -1.8062
  317MPD2    N1 4826   2.475   3.380  12.526 -0.1161  0.2299  0.4540
  317MPD2    H7 4827   2.543   3.307  12.544  1.4186  1.7420  0.9059
  318TMC3    C1 4828   2.304   3.126  13.152 -0.3353 -0.1863 -0.3513
  318TMC3    C2 4829   2.195   3.065  13.207  0.2542  0.1795 -0.1374
  318TMC3    C3 4830   2.215   2.959  13.290 -0.5383  1.0303  0.1093
  318TMC3    C4 4831   2.431   3.089  13.182  0.3250 -0.3024 -0.2977
  318TMC3    C5 4832   2.450   2.979  13.270 -0.2914  0.0985  0.2851
  318TMC3    C6 4833   2.342   2.917  13.327 -0.9818 -1.3122  0.6161
  318TMC3     C 4834   2.274   3.235  13.064 -0.4938  0.2889  0.0025
  318TMC3     O 4835   2.153   3.269  13.067  0.2165 -0.7437  0.1787
  318TMC3     H 4836   2.098   3.105  13.182  0.7532  0.8979 -0.9055
  318TMC3    H1 4837   2.519   3.148  13.161  0.3360  0.2144  1.1853
  318TMC3    H2 4838   2.354   2.842  13.405  0.1614 -2.1618 -0.3647
  318TMC3    C7 4839   2.578   2.966  13.329  0.4012 -0.2755  0.5648
  318TMC3    C8 4840   2.107   2.879  13.335  0.6329 -0.5164 -0.3921
  318TMC3    O1 4841   2.650   3.064  13.314  0.7461  0.0453 -0.4281
  318TMC3    O2 4842   2.125   2.796  13.424 -0.0153  0.3955 -0.8458
  319MPD2     C 4843   3.651   4.221  16.107  0.8735  0.7255  0.6848
  319MPD2    C1 4844   3.548   4.186  16.191  0.2022 -0.2370  0.0797
  319MPD2    C2 4845   3.426   4.148  16.134  0.5468 -0.8267  0.3490
  319MPD2    C3 4846   3.408   4.152  15.999  0.2687  0.1043 -0.9846
  319MPD2    C4 4847   3.512   4.189  15.919 -0.3198 -0.1939 -0.3021
  319MPD2    C5 4848   3.634   4.206  15.970  0.5288  0.0018 -0.1935
  319MPD2     H 4849   3.341   4.136  16.201  1.3798 -1.1729  1.3582
  319MPD2    H1 4850   3.503   4.195  15.811 -2.9250  2.3249  0.0606
  319MPD2    H2 4851   3.752   4.243  16.139  0.3154  2.9968  0.8500
  319MPD2    H3 4852   3.717   4.222  15.902 -0.8316 -1.1799 -2.1305
  319MPD2     N 4853   3.279   4.131  15.944 -0.1930 -0.0636 -0.0937
  319MPD2    H5 4854   3.265   4.150  15.846  0.5502 -0.2168 -0.2248
  319MPD2    N1 4855   3.555   4.201  16.329  1.2074 -0.8647 -0.1312
  319MPD2    H7 4856   3.471   4.183  16.382  0.6390  1.2447 -0.3294
  320TMC3    C1 4857   3.045   4.107  15.935 -0.2403 -0.7021  0.0438
  320TMC3    C2 4858   3.031   4.218  15.851 -0.2484 -0.0532  0.3620
  320TMC3    C3 4859   2.912   4.239  15.787 -0.5548 -0.3046 -0.1442
  320TMC3    C4 4860   2.938   4.023  15.959 -0.7142  0.0815  0.7788
  320TMC3    C5 4861   2.821   4.052  15.894  0.3294  0.6390  0.3184
  320TMC3    C6 4862   2.797   4.161  15.814 -0.1469 -0.9102 -0.2858
  320TMC3     C 4863   3.162   4.089  16.016  0.6570 -0.3437 -0.1737
  320TMC3     O 4864   3.152   4.026  16.122 -0.1626  0.7369 -0.0214
  320TMC3     H 4865   3.104   4.297  15.864 -0.7684  0.6462 -1.0004
  320TMC3    H1 4866   2.941   3.946  16.035  0.2390  0.7818  1.4537
  320TMC3    H2 4867   2.700   4.179  15.770 -0.0611 -1.2365 -0.6137
  320TMC3    C7 4868   2.703   3.988  15.953  0.1203 -0.1251  0.1390
  320TMC3    C8 4869   2.878   4.378  15.744  0.1307 -0.4908  0.5707
  320TMC3    O1 4870   2.719   3.885  16.018 -0.1067 -0.1897  0.8079
  320TMC3    O2 4871   2.927   4.466  15.808  0.6289 -0.2116  0.0280
  321TMC3    C1 4872   3.630   4.299  16.534 -0.0782  0.2475  0.1389
  321TMC3    C2 4873   3.533   4.225  16.599 -0.7678  0.3025  0.0935
  321TMC3    C3 4874   3.475   4.285  16.712 -0.0011  1.1816 -0.1755
  321TMC3    C4 4875   3.678   4.423  16.579 -0.7230  0.0660 -0.0126
  321TMC3    C5 4876   3.618   4.464  16.688 -0.0451 -0.4915 -0.5393
  321TMC3    C6 4877   3.515   4.411  16.754  0.3638  0.0906  0.5516
  321TMC3     C 4878   3.659   4.264  16.389  0.0097 -0.1101 -0.9448
  321TMC3     O 4879   3.757   4.317  16.338  0.6423  0.1411  0.1104
  321TMC3     H 4880   3.513   4.121  16.574  0.3966  0.7074 -2.5093
  321TMC3    H1 4881   3.759   4.479  16.533  2.1300 -1.9282  2.5199
  321TMC3    H2 4882   3.475   4.456  16.843 -0.3646  0.2082  0.1684
  321TMC3    C7 4883   3.716   4.499  16.789 -0.2803 -0.7611  0.1655
  321TMC3    C8 4884   3.460   4.199  16.825  0.0832  0.3028 -0.4758
  321TMC3    O1 4885   3.819   4.556  16.754  0.3292 -0.5600  0.1509
  321TMC3    O2 4886   3.471   4.259  16.932 -0.6908 -0.3480  0.0493
  322MPD2     C 4887   2.299   1.214  13.497  0.2794 -0.2737 -0.4001
  322MPD2    C1 4888   2.243   1.111  13.573 -0.4994 -0.1439  0.4576
  322MPD2    C2 4889   2.231   0.991  13.505 -0.0531  0.1670  0.0927
  322MPD2    C3 4890   2.287   0.968  13.378 -0.4185 -0.3370 -0.0477
  322MPD2    C4 4891   2.350   1.072  13.315  0.0779 -0.1783 -0.1423
  322MPD2    C5 4892   2.354   1.192  13.376  0.4579 -0.1968 -0.8889
  322MPD2     H 4893   2.182   0.902  13.542 -0.0765  0.5617  1.0019
  322MPD2    H1 4894   2.394   1.067  13.216  1.3534 -0.3811  0.4328
  322MPD2    H2 4895   2.300   1.310  13.546  0.0152 -0.0533 -0.8275
  322MPD2    H3 4896   2.402   1.279  13.333 -2.0135  0.7050 -1.8147
  322MPD2     N 4897   2.280   0.836  13.327 -0.2780  1.2883 -0.4723
  322MPD2    H5 4898   2.224   0.765  13.373  1.3007 -0.6379 -1.4670
  322MPD2    N1 4899   2.199   1.140  13.701  0.1786  0.5079  0.0967
  322MPD2    H7 4900   2.214   1.233  13.740  0.2104 -0.5599  2.6413
  323TMC3    C1 4901   2.088   1.111  13.911 -0.0833  0.7304  0.0719
  323TMC3    C2 4902   2.122   1.245  13.933 -0.6201 -0.3042  0.9504
  323TMC3    C3 4903   2.143   1.279  14.064 -0.0795  0.3334 -0.5389
  323TMC3    C4 4904   2.083   1.021  14.017  0.4111  0.0199 -0.1967
  323TMC3    C5 4905   2.119   1.060  14.143  0.1103 -0.8384 -0.0597
  323TMC3    C6 4906   2.158   1.190  14.165 -0.0790 -0.1095 -0.3597
  323TMC3     C 4907   2.132   1.056  13.784  0.9461  0.0842  0.3359
  323TMC3     O 4908   2.104   0.935  13.773 -0.0130 -0.4120 -0.7326
  323TMC3     H 4909   2.114   1.325  13.860 -3.8409 -1.1965  0.3482
  323TMC3    H1 4910   2.057   0.918  13.997 -0.4120  0.8002 -3.2281
  323TMC3    H2 4911   2.189   1.218  14.265 -1.3985  0.6491 -0.1690
  323TMC3    C7 4912   2.135   0.961  14.245 -0.3608 -0.1067 -0.4260
  323TMC3    C8 4913   2.227   1.400  14.082  0.1324 -0.6347 -0.3622
  323TMC3    O1 4914   2.117   0.843  14.219  0.2635  0.0511  0.3726
  323TMC3    O2 4915   2.323   1.384  14.154 -0.0763  0.1663 -1.5038
  324MPD2     C 4916   3.284   1.902  14.338  0.2646 -0.2062  0.6251
  324MPD2    C1 4917   3.262   2.041  14.313  0.1777  0.6308 -0.4838
  324MPD2    C2 4918   3.138   2.083  14.268 -0.5909  0.9427 -0.0534
  324MPD2    C3 4919   3.031   1.994  14.285 -0.0071  0.3464  0.3755
  324MPD2    C4 4920   3.048   1.866  14.326  0.3355 -0.9763 -0.6340
  324MPD2    C5 4921   3.177   1.817  14.354 -0.6844  0.0171 -0.0674
  324MPD2     H 4922   3.115   2.186  14.244 -0.9550  1.0409  0.7378
  324MPD2    H1 4923   2.961   1.803  14.340 -0.0030 -0.1586  0.9304
  324MPD2    H2 4924   3.383   1.864  14.360  1.5950  1.8380 -1.8509
  324MPD2    H3 4925   3.179   1.712  14.381  0.3241  0.2008  0.5637
  324MPD2     N 4926   2.894   2.035  14.275  0.4819  0.4184  0.7234
  324MPD2    H5 4927   2.819   1.978  14.313  0.9622 -0.2737  0.6189
  324MPD2    N1 4928   3.371   2.132  14.321 -0.1180 -0.0557  0.4911
  324MPD2    H7 4929   3.353   2.227  14.289 -0.2355 -0.8382 -1.6964
  325TMC3    C1 4930   2.707   2.171  14.226  0.4968 -0.3329 -0.1868
  325TMC3    C2 4931   2.639   2.227  14.120 -0.2433 -0.6537 -0.6339
  325TMC3    C3 4932   2.508   2.259  14.144 -0.0010 -0.4790 -0.3780
  325TMC3    C4 4933   2.645   2.130  14.346  0.0151  0.1571 -0.0266
  325TMC3    C5 4934   2.517   2.172  14.360 -0.5603 -0.3208  0.2052
  325TMC3    C6 4935   2.448   2.229  14.260  0.2091 -0.5445 -0.5146
  325TMC3     C 4936   2.850   2.146  14.204  0.6857  0.2313 -0.4381
  325TMC3     O 4937   2.911   2.223  14.132 -0.3091 -0.0832  0.2204
  325TMC3     H 4938   2.690   2.250  14.028 -1.2400  1.9065 -0.5415
  325TMC3    H1 4939   2.697   2.090  14.432  0.1350  0.1562 -0.0985
  325TMC3    H2 4940   2.340   2.225  14.263  0.1204  0.8038 -2.1070
  325TMC3    C7 4941   2.465   2.202  14.492  0.1100  0.3583 -0.3102
  325TMC3    C8 4942   2.437   2.266  14.017 -0.2838 -0.5474  0.4091
  325TMC3    O1 4943   2.502   2.127  14.580 -0.4572 -0.4227  0.2549
  325TMC3    O2 4944   2.490   2.211  13.923  0.0624 -0.4340  0.4314
  326MPD2     C 4945   4.271   3.434  10.770  0.5272 -0.1624  0.4452
  326MPD2    C1 4946   4.251   3.576  10.776  0.1907  0.0941 -0.6973
  326MPD2    C2 4947   4.179   3.633  10.880  0.9049  0.2599 -0.4606
  326MPD2    C3 4948   4.134   3.538  10.978  0.0100 -0.3547  0.0233
  326MPD2    C4 4949   4.147   3.400  10.963 -0.1914  0.0693  0.1564
  326MPD2    C5 4950   4.209   3.350  10.856  0.0564  0.1876 -0.4564
  326MPD2     H 4951   4.169   3.741  10.876  2.8047  0.5070  0.9876
  326MPD2    H1 4952   4.105   3.337  11.040 -0.0256 -0.1023  0.1080
  326MPD2    H2 4953   4.333   3.395  10.690  1.8798 -1.3100  2.0435
  326MPD2    H3 4954   4.224   3.243  10.859  2.0506  0.4899  1.0907
  326MPD2     N 4955   4.077   3.601  11.094 -1.0534 -0.3284  0.5343
  326MPD2    H5 4956   4.078   3.703  11.093 -1.2662 -0.3016  2.4882
  326MPD2    N1 4957   4.308   3.654  10.676 -0.1347 -0.1706  0.4681
  326MPD2    H7 4958   4.295   3.753  10.694 -2.9210 -1.0836  3.6443
  327TMC3    C1 4959   4.465   3.740  10.533  0.3320  0.8388  0.3921
  327TMC3    C2 4960   4.404   3.859  10.519  0.1228 -0.1468  0.3137
  327TMC3    C3 4961   4.477   3.970  10.486  0.1762  0.3931  0.3039
  327TMC3    C4 4962   4.600   3.728  10.522  0.2641  0.2849  0.0592
  327TMC3    C5 4963   4.675   3.839  10.487 -0.1277 -0.9028  0.1013
  327TMC3    C6 4964   4.616   3.960  10.467  0.3247 -0.6200  0.1238
  327TMC3     C 4965   4.396   3.623  10.577 -0.8620 -0.1902  0.5159
  327TMC3     O 4966   4.447   3.516  10.543  0.4120 -0.1084 -0.4843
  327TMC3     H 4967   4.296   3.851  10.523  0.1127 -0.9873 -1.5730
  327TMC3    H1 4968   4.645   3.630  10.533 -0.0435 -0.1387 -2.4491
  327TMC3    H2 4969   4.681   4.042  10.437  0.6157 -0.8194  0.2059
  327TMC3    C7 4970   0.083   3.837  10.523 -0.0898  0.2126  0.6399
  327TMC3    C8 4971   4.411   4.098  10.458  0.1842  0.1158  0.1943
  327TMC3    O1 4972   0.152   3.926  10.475 -0.1928  0.4231 -0.4247
  327TMC3    O2 4973   4.314   4.097  10.385 -0.4436  0.3767 -0.2992
  328MPD2     C 4974   1.632   2.130  17.402  0.0444  0.7658 -0.4726
  328MPD2    C1 4975   1.754   2.107  17.340  0.1109 -0.2060  0.5602
  328MPD2    C2 4976   1.766   2.128  17.202  0.0939  1.1096  0.1991
  328MPD2    C3 4977   1.653   2.136  17.125  0.2783 -0.1482 -0.4786
  328MPD2    C4 4978   1.534   2.145  17.190 -0.1426 -0.1613 -0.1953
  328MPD2    C5 4979   1.522   2.155  17.321 -0.3335 -0.2479 -0.4534
  328MPD2     H 4980   1.868   2.124  17.164  1.3590  1.1997  3.6291
  328MPD2    H1 4981   1.449   2.168  17.127 -0.2328 -0.1287 -0.0625
  328MPD2    H2 4982   1.612   2.130  17.509 -1.3213  0.2818 -0.7202
  328MPD2    H3 4983   1.425   2.168  17.367 -0.2495  1.2618 -0.7030
  328MPD2     N 4984   1.658   2.142  16.987  0.7093  0.0209  0.2122
  328MPD2    H5 4985   1.569   2.151  16.939  0.9428 -1.5492 -0.5391
  328MPD2    N1 4986   1.881   2.069  17.405 -0.1076 -0.2196  0.9769
  328MPD2    H7 4987   1.969   2.075  17.356 -0.8743  1.6204 -0.1876
  329TMC3    C1 4988   2.012   2.026  17.578 -0.4157 -0.3656 -0.9384
  329TMC3    C2 4989   2.096   2.127  17.538 -0.4021  0.6438  0.3076
  329TMC3    C3 4990   2.221   2.139  17.601  0.1174  0.3978  0.3732
  329TMC3    C4 4991   2.061   1.924  17.663  1.3403  0.0401 -0.2447
  329TMC3    C5 4992   2.189   1.940  17.714 -0.4084 -0.1842 -0.2168
  329TMC3    C6 4993   2.269   2.049  17.685 -0.0765  0.7153  0.7217
  329TMC3     C 4994   1.883   2.020  17.535 -0.3842  0.3100  0.0206
  329TMC3     O 4995   1.796   1.959  17.593  0.0435 -0.4116 -0.2803
  329TMC3     H 4996   2.060   2.214  17.484  0.6568  2.0422  1.8361
  329TMC3    H1 4997   2.006   1.832  17.679  2.5533 -0.8960 -1.5017
  329TMC3    H2 4998   2.345   2.075   0.017  0.0875  1.3275  0.3212
  329TMC3    C7 4999   2.246   1.846   0.071 -0.0270  0.4040 -0.7383
  329TMC3    C8 5000   2.278   2.273  17.626  0.6344  0.5231  0.0101
  329TMC3    O1 5001   2.162   1.774   0.119 -0.0900 -0.1486 -0.1098
  329TMC3    O2 5002   2.397   2.276  17.654  0.3030 -0.6489 -0.1771
  330TMC3    C1 5003   4.305   2.872   9.856 -0.3409 -0.3002 -0.1614
  330TMC3    C2 5004   4.181   2.820   9.834  0.4262 -0.7800 -0.1127
  330TMC3    C3 5005   4.173   2.684   9.857  0.1196  0.2219  0.0981
  330TMC3    C4 5006   4.408   2.803   9.913 -0.2701 -0.7943  0.5632
  330TMC3    C5 5007   4.397   2.668   9.926  0.4941  0.0842  0.3950
  330TMC3    C6 5008   4.275   2.609   9.898 -0.3326 -0.4649  0.0912
  330TMC3     C 5009   4.324   3.016   9.852 -0.0994  0.2991 -0.1046
  330TMC3     O 5010   4.438   3.057   9.877 -0.0901  0.3624 -0.1826
  330TMC3     H 5011   4.094   2.872   9.794  1.5930  2.5539  1.7063
  330TMC3    H1 5012   4.500   2.856   9.935  0.8328 -1.9126 -1.3695
  330TMC3    H2 5013   4.260   2.501   9.903  2.8379 -0.7358  3.5789
  330TMC3    C7 5014   4.495   2.595  10.000 -0.5391 -0.0363 -1.0702
  330TMC3    C8 5015   4.036   2.632   9.854  0.2116 -0.4068 -0.7393
  330TMC3    O1 5016   4.451   2.496  10.054  0.2505  0.4838 -0.5369
  330TMC3    O2 5017   3.947   2.715   9.829  0.1639 -0.0581  0.0175
  331MPD2     C 5018   2.802   1.847  12.525  0.2511  0.1011 -0.1668
  331MPD2    C1 5019   2.930   1.813  12.566 -0.5398  0.8441 -0.2957
  331MPD2    C2 5020   2.949   1.698  12.635  0.2836 -0.1432 -0.5249
  331MPD2    C3 5021   2.833   1.626  12.679  0.3696  0.6102 -0.5302
  331MPD2    C4 5022   2.712   1.673  12.644  0.2930  0.1388 -0.7866
  331MPD2    C5 5023   2.692   1.781  12.561 -0.0353 -0.4491  0.0166
  331MPD2     H 5024   3.049   1.664  12.658  1.3575  1.8530 -2.2113
  331MPD2    H1 5025   2.625   1.614  12.671  1.9782 -1.0544  2.0837
  331MPD2    H2 5026   2.786   1.933  12.460 -0.3934  1.6431  2.0203
  331MPD2    H3 5027   2.594   1.809  12.525 -0.1249 -0.0649  0.5673
  331MPD2     N 5028   2.857   1.491  12.733 -0.2384 -0.6057 -0.3756
  331MPD2    H5 5029   2.953   1.469  12.709 -0.0520 -1.7121  1.4270
  331MPD2    N1 5030   3.031   1.899  12.525  0.8895 -0.1225 -0.0345
  331MPD2    H7 5031   3.009   1.970  12.456  2.2896  1.5400  1.2171
  332TMC3    C1 5032   2.833   1.270  12.710  0.1221 -0.4012 -0.1126
  332TMC3    C2 5033   2.757   1.167  12.657 -0.2421  0.4413 -0.2344
  332TMC3    C3 5034   2.806   1.042  12.659 -0.3371 -0.0236  0.1128
  332TMC3    C4 5035   2.954   1.247  12.768 -0.5583  0.6375  0.5960
  332TMC3    C5 5036   2.984   1.117  12.796 -0.4874 -0.4388 -0.1944
  332TMC3    C6 5037   2.916   1.013  12.735 -0.9749  0.0398 -0.2286
  332TMC3     C 5038   2.764   1.395  12.742  0.0930 -0.2431 -0.2089
  332TMC3     O 5039   2.641   1.394  12.745 -0.7471  0.2757  0.5185
  332TMC3     H 5040   2.658   1.186  12.618  0.3518 -2.6517 -3.1991
  332TMC3    H1 5041   3.019   1.322  12.811 -1.4578  0.6388  1.9565
  332TMC3    H2 5042   2.949   0.910  12.726 -1.1943 -0.0628  0.1180
  332TMC3    C7 5043   3.125   1.094  12.832  0.5592 -0.3783 -0.3030
  332TMC3    C8 5044   2.783   0.963  12.531 -0.2216  0.2879  0.0942
  332TMC3    O1 5045   3.206   1.176  12.780 -0.3567 -0.2593 -0.4009
  332TMC3    O2 5046   2.806   0.842  12.537  0.1285  0.1003 -0.1433
  333MPD2     C 5047   2.961   1.344  10.817  0.3009  0.1308 -0.0250
  333MPD2    C1 5048   3.090   1.290  10.825 -0.1303 -0.1262 -0.1543
  333MPD2    C2 5049   3.107   1.170  10.900 -0.0459  0.8510  1.1183
  333MPD2    C3 5050   3.005   1.102  10.961 -0.3732  0.1802 -0.1682
  333MPD2    C4 5051   2.879   1.151  10.934 -0.4582 -0.0798 -0.1226
  333MPD2    C5 5052   2.859   1.275  10.877  0.1938 -0.5338 -0.4522
  333MPD2     H 5053   3.204   1.123  10.909 -0.1816  0.3817  0.1388
  333MPD2    H1 5054   2.784   1.113  10.970 -0.3494  0.6906  0.9634
  333MPD2    H2 5055   2.936   1.426  10.750  0.4953 -0.7294 -1.1557
  333MPD2    H3 5056   2.760   1.319  10.867  0.5068  0.6408  1.4272
  333MPD2     N 5057   3.026   0.986  11.035  0.3292  0.3356  0.7858
  333MPD2    H5 5058   3.119   0.946  11.039  0.5154  0.6978  0.0580
  333MPD2    N1 5059   3.193   1.364  10.758 -0.0279 -0.5491  0.9713
  333MPD2    H7 5060   3.168   1.445  10.703  2.0643 -1.2660 -1.0663
  334TMC3    C1 5061   3.417   1.403  10.689  0.4951  0.7332  0.1329
  334TMC3    C2 5062   3.534   1.348  10.637  0.6132 -0.2645  0.1412
  334TMC3    C3 5063   3.622   1.432  10.581 -0.5796  0.5915  0.3466
  334TMC3    C4 5064   3.390   1.536  10.683 -0.5438  0.7756 -0.4166
  334TMC3    C5 5065   3.480   1.621  10.628 -0.1733 -0.1517  0.1747
  334TMC3    C6 5066   3.594   1.565  10.571  0.1781  0.5609 -0.5339
  334TMC3     C 5067   3.326   1.319  10.756 -0.0362  0.0299  0.1773
  334TMC3     O 5068   3.380   1.232  10.828  0.0203 -0.0308  0.3253
  334TMC3     H 5069   3.550   1.242  10.654  1.5909 -0.0666  0.4180
  334TMC3    H1 5070   3.313   1.577  10.747  0.5728  1.1282  0.6948
  334TMC3    H2 5071   3.671   1.625  10.523  0.4893  1.1931  0.7538
  334TMC3    C7 5072   3.453   1.763  10.621 -0.6054 -0.6220 -0.6694
  334TMC3    C8 5073   3.749   1.394  10.538 -0.2956  0.9095 -0.2200
  334TMC3    O1 5074   3.540   1.835  10.572  0.2728  0.6049 -0.2965
  334TMC3    O2 5075   3.767   1.286  10.481  0.4491 -0.0742  0.5080
  335TMC3    C1 5076   3.240   2.460  17.064  0.4974  0.0676 -0.4781
  335TMC3    C2 5077   3.103   2.466  17.063 -0.0628  0.1066  0.2588
  335TMC3    C3 5078   3.040   2.584  17.025 -0.2321  0.2538  0.0972
  335TMC3    C4 5079   3.317   2.568  17.036  0.0105 -1.2623 -0.4343
  335TMC3    C5 5080   3.253   2.683  16.992  0.3078 -0.1358  1.1788
  335TMC3    C6 5081   3.115   2.699  16.998 -0.2524  0.5697 -0.5129
  335TMC3     C 5082   3.302   2.340  17.107  0.0322 -0.3444 -0.8942
  335TMC3     O 5083   3.413   2.317  17.063 -0.2199 -0.7159 -0.2264
  335TMC3     H 5084   3.031   2.387  17.084  0.1021  0.6272  2.6996
  335TMC3    H1 5085   3.424   2.548  17.038  0.2856  0.2639 -0.2503
  335TMC3    H2 5086   3.061   2.782  16.955 -1.3698 -0.6335 -1.4511
  335TMC3    C7 5087   3.333   2.797  16.945 -0.0848  0.1251 -0.2615
  335TMC3    C8 5088   2.895   2.585  17.016 -0.2354  0.1744  0.3847
  335TMC3    O1 5089   3.451   2.777  16.920 -0.3616  0.9544  0.0489
  335TMC3    O2 5090   2.837   2.681  17.061  0.0628  0.2529  0.4432
  336MPD2     C 5091   3.001   0.570  16.116 -0.0826  0.4194 -0.2184
  336MPD2    C1 5092   2.975   0.534  15.986  0.0262 -0.7257 -0.4601
  336MPD2    C2 5093   2.990   0.400  15.950  0.6973  0.1088 -0.1982
  336MPD2    C3 5094   3.036   0.303  16.044 -0.2022 -0.5277 -0.2125
  336MPD2    C4 5095   3.049   0.344  16.174 -0.0511  0.2451 -0.0218
  336MPD2    C5 5096   3.028   0.472  16.209  0.3378  0.6672 -0.1965
  336MPD2     H 5097   2.945   0.374  15.855  1.9298 -0.4685 -0.6244
  336MPD2    H1 5098   3.072   0.276  16.255 -0.4746  0.2552  0.1041
  336MPD2    H2 5099   2.996   0.673  16.149  1.3782  1.2609 -2.5835
  336MPD2    H3 5100   3.040   0.500  16.313  0.2164 -2.4477  0.6563
  336MPD2     N 5101   3.057   0.167  16.017 -0.2725  0.3883  0.2575
  336MPD2    H5 5102   3.083   0.102  16.090 -2.4780  1.6865  2.1857
  336MPD2    N1 5103   2.931   0.632  15.894 -0.4493 -0.0819  0.8382
  336MPD2    H7 5104   2.930   0.730  15.923  0.6151  0.4523 -0.9574
  337TMC3    C1 5105   2.864   0.744  15.721 -0.5663 -0.0036  0.4533
  337TMC3    C2 5106   2.737   0.782  15.689  0.1839  0.1013  0.3861
  337TMC3    C3 5107   2.705   0.911  15.720  0.4379 -0.0988 -0.6693
  337TMC3    C4 5108   2.966   0.833  15.771 -0.4522 -0.0876  0.3980
  337TMC3    C5 5109   2.929   0.961  15.787  0.3917 -0.3248 -0.8685
  337TMC3    C6 5110   2.802   1.001  15.761  0.6440  0.4311 -0.5167
  337TMC3     C 5111   2.865   0.611  15.775  0.4651  0.4293  0.4535
  337TMC3     O 5112   2.837   0.510  15.709  0.3546 -0.4019  0.1653
  337TMC3     H 5113   2.665   0.707  15.655 -0.4044  0.0143  1.8275
  337TMC3    H1 5114   3.066   0.794  15.782  0.3324  1.8709  0.1975
  337TMC3    H2 5115   2.774   1.106  15.761 -2.0279 -0.2895 -1.7697
  337TMC3    C7 5116   3.025   1.054  15.853 -0.4501  0.2132  1.1175
  337TMC3    C8 5117   2.567   0.955  15.732  0.2415  0.0466  0.7813
  337TMC3    O1 5118   2.978   1.155  15.901  0.4100  0.2004  0.3884
  337TMC3    O2 5119   2.542   0.978  15.847 -0.0779 -0.5851 -0.1184
  338MPD2     C 5120   3.230   0.056   0.850 -0.1761  0.5054  0.3464
  338MPD2    C1 5121   3.134   0.042   0.745  0.4663  0.1970 -0.2928
  338MPD2    C2 5122   3.034   0.138   0.735  0.3784 -0.1916  0.7265
  338MPD2    C3 5123   3.023   0.241   0.824  0.5672 -0.5380  0.8800
  338MPD2    C4 5124   3.121   0.252   0.922 -0.4603 -0.0254  0.5058
  338MPD2    C5 5125   3.222   0.158   0.933 -0.9609  0.4220 -0.2069
  338MPD2     H 5126   2.963   0.116   0.655 -1.8791  0.4013  2.5721
  338MPD2    H1 5127   3.118   0.324   1.002  1.0723  0.9408 -0.3163
  338MPD2    H2 5128   3.315   4.725   0.860  1.6838  2.7630 -0.5182
  338MPD2    H3 5129   3.301   0.168   1.006 -0.4796  1.1824 -0.8393
  338MPD2     N 5130   2.907   0.321   0.815  0.2043  0.0652  0.5996
  338MPD2    H5 5131   2.844   0.301   0.738 -0.9400  1.5189  1.1512
  338MPD2    N1 5132   3.135   4.670   0.656 -0.2862  0.5987 -0.6463
  338MPD2    H7 5133   3.060   4.666   0.588 -3.0549  0.7674  2.4017
  339TMC3    C1 5134   2.736   0.472   0.875  0.7428 -0.7706 -0.5205
  339TMC3    C2 5135   2.650   0.475   0.987 -0.0301 -0.3176 -0.3126
  339TMC3    C3 5136   2.515   0.468   0.972 -1.0204  0.0104 -0.3789
  339TMC3    C4 5137   2.686   0.457   0.750 -0.0364  0.2498 -0.0123
  339TMC3    C5 5138   2.553   0.442   0.740 -0.2739  0.4599 -0.0680
  339TMC3    C6 5139   2.468   0.436   0.849  0.0796  0.0464  0.1005
  339TMC3     C 5140   2.858   0.409   0.910  0.0399 -0.1833 -0.3838
  339TMC3     O 5141   2.906   0.434   1.023 -0.5054  0.6631  0.0669
  339TMC3     H 5142   2.698   0.474   1.084 -0.5105 -0.4977 -0.0795
  339TMC3    H1 5143   2.747   0.460   0.661  0.5860 -2.1682  0.3314
  339TMC3    H2 5144   2.364   0.436   0.819  0.0689 -0.1771  0.1415
  339TMC3    C7 5145   2.520   0.381   0.615 -0.0717  0.6151 -0.4137
  339TMC3    C8 5146   2.436   0.434   1.091  0.4450 -0.1598 -0.3032
  339TMC3    O1 5147   2.567   0.426   0.510 -0.1759  0.3675 -0.0364
  339TMC3    O2 5148   2.449   0.498   1.195  0.3565 -0.1673  0.4312
  340MPD2     C 5149   2.125   2.845  10.867  0.2316  0.8288 -1.0270
  340MPD2    C1 5150   2.236   2.883  10.793  0.5266  1.0030  0.0692
  340MPD2    C2 5151   2.331   2.969  10.861 -0.0366 -0.2391  0.2918
  340MPD2    C3 5152   2.298   3.021  10.986  0.3555  0.7591  0.0100
  340MPD2    C4 5153   2.188   2.977  11.054  0.0242  0.5796 -0.1797
  340MPD2    C5 5154   2.113   2.883  11.000 -0.5472 -0.0411 -0.1487
  340MPD2     H 5155   2.421   3.001  10.809 -0.3989  0.1577 -0.0912
  340MPD2    H1 5156   2.143   3.010  11.146  0.1097  0.1665  0.0137
  340MPD2    H2 5157   2.040   2.794  10.822  0.6276  0.2913 -1.1605
  340MPD2    H3 5158   2.020   2.860  11.051  0.8457  0.9968  2.8803
  340MPD2     N 5159   2.362   3.137  11.049  0.0899  0.3340 -0.6549
  340MPD2    H5 5160   2.319   3.181  11.130  2.3849  2.1422 -0.4124
  340MPD2    N1 5161   2.242   2.853  10.654 -0.3994  0.2928  0.1988
  340MPD2    H7 5162   2.158   2.816  10.612 -1.0679  0.4119  1.4458
  341TMC3    C1 5163   2.318   2.861  10.428 -0.5975 -0.1878  0.2042
  341TMC3    C2 5164   2.208   2.788  10.384  0.1254 -0.3512  0.4863
  341TMC3    C3 5165   2.156   2.812  10.258 -0.6030  0.3499 -0.4629
  341TMC3    C4 5166   2.383   2.943  10.333  0.2083 -0.0848  0.3053
  341TMC3    C5 5167   2.339   2.947  10.203 -0.1771 -0.3595  0.2894
  341TMC3    C6 5168   2.217   2.892  10.171 -0.3292  0.2339 -0.5311
  341TMC3     C 5169   2.334   2.910  10.560  0.2943 -0.2138 -0.3084
  341TMC3     O 5170   2.434   2.980  10.578 -1.1406 -0.1719  0.3207
  341TMC3     H 5171   2.158   2.727  10.458 -1.1396 -1.2267 -1.1015
  341TMC3    H1 5172   2.469   3.007  10.353  0.7345 -1.0175  1.0264
  341TMC3    H2 5173   2.196   2.883  10.065 -0.5312  3.3750 -0.7596
  341TMC3    C7 5174   2.422   3.035  10.119 -0.0370  0.7167  0.4936
  341TMC3    C8 5175   2.090   2.690  10.208  0.3767  0.3738 -0.1405
  341TMC3    O1 5176   2.539   3.050  10.151  0.4578 -0.2416  0.9302
  341TMC3    O2 5177   2.126   2.583  10.254  0.2849  0.5881  0.1801
  342MPD2     C 5178   0.830   0.506  17.061  0.8587 -0.1554 -0.5727
  342MPD2    C1 5179   0.953   0.558  17.042  0.3913  0.5468 -0.6927
  342MPD2    C2 5180   0.980   0.691  17.077 -0.1822  0.0128  0.2986
  342MPD2    C3 5181   0.878   0.768  17.124  0.1294  0.4541  0.2113
  342MPD2    C4 5182   0.748   0.718  17.131 -0.2419 -0.0880  0.0644
  342MPD2    C5 5183   0.731   0.586  17.111  0.3738  0.4680 -0.7148
  342MPD2     H 5184   1.075   0.739  17.055 -0.3509  0.0208 -0.4262
  342MPD2    H1 5185   0.669   0.782  17.168 -0.1450 -0.0048  0.1272
  342MPD2    H2 5186   0.824   0.401  17.036 -1.8716 -0.6421  2.1802
  342MPD2    H3 5187   0.630   0.547  17.120  0.3537  1.1956  2.1464
  342MPD2     N 5188   0.904   0.907  17.167 -0.3402  0.2343 -0.0431
  342MPD2    H5 5189   0.825   0.964  17.194 -1.5450 -0.4309 -2.1723
  342MPD2    N1 5190   1.059   0.471  16.999  0.4911  0.3924 -0.4894
  342MPD2    H7 5191   1.039   0.372  16.990  1.2084  0.2277 -0.2551
  343TMC3    C1 5192   1.270   0.393  16.941 -0.3246 -0.1035  0.7427
  343TMC3    C2 5193   1.381   0.419  16.875 -0.5765 -0.1164 -0.4036
  343TMC3    C3 5194   1.471   0.306  16.857  0.7079 -0.6029 -0.1681
  343TMC3    C4 5195   1.234   0.268  16.981  0.0995  0.5934 -0.1150
  343TMC3    C5 5196   1.325   0.164  16.975 -0.1544  0.7089 -0.3065
  343TMC3    C6 5197   1.439   0.177  16.899 -0.0848  0.1115  0.9314
  343TMC3     C 5198   1.176   0.507  16.944  0.7666  0.3335  0.8863
  343TMC3     O 5199   1.218   0.620  16.927 -0.6041 -0.4760  0.4668
  343TMC3     H 5200   1.413   0.521  16.856  0.3183 -0.7607 -2.3286
  343TMC3    H1 5201   1.155   0.253  17.053  1.8502 -0.7535  1.5200
  343TMC3    H2 5202   1.513   0.099  16.884 -1.1594 -1.0294  1.5601
  343TMC3    C7 5203   1.290   0.041  17.036  0.1783 -0.5720  0.6743
  343TMC3    C8 5204   1.612   0.327  16.822  0.2775 -0.8122 -0.8030
  343TMC3    O1 5205   1.171   0.028  17.075 -0.7082  0.2604 -0.5071
  343TMC3    O2 5206   1.659   0.436  16.850 -0.3368 -0.7436 -0.8886
  344MPD2     C 5207   1.909   0.363  11.157 -0.0444  0.0411  0.1260
  344MPD2    C1 5208   1.787   0.370  11.091  0.4781  0.2278  0.0142
  344MPD2    C2 5209   1.761   0.462  10.997 -0.5977  0.3499  0.0645
  344MPD2    C3 5210   1.865   0.550  10.960  0.4727  0.0138 -0.7265
  344MPD2    C4 5211   1.981   0.545  11.032  0.0386  0.0874 -0.3794
  344MPD2    C5 5212   2.009   0.450  11.124 -0.0702 -0.7088 -0.1436
  344MPD2     H 5213   1.667   0.473  10.943 -0.2027 -0.1251 -0.7313
  344MPD2    H1 5214   2.056   0.621  11.015  2.3479 -2.1775 -0.3115
  344MPD2    H2 5215   1.931   0.275  11.216  2.6596  1.1404  0.7578
  344MPD2    H3 5216   2.101   0.439  11.180 -0.0290  0.8297  0.0856
  344MPD2     N 5217   1.846   0.661  10.873  0.7395  0.2960 -1.0904
  344MPD2    H5 5218   1.914   0.735  10.863 -0.4102  1.3861 -0.9076
  344MPD2    N1 5219   1.684   0.274  11.115 -0.3832  0.3739 -0.0189
  344MPD2    H7 5220   1.597   0.278  11.062  0.4203  0.0583 -1.3614
  345TMC3    C1 5221   1.737   0.819  10.716  0.5772 -0.0455  0.4845
  345TMC3    C2 5222   1.806   0.930  10.762  1.2011  1.0496  0.0283
  345TMC3    C3 5223   1.786   1.044  10.689 -0.4949  0.7099 -0.1425
  345TMC3    C4 5224   1.651   0.822  10.609  0.7264  0.5592 -0.6715
  345TMC3    C5 5225   1.636   0.932  10.536  0.1006 -0.2002 -0.2020
  345TMC3    C6 5226   1.703   1.047  10.578 -0.5357 -0.2578  0.1492
  345TMC3     C 5227   1.732   0.699  10.801  0.1562  1.0798  0.3398
  345TMC3     O 5228   1.627   0.637  10.785 -0.0329 -0.2890  0.1765
  345TMC3     H 5229   1.861   0.925  10.855 -0.1966  0.4432  0.8243
  345TMC3    H1 5230   1.613   0.726  10.577  0.4246  1.2658 -2.4269
  345TMC3    H2 5231   1.701   1.134  10.513 -0.0983 -1.8848 -2.0611
  345TMC3    C7 5232   1.531   0.954  10.446 -0.0443  0.7462 -0.4403
  345TMC3    C8 5233   1.823   1.172  10.753  0.2629 -0.2071  0.0782
  345TMC3    O1 5234   1.514   1.075  10.434  0.0703  0.3327 -0.3462
  345TMC3    O2 5235   1.907   1.159  10.844 -0.1901  0.3998  0.7118
  346MPD2     C 5236   1.684   2.460  13.685 -0.5138  0.3067  0.6322
  346MPD2    C1 5237   1.800   2.514  13.747  0.3026 -0.0958  0.5264
  346MPD2    C2 5238   1.785   2.561  13.873  1.0712 -0.2762  0.1659
  346MPD2    C3 5239   1.668   2.544  13.941  0.0320 -0.4740  0.1482
  346MPD2    C4 5240   1.557   2.488  13.882  0.2403 -0.1369 -0.4255
  346MPD2    C5 5241   1.562   2.445  13.751 -0.3361  0.0837 -0.2368
  346MPD2     H 5242   1.876   2.572  13.931 -1.0652  0.9564  3.2862
  346MPD2    H1 5243   1.470   2.466  13.943  1.7274  0.6209  2.0083
  346MPD2    H2 5244   1.689   2.406  13.591 -1.6311 -0.1241  0.8144
  346MPD2    H3 5245   1.481   2.398  13.697 -2.8084  2.3601  1.4893
  346MPD2     N 5246   1.679   2.566  14.083 -0.6648  0.3167  0.3275
  346MPD2    H5 5247   1.770   2.600  14.111  0.6489 -2.9083 -0.0462
  346MPD2    N1 5248   1.930   2.513  13.698 -0.5212  0.5622 -0.5219
  346MPD2    H7 5249   2.002   2.564  13.748  0.2091 -0.1223 -0.8780
  347TMC3    C1 5250   1.640   2.593  14.307  0.3569  0.1792 -0.0763
  347TMC3    C2 5251   1.771   2.588  14.319  0.5506 -0.2726  0.2527
  347TMC3    C3 5252   1.817   2.623  14.448 -0.3978 -0.3110  0.1252
  347TMC3    C4 5253   1.551   2.625  14.411 -0.2230  0.0470  0.6204
  347TMC3    C5 5254   1.604   2.643  14.539 -0.7659  0.1941  0.1604
  347TMC3    C6 5255   1.738   2.659  14.552  1.5139  0.3917 -0.3252
  347TMC3     C 5256   1.584   2.556  14.180 -0.2097  0.6228 -0.3673
  347TMC3     O 5257   1.467   2.521  14.169 -0.1904 -1.1686 -0.4393
  347TMC3     H 5258   1.851   2.560  14.251  1.5377  4.2920 -0.4967
  347TMC3    H1 5259   1.443   2.623  14.400 -0.0299 -1.1393 -0.9877
  347TMC3    H2 5260   1.773   2.672  14.654  1.9656  1.3360 -0.5988
  347TMC3    C7 5261   1.516   2.628  14.655 -0.5255  0.6950 -0.0986
  347TMC3    C8 5262   1.952   2.593  14.478  0.1047  0.6019  0.3471
  347TMC3    O1 5263   1.574   2.646  14.758  0.3492  0.3656  0.1013
  347TMC3    O2 5264   2.030   2.594  14.384 -1.2254 -0.4583 -0.1546
  348MPD2     C 5265   1.212   2.102  11.833 -0.6400  0.2204 -0.3828
  348MPD2    C1 5266   1.102   2.061  11.766 -0.2299  0.7587  0.0379
  348MPD2    C2 5267   1.064   2.126  11.655 -0.4533 -0.7314 -0.3150
  348MPD2    C3 5268   1.135   2.226  11.601  0.0675 -0.0092 -0.5645
  348MPD2    C4 5269   1.255   2.259  11.660  0.4798 -0.3247 -0.8699
  348MPD2    C5 5270   1.296   2.199  11.775  0.2094  0.5876 -0.2156
  348MPD2     H 5271   0.983   2.082  11.597 -0.9319 -0.4043  0.1036
  348MPD2    H1 5272   1.334   2.326  11.630 -0.2882  0.0014 -2.1745
  348MPD2    H2 5273   1.260   2.047  11.914 -0.9283  0.3240 -0.1397
  348MPD2    H3 5274   1.393   2.223  11.816  1.3868 -1.1009 -2.0301
  348MPD2     N 5275   1.078   2.286  11.484  0.3015 -0.2609 -0.1734
  348MPD2    H5 5276   0.989   2.254  11.450 -0.2256 -0.2337  1.1598
  348MPD2    N1 5277   1.009   1.958  11.801  0.4492  0.2489 -0.6159
  348MPD2    H7 5278   0.937   1.929  11.735  0.1094 -1.1333  0.3650
  349TMC3    C1 5279   0.886   1.823  11.944  0.0696 -0.4836 -0.0773
  349TMC3    C2 5280   0.890   1.718  12.031 -0.0318  0.2165 -0.1041
  349TMC3    C3 5281   0.796   1.612  12.022 -0.1045 -0.0285 -0.7155
  349TMC3    C4 5282   0.784   1.840  11.854  0.7894 -0.2915 -0.6396
  349TMC3    C5 5283   0.682   1.744  11.863  0.3711  0.7454 -0.3093
  349TMC3    C6 5284   0.691   1.624  11.941 -0.8332 -0.6406  0.0043
  349TMC3     C 5285   1.014   1.889  11.916 -0.1971 -0.3776 -0.0053
  349TMC3     O 5286   1.096   1.901  12.008  0.3092  0.2604  0.7388
  349TMC3     H 5287   0.982   1.705  12.086  0.1872  0.5853 -0.3840
  349TMC3    H1 5288   0.768   1.926  11.790  0.2759  1.3553  1.7190
  349TMC3    H2 5289   0.604   1.560  11.947 -2.1474  1.0692 -1.0206
  349TMC3    C7 5290   0.571   1.748  11.767 -0.0555  0.0859  0.2770
  349TMC3    C8 5291   0.810   1.506  12.123  0.1795 -0.1433  1.0516
  349TMC3    O1 5292   0.461   1.722  11.809  0.3653  0.2335  0.6059
  349TMC3    O2 5293   0.905   1.532  12.200  0.3407 -0.2226  0.6917
  350MPD2     C 5294   4.591   0.719  10.435 -0.1767  0.1004  0.6878
  350MPD2    C1 5295   4.513   0.607  10.448 -0.4180  0.5011 -0.3891
  350MPD2    C2 5296   4.534   0.533  10.560  0.6964 -0.1210 -1.1604
  350MPD2    C3 5297   4.630   0.562  10.654 -0.3527 -0.4693 -0.0033
  350MPD2    C4 5298   4.701   0.683  10.647 -0.0991  0.6524 -0.1561
  350MPD2    C5 5299   4.670   0.763  10.534 -0.3432  1.6533  0.1847
  350MPD2     H 5300   4.471   0.447  10.580 -1.6853  1.5994 -1.2396
  350MPD2    H1 5301   0.043   0.715  10.716 -0.0350  0.0531  0.0475
  350MPD2    H2 5302   4.580   0.781  10.347 -1.2735 -0.3422  0.5123
  350MPD2    H3 5303   4.711   0.862  10.523 -2.2733  2.4075 -0.1579
  350MPD2     N 5304   4.633   0.479  10.774 -0.2227 -0.0345 -0.0384
  350MPD2    H5 5305   4.579   0.393  10.770  0.3275 -0.4413  1.2686
  350MPD2    N1 5306   4.398   0.577  10.370  0.4877  0.2817 -0.7179
  350MPD2    H7 5307   4.362   0.482  10.371  2.6509 -0.5319  0.7460
  351TMC3    C1 5308   4.236   0.615  10.205  0.0709  0.3228  0.6389
  351TMC3    C2 5309   4.238   0.484  10.169  0.0160  0.3665  0.2514
  351TMC3    C3 5310   4.137   0.441  10.076  0.0562 -1.2218 -0.7193
  351TMC3    C4 5311   4.157   0.705  10.139 -0.1388 -0.4848 -0.6944
  351TMC3    C5 5312   4.059   0.662  10.056 -0.2166  0.5313 -0.0558
  351TMC3    C6 5313   4.047   0.529  10.015 -1.2858 -0.2197 -0.0721
  351TMC3     C 5314   4.344   0.670  10.281  0.0879  0.5698 -0.1499
  351TMC3     O 5315   4.365   0.792  10.269 -0.0739  0.1104 -0.3422
  351TMC3     H 5316   4.326   0.424  10.187 -1.9318 -2.7649 -0.5621
  351TMC3    H1 5317   4.158   0.809  10.168 -3.2621 -0.6289 -0.0549
  351TMC3    H2 5318   3.984   0.493   9.935 -0.0533  1.7651 -1.9565
  351TMC3    C7 5319   3.961   0.761  10.010 -0.2274  0.3162 -0.2232
  351TMC3    C8 5320   4.139   0.306  10.026 -0.0670 -0.3805 -0.3109
  351TMC3    O1 5321   3.991   0.880  10.036  0.0046 -0.4568  0.2366
  351TMC3    O2 5322   4.063   0.278   9.932 -0.0790  0.8223 -0.1311
  352MPD2     C 5323   2.063   1.792   1.193  0.2496 -0.1047  0.3227
  352MPD2    C1 5324   2.108   1.825   1.066 -0.2310  0.1881  0.4459
  352MPD2    C2 5325   2.242   1.796   1.037 -0.7817  0.8784  0.3990
  352MPD2    C3 5326   2.318   1.708   1.117  0.5821 -0.3876 -0.0462
  352MPD2    C4 5327   2.268   1.678   1.244  0.3313  0.3738 -0.2722
  352MPD2    C5 5328   2.150   1.727   1.281 -0.2711 -0.2773 -0.3083
  352MPD2     H 5329   2.281   1.833   0.943 -0.8875  0.5613  0.2282
  352MPD2    H1 5330   2.319   1.612   1.313  0.5062 -0.0654 -0.8155
  352MPD2    H2 5331   1.965   1.818   1.232 -0.0392 -0.5544 -0.1141
  352MPD2    H3 5332   2.114   1.719   1.383 -0.3650  2.5691 -0.1207
  352MPD2     N 5333   2.440   1.648   1.075 -0.0300 -0.2184  0.2978
  352MPD2    H5 5334   2.463   1.564   1.127  0.4832 -0.4313 -0.2628
  352MPD2    N1 5335   2.017   1.890   0.982 -0.0905  0.2295 -0.4709
  352MPD2    H7 5336   1.920   1.902   1.011  0.4220  1.5346  0.7269
  353TMC3    C1 5337   2.588   1.554   0.913 -0.1019 -0.1477  0.0772
  353TMC3    C2 5338   2.661   1.482   1.009 -0.1031 -0.4132  0.6688
  353TMC3    C3 5339   2.730   1.368   0.972 -0.2927  0.4190  0.3589
  353TMC3    C4 5340   2.566   1.495   0.790 -0.2932  0.0422 -0.0581
  353TMC3    C5 5341   2.617   1.364   0.765  0.2966  1.1066 -0.8019
  353TMC3    C6 5342   2.715   1.308   0.844  0.7964  0.7434 -0.7743
  353TMC3     C 5343   2.502   1.667   0.949 -0.0305 -0.0892  0.1169
  353TMC3     O 5344   2.479   1.750   0.862  0.3174 -0.1826 -0.0790
  353TMC3     H 5345   2.674   1.514   1.111 -0.6092  1.9232 -0.0127
  353TMC3    H1 5346   2.494   1.540   0.723  1.4175  1.2399 -1.0984
  353TMC3    H2 5347   2.753   1.211   0.816  2.5195  1.2206 -0.1277
  353TMC3    C7 5348   2.604   1.313   0.632 -0.3265 -0.1822  0.5556
  353TMC3    C8 5349   2.820   1.300   1.068 -0.3624  0.5299  0.7917
  353TMC3    O1 5350   2.488   1.289   0.595  0.5516 -0.1851  0.4019
  353TMC3    O2 5351   2.826   1.349   1.180 -0.1850 -0.6460 -0.2213
  354TMC3    C1 5352   0.273   2.927  13.517 -0.1271 -0.0649 -0.0505
  354TMC3    C2 5353   0.232   3.055  13.502  0.0006 -0.0305  0.3106
  354TMC3    C3 5354   0.276   3.122  13.390  0.1958 -0.7483 -0.7097
  354TMC3    C4 5355   0.345   2.863  13.422 -0.3620  0.1052 -0.0418
  354TMC3    C5 5356   0.375   2.929  13.307  0.3147  1.0047 -0.5359
  354TMC3    C6 5357   0.349   3.060  13.291  0.4370  0.2975  1.0681
  354TMC3     C 5358   0.234   2.849  13.638  0.0899  0.3695 -0.2660
  354TMC3     O 5359   0.150   2.901  13.709 -0.0822 -0.1139  0.0633
  354TMC3     H 5360   0.190   3.108  13.587  0.2999  0.7885 -0.0608
  354TMC3    H1 5361   0.362   2.756  13.428  0.2989  0.2681  0.9627
  354TMC3    H2 5362   0.386   3.117  13.207  1.9825 -0.8713  0.9598
  354TMC3    C7 5363   0.464   2.862  13.216 -0.3518  0.0952 -0.1593
  354TMC3    C8 5364   0.249   3.257  13.373 -0.5284  0.2227  0.6016
  354TMC3    O1 5365   0.495   2.743  13.236  0.0584  0.6647 -0.1406
  354TMC3    O2 5366   0.134   3.301  13.396  0.1192 -0.3259  0.2538
  355MPD2     C 5367   0.118   3.775  12.516 -0.2032  0.1651 -0.7279
  355MPD2    C1 5368   0.159   3.895  12.462  0.0614 -0.0922  0.1353
  355MPD2    C2 5369   0.278   3.948  12.490 -0.2889  0.2153  0.0643
  355MPD2    C3 5370   0.368   3.876  12.562  0.1601 -0.5866  0.3550
  355MPD2    C4 5371   0.335   3.747  12.605  0.4945 -0.0016 -0.2531
  355MPD2    C5 5372   0.207   3.698  12.587 -0.6122  0.1210 -0.1352
  355MPD2     H 5373   0.303   4.050  12.464 -1.1287  0.3961 -0.0398
  355MPD2    H1 5374   0.409   3.691  12.661  0.3454 -2.3959 -2.4489
  355MPD2    H2 5375   0.026   3.729  12.482 -0.4810 -0.4904  0.8910
  355MPD2    H3 5376   0.175   3.606  12.633  0.3633 -0.7031 -1.1028
  355MPD2     N 5377   0.497   3.926  12.572 -0.0796 -0.0650 -0.0016
  355MPD2    H5 5378   0.510   4.014  12.524  0.5412  0.4979  1.1854
  355MPD2    N1 5379   0.063   3.963  12.383  0.2658  0.3373  0.1672
  355MPD2    H7 5380   4.708   3.918  12.376  0.3536  0.1931 -0.0678
  356TMC3    C1 5381   0.730   3.951  12.618  0.0357 -0.0233  0.5436
  356TMC3    C2 5382   0.736   4.052  12.519  0.7467 -0.8294  0.3525
  356TMC3    C3 5383   0.845   4.131  12.528  0.0735  0.1657  0.2060
  356TMC3    C4 5384   0.825   3.933  12.716  0.2605 -0.3790  0.8217
  356TMC3    C5 5385   0.928   4.020  12.708  0.4496 -0.4894 -0.1355
  356TMC3    C6 5386   0.945   4.118  12.621  0.0320 -0.3602 -0.2758
  356TMC3     C 5387   0.606   3.874  12.643 -0.3172 -0.1333 -0.8243
  356TMC3     O 5388   0.602   3.784  12.726 -0.5144 -0.4010  0.2489
  356TMC3     H 5389   0.658   4.079  12.449  1.7979 -1.6566 -1.1142
  356TMC3    H1 5390   0.804   3.882  12.809  1.0864 -2.4483 -0.1507
  356TMC3    H2 5391   1.036   4.177  12.611 -0.3727  0.5032  1.1320
  356TMC3    C7 5392   1.021   4.002  12.817  0.3897 -0.1369 -0.1205
  356TMC3    C8 5393   0.861   4.245  12.439  0.6782  0.6248  0.4033
  356TMC3    O1 5394   1.025   3.892  12.865  0.1723  0.5936  0.1326
  356TMC3    O2 5395   0.917   4.344  12.486 -0.1322 -0.3826 -0.5871
  357MPD2     C 5396   0.048   3.643  17.618  0.1536 -0.2358 -0.0317
  357MPD2    C1 5397   0.005   3.611   0.004  0.2614  1.2173  0.1819
  357MPD2    C2 5398   4.638   3.686   0.066 -0.4198  0.1459  0.3985
  357MPD2    C3 5399   4.566   3.782  17.736 -0.3293 -0.3939 -0.3069
  357MPD2    C4 5400   4.617   3.813  17.614  0.6024  0.2945 -0.3211
  357MPD2    C5 5401   4.716   3.743  17.555 -0.4733  0.5292 -0.2690
  357MPD2     H 5402   4.600   3.656   0.163 -0.9611  0.7584  0.3823
  357MPD2    H1 5403   4.568   3.892  17.557  0.2212 -0.3930 -0.9492
  357MPD2    H2 5404   0.116   3.586  17.555  1.0181  0.5763  0.1686
  357MPD2    H3 5405   0.007   3.785  17.459  0.0446 -0.7526 -0.6824
  357MPD2     N 5406   4.456   3.852   0.052 -0.1304 -0.0427 -0.3988
  357MPD2    H5 5407   4.409   3.907  17.720  1.4173  0.1407 -1.2661
  357MPD2    N1 5408   0.059   3.495   0.059  0.5849  0.5874 -0.5001
  357MPD2    H7 5409   0.103   3.435  17.730 -1.7793  0.6847 -2.0702
  358TMC3    C1 5410   0.105   3.322   0.208 -0.0433  0.0758 -0.5826
  358TMC3    C2 5411   0.119   3.229   0.107 -0.5369 -0.3930 -0.4163
  358TMC3    C3 5412   0.155   3.104   0.137  0.0120  0.2002 -0.1516
  358TMC3    C4 5413   0.125   3.289   0.339 -0.0155 -0.5493 -0.8450
  358TMC3    C5 5414   0.145   3.156   0.360  0.2053  0.6266 -0.2077
  358TMC3    C6 5415   0.154   3.061   0.262  0.5961  0.0649  0.5093
  358TMC3     C 5416   0.039   3.449   0.185 -0.5835  0.8509  0.3329
  358TMC3     O 5417   4.721   3.504   0.275  0.3035  0.0753  0.1464
  358TMC3     H 5418   0.102   3.253   0.003  1.4184 -0.4264 -0.7301
  358TMC3    H1 5419   0.106   3.362   0.417 -0.9837 -1.0670 -0.6036
  358TMC3    H2 5420   0.198   2.964   0.283 -1.9491 -1.2612 -0.3204
  358TMC3    C7 5421   0.154   3.110   0.496 -0.3178 -0.0469 -0.2850
  358TMC3    C8 5422   0.138   3.011   0.036 -0.3151 -0.2769  0.0249
  358TMC3    O1 5423   0.119   2.997   0.518  0.1789  0.3573  0.1764
  358TMC3    O2 5424   0.198   3.037  17.673  0.5060 -0.2446  0.5339
  359MPD2     C 5425   0.338   2.851  12.684 -0.4900  0.0608 -0.5094
  359MPD2    C1 5426   0.365   2.780  12.564  0.3360  0.5003  0.4225
  359MPD2    C2 5427   0.295   2.662  12.547  0.6812 -0.0466 -0.3255
  359MPD2    C3 5428   0.209   2.625  12.650 -0.3206 -0.1212  0.7769
  359MPD2    C4 5429   0.178   2.696  12.759  0.3364  0.6111 -0.3330
  359MPD2    C5 5430   0.248   2.811  12.778 -0.4163 -0.6010 -0.7320
  359MPD2     H 5431   0.323   2.601  12.462 -1.6930 -0.4639 -0.8098
  359MPD2    H1 5432   0.113   2.670  12.841 -0.5790  1.7388 -0.7024
  359MPD2    H2 5433   0.398   2.941  12.690 -0.6802  0.0789  1.1030
  359MPD2    H3 5434   0.217   2.865  12.868 -1.4110  0.6396 -1.8170
  359MPD2     N 5435   0.138   2.503  12.628  0.2573  0.0905  0.3939
  359MPD2    H5 5436   0.088   2.467  12.709  0.4833  1.2637  1.0585
  359MPD2    N1 5437   0.447   2.825  12.457  0.2862  0.3835 -0.4648
  359MPD2    H7 5438   0.444   2.766  12.374  0.7564  0.0920 -0.2714
  360TMC3    C1 5439   0.570   2.958  12.321  0.4442 -0.3852 -0.6293
  360TMC3    C2 5440   0.660   2.858  12.290 -0.2013  0.8044 -0.3782
  360TMC3    C3 5441   0.754   2.893  12.198 -0.1256 -0.0657  0.1613
  360TMC3    C4 5442   0.574   3.080  12.262  0.3842  0.1315 -0.1448
  360TMC3    C5 5443   0.665   3.101  12.160  0.8752  0.0069  0.0152
  360TMC3    C6 5444   0.755   3.010  12.121 -0.0264  0.4796 -0.1807
  360TMC3     C 5445   0.501   2.949  12.441  0.4609  0.7238  0.2282
  360TMC3     O 5446   0.477   3.053  12.503 -0.3532  0.0416 -0.6631
  360TMC3     H 5447   0.656   2.768  12.351  0.4534  0.8499 -0.2706
  360TMC3    H1 5448   0.493   3.150  12.278  0.6527 -0.0841  2.2004
  360TMC3    H2 5449   0.821   3.030  12.038 -1.6757  0.5373 -1.4822
  360TMC3    C7 5450   0.612   3.174  12.049  0.4001  0.0180  0.3103
  360TMC3    C8 5451   0.805   2.782  12.129 -0.1076  0.0762  0.2115
  360TMC3    O1 5452   0.509   3.126  12.004  0.2518 -0.2318 -0.3417
  360TMC3    O2 5453   0.786   2.669  12.180  0.3654  0.0570  0.2761
  361MPD2     C 5454   2.207   1.162  16.187  0.5607 -0.9753 -0.6817
  361MPD2    C1 5455   2.185   1.196  16.320 -0.1511 -0.2792  0.0708
  361MPD2    C2 5456   2.231   1.110  16.415  0.0076 -0.1936 -0.3997
  361MPD2    C3 5457   2.293   0.989  16.381  0.5660 -0.1718  0.4673
  361MPD2    C4 5458   2.326   0.964  16.246  0.0164  0.3893 -0.1527
  361MPD2    C5 5459   2.277   1.048  16.152 -0.3550  0.0703  0.0521
  361MPD2     H 5460   2.224   1.140  16.519  0.4623 -0.0530 -0.4097
  361MPD2    H1 5461   2.383   0.878  16.214  4.0479  1.8644  3.1459
  361MPD2    H2 5462   2.191   1.228  16.102 -0.6080  0.5402  0.7248
  361MPD2    H3 5463   2.324   1.039  16.055 -0.0674  0.1059  0.1882
  361MPD2     N 5464   2.340   0.899  16.480  0.2495 -0.3855  0.1928
  361MPD2    H5 5465   2.387   0.818  16.441  0.9033 -1.3520  3.0067
  361MPD2    N1 5466   2.099   1.304  16.357  0.4902 -0.1823  0.0168
  361MPD2    H7 5467   2.088   1.329  16.455  0.1393  2.5254 -0.7224
  362TMC3    C1 5468   1.925   1.469  16.333 -0.4924 -0.7804 -0.4933
  362TMC3    C2 5469   1.891   1.461  16.473 -0.3374 -0.3549  0.1907
  362TMC3    C3 5470   1.776   1.524  16.508 -0.3157  0.0976  0.1786
  362TMC3    C4 5471   1.847   1.546  16.251  0.6337  0.3496 -0.7437
  362TMC3    C5 5472   1.727   1.594  16.292 -1.4684  0.6353 -0.1430
  362TMC3    C6 5473   1.686   1.587  16.423  0.1666 -0.0779  0.3767
  362TMC3     C 5474   2.011   1.373  16.271 -0.0818  0.2619 -0.7813
  362TMC3     O 5475   1.992   1.356  16.153  0.8140  0.2506 -0.0129
  362TMC3     H 5476   1.938   1.384  16.533  0.5179 -0.9275 -1.2145
  362TMC3    H1 5477   1.873   1.550  16.146  0.5012 -0.0120 -0.7917
  362TMC3    H2 5478   1.600   1.645  16.455 -0.8049 -0.2403 -1.9656
  362TMC3    C7 5479   1.655   1.678  16.200  0.3567 -0.3362 -0.4106
  362TMC3    C8 5480   1.728   1.481  16.636  0.7781  0.4946  0.3474
  362TMC3    O1 5481   1.537   1.699  16.219  0.9662  0.0943  0.1622
  362TMC3    O2 5482   1.767   1.368  16.676 -0.1907  0.1380 -0.0566
  363TMC3    C1 5483   4.527   4.561   9.770 -0.2487 -0.0734 -0.4182
  363TMC3    C2 5484   4.660   4.539   9.801  0.3738  0.5580 -0.2470
  363TMC3    C3 5485   4.733   4.627   9.868  0.3912  0.0935 -0.7309
  363TMC3    C4 5486   4.481   4.689   9.791  0.3325 -0.3997 -0.5508
  363TMC3    C5 5487   4.559   0.042   9.852 -0.7605 -0.1945  0.3270
  363TMC3    C6 5488   4.685   0.019   9.893  0.2473 -0.4070  0.1967
  363TMC3     C 5489   4.437   4.460   9.710 -0.8123  0.1669 -0.1216
  363TMC3     O 5490   4.462   4.342   9.718 -0.6765 -0.3827 -0.3234
  363TMC3     H 5491   4.705   4.447   9.767 -0.9207 -0.9285  2.0750
  363TMC3    H1 5492   4.379   4.724   9.777  0.2985 -0.1468  0.3436
  363TMC3    H2 5493   0.017   0.099   9.922  0.2232 -0.8660  1.5191
  363TMC3    C7 5494   4.510   0.174   9.843  0.0637  0.0442  0.0672
  363TMC3    C8 5495   0.140   4.612   9.892  0.3693 -0.4737  0.7583
  363TMC3    O1 5496   4.436   0.197   9.749 -0.4467  0.3893  0.4695
  363TMC3    O2 5497   0.211   4.709   9.892 -0.0071 -0.2146 -0.0368
  364MPD2     C 5498   4.404   4.608  10.555  0.0674  1.0201  0.3125
  364MPD2    C1 5499   4.317   4.535  10.477  0.7759  0.3316 -0.4528
  364MPD2    C2 5500   4.338   4.398  10.461 -0.6203 -0.0376  0.4635
  364MPD2    C3 5501   4.453   4.341  10.516 -0.0072 -0.2494  0.2111
  364MPD2    C4 5502   4.544   4.417  10.586 -0.2557  0.3810 -0.5060
  364MPD2    C5 5503   4.522   4.554  10.608 -0.2781  0.0750 -0.3243
  364MPD2     H 5504   4.269   4.336  10.405  0.3954 -0.6418 -0.1134
  364MPD2    H1 5505   4.634   4.373  10.626 -1.6290 -2.4698 -0.5307
  364MPD2    H2 5506   4.396   4.716  10.570  1.2154  0.7963  2.6749
  364MPD2    H3 5507   4.586   4.624  10.660  1.2430  1.0703 -3.5052
  364MPD2     N 5508   4.484   4.204  10.514 -1.0952  0.1320  0.3873
  364MPD2    H5 5509   4.550   4.174  10.584  1.9330 -3.0276 -3.8228
  364MPD2    N1 5510   4.199   4.601  10.432  0.5282  0.2381 -0.1306
  364MPD2    H7 5511   4.188   4.698  10.458  0.4126  0.1824  0.0222
  365TMC3    C1 5512   3.980   4.626  10.339  0.5366  0.5838 -0.0924
  365TMC3    C2 5513   3.933   4.609  10.216 -0.2152  0.4293 -0.3516
  365TMC3    C3 5514   3.830   4.690  10.185  0.0932  0.8704 -0.0088
  365TMC3    C4 5515   3.934   4.712  10.440  0.3041  0.5583 -0.0929
  365TMC3    C5 5516   3.826   0.047  10.402  1.1263  0.8677  0.3164
  365TMC3    C6 5517   3.776   0.037  10.277  0.1048  0.1963 -0.3730
  365TMC3     C 5518   4.093   4.549  10.366 -0.4464 -0.7577 -0.0331
  365TMC3     O 5519   4.082   4.436  10.320  0.1268 -0.2283 -0.4265
  365TMC3     H 5520   3.976   4.534  10.150  1.1636  1.4504 -0.5969
  365TMC3    H1 5521   3.984   4.713  10.536 -0.4179  0.4481  0.2884
  365TMC3    H2 5522   3.684   0.090  10.258  0.2924  0.9090  0.7344
  365TMC3    C7 5523   3.731   0.076  10.503  0.7924  0.3377 -0.3414
  365TMC3    C8 5524   3.760   4.667  10.062 -0.7709 -0.0592  0.0215
  365TMC3    O1 5525   3.641   0.158  10.482  0.1144 -0.2764  0.1225
  365TMC3    O2 5526   3.685   0.020  10.017  0.1799  0.1564 -0.1872
  366MPD2     C 5527   2.797   4.404  14.574 -0.1423  0.4464  0.0997
  366MPD2    C1 5528   2.851   4.399  14.701  0.1700  0.4439 -0.7575
  366MPD2    C2 5529   2.973   4.346  14.721  0.0611 -0.3470 -0.0354
  366MPD2    C3 5530   3.058   4.309  14.609 -0.5160 -0.3731 -0.5955
  366MPD2    C4 5531   2.999   4.299  14.483  0.0195  0.5951 -0.2715
  366MPD2    C5 5532   2.871   4.350  14.478 -0.0421  0.3002  0.3598
  366MPD2     H 5533   3.005   4.341  14.825 -0.6625  2.2145  0.3108
  366MPD2    H1 5534   3.049   4.267  14.392  0.8821  1.2497 -0.0195
  366MPD2    H2 5535   2.703   4.445  14.538 -1.0282 -1.2251  0.4839
  366MPD2    H3 5536   2.819   4.357  14.382  0.1048 -2.9298  0.0228
  366MPD2     N 5537   3.191   4.257  14.629 -0.0155  0.1982  0.0402
  366MPD2    H5 5538   3.228   4.197  14.556  0.9609 -2.3395  2.6167
  366MPD2    N1 5539   2.794   4.476  14.806  0.1766 -0.3009 -0.1037
  366MPD2    H7 5540   2.844   4.487  14.894 -0.6565 -1.6277  0.5472
  367TMC3    C1 5541   2.641   4.628  14.897  0.2498 -0.6245 -0.3808
  367TMC3    C2 5542   2.748   4.688  14.957 -0.2093  0.6801  0.5559
  367TMC3    C3 5543   2.719   0.048  15.049 -0.4008  0.2386  0.3545
  367TMC3    C4 5544   2.506   4.673  14.914  0.4079 -0.1537 -0.2611
  367TMC3    C5 5545   2.480   0.026  15.014 -0.0274  0.2806 -0.2600
  367TMC3    C6 5546   2.591   0.085  15.076  0.4095  0.2121 -0.4849
  367TMC3     C 5547   2.670   4.535  14.792 -0.3937  0.6472 -0.3348
  367TMC3     O 5548   2.578   4.524  14.707  0.2979 -0.6060  0.5702
  367TMC3     H 5549   2.855   4.668  14.951 -0.3566  0.2124 -0.4476
  367TMC3    H1 5550   2.427   4.625  14.856  2.6986 -1.3871 -2.3467
  367TMC3    H2 5551   2.572   0.165  15.147 -1.4103  1.3786 -2.3135
  367TMC3    C7 5552   2.364   0.115  15.002 -0.0726 -0.3577 -0.2064
  367TMC3    C8 5553   2.829   0.107  15.116  0.4807 -0.4744  0.4413
  367TMC3    O1 5554   2.375   0.214  15.070  0.5026 -0.2822  0.6230
  367TMC3    O2 5555   2.913   0.035  15.169  0.1739  0.2354 -0.4537
  368MPD2     C 5556   3.255   1.747  13.098 -0.3564 -0.0219 -0.0506
  368MPD2    C1 5557   3.259   1.794  12.970 -0.0318 -0.1767  0.0823
  368MPD2    C2 5558   3.377   1.800  12.896  1.1307  0.3170 -0.2247
  368MPD2    C3 5559   3.496   1.752  12.948  0.0177  0.4115 -0.2074
  368MPD2    C4 5560   3.493   1.692  13.074  0.3229  0.4085  0.6000
  368MPD2    C5 5561   3.375   1.697  13.147  0.4517  0.1740 -0.0637
  368MPD2     H 5562   3.381   1.837  12.794  1.9435 -0.9245 -0.6567
  368MPD2    H1 5563   3.580   1.647  13.120  2.6129  1.8397 -2.3013
  368MPD2    H2 5564   3.165   1.752  13.158  0.0751 -0.8718  0.6637
  368MPD2    H3 5565   3.380   1.652  13.245  3.3371  0.3057 -0.1482
  368MPD2     N 5566   3.623   1.765  12.882  0.3113  0.0420 -0.7585
  368MPD2    H5 5567   3.704   1.736  12.937  0.5942 -0.0120 -1.2084
  368MPD2    N1 5568   3.155   1.868  12.911 -0.2103 -0.0268 -0.3159
  368MPD2    H7 5569   3.167   1.899  12.815  1.5016 -0.3601 -0.2184
  369TMC3    C1 5570   2.953   1.971  12.875 -0.3058  0.5882  0.1227
  369TMC3    C2 5571   3.011   2.083  12.824 -0.5648  0.1481 -0.1866
  369TMC3    C3 5572   2.938   2.189  12.771 -0.4468 -0.1381 -0.1771
  369TMC3    C4 5573   2.812   1.968  12.878 -1.0163  0.2611 -0.3868
  369TMC3    C5 5574   2.736   2.073  12.826  0.6475 -0.3508  0.0351
  369TMC3    C6 5575   2.796   2.184  12.775  0.1194  0.4844 -0.0582
  369TMC3     C 5576   3.026   1.879  12.953 -0.4084  0.6806 -0.0611
  369TMC3     O 5577   2.968   1.816  13.041  0.4832 -0.1060  0.6866
  369TMC3     H 5578   3.118   2.092  12.842 -0.5675  0.6945 -0.4386
  369TMC3    H1 5579   2.761   1.885  12.925  0.3652 -0.8766 -0.8767
  369TMC3    H2 5580   2.742   2.263  12.724  1.6453  0.0344 -2.3416
  369TMC3    C7 5581   2.588   2.062  12.849  0.4960 -0.3205  0.2297
  369TMC3    C8 5582   3.010   2.295  12.710 -0.3163 -0.2937  0.0744
  369TMC3    O1 5583   2.542   1.952  12.873  0.0082  0.8826  0.1458
  369TMC3    O2 5584   3.127   2.314  12.749  0.1844 -0.7130 -0.8072
  370TMC3    C1 5585   3.221   2.618  15.993  0.2223 -0.4193  0.0917
  370TMC3    C2 5586   3.164   2.547  16.092  0.1734  0.2634 -0.0737
  370TMC3    C3 5587   3.114   2.417  16.064 -0.1680 -0.2838  0.9379
  370TMC3    C4 5588   3.246   2.567  15.870 -0.6164  0.5178  0.0562
  370TMC3    C5 5589   3.218   2.428  15.850  0.0631 -0.2460 -0.0205
  370TMC3    C6 5590   3.148   2.356  15.946 -0.3560  0.2603 -0.7918
  370TMC3     C 5591   3.288   2.739  16.029  0.3161  0.1848  0.0155
  370TMC3     O 5592   3.359   2.746  16.130  0.0758 -0.2438 -0.4104
  370TMC3     H 5593   3.156   2.607  16.182  1.8895 -1.9302  1.5398
  370TMC3    H1 5594   3.300   2.616  15.790  2.2877 -0.6149  1.3275
  370TMC3    H2 5595   3.111   2.255  15.929  0.3133 -0.1891  0.5098
  370TMC3    C7 5596   3.313   2.361  15.763  0.6062  1.2735  0.2566
  370TMC3    C8 5597   3.075   2.322  16.171 -0.4542 -0.4473 -0.4054
  370TMC3    O1 5598   3.363   2.421  15.667 -0.6636  0.6168 -0.3895
  370TMC3    O2 5599   3.073   2.205  16.134  0.5948  0.5853  0.2716
  371TMC3    C1 5600   4.719   0.995  15.546  0.1493  1.0820  0.2214
  371TMC3    C2 5601   4.647   0.983  15.659 -0.0909  0.1667  0.0274
  371TMC3    C3 5602   4.533   1.061  15.670 -0.5936  0.0035 -0.7318
  371TMC3    C4 5603   4.691   1.085  15.449 -0.0219 -0.5193  0.0184
  371TMC3    C5 5604   4.576   1.153  15.460  0.3761 -0.0398  0.2034
  371TMC3    C6 5605   4.494   1.142  15.569  0.3710  0.6550  1.1952
  371TMC3     C 5606   0.084   0.888  15.520 -0.6581 -0.0069  0.1048
  371TMC3     O 5607   0.176   0.916  15.444  0.4623 -0.5969 -0.1744
  371TMC3     H 5608   4.688   0.923  15.739  0.1130  0.0236 -0.1845
  371TMC3    H1 5609   0.021   1.098  15.364 -1.8303 -0.3964 -1.3689
  371TMC3    H2 5610   4.401   1.198  15.568  0.4040  0.6893 -0.7512
  371TMC3    C7 5611   4.555   1.266  15.371 -0.3115  0.2609 -0.1322
  371TMC3    C8 5612   4.442   1.048  15.782  0.4702  0.5035 -0.1235
  371TMC3    O1 5613   4.503   1.365  15.426  0.3158  0.2069  0.0713
  371TMC3    O2 5614   4.455   0.945  15.847 -0.2596 -0.4309  0.2106
  372MPD2     C 5615   4.005   2.099  13.008  0.2808  0.2775  0.0407
  372MPD2    C1 5616   4.085   2.047  13.103 -0.4198  0.2237  0.1354
  372MPD2    C2 5617   4.028   1.975  13.211  0.1885 -0.1269 -0.0994
  372MPD2    C3 5618   3.887   1.954  13.209  0.4216 -0.0489 -0.5725
  372MPD2    C4 5619   3.812   1.998  13.110 -0.1204 -0.1473 -0.9528
  372MPD2    C5 5620   3.872   2.070  13.007 -1.2560 -0.2992 -0.5910
  372MPD2     H 5621   4.088   1.931  13.290  0.1276 -0.0460 -0.0083
  372MPD2    H1 5622   3.704   1.987  13.110  0.1367 -2.6683 -0.5260
  372MPD2    H2 5623   4.044   2.179  12.945  0.0310  0.5351  0.2109
  372MPD2    H3 5624   3.809   2.110  12.929  0.4842  1.6453 -0.9993
  372MPD2     N 5625   3.838   1.886  13.324 -0.0032  0.6041 -0.4245
  372MPD2    H5 5626   3.911   1.873  13.393 -1.2575  1.4203  1.0448
  372MPD2    N1 5627   4.225   2.074  13.109 -0.4234 -0.1804  0.3141
  372MPD2    H7 5628   4.267   2.039  13.194  2.8252  3.2578  0.0979
  373TMC3    C1 5629   3.696   1.747  13.447  0.5616  0.3950 -0.0221
  373TMC3    C2 5630   3.570   1.725  13.496  0.3900 -0.4989 -0.4121
  373TMC3    C3 5631   3.554   1.618  13.578  0.0700  0.5247  0.0126
  373TMC3    C4 5632   3.799   1.662  13.468 -0.3200  0.4098  0.2645
  373TMC3    C5 5633   3.775   1.544  13.534  0.0389 -0.1580  0.3718
  373TMC3    C6 5634   3.649   1.522  13.589 -0.2027  0.1014  0.1172
  373TMC3     C 5635   3.710   1.846  13.342 -0.0612  0.0242 -0.1557
  373TMC3     O 5636   3.610   1.882  13.286  0.6194 -0.2963  0.2143
  373TMC3     H 5637   3.494   1.802  13.481  0.4488 -0.6495 -1.5063
  373TMC3    H1 5638   3.901   1.684  13.439 -0.1177 -0.1524  0.5454
  373TMC3    H2 5639   3.626   1.441  13.657  0.3834 -0.2651 -0.1267
  373TMC3    C7 5640   3.885   1.459  13.558 -0.4132  0.2121  0.4395
  373TMC3    C8 5641   3.419   1.572  13.605  0.1463  0.5662  0.0535
  373TMC3    O1 5642   3.984   1.468  13.486  0.4277 -0.0744 -0.0746
  373TMC3    O2 5643   3.341   1.587  13.513 -0.2118  0.1161 -0.1167
  374TMC3    C1 5644   3.824   2.464  10.264  0.1953  0.2151  0.2299
  374TMC3    C2 5645   3.932   2.548  10.258 -0.0938  0.5829 -0.0323
  374TMC3    C3 5646   3.911   2.669  10.199 -0.0768  0.5497  0.1732
  374TMC3    C4 5647   3.701   2.496  10.209  0.6117 -0.4479 -0.0633
  374TMC3    C5 5648   3.687   2.622  10.155 -0.9539  0.2072  0.1681
  374TMC3    C6 5649   3.796   2.704  10.142  0.6779 -0.2548 -0.2204
  374TMC3     C 5650   3.843   2.319  10.270 -0.2141  0.1384  0.2639
  374TMC3     O 5651   3.743   2.248  10.271 -0.0287  0.4768  0.4015
  374TMC3     H 5652   4.024   2.525  10.312  1.4063  1.4109 -2.2496
  374TMC3    H1 5653   3.618   2.425  10.211 -0.6370  1.0017  0.0410
  374TMC3    H2 5654   3.790   2.785  10.069 -1.1499  0.7490  1.0453
  374TMC3    C7 5655   3.572   2.641  10.059 -0.1944  1.1622 -0.3604
  374TMC3    C8 5656   4.009   2.777  10.212 -0.6003 -0.0325  0.1575
  374TMC3    O1 5657   3.589   2.710   9.962 -0.4890 -0.2486  0.0497
  374TMC3    O2 5658   3.965   2.886  10.177  0.2109 -0.2615  0.2134
  375MPD2     C 5659   4.373   2.902  16.892  0.3391 -0.6033  0.5854
  375MPD2    C1 5660   4.323   2.905  16.765  0.0054 -0.4563  0.7613
  375MPD2    C2 5661   4.371   2.822  16.669  1.1912 -0.3795 -0.7438
  375MPD2    C3 5662   4.471   2.728  16.691 -0.7365 -0.1007 -0.1097
  375MPD2    C4 5663   4.524   2.721  16.820  0.4137  0.3985  0.4331
  375MPD2    C5 5664   4.471   2.808  16.913  0.2139  0.4138 -0.2020
  375MPD2     H 5665   4.328   2.831  16.569 -1.6976 -1.5137  0.3892
  375MPD2    H1 5666   4.602   2.651  16.848  0.0530  0.2837  1.1481
  375MPD2    H2 5667   4.329   2.957  16.975 -1.1074  0.1241 -0.6724
  375MPD2    H3 5668   4.518   2.816  17.011  1.0395 -1.3194 -0.4570
  375MPD2     N 5669   4.528   2.648  16.584  0.3202  0.2093  0.4613
  375MPD2    H5 5670   4.614   2.601  16.610 -0.0203  0.4490  2.0122
  375MPD2    N1 5671   4.222   2.995  16.725  0.8520 -0.5311  0.3480
  375MPD2    H7 5672   4.187   2.975  16.632  1.9316 -0.1108 -0.1529
  376TMC3    C1 5673   4.547   2.540  16.380  0.0757  0.6334 -0.6009
  376TMC3    C2 5674   4.685   2.530  16.384  0.0473  0.0594  0.0670
  376TMC3    C3 5675   0.017   2.517  16.264 -0.4314  0.0091 -0.2273
  376TMC3    C4 5676   4.476   2.510  16.268 -0.4225 -0.2802  1.0268
  376TMC3    C5 5677   4.546   2.502  16.151 -0.3202 -0.2196 -0.2991
  376TMC3    C6 5678   4.678   2.507  16.151 -0.1186 -0.3103  0.0648
  376TMC3     C 5679   4.482   2.641  16.458  0.1675 -0.3742 -0.2777
  376TMC3     O 5680   4.379   2.681  16.404  0.0570 -0.4496 -0.4394
  376TMC3     H 5681   0.009   2.562  16.469  0.7189  1.5670 -0.9568
  376TMC3    H1 5682   4.368   2.498  16.274 -0.6818  2.7230  2.4851
  376TMC3    H2 5683   4.729   2.518  16.055  0.5853  0.3867  0.5210
  376TMC3    C7 5684   4.472   2.527  16.029  0.7594 -0.4562  0.2921
  376TMC3    C8 5685   0.159   2.526  16.253  1.1110 -0.7320  0.5585
  376TMC3    O1 5686   4.372   2.461  16.006  0.2355  0.3061  0.2077
  376TMC3    O2 5687   0.205   2.533  16.138 -0.2905 -0.2137 -0.1378
  377MPD2     C 5688   2.415   1.961  12.038 -0.1560 -0.5459  0.2457
  377MPD2    C1 5689   2.457   2.079  12.098 -1.0576 -0.2261 -0.6348
  377MPD2    C2 5690   2.428   2.093  12.235 -0.1594  1.1149  0.4953
  377MPD2    C3 5691   2.372   1.993  12.311  0.9741  0.2030  0.5609
  377MPD2    C4 5692   2.341   1.875  12.253  0.2709  0.2772 -0.7416
  377MPD2    C5 5693   2.359   1.869  12.117  0.6019 -0.5987  0.1807
  377MPD2     H 5694   2.465   2.180  12.289  1.6122  0.7714 -0.1520
  377MPD2    H1 5695   2.286   1.797  12.304  0.7283  1.1702  1.1192
  377MPD2    H2 5696   2.422   1.941  11.932 -0.1727 -2.9106  0.7031
  377MPD2    H3 5697   2.328   1.774  12.074  1.4495 -1.8485  2.3008
  377MPD2     N 5698   2.344   2.013  12.446 -0.0519 -0.4224  0.1101
  377MPD2    H5 5699   2.340   2.111  12.474  1.4479  0.0287 -1.2238
  377MPD2    N1 5700   2.526   2.181  12.026 -0.5239 -0.2323  0.0828
  377MPD2    H7 5701   2.531   2.149  11.929  1.6743 -0.1277  0.1668
  378TMC3    C1 5702   2.791   2.358  11.774  0.7187 -0.5118  0.6116
  378TMC3    C2 5703   2.709   2.295  11.864  0.3235  0.1323 -0.2826
  378TMC3    C3 5704   2.679   2.361  11.983 -0.2137  0.4843 -0.2906
  378TMC3    C4 5705   2.848   2.482  11.802  0.2374  0.5456 -0.0983
  378TMC3    C5 5706   2.812   2.541  11.921 -0.3503 -0.5853 -0.5545
  378TMC3    C6 5707   2.736   2.484  12.017  0.4412 -0.6265  0.8624
  378TMC3     C 5708   2.780   2.312  11.632  0.2904  0.3151  1.3272
  378TMC3     O 5709   2.689   2.236  11.602  0.1576  0.9391  0.7948
  378TMC3     H 5710   2.665   2.199  11.838  0.0817 -0.7299  3.3083
  378TMC3    H1 5711   2.897   2.543  11.727 -1.5051  1.1571 -0.7409
  378TMC3    H2 5712   2.701   2.537  12.105  0.1153 -0.3885  0.5831
  378TMC3    C7 5713   2.869   2.677  11.950  0.0880 -0.2279  0.5459
  378TMC3    C8 5714   2.599   2.287  12.080  0.3220 -0.1444 -0.8153
  378TMC3    O1 5715   2.804   2.747  12.027  0.1491  0.0596 -0.0891
  378TMC3    O2 5716   2.606   2.320  12.195  0.2819  0.1137  0.3018
  379MPD2     C 5717   3.408   0.345  16.208  0.3303 -0.7536 -0.0014
  379MPD2    C1 5718   3.502   0.295  16.122  0.1203 -0.3619  0.0762
  379MPD2    C2 5719   3.618   0.249  16.180  0.6780 -0.3299 -0.0213
  379MPD2    C3 5720   3.643   0.253  16.319 -0.5551 -0.4434 -0.0674
  379MPD2    C4 5721   3.537   0.296  16.395 -0.2622  0.1922  0.6568
  379MPD2    C5 5722   3.418   0.327  16.338 -0.7814 -0.0464 -0.0816
  379MPD2     H 5723   3.692   0.203  16.116  2.3484  0.7350  1.1363
  379MPD2    H1 5724   3.532   0.290  16.503 -2.7875  0.0022  0.5365
  379MPD2    H2 5725   3.314   0.380  16.167  0.0730 -1.6120 -0.1477
  379MPD2    H3 5726   3.341   0.357  16.408 -1.9757 -0.6334 -1.1563
  379MPD2     N 5727   3.775   0.234  16.380  0.7473  0.2786  0.3412
  379MPD2    H5 5728   3.779   0.234  16.481 -1.4749  1.9958  0.4211
  379MPD2    N1 5729   3.468   0.274  15.983  0.2877 -0.3812 -0.3050
  379MPD2    H7 5730   3.382   0.317  15.951  0.6018  1.9282  1.9428
  380TMC3    C1 5731   3.516   0.258  15.752 -0.1570  0.3403  0.0882
  380TMC3    C2 5732   3.615   0.254  15.658 -0.5315 -0.4823 -0.2025
  380TMC3    C3 5733   3.585   0.290  15.529 -0.6520 -0.1775  0.4319
  380TMC3    C4 5734   3.385   0.287  15.714 -0.5267 -0.0766 -0.2781
  380TMC3    C5 5735   3.353   0.309  15.582  0.0541  0.2500 -0.2992
  380TMC3    C6 5736   3.453   0.300  15.481  0.1041  0.5943 -0.5417
  380TMC3     C 5737   3.554   0.223  15.885 -0.0428 -0.2367 -0.5266
  380TMC3     O 5738   3.645   0.148  15.904 -0.6337 -0.5783 -0.6679
  380TMC3     H 5739   3.718   0.249  15.692 -0.3164 -2.4099 -1.1281
  380TMC3    H1 5740   3.308   0.275  15.790 -0.1135 -1.3763 -0.0593
  380TMC3    H2 5741   3.430   0.316  15.377 -0.4635  0.7617 -0.3931
  380TMC3    C7 5742   3.225   0.375  15.551  0.7128  0.2738  0.2312
  380TMC3    C8 5743   3.652   0.408  15.480 -0.5113 -0.4225 -0.1251
  380TMC3    O1 5744   3.187   0.473  15.617 -0.2254 -0.0198  0.1801
  380TMC3    O2 5745   3.586   0.489  15.416 -0.3311 -0.2078  0.1173
  381TMC3    C1 5746   2.976   1.810  16.081  0.0385  0.1049 -0.6005
  381TMC3    C2 5747   3.089   1.875  16.131 -0.2285 -0.5216  0.7570
  381TMC3    C3 5748   3.197   1.800  16.157  0.8011 -0.2774  0.7758
  381TMC3    C4 5749   2.976   1.671  16.077  0.0915 -0.0888 -0.5849
  381TMC3    C5 5750   3.087   1.598  16.121 -0.0394  0.2492 -0.4269
  381TMC3    C6 5751   3.203   1.663  16.146  0.2649  0.3026 -0.6554
  381TMC3     C 5752   2.850   1.857  16.112  0.2838 -0.1038  0.4980
  381TMC3     O 5753   2.785   1.778  16.180 -0.5560 -0.1989 -0.7541
  381TMC3     H 5754   3.096   1.981  16.152  1.6872 -0.3072 -0.9723
  381TMC3    H1 5755   2.891   1.614  16.039  0.1202  0.1503 -1.0106
  381TMC3    H2 5756   3.299   1.620  16.173  0.3178  2.1549  2.1192
  381TMC3    C7 5757   3.053   1.494  16.213 -0.0345 -0.3597 -0.2793
  381TMC3    C8 5758   3.318   1.871  16.192 -0.5861  0.4392 -0.2958
  381TMC3    O1 5759   3.137   1.412  16.247 -0.1184 -0.1461 -0.1245
  381TMC3    O2 5760   3.427   1.840  16.140  0.1875  0.0976 -0.2941
  382MPD2     C 5761   2.620   3.115  16.903  0.6628  0.6304 -0.5137
  382MPD2    C1 5762   2.532   3.073  16.998  1.0115 -0.1275 -0.0499
  382MPD2    C2 5763   2.455   2.962  16.974 -0.3952 -0.4989  0.3607
  382MPD2    C3 5764   2.467   2.895  16.859  0.7408  0.2959  0.3056
  382MPD2    C4 5765   2.553   2.941  16.759  1.0391 -0.0225 -0.1031
  382MPD2    C5 5766   2.632   3.047  16.787  0.3562 -0.3012  0.8526
  382MPD2     H 5767   2.380   2.926  17.043  0.3420 -1.3359  0.7299
  382MPD2    H1 5768   2.563   2.895  16.662 -1.5766 -3.1695  1.0988
  382MPD2    H2 5769   2.660   3.215  16.913  1.7438  0.1456 -0.0793
  382MPD2    H3 5770   2.696   3.074  16.703 -0.9466  1.6802  0.4978
  382MPD2     N 5771   2.389   2.783  16.844 -0.8683 -0.0057  0.2072
  382MPD2    H5 5772   2.315   2.757  16.908 -1.7740  1.4789 -0.2309
  382MPD2    N1 5773   2.512   3.128  17.126  0.4469 -0.2302  0.3891
  382MPD2    H7 5774   2.431   3.087  17.172 -0.1208 -1.7128 -1.9248
  383TMC3    C1 5775   2.306   2.596  16.735  0.6611  0.3201 -0.5822
  383TMC3    C2 5776   2.190   2.627  16.793 -0.6030  0.3623 -0.3535
  383TMC3    C3 5777   2.103   2.534  16.822 -0.5673  0.1054  0.5024
  383TMC3    C4 5778   2.337   2.467  16.702  0.5187  0.9778  0.0760
  383TMC3    C5 5779   2.234   2.374  16.723  0.0457 -0.1335 -0.1386
  383TMC3    C6 5780   2.118   2.401  16.789 -0.0151  0.9806 -0.4634
  383TMC3     C 5781   2.410   2.694  16.746 -0.0270 -0.2291  0.2715
  383TMC3     O 5782   2.512   2.672  16.678  0.4464  0.3038  0.0776
  383TMC3     H 5783   2.171   2.731  16.817 -0.0605  0.0056  1.6267
  383TMC3    H1 5784   2.415   2.448  16.629  0.4763  2.8683 -0.4645
  383TMC3    H2 5785   2.035   2.331  16.794  1.8785 -1.1656  1.0167
  383TMC3    C7 5786   2.244   2.234  16.670  0.3569 -0.3170  0.1305
  383TMC3    C8 5787   1.970   2.582  16.852 -0.5499  0.3115 -0.3944
  383TMC3    O1 5788   2.150   2.162  16.697  0.1368 -0.8701 -0.3851
  383TMC3    O2 5789   1.946   2.702  16.835  0.9667  0.1507 -0.2757
  384MPD2     C 5790   4.131   0.680  11.959  0.0368 -0.1650 -0.4375
  384MPD2    C1 5791   4.048   0.591  12.023  0.0895 -0.2317 -0.1119
  384MPD2    C2 5792   4.054   0.454  11.996  0.0202  0.3998  0.4685
  384MPD2    C3 5793   4.157   0.408  11.917 -0.5033 -0.3524 -0.4575
  384MPD2    C4 5794   4.247   0.494  11.857 -0.3364  0.3115  0.1266
  384MPD2    C5 5795   4.225   0.630  11.874  0.1322 -0.2603 -0.2265
  384MPD2     H 5796   3.982   0.391  12.047  1.6980 -1.0090  1.1069
  384MPD2    H1 5797   4.311   0.455  11.780 -0.8986  0.8684 -0.6247
  384MPD2    H2 5798   4.126   0.785  11.984  0.0400 -0.3340  0.2639
  384MPD2    H3 5799   4.294   0.706  11.840  0.7102  0.5964  2.8338
  384MPD2     N 5800   4.184   0.272  11.911 -0.0536 -0.0426  0.4779
  384MPD2    H5 5801   4.267   0.241  11.861  0.0923  0.3100  0.5031
  384MPD2    N1 5802   3.963   0.641  12.124  0.1984  0.5613  0.5073
  384MPD2    H7 5803   3.967   0.742  12.135 -2.5289  0.4249  2.7932
  385TMC3    C1 5804   4.182   0.051  11.996 -0.0290 -0.2739  0.2028
  385TMC3    C2 5805   4.108   4.670  11.969 -0.4929 -0.7704 -0.5058
  385TMC3    C3 5806   4.079   4.583  12.070  0.2475 -0.0492  0.7311
  385TMC3    C4 5807   4.250   0.058  12.114 -0.4870  0.6169  0.6063
  385TMC3    C5 5808   4.224   4.702  12.210 -0.2795 -0.0373 -0.3913
  385TMC3    C6 5809   4.136   4.597  12.188  0.5174 -0.2964 -0.1533
  385TMC3     C 5810   4.103   0.171  11.961 -0.2016 -0.0963  0.1339
  385TMC3     O 5811   3.984   0.170  11.982  0.2981 -0.4348  0.3359
  385TMC3     H 5812   4.061   4.667  11.871  1.3678 -1.3342 -1.3789
  385TMC3    H1 5813   4.284   0.158  12.139  3.0464 -0.4441  0.0297
  385TMC3    H2 5814   4.117   4.532  12.273  1.1658 -3.7500 -2.6818
  385TMC3    C7 5815   4.203   0.038  12.334 -0.1527 -0.8124 -0.1495
  385TMC3    C8 5816   3.990   4.465  12.056  0.1266 -0.2175 -0.3314
  385TMC3    O1 5817   4.088   0.055  12.363  0.3713 -0.4579 -0.0070
  385TMC3    O2 5818   3.982   4.391  12.156 -0.1313  0.6391  0.3700
  386TMC3    C1 5819   4.386   2.438  11.644 -0.5461  0.3956 -0.3136
  386TMC3    C2 5820   4.384   2.520  11.536  0.5132  0.6105 -0.3655
  386TMC3    C3 5821   4.298   2.625  11.533 -0.2106 -0.2236 -0.8387
  386TMC3    C4 5822   4.299   2.456  11.750 -0.1091  0.6389  0.8467
  386TMC3    C5 5823   4.209   2.558  11.739  0.2087 -0.1493 -0.5640
  386TMC3    C6 5824   4.205   2.649  11.636 -0.0564  0.3889 -0.0116
  386TMC3     C 5825   4.478   2.322  11.635 -0.5283  0.1618  0.6802
  386TMC3     O 5826   4.584   2.337  11.573  0.9430  0.1739 -0.0527
  386TMC3     H 5827   4.465   2.505  11.465 -0.4597  1.1100 -1.5701
  386TMC3    H1 5828   4.300   2.375  11.822  0.9468  0.2796  0.4398
  386TMC3    H2 5829   4.131   2.728  11.627  0.1794  0.6504  0.3068
  386TMC3    C7 5830   4.093   2.545  11.833  0.1032  0.3390  0.1320
  386TMC3    C8 5831   4.226   2.629  11.411  0.0499 -0.5923 -0.6675
  386TMC3    O1 5832   4.040   2.650  11.874  0.0568  0.1840  0.6055
  386TMC3    O2 5833   4.106   2.658  11.419 -0.0184 -0.4764  0.2042
  387MPD2     C 5834   0.970   2.027   9.645  0.4151  0.7415 -0.3025
  387MPD2    C1 5835   1.105   2.024   9.654 -0.1504 -0.4030  0.3332
  387MPD2    C2 5836   1.166   1.900   9.644  0.2116 -1.1121 -0.0576
  387MPD2    C3 5837   1.103   1.784   9.629 -0.3940  0.3261  1.1195
  387MPD2    C4 5838   0.969   1.790   9.616 -0.1373 -0.5986  0.1871
  387MPD2    C5 5839   0.898   1.911   9.616 -0.2602 -0.6184 -0.4165
  387MPD2     H 5840   1.273   1.897   9.662  0.2817 -0.7492 -0.4154
  387MPD2    H1 5841   0.922   1.693   9.613  0.4679 -0.8386 -1.5591
  387MPD2    H2 5842   0.908   2.115   9.658  0.7035  0.9333 -0.2366
  387MPD2    H3 5843   0.791   1.910   9.602 -0.3828 -0.2846  0.5107
  387MPD2     N 5844   1.177   1.661   9.642 -0.3606  0.1362  0.0505
  387MPD2    H5 5845   1.276   1.681   9.642 -0.0290 -1.5610 -1.6770
  387MPD2    N1 5846   1.188   2.134   9.699  0.0071  0.3251 -0.5033
  387MPD2    H7 5847   1.286   2.110   9.694  0.2622  0.9908  1.4418
  388TMC3    C1 5848   1.257   2.326   9.823  0.5128 -0.0421 -0.2187
  388TMC3    C2 5849   1.254   2.462   9.810 -1.6812 -0.4028  0.0201
  388TMC3    C3 5850   1.362   2.527   9.862 -0.7128 -0.0089 -1.0862
  388TMC3    C4 5851   1.355   2.252   9.881 -0.3107  0.7407  0.2888
  388TMC3    C5 5852   1.464   2.322   9.919  0.4446 -0.6212  0.2116
  388TMC3    C6 5853   1.468   2.460   9.917  0.1199 -0.1814 -0.8856
  388TMC3     C 5854   1.150   2.254   9.753  0.2521  0.2957  0.1906
  388TMC3     O 5855   1.034   2.292   9.758  0.3631 -0.2747  0.5539
  388TMC3     H 5856   1.195   2.518   9.737  0.2422 -0.9144 -1.9405
  388TMC3    H1 5857   1.345   2.144   9.892  1.3035  0.3859 -1.8845
  388TMC3    H2 5858   1.552   2.509   9.963 -0.1391 -1.2903  0.7742
  388TMC3    C7 5859   1.576   2.252   9.982 -0.1222 -0.4500  0.2187
  388TMC3    C8 5860   1.353   2.669   9.864  0.2948 -0.8966  0.6519
  388TMC3    O1 5861   1.611   2.283  10.095  0.1665 -0.5338 -0.4765
  388TMC3    O2 5862   1.454   2.733   9.880  0.3206 -0.2677 -0.5979
  389MPD2     C 5863   0.753   0.252  10.735  1.1013 -0.0795 -0.1483
  389MPD2    C1 5864   0.629   0.274  10.790  0.2827 -0.1212 -0.2451
  389MPD2    C2 5865   0.603   0.239  10.919  0.6021  0.2718 -0.5482
  389MPD2    C3 5866   0.702   0.180  10.996 -0.0925 -0.0048 -0.6823
  389MPD2    C4 5867   0.829   0.161  10.942 -0.2221 -0.1063 -0.4464
  389MPD2    C5 5868   0.845   0.189  10.808  0.0281 -0.0066  0.3995
  389MPD2     H 5869   0.515   0.280  10.965  0.1604 -0.4652 -0.7471
  389MPD2    H1 5870   0.904   0.109  11.000  1.9038 -0.5716 -3.6100
  389MPD2    H2 5871   0.775   0.271  10.631  2.6439 -2.2598 -0.2277
  389MPD2    H3 5872   0.940   0.167  10.761 -0.5610  0.4535 -1.0162
  389MPD2     N 5873   0.681   0.136  11.131 -0.0071 -0.3785  0.6077
  389MPD2    H5 5874   0.761   0.087  11.171  1.5107  1.7065  0.1357
  389MPD2    N1 5875   0.544   0.350  10.705 -0.3687  0.1398 -0.5141
  389MPD2    H7 5876   0.594   0.386  10.625 -1.0255  0.7766 -0.6457
  390TMC3    C1 5877   0.568   0.096  11.331  0.6412  0.1411  1.2206
  390TMC3    C2 5878   0.462   0.033  11.382 -0.3365 -0.3368 -0.1258
  390TMC3    C3 5879   0.439   0.045  11.519  0.7344 -0.0726  0.3177
  390TMC3    C4 5880   0.655   0.173  11.411  0.5506 -1.0155 -0.2758
  390TMC3    C5 5881   0.620   0.191  11.541 -0.5182  0.1792  0.6355
  390TMC3    C6 5882   0.525   0.117  11.598 -0.4713 -0.0450  0.4889
  390TMC3     C 5883   0.560   0.124  11.190  0.8529  0.1879  0.7341
  390TMC3     O 5884   0.446   0.156  11.149  0.2780 -0.8441  0.0662
  390TMC3     H 5885   0.388   4.731  11.312  1.7127 -1.0707 -1.8969
  390TMC3    H1 5886   0.732   0.233  11.363 -1.4939 -0.5290 -2.9315
  390TMC3    H2 5887   0.507   0.132  11.704  0.7331  2.4595  0.3150
  390TMC3    C7 5888   0.705   0.289  11.614  0.6987  0.2241  0.2555
  390TMC3    C8 5889   0.318   4.715  11.572 -0.0858  0.3490  0.9559
  390TMC3    O1 5890   0.765   0.368  11.542  0.6097 -0.6320  0.3092
  390TMC3    O2 5891   0.293   4.596  11.567 -0.0954 -0.4745 -0.1311
  391MPD2     C 5892   0.494   2.244  11.058  0.3644  0.4194 -0.3560
  391MPD2    C1 5893   0.575   2.321  10.980 -0.2280 -0.5886  0.6067
  391MPD2    C2 5894   0.516   2.391  10.880 -0.5247 -0.0884 -0.1396
  391MPD2    C3 5895   0.380   2.397  10.863  0.3860  0.5501  0.0997
  391MPD2    C4 5896   0.300   2.311  10.939 -0.0809  0.0431  0.3499
  391MPD2    C5 5897   0.364   2.235  11.034  0.5258 -0.2869 -0.1713
  391MPD2     H 5898   0.577   2.455  10.817  2.1899 -1.3085  1.2526
  391MPD2    H1 5899   0.194   2.293  10.932  0.3045 -0.5753 -3.7430
  391MPD2    H2 5900   0.531   2.188  11.143  1.2761 -1.1066 -1.7303
  391MPD2    H3 5901   0.308   2.171  11.102  2.0203 -2.0512 -0.6068
  391MPD2     N 5902   0.329   2.485  10.760 -0.6182 -0.1262  0.8222
  391MPD2    H5 5903   0.388   2.551  10.712 -2.4926  1.1859  0.2972
  391MPD2    N1 5904   0.711   2.351  11.005 -0.5624  0.3192  0.0986
  391MPD2    H7 5905   0.753   2.422  10.945  0.3500 -0.4435 -0.1809
  392TMC3    C1 5906   0.175   2.591  10.606 -0.4366 -0.3863 -0.1757
  392TMC3    C2 5907   0.055   2.587  10.534 -0.1490  0.1502  0.0229
  392TMC3    C3 5908   0.029   2.691  10.451  0.2916  0.1677 -0.5713
  392TMC3    C4 5909   0.243   2.709  10.608 -0.5262  0.1115 -0.8541
  392TMC3    C5 5910   0.197   2.822  10.542 -0.3522 -0.5132  0.0050
  392TMC3    C6 5911   0.093   2.814  10.461  0.3904  0.1916 -0.4468
  392TMC3     C 5912   0.204   2.481  10.700 -0.3247 -0.2133 -0.0164
  392TMC3     O 5913   0.117   2.405  10.741  0.0950  0.6844 -0.2625
  392TMC3     H 5914   4.715   2.510  10.545  0.7707 -0.6813  0.5063
  392TMC3    H1 5915   0.337   2.716  10.662 -0.2277  0.1194 -1.3713
  392TMC3    H2 5916   0.050   2.900  10.411 -1.3093  1.0172  2.4169
  392TMC3    C7 5917   0.285   2.931  10.530 -0.1013  0.4014 -0.2197
  392TMC3    C8 5918   4.631   2.685  10.392  0.0316  1.0817  0.3839
  392TMC3    O1 5919   0.361   2.946  10.623 -0.2048 -0.3437  0.5764
  392TMC3    O2 5920   4.549   2.603  10.428 -0.5302 -0.5260  0.2563
  393TMC3    C1 5921   3.564   0.189  11.020  0.6080 -0.2857 -0.3843
  393TMC3    C2 5922   3.448   0.144  11.077 -0.0672 -1.0279  0.3266
  393TMC3    C3 5923   3.463   0.050  11.173  0.0970 -0.2443 -0.0591
  393TMC3    C4 5924   3.688   0.150  11.051  0.0664 -0.0424 -0.1965
  393TMC3    C5 5925   3.693   0.057  11.149 -0.1550  0.5871  0.2472
  393TMC3    C6 5926   3.586   0.004  11.211 -0.2465 -0.3860 -0.4076
  393TMC3     C 5927   3.551   0.304  10.939 -0.3286 -0.3093 -0.6385
  393TMC3     O 5928   3.438   0.330  10.910 -0.3793 -0.4182  0.1394
  393TMC3     H 5929   3.350   0.187  11.060  0.7858  0.6842 -0.1887
  393TMC3    H1 5930   3.774   0.179  10.992 -0.8505  1.9254 -0.5567
  393TMC3    H2 5931   3.607   4.662  11.284  1.0123 -0.3467 -0.7272
  393TMC3    C7 5932   3.809   4.709  11.160 -0.0685 -0.5020  0.4052
  393TMC3    C8 5933   3.356   4.710  11.233 -0.1556 -0.4274  0.4343
  393TMC3    O1 5934   3.796   4.589  11.176 -0.2534  0.2848 -0.0354
  393TMC3    O2 5935   3.258   4.692  11.165 -0.2102 -0.7762 -0.1976
  394TMC3    C1 5936   0.368   0.487  10.643  0.4737  0.3487 -0.0549
  394TMC3    C2 5937   0.238   0.474  10.596 -0.2817  0.0469  0.2576
  394TMC3    C3 5938   0.201   0.542  10.486  0.3963 -0.3002  0.4854
  394TMC3    C4 5939   0.457   0.582  10.592  0.4844 -0.2485 -0.1380
  394TMC3    C5 5940   0.408   0.657  10.491  0.4605 -0.2262  0.0530
  394TMC3    C6 5941   0.283   0.640  10.434  0.1938 -0.8054 -0.5814
  394TMC3     C 5942   0.409   0.379  10.724  0.5510  0.6459 -0.2402
  394TMC3     O 5943   0.333   0.347  10.813 -0.3300 -0.5579  0.1873
  394TMC3     H 5944   0.182   0.399  10.650 -1.2636  1.0060  0.5772
  394TMC3    H1 5945   0.549   0.601  10.646  1.1894  1.2237 -1.8630
  394TMC3    H2 5946   0.260   0.698  10.345  2.7007  0.1209 -0.6269
  394TMC3    C7 5947   0.500   0.743  10.411 -0.1730  0.5663 -0.2271
  394TMC3    C8 5948   0.149   0.440  10.394  1.0682  0.6657 -0.3868
  394TMC3    O1 5949   0.459   0.785  10.303  0.1651  0.1116 -0.6181
  394TMC3    O2 5950   0.106   0.337  10.441 -0.1796 -0.1915 -0.3532
  395TMC3    C1 5951   0.718   2.500  14.531  0.3655  0.2022 -0.0643
  395TMC3    C2 5952   0.587   2.551  14.506 -0.2231 -0.2745  0.4662
  395TMC3    C3 5953   0.558   2.680  14.529  0.0144 -0.4507  0.1271
  395TMC3    C4 5954   0.817   2.591  14.545 -0.0561 -1.1114 -0.0676
  395TMC3    C5 5955   0.787   2.720  14.569  0.1773  0.0178 -0.0890
  395TMC3    C6 5956   0.660   2.767  14.568  0.2760 -0.4578  0.4438
  395TMC3     C 5957   0.753   2.360  14.520  0.7350  0.1805 -0.6840
  395TMC3     O 5958   0.871   2.336  14.491  0.2590 -0.5301 -0.4943
  395TMC3     H 5959   0.516   2.476  14.472  0.1945 -0.3885 -0.1443
  395TMC3    H1 5960   0.917   2.550  14.543  0.7067  0.6480  1.9864
  395TMC3    H2 5961   0.653   2.874  14.583  1.0327 -0.3662  0.1377
  395TMC3    C7 5962   0.897   2.811  14.573  0.0022 -0.7980  0.7785
  395TMC3    C8 5963   0.415   2.707  14.555  0.1115  0.2750 -0.1965
  395TMC3    O1 5964   0.894   2.907  14.647 -0.3552 -0.1058 -0.0649
  395TMC3    O2 5965   0.388   2.792  14.641  0.0408 -0.3256 -0.8262
  396MPD2     C 5966   0.106   3.487  17.298  0.0634  0.3473 -0.5818
  396MPD2    C1 5967   0.224   3.482  17.228  0.0850 -0.3894 -0.3121
  396MPD2    C2 5968   0.239   3.560  17.121  0.7068 -0.1183  0.4009
  396MPD2    C3 5969   0.143   3.655  17.091  0.3992 -0.1994  0.2836
  396MPD2    C4 5970   0.030   3.670  17.176 -0.0875  0.6998 -0.0371
  396MPD2    C5 5971   0.011   3.582  17.277 -0.3452  0.1263  0.0155
  396MPD2     H 5972   0.329   3.550  17.062  0.5207 -1.8258  0.3824
  396MPD2    H1 5973   4.679   3.729  17.147 -0.4615 -0.2340 -0.8194
  396MPD2    H2 5974   0.081   3.421  17.381  2.6628 -2.6469 -2.1974
  396MPD2    H3 5975   4.656   3.571  17.337 -0.5118 -0.5281 -0.3586
  396MPD2     N 5976   0.175   3.735  16.977  0.3341 -0.0531 -0.2650
  396MPD2    H5 5977   0.264   3.722  16.929 -0.4551  1.3269 -2.1083
  396MPD2    N1 5978   0.310   3.375  17.264  0.2357 -0.3226  0.6847
  396MPD2    H7 5979   0.270   3.315  17.335  1.5771 -0.3424  1.4096
  397TMC3    C1 5980   0.481   3.222  17.244 -1.2724 -1.1418 -0.7598
  397TMC3    C2 5981   0.608   3.219  17.198  0.1232 -0.4240 -0.0945
  397TMC3    C3 5982   0.636   3.162  17.077 -0.3181 -0.2911 -0.4008
  397TMC3    C4 5983   0.394   3.131  17.190 -0.1228  0.0611 -0.1830
  397TMC3    C5 5984   0.436   3.056  17.081 -0.3467  0.4978 -0.4010
  397TMC3    C6 5985   0.556   3.076  17.017 -0.0029  0.3424  0.4249
  397TMC3     C 5986   0.436   3.357  17.219  0.1228  0.3607 -0.1095
  397TMC3     O 5987   0.500   3.433  17.148  0.3853 -0.4336 -0.1333
  397TMC3     H 5988   0.665   3.306  17.230  1.2835 -0.3598 -2.3267
  397TMC3    H1 5989   0.290   3.128  17.221  0.4970  2.2728  2.1040
  397TMC3    H2 5990   0.579   3.019  16.928  1.0158 -1.4092  1.8179
  397TMC3    C7 5991   0.355   2.934  17.054  0.4885  0.2719  0.5307
  397TMC3    C8 5992   0.689   3.265  16.985 -0.0587 -0.4764 -0.0231
  397TMC3    O1 5993   0.339   2.902  16.934  0.1104 -0.4048  0.5039
  397TMC3    O2 5994   0.628   3.285  16.880 -0.4129  0.3191 -0.4307
  398MPD2     C 5995   3.356   4.163   0.097 -0.1734 -0.7956 -0.7279
  398MPD2    C1 5996   3.376   4.113   0.227 -0.7763 -0.2084 -0.2477
  398MPD2    C2 5997   3.438   4.188   0.326  0.5464 -0.1924 -0.0957
  398MPD2    C3 5998   3.469   4.322   0.296  0.5101 -0.1285  0.7056
  398MPD2    C4 5999   3.437   4.374   0.172 -0.6184  0.1064 -0.0468
  398MPD2    C5 6000   3.388   4.298   0.071  0.2942 -0.4994  0.4680
  398MPD2     H 6001   3.466   4.141   0.420  1.4938  0.2135 -0.1701
  398MPD2    H1 6002   3.451   4.477   0.142 -2.4763  0.7190  1.2249
  398MPD2    H2 6003   3.303   4.113   0.017  0.8758 -2.3311 -0.4704
  398MPD2    H3 6004   3.368   4.336  17.712  0.7085  2.6936  1.5999
  398MPD2     N 6005   3.541   4.391   0.394  0.1062 -0.0374  0.2722
  398MPD2    H5 6006   3.553   4.356   0.488 -1.7259  0.2532  0.6097
  398MPD2    N1 6007   3.346   3.983   0.271  0.1300 -0.0070 -0.0296
  398MPD2    H7 6008   3.363   3.953   0.366  0.6182 -0.1883 -0.1700
  399TMC3    C1 6009   3.268   3.750   0.258 -0.0202  0.3122 -0.8286
  399TMC3    C2 6010   3.277   3.738   0.394 -0.3879  0.1743 -0.2927
  399TMC3    C3 6011   3.285   3.610   0.439 -0.1348 -0.8913 -0.8361
  399TMC3    C4 6012   3.270   3.638   0.174 -0.0040  0.1981 -0.3027
  399TMC3    C5 6013   3.254   3.515   0.230  0.6866  0.4596  0.3744
  399TMC3    C6 6014   3.282   3.499   0.360  0.1016  0.7621 -0.2233
  399TMC3     C 6015   3.291   3.879   0.188 -0.8291 -0.8975  0.5546
  399TMC3     O 6016   3.252   3.891   0.072 -0.2453  0.2999 -0.2171
  399TMC3     H 6017   3.250   3.828   0.447 -0.4658 -2.1437  3.5896
  399TMC3    H1 6018   3.246   3.658   0.071 -2.3369 -1.1116 -0.0079
  399TMC3    H2 6019   3.275   3.403   0.410  1.3298 -0.1029 -1.6943
  399TMC3    C7 6020   3.233   3.388   0.160 -0.3173 -0.1175 -0.3695
  399TMC3    C8 6021   3.335   3.583   0.575  0.6411  0.1319 -0.3942
  399TMC3    O1 6022   3.206   3.285   0.221  0.1835 -0.2280  0.0313
  399TMC3    O2 6023   3.367   3.472   0.616  0.5534  0.2583 -0.0964
  400TMC3    C1 6024   1.736   2.195  16.770 -0.2303 -0.6260 -0.1162
  400TMC3    C2 6025   1.629   2.282  16.747  0.0018  0.5401 -0.3814
  400TMC3    C3 6026   1.624   2.333  16.621 -0.0653  0.1292 -0.1190
  400TMC3    C4 6027   1.832   2.162  16.679  0.3500 -0.4045  0.1107
  400TMC3    C5 6028   1.822   2.230  16.560 -0.0796 -0.6769 -0.1267
  400TMC3    C6 6029   1.717   2.309  16.522 -0.1311  0.0156 -0.0128
  400TMC3     C 6030   1.771   2.153  16.905 -0.0981 -0.1517  0.6590
  400TMC3     O 6031   1.892   2.147  16.930  0.0765 -0.0125  0.0240
  400TMC3     H 6032   1.557   2.307  16.824 -0.4875 -0.0859 -0.6371
  400TMC3    H1 6033   1.921   2.104  16.702  1.0296  0.6068  0.0694
  400TMC3    H2 6034   1.708   2.335  16.417 -1.7559  0.3528  0.2173
  400TMC3    C7 6035   1.934   2.261  16.479  0.3632 -0.3208 -0.9683
  400TMC3    C8 6036   1.491   2.394  16.576  0.0006  0.0529  0.5796
  400TMC3    O1 6037   1.984   2.178  16.409 -0.5116  0.4723 -0.0162
  400TMC3    O2 6038   1.426   2.459  16.655 -0.4644  0.1892 -0.3743
  401MPD2     C 6039   0.044   1.384  17.581 -0.6402 -0.7879 -0.3543
  401MPD2    C1 6040   0.052   1.352  17.713  0.3249 -0.1098  0.3812
  401MPD2    C2 6041   0.088   1.218   0.004 -0.6248  0.3235  0.7334
  401MPD2    C3 6042   0.126   1.136  17.642  0.0240  0.3216  0.5249
  401MPD2    C4 6043   0.116   1.177  17.509  0.3327  0.6328 -0.3056
  401MPD2    C5 6044   0.078   1.302  17.483  0.3330 -0.0189 -0.2976
  401MPD2     H 6045   0.101   1.186   0.106  0.2225  0.5280  0.6874
  401MPD2    H1 6046   0.140   1.113  17.425  1.8365 -0.5305  1.0309
  401MPD2    H2 6047   0.006   1.481  17.550  0.4609  0.3798  1.8739
  401MPD2    H3 6048   0.078   1.334  17.380 -1.5723  1.0323  0.0366
  401MPD2     N 6049   0.154   1.004  17.686 -0.4220  0.3860 -0.1672
  401MPD2    H5 6050   0.142   0.985   0.045 -0.3074  0.4057 -0.1497
  401MPD2    N1 6051   0.040   1.442   0.078 -0.2331  0.4451  0.3510
  401MPD2    H7 6052   0.077   1.403   0.163  4.3436 -0.4942 -2.0864
  402TMC3    C1 6053   0.216   0.775  17.664 -0.1150  0.2465  0.1085
  402TMC3    C2 6054   0.258   0.771   0.061 -0.2291 -0.1985 -0.2076
  402TMC3    C3 6055   0.301   0.644   0.108 -0.0984 -0.1099 -0.2170
  402TMC3    C4 6056   0.262   0.676  17.583 -0.0943  0.1542  0.2154
  402TMC3    C5 6057   0.326   0.564  17.626 -0.5626  0.5001  0.0510
  402TMC3    C6 6058   0.350   0.543   0.021  0.0963  0.2350  0.1636
  402TMC3     C 6059   0.186   0.901  17.600  0.2186 -0.4158  0.2862
  402TMC3     O 6060   0.201   0.904  17.481  0.2777  0.2578  0.7803
  402TMC3     H 6061   0.251   0.861   0.122 -0.8031  0.2980 -1.0176
  402TMC3    H1 6062   0.242   0.689  17.477  0.4132  2.2802  0.3753
  402TMC3    H2 6063   0.362   0.442   0.058 -1.0733  0.2092  0.4644
  402TMC3    C7 6064   0.389   0.473  17.529  0.3991  0.0915 -0.5710
  402TMC3    C8 6065   0.303   0.613   0.247 -0.3387  0.1692 -0.0726
  402TMC3    O1 6066   0.330   0.464  17.424 -0.1481 -0.3105 -0.3290
  402TMC3    O2 6067   0.343   0.502   0.288  0.0522  0.2640 -0.6177
  403MPD2     C 6068   3.930   4.070  12.768  0.6848 -0.5156 -0.5885
  403MPD2    C1 6069   3.873   4.130  12.878  0.4439  0.2301  0.0041
  403MPD2    C2 6070   3.952   4.196  12.970  0.1145 -0.1133  0.1363
  403MPD2    C3 6071   4.087   4.173  12.972 -0.4232  0.3909 -0.0531
  403MPD2    C4 6072   4.146   4.109  12.863  0.9365 -0.3790  0.1486
  403MPD2    C5 6073   4.067   4.059  12.767 -0.1546  0.7209  0.3453
  403MPD2     H 6074   3.922   4.262  13.049 -0.3037 -1.3479  1.0120
  403MPD2    H1 6075   4.253   4.092  12.868  1.2487  1.4319 -0.1888
  403MPD2    H2 6076   3.872   4.031  12.684 -0.1499  0.8914 -0.6574
  403MPD2    H3 6077   4.119   4.002  12.692  0.0006  2.6133 -0.9856
  403MPD2     N 6078   4.157   4.235  13.082  0.4324  0.2461 -0.0889
  403MPD2    H5 6079   4.090   4.293  13.132  0.7830  1.2677 -0.8112
  403MPD2    N1 6080   3.730   4.142  12.882 -0.2236  0.4726  0.7450
  403MPD2    H7 6081   3.687   4.137  12.790 -0.1926  0.3194  0.7392
  404TMC3    C1 6082   3.536   4.235  12.975  0.3460 -0.7087  1.0067
  404TMC3    C2 6083   3.493   4.301  13.088  0.4295  0.0020  0.4160
  404TMC3    C3 6084   3.391   4.392  13.074  0.6499  0.5810  0.0318
  404TMC3    C4 6085   3.495   4.262  12.848  0.1400 -0.1927  0.2338
  404TMC3    C5 6086   3.399   4.362  12.833 -0.1220  1.1135  0.1025
  404TMC3    C6 6087   3.363   4.430  12.948  0.1278  0.5585  0.2278
  404TMC3     C 6088   3.661   4.170  12.992  0.7010 -0.0793 -0.8202
  404TMC3     O 6089   3.682   4.131  13.103 -0.5479  0.1550 -0.1924
  404TMC3     H 6090   3.537   4.270  13.182 -0.0867  1.9072  1.2770
  404TMC3    H1 6091   3.526   4.197  12.767 -2.4817  0.5085 -1.3289
  404TMC3    H2 6092   3.300   4.516  12.928  1.7474  1.3527 -1.4884
  404TMC3    C7 6093   3.443   4.457  12.730 -0.3417 -0.2938 -0.2200
  404TMC3    C8 6094   3.344   4.464  13.190 -0.4034  0.1749 -1.1366
  404TMC3    O1 6095   3.556   4.490  12.754  0.1366 -0.2746 -0.5175
  404TMC3    O2 6096   3.318   4.580  13.175  0.1922  0.1969  0.6917
  405MPD2     C 6097   3.681   1.290  15.130  0.5949  0.1180  0.3103
  405MPD2    C1 6098   3.627   1.194  15.050 -0.2518  0.1002  0.3752
  405MPD2    C2 6099   3.493   1.198  15.026  0.3460  0.2037  0.4059
  405MPD2    C3 6100   3.406   1.284  15.082 -0.2645  0.1271  0.1003
  405MPD2    C4 6101   3.466   1.385  15.155  0.1947 -0.4112  0.5959
  405MPD2    C5 6102   3.605   1.391  15.172 -0.0095  0.4241  0.0174
  405MPD2     H 6103   3.444   1.113  14.980 -0.6299  0.9167  0.1148
  405MPD2    H1 6104   3.411   1.477  15.169 -2.0916 -1.5201 -0.8770
  405MPD2    H2 6105   3.788   1.292  15.143  0.6294  0.3895 -0.0290
  405MPD2    H3 6106   3.658   1.476  15.215 -0.3667 -0.0710  1.4388
  405MPD2     N 6107   3.268   1.264  15.064  0.2812 -0.6400 -0.5514
  405MPD2    H5 6108   3.248   1.189  14.998  2.2635 -0.2042 -1.6601
  405MPD2    N1 6109   3.692   1.092  14.988 -0.8909 -0.1164 -0.0298
  405MPD2    H7 6110   3.635   1.024  14.938 -0.9458  0.1740 -0.3593
  406TMC3    C1 6111   2.827   1.278  15.001  0.1433 -0.0734 -0.1637
  406TMC3    C2 6112   2.831   1.139  14.992 -0.6580 -0.7769 -0.1513
  406TMC3    C3 6113   2.943   1.070  15.024  0.4190  1.0391  0.0789
  406TMC3    C4 6114   2.939   1.350  15.045  0.3244  0.1172 -0.2880
  406TMC3    C5 6115   3.045   1.271  15.084  0.6820  0.1365  0.9323
  406TMC3    C6 6116   3.049   1.133  15.082  0.4278  0.6211 -0.3987
  406TMC3     C 6117   2.743   1.348  14.905 -0.5872 -1.1780 -0.2863
  406TMC3     O 6118   2.665   1.431  14.944  0.0475  0.1924  0.3407
  406TMC3     H 6119   2.744   1.083  14.960 -0.2860 -1.0595 -0.6675
  406TMC3    H1 6120   2.934   1.458  15.042 -1.4881  0.0117 -1.0739
  406TMC3    H2 6121   3.124   1.069  15.127  0.8057  0.0026 -1.9060
  406TMC3    C7 6122   3.163   1.331  15.120 -0.0691 -0.2155  0.0530
  406TMC3    C8 6123   2.954   0.925  15.017  0.6230  0.7701 -0.4197
  406TMC3    O1 6124   3.154   1.426  15.197 -0.0479 -0.4491 -0.1505
  406TMC3    O2 6125   2.856   0.856  15.051  0.0299  0.8041  0.4069
  407MPD2     C 6126   0.634   2.257  10.172 -0.3459 -0.3546 -0.4440
  407MPD2    C1 6127   0.607   2.383  10.131  0.1118  0.3211 -0.1484
  407MPD2    C2 6128   0.693   2.484  10.172 -0.0778 -0.5272 -0.1455
  407MPD2    C3 6129   0.807   2.467  10.248  0.4084  0.1684  0.5270
  407MPD2    C4 6130   0.825   2.337  10.292  1.0505  0.2435 -0.4904
  407MPD2    C5 6131   0.744   2.239  10.250 -0.5883  0.0591  0.1386
  407MPD2     H 6132   0.668   2.584  10.139  1.5915  0.0194  0.2965
  407MPD2    H1 6133   0.908   2.322  10.359  2.0909  2.6626 -1.2335
  407MPD2    H2 6134   0.572   2.173  10.143 -1.3129  0.5527 -1.0106
  407MPD2    H3 6135   0.748   2.139  10.291  0.5541 -0.0723 -0.3101
  407MPD2     N 6136   0.892   2.576  10.295  0.0703 -0.1592  0.0417
  407MPD2    H5 6137   0.968   2.551  10.358  1.5631 -0.0521 -1.6958
  407MPD2    N1 6138   0.504   2.419  10.042 -0.3038 -0.0454  0.5762
  407MPD2    H7 6139   0.505   2.513  10.004  0.8400 -0.1360  0.3940
  408TMC3    C1 6140   0.325   2.399   9.885  0.3098  0.0985  0.5182
  408TMC3    C2 6141   0.361   2.519   9.824  0.3413  0.0507  0.3726
  408TMC3    C3 6142   0.258   2.574   9.754  0.1351  0.4293  0.2150
  408TMC3    C4 6143   0.201   2.335   9.863  0.0707 -0.4642 -0.0172
  408TMC3    C5 6144   0.107   2.403   9.788 -0.0977  0.3670  0.6805
  408TMC3    C6 6145   0.136   2.521   9.733  0.2089  0.1723 -0.1492
  408TMC3     C 6146   0.421   2.332   9.975  0.3350  0.4632 -0.1615
  408TMC3     O 6147   0.418   2.213   9.973  0.0114 -0.2128 -0.9224
  408TMC3     H 6148   0.459   2.562   9.838  0.1153  0.0530  1.9562
  408TMC3    H1 6149   0.183   2.233   9.896 -1.0506 -0.0877  0.5228
  408TMC3    H2 6150   0.051   2.570   9.686 -0.1130 -0.0680  0.1766
  408TMC3    C7 6151   4.709   2.351   9.767  0.5142  0.9100 -0.0384
  408TMC3    C8 6152   0.289   2.687   9.671 -0.4315 -0.4611  0.0519
  408TMC3    O1 6153   4.631   2.403   9.692  0.1490 -0.2937 -0.2943
  408TMC3    O2 6154   0.201   2.758   9.627 -0.0500  0.3426  0.8349
  409MPD2     C 6155   0.931   2.123  16.521  0.1912  0.8215  0.0678
  409MPD2    C1 6156   0.935   2.183  16.644 -0.4291 -0.4854 -0.0989
  409MPD2    C2 6157   0.951   2.326  16.659 -0.1806 -0.2273 -0.1013
  409MPD2    C3 6158   0.986   2.398  16.544  0.4414 -0.1936 -0.1242
  409MPD2    C4 6159   0.979   2.332  16.425 -0.3796 -0.3848  0.4966
  409MPD2    C5 6160   0.965   2.196  16.412 -0.6695 -0.7781  0.0436
  409MPD2     H 6161   0.938   2.369  16.758 -1.6396 -1.9530  0.4557
  409MPD2    H1 6162   1.003   2.391  16.336  1.3367 -1.4333  0.2517
  409MPD2    H2 6163   0.901   2.020  16.505 -0.7104  0.9650  0.7880
  409MPD2    H3 6164   0.978   2.153  16.314 -0.5056  0.2749 -0.4046
  409MPD2     N 6165   1.008   2.539  16.546  0.0245 -0.0305 -0.3204
  409MPD2    H5 6166   1.017   2.579  16.453  1.9640  1.3690  0.4651
  409MPD2    N1 6167   0.920   2.097  16.760 -0.4634 -0.3787 -0.8827
  409MPD2    H7 6168   0.895   2.002  16.736  0.8171 -1.4508  2.0552
  410TMC3    C1 6169   1.129   2.716  16.628 -0.1625 -0.4067 -1.0028
  410TMC3    C2 6170   1.232   2.726  16.719  0.0016  0.0933 -0.2067
  410TMC3    C3 6171   1.340   2.804  16.684 -0.3281  0.3330 -0.9415
  410TMC3    C4 6172   1.124   2.781  16.509 -0.3309  0.1230 -1.0361
  410TMC3    C5 6173   1.229   2.870  16.486 -0.1414  0.0236 -0.8927
  410TMC3    C6 6174   1.332   2.890  16.581 -0.2249 -0.6468  0.2554
  410TMC3     C 6175   1.032   2.619  16.658  0.3582  0.2425 -0.7409
  410TMC3     O 6176   1.028   2.584  16.777  0.3275 -0.0956 -0.2366
  410TMC3     H 6177   1.232   2.660  16.806 -1.3435  1.0993  0.5571
  410TMC3    H1 6178   1.045   2.777  16.435 -0.6484  2.0194 -0.8163
  410TMC3    H2 6179   1.425   2.942  16.563  0.0358 -0.6636  1.5579
  410TMC3    C7 6180   1.214   2.957  16.369  0.3610  0.4363 -0.5607
  410TMC3    C8 6181   1.472   2.765  16.726 -0.9689 -0.5165  0.2298
  410TMC3    O1 6182   1.128   2.921  16.293 -0.4949 -0.2381 -0.1732
  410TMC3    O2 6183   1.564   2.764  16.640 -0.3952 -0.5588  0.2315
  411MPD2     C 6184   1.715   3.877  14.846 -0.0977  0.3793 -0.1952
  411MPD2    C1 6185   1.606   3.906  14.762  0.2190 -0.2878  0.1910
  411MPD2    C2 6186   1.526   3.805  14.711 -0.6811  0.4003 -0.6105
  411MPD2    C3 6187   1.563   3.673  14.720  0.4695  0.6257  0.2807
  411MPD2    C4 6188   1.690   3.644  14.776  0.6883 -0.4638  0.4381
  411MPD2    C5 6189   1.760   3.748  14.845 -0.4842  0.7170 -0.0959
  411MPD2     H 6190   1.434   3.833  14.661 -0.6600  0.2231 -0.7499
  411MPD2    H1 6191   1.711   3.539  14.789 -1.8383 -0.8785  1.2395
  411MPD2    H2 6192   1.774   3.956  14.892  0.7781 -0.2681 -0.1980
  411MPD2    H3 6193   1.861   3.727  14.878 -1.3282 -0.8306  1.4952
  411MPD2     N 6194   1.473   3.573  14.693 -0.1190  0.4003  0.6278
  411MPD2    H5 6195   1.510   3.478  14.688  1.3843  1.1743 -2.6750
  411MPD2    N1 6196   1.574   4.041  14.730 -0.1831  0.1506 -0.1177
  411MPD2    H7 6197   1.608   4.105  14.801 -0.1613  2.8465 -2.6185
  412TMC3    C1 6198   1.265   3.456  14.695 -0.0734 -0.1190 -0.0431
  412TMC3    C2 6199   1.146   3.449  14.757 -0.2201  0.1287  0.0821
  412TMC3    C3 6200   1.058   3.352  14.728  0.0288 -0.6678  0.4629
  412TMC3    C4 6201   1.301   3.368  14.590 -0.0540  0.3088 -0.0411
  412TMC3    C5 6202   1.204   3.281  14.554  0.2266  0.1008  0.2937
  412TMC3    C6 6203   1.089   3.273  14.623 -0.1032  0.0945  0.7457
  412TMC3     C 6204   1.332   3.586  14.692 -0.4927 -0.6706 -1.0243
  412TMC3     O 6205   1.252   3.680  14.707 -0.1437  0.0231  0.2174
  412TMC3     H 6206   1.122   3.527  14.829 -2.2496 -0.1800 -0.2743
  412TMC3    H1 6207   1.380   3.388  14.519 -2.2438 -0.5879 -2.7437
  412TMC3    H2 6208   1.013   3.203  14.590 -0.2760  0.3102  0.6845
  412TMC3    C7 6209   1.182   3.277  14.409 -0.4578  0.5375  1.2309
  412TMC3    C8 6210   0.926   3.400  14.700 -0.0512  0.3601 -0.0928
  412TMC3    O1 6211   1.276   3.237  14.336 -0.2680 -0.1302  0.5441
  412TMC3    O2 6212   0.918   3.470  14.601 -0.2227 -0.0536  0.1757
  413MPD2     C 6213   2.583   2.416  15.657  0.2607  0.1361  0.0002
  413MPD2    C1 6214   2.530   2.321  15.576  0.3036 -0.0200 -0.1040
  413MPD2    C2 6215   2.612   2.227  15.514  0.0170 -0.4544 -0.5462
  413MPD2    C3 6216   2.749   2.230  15.536 -0.3731 -0.0950  0.1746
  413MPD2    C4 6217   2.803   2.327  15.621 -0.5674  0.3393  0.5361
  413MPD2    C5 6218   2.723   2.420  15.677 -0.4345 -0.4773  0.3568
  413MPD2     H 6219   2.574   2.140  15.463  1.2118  0.2021 -2.5787
  413MPD2    H1 6220   2.907   2.338  15.650 -0.3756  0.3546 -0.1638
  413MPD2    H2 6221   2.521   2.499  15.690 -2.7128 -1.4543 -1.5758
  413MPD2    H3 6222   2.767   2.496  15.741  0.3895  0.8207 -1.7448
  413MPD2     N 6223   2.837   2.139  15.464 -0.6095  0.6510  0.6434
  413MPD2    H5 6224   2.793   2.078  15.396  1.0721 -0.0976  0.2267
  413MPD2    N1 6225   2.388   2.322  15.556  0.2090 -0.4277 -0.4271
  413MPD2    H7 6226   2.337   2.361  15.636  0.4440  0.4881 -0.7208
  414TMC3    C1 6227   3.035   2.044  15.386  0.2942 -0.5860  0.3672
  414TMC3    C2 6228   3.121   1.959  15.451 -0.3534  1.0122 -0.1309
  414TMC3    C3 6229   3.129   1.832  15.407 -0.3165 -0.3068 -0.0591
  414TMC3    C4 6230   2.961   2.002  15.281  0.0227 -0.4867 -0.7057
  414TMC3    C5 6231   2.968   1.871  15.238  0.6769 -0.3432  1.0367
  414TMC3    C6 6232   3.060   1.788  15.297  0.0980  0.9381  0.8093
  414TMC3     C 6233   2.969   2.131  15.481  0.3559 -0.7077 -0.3894
  414TMC3     O 6234   3.041   2.213  15.533 -0.5720  0.4535 -0.5966
  414TMC3     H 6235   3.174   1.993  15.540  0.8160  0.3869 -0.5908
  414TMC3    H1 6236   2.898   2.070  15.225 -1.0282  1.8292  3.3321
  414TMC3    H2 6237   3.074   1.689  15.257  1.7091  0.4160  2.6781
  414TMC3    C7 6238   2.970   1.859  15.098 -0.2974  0.0454 -0.2890
  414TMC3    C8 6239   3.238   1.744  15.443  0.6720 -0.1589 -0.1079
  414TMC3    O1 6240   2.878   1.804  15.041  0.3072  0.1416 -0.5257
  414TMC3    O2 6241   3.213   1.624  15.458 -0.1251  0.1337  0.2570
  415TMC3    C1 6242   2.515   0.627   9.675  0.2688 -0.2396  0.1342
  415TMC3    C2 6243   2.556   0.716   9.774 -0.4051 -0.6572  0.0879
  415TMC3    C3 6244   2.455   0.795   9.824  0.4159  0.0454  0.5940
  415TMC3    C4 6245   2.386   0.621   9.623  0.2251 -0.2252 -0.1839
  415TMC3    C5 6246   2.291   0.695   9.688 -0.5808  0.2654 -0.4807
  415TMC3    C6 6247   2.325   0.795   9.777 -0.5575  1.3833 -0.5793
  415TMC3     C 6248   2.602   0.528   9.624  0.9260 -0.0993 -0.4513
  415TMC3     O 6249   2.554   0.425   9.580  0.1897 -0.2971  0.2892
  415TMC3     H 6250   2.652   0.700   9.822 -0.6889 -0.5491  0.6880
  415TMC3    H1 6251   2.369   0.561   9.535  0.6319  1.0461 -1.1240
  415TMC3    H2 6252   2.247   0.856   9.821 -0.7922  0.4190  0.3399
  415TMC3    C7 6253   2.157   0.638   9.698 -0.5218  0.9836 -0.7869
  415TMC3    C8 6254   2.493   0.891   9.927 -0.4182  0.2371  0.0880
  415TMC3    O1 6255   2.075   0.692   9.772 -0.0419 -0.5095 -0.7860
  415TMC3    O2 6256   2.400   0.958   9.976  0.5625 -0.4683 -0.1334
  416MPD2     C 6257   0.013   3.018  11.876  0.6333 -0.2651 -1.2377
  416MPD2    C1 6258   4.667   3.108  11.813  0.4477  0.6684  0.1399
  416MPD2    C2 6259   4.711   3.160  11.692  0.3245  0.2166 -0.1804
  416MPD2    C3 6260   0.103   3.130  11.644  0.3008 -0.6221 -0.5958
  416MPD2    C4 6261   0.167   3.020  11.704 -1.1498  0.1753 -0.7906
  416MPD2    C5 6262   0.132   2.977  11.825 -1.0023  0.3279  0.1471
  416MPD2     H 6263   4.654   3.232  11.635 -0.4171  0.3976  0.7830
  416MPD2    H1 6264   0.268   2.993  11.675 -1.0447 -1.1420  0.8574
  416MPD2    H2 6265   4.714   2.975  11.969  1.1287  0.6167 -0.6483
  416MPD2    H3 6266   0.197   2.901  11.869 -1.7235  0.1876  0.9760
  416MPD2     N 6267   0.166   3.183  11.531 -1.2136 -0.0875 -0.0018
  416MPD2    H5 6268   0.264   3.164  11.516 -1.1765 -0.1053  0.2773
  416MPD2    N1 6269   4.543   3.141  11.877 -0.2648  0.0177 -0.9997
  416MPD2    H7 6270   4.540   3.111  11.974 -1.7091  1.9856 -0.4342
  417TMC3    C1 6271   4.365   3.292  11.932  0.4741 -0.2003  0.0351
  417TMC3    C2 6272   4.384   3.274  12.062 -0.0573 -0.7673  0.0916
  417TMC3    C3 6273   4.294   3.332  12.148 -0.6936  0.4608  0.2955
  417TMC3    C4 6274   4.255   3.368  11.889 -0.8006  0.1751  0.2284
  417TMC3    C5 6275   4.175   3.438  11.978 -0.5635  0.1136 -0.4934
  417TMC3    C6 6276   4.196   3.424  12.113  0.3667 -0.0342 -0.0835
  417TMC3     C 6277   4.439   3.224  11.827 -0.4132  0.4081  0.3273
  417TMC3     O 6278   4.411   3.232  11.707  0.0275  0.2205 -0.5696
  417TMC3     H 6279   4.477   3.232  12.099 -2.0793 -0.1910  5.8528
  417TMC3    H1 6280   4.215   3.368  11.788  0.2402  1.3039 -0.1860
  417TMC3    H2 6281   4.139   3.473  12.191 -1.1129  3.0925 -3.1271
  417TMC3    C7 6282   4.134   3.567  11.940  0.0495  0.2158  0.3888
  417TMC3    C8 6283   4.330   3.351  12.286  0.6620 -0.6163  0.6609
  417TMC3    O1 6284   4.093   3.584  11.826  0.0133 -0.5659  0.3427
  417TMC3    O2 6285   4.309   3.458  12.337 -0.0197 -0.2008 -0.1313
  418TMC3    C1 6286   3.900   4.504   0.533 -0.3298 -0.1591 -0.0183
  418TMC3    C2 6287   3.801   4.551   0.448 -0.4233 -0.5430  0.3055
  418TMC3    C3 6288   3.671   4.556   0.489  0.4524  0.2017 -0.2621
  418TMC3    C4 6289   3.875   4.475   0.659  0.1987  0.0488  0.0294
  418TMC3    C5 6290   3.746   4.468   0.697  0.0380  0.4318  0.0114
  418TMC3    C6 6291   3.644   4.514   0.616  0.5820  0.1600  0.1179
  418TMC3     C 6292   4.024   4.464   0.473 -0.2802 -0.3549  0.8924
  418TMC3     O 6293   4.072   4.540   0.390 -0.0092  0.4519 -0.4515
  418TMC3     H 6294   3.826   4.568   0.344 -2.4778  0.6351  0.0030
  418TMC3    H1 6295   3.951   4.434   0.724 -0.1166  0.6688  0.7920
  418TMC3    H2 6296   3.541   4.512   0.650  1.1564 -0.7163  1.8120
  418TMC3    C7 6297   3.711   4.413   0.829  0.2883  0.6541 -0.2844
  418TMC3    C8 6298   3.582   4.525   0.382 -0.6295  0.4792 -0.1945
  418TMC3    O1 6299   3.600   4.361   0.837  0.1256 -0.2370 -0.3467
  418TMC3    O2 6300   3.564   4.602   0.285 -0.0320  0.3608 -0.0422
  419MPD2     C 6301   2.784   3.766  12.519  0.9596  0.1013 -0.0833
  419MPD2    C1 6302   2.647   3.763  12.496 -0.8243  0.5950  0.6351
  419MPD2    C2 6303   2.564   3.761  12.604  0.0352 -0.2284  0.0965
  419MPD2    C3 6304   2.617   3.741  12.729 -0.1022 -0.0324  0.2730
  419MPD2    C4 6305   2.756   3.740  12.756  0.3314 -0.5330 -0.5842
  419MPD2    C5 6306   2.835   3.755  12.646  0.4364  0.3191 -0.1608
  419MPD2     H 6307   2.459   3.783  12.590  1.0566  5.3053  0.9365
  419MPD2    H1 6308   2.809   3.745  12.850 -2.5949  1.9644  0.9210
  419MPD2    H2 6309   2.858   3.765  12.440  0.3704  1.3677 -0.6379
  419MPD2    H3 6310   2.941   3.770  12.662  0.5770 -1.0761  0.2059
  419MPD2     N 6311   2.522   3.729  12.833 -0.7862  0.3458 -0.0416
  419MPD2    H5 6312   2.429   3.763  12.811 -0.2826  0.9684 -1.1755
  419MPD2    N1 6313   2.589   3.780  12.366  0.3376  0.1422  0.0964
  419MPD2    H7 6314   2.490   3.802  12.358 -0.0245 -1.0263  1.4558
  420TMC3    C1 6315   2.435   3.701  13.052  0.3300 -0.2238  0.1364
  420TMC3    C2 6316   2.334   3.794  13.032  0.1608 -0.3310 -0.1969
  420TMC3    C3 6317   2.208   3.774  13.092  0.2329 -0.2795  0.3025
  420TMC3    C4 6318   2.424   3.609  13.141 -0.1621 -0.8050 -0.2017
  420TMC3    C5 6319   2.304   3.597  13.207 -0.7625 -0.5167  0.3283
  420TMC3    C6 6320   2.193   3.673  13.182  0.1436 -0.4348  0.4773
  420TMC3     C 6321   2.552   3.693  12.964  0.1993 -0.4968  0.5584
  420TMC3     O 6322   2.656   3.652  13.017 -0.0076  0.4480  0.1751
  420TMC3     H 6323   2.359   3.873  12.963 -0.0814  0.2840  0.4201
  420TMC3    H1 6324   2.508   3.546  13.169  0.9622  0.2894 -1.1293
  420TMC3    H2 6325   2.099   3.661  13.234 -0.5501  1.5770 -0.3085
  420TMC3    C7 6326   2.304   3.508  13.321  0.2462  0.2858 -0.7301
  420TMC3    C8 6327   2.088   3.841  13.036 -0.6007 -0.8811  0.6364
  420TMC3    O1 6328   2.410   3.468  13.363 -0.4083  0.5258  0.1100
  420TMC3    O2 6329   2.116   3.933  12.961 -0.0398 -0.0998  0.8980
  421TMC3    C1 6330   4.317   4.295  13.232 -0.3643 -0.2389  0.0787
  421TMC3    C2 6331   4.267   4.422  13.241  0.3955 -0.4142  0.0252
  421TMC3    C3 6332   4.302   4.503  13.345 -0.6058 -0.1692  0.0332
  421TMC3    C4 6333   4.407   4.246  13.323  0.7463  0.5561 -0.2733
  421TMC3    C5 6334   4.438   4.331  13.432 -0.5725 -0.0784 -0.5772
  421TMC3    C6 6335   4.392   4.459  13.440  0.3772  0.0044  0.6958
  421TMC3     C 6336   4.282   4.209  13.122 -0.3239 -0.4676  0.5792
  421TMC3     O 6337   4.354   4.119  13.079 -0.8684 -0.9856 -0.1142
  421TMC3     H 6338   4.208   4.465  13.162  0.2924  1.6789  1.2434
  421TMC3    H1 6339   4.453   4.149  13.306  1.3932  1.0155 -1.1603
  421TMC3    H2 6340   4.418   4.527  13.520  1.3439 -0.1546  0.5099
  421TMC3    C7 6341   4.556   4.303  13.517  0.5752  0.0999 -0.2548
  421TMC3    C8 6342   4.258   4.637  13.352  0.1835  0.6076 -0.6070
  421TMC3    O1 6343   4.624   4.399  13.550 -0.3182 -0.0847  0.2856
  421TMC3    O2 6344   4.303   4.707  13.439 -0.3466  0.7764  0.1289
  422TMC3    C1 6345   1.290   1.736  12.647 -0.8830 -0.0829  0.0574
  422TMC3    C2 6346   1.324   1.865  12.626 -0.2356  0.1597 -0.2366
  422TMC3    C3 6347   1.219   1.957  12.615  1.5966  0.1868  0.9327
  422TMC3    C4 6348   1.157   1.697  12.655 -0.4125 -0.2193  0.5241
  422TMC3    C5 6349   1.055   1.785  12.634  0.0809  0.6030 -0.2087
  422TMC3    C6 6350   1.086   1.916  12.607  0.1816 -0.4536 -0.0934
  422TMC3     C 6351   1.390   1.635  12.648  0.0813  0.1492  0.7329
  422TMC3     O 6352   1.366   1.529  12.701 -0.2458 -0.1295  0.1149
  422TMC3     H 6353   1.425   1.898  12.603 -1.0362  1.5062 -1.8553
  422TMC3    H1 6354   1.136   1.591  12.667  0.4532 -0.2397  1.8574
  422TMC3    H2 6355   1.008   1.992  12.604  2.9488  2.2834 -2.3017
  422TMC3    C7 6356   0.939   1.731  12.567 -0.6154 -0.2900  0.2142
  422TMC3    C8 6357   1.253   2.096  12.574  0.6855 -0.7153 -0.3346
  422TMC3    O1 6358   0.875   1.810  12.499 -0.2412  0.4784  0.6230
  422TMC3    O2 6359   1.365   2.136  12.609 -0.5676  0.9414 -0.1116
  423MPD2     C 6360   1.828   1.513   0.480 -0.1495  0.0901  0.3444
  423MPD2    C1 6361   1.858   1.627   0.420 -0.6035 -0.4711  0.0282
  423MPD2    C2 6362   1.943   1.626   0.316 -0.6080  0.2660  1.2982
  423MPD2    C3 6363   2.003   1.512   0.268  0.2677  0.2499  0.4146
  423MPD2    C4 6364   1.958   1.395   0.321  0.2235  0.1765 -0.4350
  423MPD2    C5 6365   1.875   1.399   0.427 -0.4628  0.8910  0.5057
  423MPD2     H 6366   1.970   1.716   0.263 -0.0353 -0.9740 -0.4932
  423MPD2    H1 6367   1.990   1.295   0.293 -0.3326  0.0289 -0.5453
  423MPD2    H2 6368   1.761   1.502   0.565  0.0607 -2.6602  0.1695
  423MPD2    H3 6369   1.840   1.305   0.469  1.6131 -0.2850 -0.4096
  423MPD2     N 6370   2.095   1.515   0.161 -0.7871  0.6831  0.5926
  423MPD2    H5 6371   2.109   1.607   0.122  1.7755  0.4916  1.0627
  423MPD2    N1 6372   1.810   1.752   0.466 -0.5990  0.3526  0.4012
  423MPD2    H7 6373   1.856   1.835   0.429  0.6333  0.2303  1.6184
  424TMC3    C1 6374   1.759   1.892   0.636 -0.0740 -0.1036 -0.4056
  424TMC3    C2 6375   1.894   1.907   0.670  0.4029 -0.2979 -0.6847
  424TMC3    C3 6376   1.918   1.968   0.793 -0.8933  0.0123  0.0482
  424TMC3    C4 6377   1.658   1.925   0.723  0.1162  0.0833  0.2048
  424TMC3    C5 6378   1.698   1.987   0.836  0.1215 -0.3686  0.1264
  424TMC3    C6 6379   1.819   2.014   0.875  0.1398  0.0643 -0.0724
  424TMC3     C 6380   1.733   1.767   0.575 -0.9554 -0.0297 -0.0399
  424TMC3     O 6381   1.651   1.692   0.627 -0.2607 -0.1177 -0.2566
  424TMC3     H 6382   1.980   1.857   0.628  0.2279  0.1627 -1.5833
  424TMC3    H1 6383   1.558   1.926   0.682  0.0680 -0.3246  0.3155
  424TMC3    H2 6384   1.836   2.080   0.959 -2.9719  1.8072 -0.7905
  424TMC3    C7 6385   1.592   2.056   0.904  0.2969  0.0395  0.8892
  424TMC3    C8 6386   2.041   1.935   0.859 -0.2067 -0.1127 -0.6272
  424TMC3    O1 6387   1.618   2.145   0.980  0.1089 -0.0902 -0.1649
  424TMC3    O2 6388   2.138   1.913   0.793  0.3949 -0.2077  0.3782
  425MPD2     C 6389   1.601   0.979  17.718 -0.1518  0.5340  0.1989
  425MPD2    C1 6390   1.611   0.983  17.582 -0.2918  1.2609 -0.0439
  425MPD2    C2 6391   1.524   1.063  17.512  0.0477  0.1161  0.2153
  425MPD2    C3 6392   1.411   1.117  17.569 -0.5668 -0.3822 -0.5551
  425MPD2    C4 6393   1.393   1.094  17.707 -0.4489 -0.2679 -0.2998
  425MPD2    C5 6394   1.495   1.033   0.041 -0.4410  0.1672  0.4338
  425MPD2     H 6395   1.528   1.070  17.404 -3.6372 -0.8242 -0.0024
  425MPD2    H1 6396   1.296   1.106   0.013 -0.7626 -1.1407 -0.7375
  425MPD2    H2 6397   1.669   0.915   0.033 -1.0604 -1.1885 -0.6675
  425MPD2    H3 6398   1.488   1.004   0.145 -2.6811 -0.6235  0.0621
  425MPD2     N 6399   1.317   1.179  17.486 -0.5718  0.2583  0.0728
  425MPD2    H5 6400   1.326   1.178  17.384 -0.9107 -0.4186  0.0487
  425MPD2    N1 6401   1.699   0.890  17.524 -0.0450 -0.3903 -0.1136
  425MPD2    H7 6402   1.751   0.829  17.586  1.1836  1.8584  1.0704
  426TMC3    C1 6403   1.786   0.751  17.351 -0.2696 -0.5452 -0.7608
  426TMC3    C2 6404   1.866   0.744  17.239  0.0556  0.2438  0.4159
  426TMC3    C3 6405   1.922   0.625  17.210 -0.1662  0.8244  0.1284
  426TMC3    C4 6406   1.755   0.652  17.433 -0.7137 -0.5237 -0.1300
  426TMC3    C5 6407   1.802   0.528  17.392  0.1776 -0.8370 -0.5123
  426TMC3    C6 6408   1.883   0.515  17.280 -0.2213 -0.2487  0.1073
  426TMC3     C 6409   1.733   0.877  17.390 -0.7134 -0.8776  0.2214
  426TMC3     O 6410   1.694   0.951  17.300  0.3919 -0.3501 -0.2172
  426TMC3     H 6411   1.877   0.840  17.190  0.8126 -0.5005 -0.8973
  426TMC3    H1 6412   1.681   0.666  17.510 -0.9754 -1.0908 -0.2741
  426TMC3    H2 6413   1.916   0.414  17.256  0.6355 -0.6585  2.9918
  426TMC3    C7 6414   1.790   0.415  17.481 -0.1679  0.2296 -0.2810
  426TMC3    C8 6415   1.976   0.594  17.076 -0.1096  0.0789 -0.0395
  426TMC3    O1 6416   1.893   0.348  17.501 -0.3280  0.7239  0.8262
  426TMC3    O2 6417   1.983   0.475  17.054 -0.1888 -0.1837  0.3553
  427MPD2     C 6418   0.603   4.074  14.750 -0.4605  0.2887  0.1630
  427MPD2    C1 6419   0.553   3.961  14.810 -0.1569 -0.0385  1.0980
  427MPD2    C2 6420   0.421   3.955  14.827  0.0653 -0.3844  0.2059
  427MPD2    C3 6421   0.337   4.044  14.779  0.7078  0.3570 -0.5485
  427MPD2    C4 6422   0.378   4.151  14.716  0.2653 -0.4331 -0.3258
  427MPD2    C5 6423   0.512   4.165  14.695  0.1643 -0.0934  0.7814
  427MPD2     H 6424   0.385   3.868  14.880 -3.1333 -0.3048 -1.8962
  427MPD2    H1 6425   0.313   4.235  14.695  0.1208 -0.3676  0.4026
  427MPD2    H2 6426   0.709   4.082  14.732 -0.1610  0.3322  2.0126
  427MPD2    H3 6427   0.542   4.257  14.646  1.7055  0.4618  2.7297
  427MPD2     N 6428   0.196   4.026  14.793 -0.4305 -0.1112  0.8691
  427MPD2    H5 6429   0.139   4.103  14.759 -0.1090 -0.3382 -0.1888
  427MPD2    N1 6430   0.632   3.853  14.853  0.1948  0.3650 -0.1657
  427MPD2    H7 6431   0.580   3.784  14.908  2.1121 -0.4560  0.6095
  428TMC3    C1 6432   0.815   3.748  14.950  0.0572  0.2028  0.1137
  428TMC3    C2 6433   0.750   3.629  14.964 -0.0393 -0.0892 -0.2276
  428TMC3    C3 6434   0.807   3.542  15.053  0.2663  0.0726 -0.0445
  428TMC3    C4 6435   0.939   3.771  15.001  0.1293  0.3426 -0.3367
  428TMC3    C5 6436   1.000   3.671  15.074 -0.1410  0.1036 -0.8151
  428TMC3    C6 6437   0.929   3.561  15.107 -0.3604 -0.1910  0.0387
  428TMC3     C 6438   0.773   3.844  14.855 -0.6465  0.4368  0.6206
  428TMC3     O 6439   0.854   3.919  14.801  0.2721 -0.0030 -0.5820
  428TMC3     H 6440   0.672   3.601  14.894  1.3786  0.5817 -2.0958
  428TMC3    H1 6441   0.982   3.870  14.995 -0.8354  0.9889  3.1260
  428TMC3    H2 6442   0.976   3.486  15.170  0.1340  1.5317  1.6851
  428TMC3    C7 6443   1.120   3.691  15.157  0.1338 -0.1261 -0.8140
  428TMC3    C8 6444   0.721   3.437  15.101 -0.4678 -0.5918 -0.3779
  428TMC3    O1 6445   1.128   3.635  15.264 -0.2982  0.4374 -0.0715
  428TMC3    O2 6446   0.623   3.410  15.033  0.8356 -0.2756  0.0455
  429MPD2     C 6447   1.880   3.122  17.336 -0.6001 -0.5213  0.1695
  429MPD2    C1 6448   1.896   2.997  17.283 -1.3580 -0.3188  0.2887
  429MPD2    C2 6449   1.974   2.977  17.168  0.4669 -0.2458  0.3232
  429MPD2    C3 6450   2.034   3.079  17.105 -0.4714  0.6870 -0.8941
  429MPD2    C4 6451   2.036   3.198  17.173 -0.1588  0.5268  0.0683
  429MPD2    C5 6452   1.956   3.220  17.283  0.1248  0.5276 -0.2661
  429MPD2     H 6453   1.986   2.886  17.111 -0.0926 -1.3205  1.9239
  429MPD2    H1 6454   2.087   3.285  17.133 -3.6055  3.3759  1.8342
  429MPD2    H2 6455   1.835   3.133  17.433  0.0413  0.9985  0.2957
  429MPD2    H3 6456   1.973   3.310  17.341 -2.4245  0.7696  0.0975
  429MPD2     N 6457   2.088   3.059  16.979 -0.2154 -0.0692  0.7187
  429MPD2    H5 6458   2.056   2.982  16.920  0.8781  0.4607 -0.5813
  429MPD2    N1 6459   1.837   2.876  17.343  0.3971  0.4315  1.0203
  429MPD2    H7 6460   1.872   2.786  17.313 -0.1928  0.0695  1.4407
  430TMC3    C1 6461   2.169   3.141  16.776  0.2641  0.3862 -0.5472
  430TMC3    C2 6462   2.257   3.218  16.713 -0.0620  0.1193 -0.0718
  430TMC3    C3 6463   2.292   3.186  16.581  0.0691  0.4446  1.1461
  430TMC3    C4 6464   2.115   3.030  16.722 -0.5094 -0.7919 -0.2326
  430TMC3    C5 6465   2.164   2.992  16.595  0.1593  0.3289  0.4964
  430TMC3    C6 6466   2.247   3.071  16.528 -0.0471  0.1432 -0.4377
  430TMC3     C 6467   2.165   3.153  16.915 -0.0458  0.1219 -0.4321
  430TMC3     O 6468   2.240   3.241  16.960 -0.5192  0.5277  0.0954
  430TMC3     H 6469   2.287   3.313  16.757 -1.1180  1.6209 -2.5817
  430TMC3    H1 6470   2.028   2.978  16.760 -1.5277  0.5869 -0.6691
  430TMC3    H2 6471   2.271   3.049  16.424  1.4617  1.4869 -0.3763
  430TMC3    C7 6472   2.098   2.871  16.546 -0.3043 -0.5217 -0.1398
  430TMC3    C8 6473   2.323   3.291  16.491  0.8946 -0.0583 -0.2661
  430TMC3    O1 6474   1.988   2.835  16.589 -0.4449 -0.7956  0.5118
  430TMC3    O2 6475   2.409   3.260  16.410  0.3478 -0.2478  0.5560
  431MPD2     C 6476   2.363   4.656  12.004  0.0235 -0.2081  0.5964
  431MPD2    C1 6477   2.475   4.607  12.064  1.0066 -0.5261 -0.3188
  431MPD2    C2 6478   2.492   4.475  12.067 -0.3291  0.0231 -0.0016
  431MPD2    C3 6479   2.404   4.385  12.010 -0.5479 -0.1872 -0.0915
  431MPD2    C4 6480   2.292   4.433  11.948 -0.0283  0.8866  0.3021
  431MPD2    C5 6481   2.271   4.568  11.950 -0.0913  0.4852  0.1817
  431MPD2     H 6482   2.585   4.443  12.112  0.5140  1.4721 -0.7398
  431MPD2    H1 6483   2.222   4.361  11.907  1.4493 -1.1418  1.3529
  431MPD2    H2 6484   2.336   0.024  11.990 -3.4893 -1.3466 -1.0735
  431MPD2    H3 6485   2.177   4.600  11.907 -0.3668  0.3533  0.6921
  431MPD2     N 6486   2.429   4.246  12.000  0.5032 -0.0204  0.1345
  431MPD2    H5 6487   2.362   4.197  11.943 -0.6897 -1.4889  2.8015
  431MPD2    N1 6488   2.572   4.693  12.115  0.2403  0.1441  0.8844
  431MPD2    H7 6489   2.663   4.650  12.129  0.4669  0.3214 -0.0181
  432TMC3    C1 6490   2.532   4.038  12.037 -0.1191 -0.6709  0.0472
  432TMC3    C2 6491   2.583   4.000  11.919 -0.1096  0.4967  0.5217
  432TMC3    C3 6492   2.621   3.867  11.906 -0.5470  0.4293 -0.4168
  432TMC3    C4 6493   2.535   3.948  12.143 -0.3470 -0.0632  0.5846
  432TMC3    C5 6494   2.587   3.823  12.131  0.4968  0.3536 -0.2697
  432TMC3    C6 6495   2.629   3.775  12.010 -0.5226  0.0163 -0.5257
  432TMC3     C 6496   2.530   4.180  12.061  0.0448  0.7894  0.0677
  432TMC3     O 6497   2.594   4.222  12.157  0.0447  0.3170 -0.0795
  432TMC3     H 6498   2.603   4.076  11.844 -1.3103 -1.3265 -1.6484
  432TMC3    H1 6499   2.515   3.997  12.238  0.3706  1.3687 -0.0223
  432TMC3    H2 6500   2.670   3.675  12.001  0.1569  0.2281  0.2482
  432TMC3    C7 6501   2.663   3.784  12.249  0.1830 -0.3288 -0.2924
  432TMC3    C8 6502   2.690   3.845  11.780  0.1229 -0.0858  0.5963
  432TMC3    O1 6503   2.778   3.746  12.222 -0.4822 -0.1974 -0.1031
  432TMC3    O2 6504   2.670   3.920  11.687 -0.6764 -0.4788  0.3672
  433MPD2     C 6505   1.116   2.710  10.670 -0.7552  0.3171 -0.0176
  433MPD2    C1 6506   1.197   2.616  10.724  0.6707  0.1484  0.9693
  433MPD2    C2 6507   1.262   2.640  10.847  0.2780 -0.5374 -0.2728
  433MPD2    C3 6508   1.243   2.755  10.919 -0.7905  0.4887  0.2875
  433MPD2    C4 6509   1.155   2.849  10.870 -1.0579 -0.1449 -0.7147
  433MPD2    C5 6510   1.100   2.825  10.746  0.6231  0.5493 -0.2382
  433MPD2     H 6511   1.313   2.557  10.894 -1.4121 -0.2058  2.1835
  433MPD2    H1 6512   1.128   2.938  10.926  0.4980  0.2526 -0.5932
  433MPD2    H2 6513   1.050   2.693  10.586  1.5115 -0.2981 -1.6640
  433MPD2    H3 6514   1.028   2.898  10.710  0.0998 -1.6269 -3.6482
  433MPD2     N 6515   1.309   2.768  11.039  0.6508 -0.0841 -0.6710
  433MPD2    H5 6516   1.364   2.689  11.070  0.6747  0.6022  1.0154
  433MPD2    N1 6517   1.225   2.489  10.673  0.2247 -0.0043  0.0127
  433MPD2    H7 6518   1.292   2.435  10.727  1.0360 -0.2716 -1.2610
  434TMC3    C1 6519   1.223   2.277  10.562 -0.2969  0.4356 -0.3770
  434TMC3    C2 6520   1.299   2.230  10.669  0.2319  0.0043  0.0207
  434TMC3    C3 6521   1.301   2.093  10.688 -0.0142 -0.7382 -0.6483
  434TMC3    C4 6522   1.138   2.199  10.486 -0.5195  0.6591  0.2572
  434TMC3    C5 6523   1.141   2.067  10.515  0.0169 -0.3241  0.6974
  434TMC3    C6 6524   1.229   2.002  10.601  0.2890  0.1763 -0.0622
  434TMC3     C 6525   1.175   2.420  10.557  0.7532 -0.5249 -0.3545
  434TMC3     O 6526   1.118   2.470  10.457  0.2575  0.0590  0.3148
  434TMC3     H 6527   1.371   2.292  10.721 -2.2548  0.8610  2.4588
  434TMC3    H1 6528   1.055   2.249  10.438 -1.7580 -0.4580  1.2274
  434TMC3    H2 6529   1.211   1.898  10.625 -0.7222  0.6651  1.3294
  434TMC3    C7 6530   1.026   1.997  10.457 -0.2912 -0.7082  0.1991
  434TMC3    C8 6531   1.390   2.048  10.789  0.2293 -0.6749  0.2810
  434TMC3    O1 6532   0.925   2.061  10.427  1.1099 -0.0610 -0.5558
  434TMC3    O2 6533   1.488   2.118  10.820  0.1808 -0.1381 -0.0117
  435MPD2     C 6534   3.599   2.521  15.247  1.0877  0.4474  0.0556
  435MPD2    C1 6535   3.537   2.498  15.364 -0.2502 -0.2301  0.0044
  435MPD2    C2 6536   3.616   2.479  15.469  0.0446  0.8357 -0.4573
  435MPD2    C3 6537   3.754   2.475  15.461 -0.1241  0.1408  1.0352
  435MPD2    C4 6538   3.822   2.492  15.344  0.1171 -0.7024  0.0180
  435MPD2    C5 6539   3.736   2.512  15.237  0.2836 -0.2012  0.1625
  435MPD2     H 6540   3.558   2.459  15.558  0.8661 -0.3098 -0.1745
  435MPD2    H1 6541   3.929   2.500  15.332  0.0241 -1.8473 -1.5589
  435MPD2    H2 6542   3.536   2.544  15.162 -1.0744 -0.5978  1.3891
  435MPD2    H3 6543   3.797   2.530  15.149  1.0186 -2.1716  0.2748
  435MPD2     N 6544   3.826   2.452  15.580 -0.0550  0.1585  0.1207
  435MPD2    H5 6545   3.925   2.440  15.559  0.0502 -0.4057  0.9307
  435MPD2    N1 6546   3.395   2.488  15.376  0.3165  0.2481 -0.2156
  435MPD2    H7 6547   3.359   2.483  15.471  0.0366 -0.5102 -0.3637
  436TMC3    C1 6548   2.988   2.568  15.385  0.8407 -0.2542 -0.4521
  436TMC3    C2 6549   3.117   2.537  15.384  0.5807  0.3258  0.7127
  436TMC3    C3 6550   3.168   2.435  15.312 -0.6160 -0.2337 -0.6850
  436TMC3    C4 6551   2.899   2.496  15.309 -1.0160 -0.4354  0.7502
  436TMC3    C5 6552   2.956   2.408  15.217  0.4023  0.4771  0.2931
  436TMC3    C6 6553   3.090   2.372  15.225  0.5275 -0.0838  0.2255
  436TMC3     C 6554   2.944   2.697  15.429 -0.1245  0.0383  0.0558
  436TMC3     O 6555   3.035   2.776  15.452  0.1247 -0.1592  0.1491
  436TMC3     H 6556   3.181   2.610  15.431 -0.0287  0.9001  0.6455
  436TMC3    H1 6557   2.795   2.515  15.288 -0.3498  3.1387  0.5752
  436TMC3    H2 6558   3.127   2.285  15.172  2.2626  0.7868  0.0112
  436TMC3    C7 6559   2.867   2.321  15.146  0.0093  0.0585 -0.6363
  436TMC3    C8 6560   3.306   2.455  15.274  0.1638  0.2693  0.1540
  436TMC3    O1 6561   2.748   2.336  15.173  0.0010  0.4507 -0.1952
  436TMC3    O2 6562   3.330   2.432  15.161 -0.2494  0.2019  0.3283
  437TMC3    C1 6563   1.893   0.316  12.498  0.1559 -0.1712  0.2257
  437TMC3    C2 6564   1.791   0.393  12.445  0.0891  0.3617  1.0786
  437TMC3    C3 6565   1.824   0.477  12.339 -1.1199 -0.0351 -0.5843
  437TMC3    C4 6566   2.024   0.319  12.452  0.0487 -0.0076  0.3516
  437TMC3    C5 6567   2.044   0.399  12.342  0.2354  0.5508  0.5175
  437TMC3    C6 6568   1.951   0.484  12.294 -0.0752 -0.3489  0.3669
  437TMC3     C 6569   1.860   0.233  12.608 -0.4349  0.5102  0.5775
  437TMC3     O 6570   1.764   0.256  12.672 -0.3123 -0.7055  0.1803
  437TMC3     H 6571   1.692   0.393  12.489 -0.9210  2.1178 -1.2202
  437TMC3    H1 6572   2.107   0.265  12.497 -0.3075 -1.7139 -1.0528
  437TMC3    H2 6573   1.967   0.559  12.218  0.0296 -0.7617 -0.0123
  437TMC3    C7 6574   2.178   0.449  12.325  0.1821  0.0201  0.5376
  437TMC3    C8 6575   1.722   0.562  12.274  0.3398  0.0679 -0.4938
  437TMC3    O1 6576   2.187   0.557  12.278  0.3119 -0.2653  0.4772
  437TMC3    O2 6577   1.619   0.594  12.334 -0.2636 -0.1998 -0.7501
  438MPD2     C 6578   4.537   0.689  16.850  0.0995 -0.4116 -0.1418
  438MPD2    C1 6579   4.525   0.563  16.911  0.7696 -0.3651 -0.5049
  438MPD2    C2 6580   4.444   0.549  17.020 -0.0121  0.6075 -0.5270
  438MPD2    C3 6581   4.376   0.660  17.078  0.1403 -0.2606 -0.0554
  438MPD2    C4 6582   4.376   0.786  17.013 -0.2992 -0.6927  0.5787
  438MPD2    C5 6583   4.466   0.798  16.908  0.7614 -0.3233  0.2087
  438MPD2     H 6584   4.457   0.456  17.074  0.6595  1.1662  0.2770
  438MPD2    H1 6585   4.325   0.877  17.042 -0.0458 -0.9419  1.7963
  438MPD2    H2 6586   4.581   0.715  16.755  0.0128 -0.7931 -0.2867
  438MPD2    H3 6587   4.458   0.894  16.858  0.7907 -0.7477 -0.6061
  438MPD2     N 6588   4.297   0.630  17.190 -0.0990  0.4313  0.1204
  438MPD2    H5 6589   4.303   0.534  17.221  1.0516  0.1763 -0.9102
  438MPD2    N1 6590   4.593   0.447  16.857  0.6562 -0.3511  0.3838
  438MPD2    H7 6591   4.553   0.358  16.885 -1.3724  0.1288 -0.9152
  439TMC3    C1 6592   0.020   0.323  16.736  0.7903 -0.6999 -0.1400
  439TMC3    C2 6593   0.121   0.334  16.644 -0.3015 -0.2883 -0.4270
  439TMC3    C3 6594   0.201   0.219  16.624 -0.2900 -0.1589 -0.8171
  439TMC3    C4 6595   0.012   0.217  16.822  0.0393 -0.2823  0.4466
  439TMC3    C5 6596   0.102   0.113  16.810 -0.2146  0.1784  0.2162
  439TMC3    C6 6597   0.189   0.102  16.700 -0.3583  0.2473 -0.3366
  439TMC3     C 6598   4.702   0.455  16.779 -0.3041  0.8689  0.1692
  439TMC3     O 6599   0.021   0.558  16.734 -0.4286 -0.1060 -0.3972
  439TMC3     H 6600   0.137   0.427  16.590 -2.5043 -0.2028 -0.9430
  439TMC3    H1 6601   4.691   0.232  16.914 -0.0518  1.3424  0.1325
  439TMC3    H2 6602   0.253   0.015  16.688 -0.5612 -0.0853  1.0707
  439TMC3    C7 6603   0.065   4.726  16.885  0.0543 -0.1829  0.4117
  439TMC3    C8 6604   0.258   0.195  16.493 -0.5403 -0.7187 -0.3014
  439TMC3    O1 6605   4.682   4.710  16.923 -0.4807  0.3908  0.1227
  439TMC3    O2 6606   0.325   0.097  16.472 -0.2719 -0.0125  0.8721
  440MPD2     C 6607   2.898   0.984  15.369  0.6854 -0.5143 -0.3446
  440MPD2    C1 6608   2.938   1.100  15.438  0.9376 -0.0828  0.0976
  440MPD2    C2 6609   3.075   1.110  15.455  0.1280  0.0955  0.2128
  440MPD2    C3 6610   3.160   1.006  15.423  0.9982 -0.1518 -0.7094
  440MPD2    C4 6611   3.114   0.884  15.378 -0.2321 -0.8627 -0.1679
  440MPD2    C5 6612   2.981   0.878  15.352  0.1240  0.0620  0.4121
  440MPD2     H 6613   3.108   1.201  15.504  0.2746 -0.2960  0.8492
  440MPD2    H1 6614   3.172   0.804  15.333 -0.3495 -0.7314 -0.5499
  440MPD2    H2 6615   2.797   0.962  15.336 -0.1215 -0.3397  2.0314
  440MPD2    H3 6616   2.951   0.781  15.313  1.9235  0.0407 -0.9239
  440MPD2     N 6617   3.299   1.012  15.446  0.6783 -0.2535 -0.2617
  440MPD2    H5 6618   3.344   0.922  15.435  0.3758 -0.5347  0.7793
  440MPD2    N1 6619   2.858   1.211  15.471  0.5389 -0.6966  0.3040
  440MPD2    H7 6620   2.905   1.293  15.508  0.4188 -1.4965  2.1771
  441TMC3    C1 6621   3.521   1.095  15.473  0.3367 -0.5482 -0.0505
  441TMC3    C2 6622   3.591   1.177  15.556 -0.0992 -0.0928  0.1482
  441TMC3    C3 6623   3.728   1.199  15.527 -0.8605  0.5354 -0.3194
  441TMC3    C4 6624   3.576   1.029  15.375 -0.7704  0.2771  0.6503
  441TMC3    C5 6625   3.711   1.044  15.349 -0.4712 -0.1776  0.0450
  441TMC3    C6 6626   3.788   1.126  15.425  0.6077  0.7211  0.1574
  441TMC3     C 6627   3.371   1.123  15.470  0.5297  0.2755 -0.2767
  441TMC3     O 6628   3.345   1.245  15.470 -0.0110 -0.3581  0.0431
  441TMC3     H 6629   3.544   1.226  15.640 -0.5950 -1.1326  0.4823
  441TMC3    H1 6630   3.528   0.953  15.314 -1.2289  1.5858 -0.6273
  441TMC3    H2 6631   3.894   1.141  15.413  0.9733 -0.7888  1.4809
  441TMC3    C7 6632   3.774   0.918  15.311 -0.7116 -0.3127  0.2613
  441TMC3    C8 6633   3.759   1.340  15.512 -0.4365  0.3058 -0.9759
  441TMC3    O1 6634   3.703   0.848  15.242  0.0180  0.2315  0.1638
  441TMC3    O2 6635   3.869   1.368  15.463 -0.3585 -0.3991  0.3690
  442MPD2     C 6636   1.522   1.116  16.844 -0.9180  0.6218 -0.0194
  442MPD2    C1 6637   1.422   1.032  16.806 -0.3123  0.6829 -0.7138
  442MPD2    C2 6638   1.444   0.912  16.733  0.0769  0.7822  0.5065
  442MPD2    C3 6639   1.574   0.872  16.708  0.3816 -0.0931 -0.2954
  442MPD2    C4 6640   1.675   0.960  16.741 -0.2548 -0.4676  0.0499
  442MPD2    C5 6641   1.652   1.082  16.811  0.2553 -0.2356 -0.1645
  442MPD2     H 6642   1.364   0.851  16.694 -0.9035  2.8430 -0.6835
  442MPD2    H1 6643   1.779   0.944  16.717  0.4533  3.9855  0.0991
  442MPD2    H2 6644   1.515   1.212  16.894  0.3024  1.4476 -1.4079
  442MPD2    H3 6645   1.738   1.141  16.839  0.0562 -0.9023  1.8501
  442MPD2     N 6646   1.610   0.749  16.638  0.4290 -0.4022  0.5514
  442MPD2    H5 6647   1.706   0.735  16.606  0.0602 -2.0112  0.1475
  442MPD2    N1 6648   1.284   1.065  16.833  0.1903  0.5390 -0.9004
  442MPD2    H7 6649   1.213   1.000  16.801  1.5716 -0.3579 -2.1198
  443TMC3    C1 6650   1.115   1.232  16.876 -0.2242  0.2146 -0.0690
  443TMC3    C2 6651   1.091   1.366  16.860  0.1389 -0.0895  0.2083
  443TMC3    C3 6652   0.967   1.406  16.829 -0.2609 -0.5532 -0.4875
  443TMC3    C4 6653   1.012   1.136  16.879  0.1671  0.2785 -0.1701
  443TMC3    C5 6654   0.884   1.187  16.852 -0.1508  0.0911 -0.0104
  443TMC3    C6 6655   0.861   1.319  16.819 -0.3701  0.0038 -0.4889
  443TMC3     C 6656   1.247   1.183  16.905  0.4971  0.4082  0.2329
  443TMC3     O 6657   1.313   1.273  16.963 -0.2938  0.5585  0.6264
  443TMC3     H 6658   1.165   1.446  16.854  1.8250 -1.7674 -1.5932
  443TMC3    H1 6659   1.025   1.030  16.894 -0.4510  0.7150  3.4726
  443TMC3    H2 6660   0.770   1.357  16.775 -0.7639 -1.2246 -0.7456
  443TMC3    C7 6661   0.776   1.097  16.875 -0.1465  0.0838  0.0238
  443TMC3    C8 6662   0.942   1.542  16.782 -0.5381 -0.1761 -0.4102
  443TMC3    O1 6663   0.774   0.982  16.836 -0.1912 -0.2471 -0.5064
  443TMC3    O2 6664   0.847   1.603  16.827 -0.5311 -0.1668 -0.2685
  444MPD2     C 6665   1.889   0.257  16.821  0.4221  0.6300 -0.3334
  444MPD2    C1 6666   1.797   0.189  16.742  1.0428  0.0619 -0.4705
  444MPD2    C2 6667   1.845   0.083  16.665  0.1320 -0.0361  0.2687
  444MPD2    C3 6668   1.980   0.044  16.680  0.3006 -0.3203 -0.2518
  444MPD2    C4 6669   2.069   0.110  16.768  0.0773  0.5249  0.8986
  444MPD2    C5 6670   2.017   0.217  16.835 -0.8712  0.1961 -0.6669
  444MPD2     H 6671   1.782   0.024  16.599 -0.4636 -0.5590  1.3002
  444MPD2    H1 6672   2.173   0.088  16.787  0.3694  1.5214  0.4643
  444MPD2    H2 6673   1.861   0.338  16.887  0.2863 -1.3588  2.0490
  444MPD2    H3 6674   2.084   0.260  16.908  2.3005 -0.3827 -3.2347
  444MPD2     N 6675   2.031   4.671  16.599  0.6620 -0.4876 -0.1258
  444MPD2    H5 6676   1.972   4.627  16.529  1.3529 -0.3542 -0.7908
  444MPD2    N1 6677   1.660   0.220  16.746 -0.0574  0.2490 -0.1626
  444MPD2    H7 6678   1.597   0.152  16.704 -1.1215  0.5639  0.9116
  445TMC3    C1 6679   2.189   4.517  16.509 -0.5787 -0.0200 -0.7479
  445TMC3    C2 6680   2.112   4.492  16.401 -0.5477  0.0587  0.3780
  445TMC3    C3 6681   2.174   4.415  16.305 -0.6302 -0.6461 -0.1593
  445TMC3    C4 6682   2.314   4.463  16.517 -0.3014 -0.0923 -0.2649
  445TMC3    C5 6683   2.367   4.388  16.420  0.1800  0.2366  0.4778
  445TMC3    C6 6684   2.294   4.348  16.317  0.5439  0.3087  0.0215
  445TMC3     C 6685   2.152   4.606  16.616 -0.4279 -0.0649 -0.2349
  445TMC3     O 6686   2.236   4.622  16.703  0.3104 -0.0532  0.4651
  445TMC3     H 6687   2.016   4.542  16.391 -1.1188 -0.7397  1.8088
  445TMC3    H1 6688   2.383   4.482  16.599 -1.1933  1.2312  0.1707
  445TMC3    H2 6689   2.349   4.300  16.237 -0.6447 -1.0339  0.0182
  445TMC3    C7 6690   2.510   4.396  16.405 -0.1949 -0.5179  0.1904
  445TMC3    C8 6691   2.090   4.382  16.191  0.0518  0.0306 -0.3773
  445TMC3    O1 6692   2.562   4.501  16.447  0.2799  0.0059  0.3136
  445TMC3    O2 6693   2.100   4.269  16.142  0.5379  0.2396  0.1493
  446MPD2     C 6694   1.169   2.030  11.329 -0.0170  0.6321  0.0119
  446MPD2    C1 6695   1.149   2.048  11.196 -0.1059  1.0185 -0.2018
  446MPD2    C2 6696   1.257   2.096  11.123 -0.4468 -0.0447  0.1247
  446MPD2    C3 6697   1.379   2.121  11.184 -0.7670  0.6754  0.2425
  446MPD2    C4 6698   1.397   2.084  11.313  0.3067 -0.0440 -0.9876
  446MPD2    C5 6699   1.289   2.047  11.384 -0.0893  0.2569 -0.5085
  446MPD2     H 6700   1.245   2.111  11.016 -0.2625  2.0920  0.3987
  446MPD2    H1 6701   1.492   2.091  11.365 -1.2374 -0.3929  1.8727
  446MPD2    H2 6702   1.094   1.989  11.396 -0.7068  0.9061 -0.5798
  446MPD2    H3 6703   1.301   2.024  11.489 -0.7276  0.8188 -0.3128
  446MPD2     N 6704   1.479   2.184  11.114  0.2221 -0.2319  0.2504
  446MPD2    H5 6705   1.472   2.208  11.015  0.4187 -2.0729 -0.2174
  446MPD2    N1 6706   1.028   2.014  11.121 -0.0918 -0.7052 -0.0345
  446MPD2    H7 6707   1.030   2.029  11.020  1.4491  1.3718  0.2916
  447TMC3    C1 6708   1.689   2.264  11.049 -0.4674 -0.1434 -0.1103
  447TMC3    C2 6709   1.629   2.346  10.957  0.8826  0.1143 -0.5219
  447TMC3    C3 6710   1.695   2.349  10.840 -0.0564  0.3867 -0.4137
  447TMC3    C4 6711   1.805   2.196  11.032  0.3274 -0.0338 -0.7471
  447TMC3    C5 6712   1.859   2.203  10.912 -0.1871  0.1638 -0.1359
  447TMC3    C6 6713   1.806   2.275  10.813 -0.4719  0.2314 -0.2320
  447TMC3     C 6714   1.606   2.208  11.156  0.0984  0.0384 -0.1298
  447TMC3     O 6715   1.664   2.142  11.240 -0.4942  0.3392  0.2618
  447TMC3     H 6716   1.544   2.408  10.983  1.5485  0.8559 -0.1172
  447TMC3    H1 6717   1.838   2.119  11.101 -1.0948 -0.0862 -0.1373
  447TMC3    H2 6718   1.843   2.275  10.711 -2.3463  1.1204 -0.8982
  447TMC3    C7 6719   1.960   2.104  10.887  0.4881 -0.1471 -0.6425
  447TMC3    C8 6720   1.636   2.418  10.734 -0.4077  0.4008  0.4797
  447TMC3    O1 6721   1.956   2.016  10.968 -0.2927  0.2204  0.1091
  447TMC3    O2 6722   1.514   2.449  10.751 -0.3938  0.2821  0.4959
  448TMC3    C1 6723   4.262   1.915  17.503 -0.2648  0.1205  0.6761
  448TMC3    C2 6724   4.338   1.825  17.425 -0.8216  0.5248 -0.4960
  448TMC3    C3 6725   4.395   1.715  17.485  0.4895 -0.5697  0.2192
  448TMC3    C4 6726   4.259   1.899  17.642 -0.1200 -0.0831  0.1011
  448TMC3    C5 6727   4.323   1.794  17.698 -0.1285  0.2472  0.3008
  448TMC3    C6 6728   4.387   1.697  17.620  0.5407  0.2768  0.4187
  448TMC3     C 6729   4.222   2.036  17.437 -0.0364 -0.4894  0.0237
  448TMC3     O 6730   4.280   2.058  17.327 -0.0183  0.3255 -0.2171
  448TMC3     H 6731   4.321   1.829  17.318 -0.8588  0.9133 -0.4769
  448TMC3    H1 6732   4.212   1.972  17.706 -2.7218 -2.7042  1.1758
  448TMC3    H2 6733   4.436   1.605  17.648  0.1314 -0.2539 -0.5795
  448TMC3    C7 6734   4.297   1.776   0.101 -0.4303 -0.0303  0.2418
  448TMC3    C8 6735   4.472   1.618  17.409  0.4947 -0.0473 -0.0191
  448TMC3    O1 6736   4.264   1.874   0.158  0.3186  0.1606  0.1828
  448TMC3    O2 6737   4.469   1.498  17.437  0.5399  0.2136 -0.5417
  449MPD2     C 6738   1.212   0.035  13.925 -0.1432 -0.4771 -0.7878
  449MPD2    C1 6739   1.158   0.166  13.948 -1.3074 -0.1807 -0.0971
  449MPD2    C2 6740   1.022   0.185  13.937  0.5059  0.3022  0.1398
  449MPD2    C3 6741   0.941   0.081  13.897  0.1872 -0.0223 -0.6773
  449MPD2    C4 6742   0.992   4.701  13.861  0.8195 -0.7168 -0.5469
  449MPD2    C5 6743   1.125   4.677  13.875  0.2762 -0.2283  0.4700
  449MPD2     H 6744   0.978   0.281  13.961  0.4156  0.6834 -1.5437
  449MPD2    H1 6745   0.928   4.624  13.818  0.4377 -0.0378 -1.1840
  449MPD2    H2 6746   1.312   0.007  13.955 -0.2943  0.7781  0.8969
  449MPD2    H3 6747   1.158   4.582  13.836  0.4557 -0.1344  0.3942
  449MPD2     N 6748   0.801   0.110  13.889  0.3705 -0.2773 -0.4961
  449MPD2    H5 6749   0.787   0.211  13.891 -1.1397 -0.5040  0.3598
  449MPD2    N1 6750   1.241   0.266  13.999  0.2798  0.2777  0.2949
  449MPD2    H7 6751   1.193   0.350  14.031 -0.3970 -0.4885  1.3138
  450TMC3    C1 6752   1.444   0.388  14.047 -0.6543 -0.0452  0.8131
  450TMC3    C2 6753   1.517   0.459  13.953 -0.1790 -0.1818  0.1820
  450TMC3    C3 6754   1.466   0.577  13.913  0.0207  0.0580  1.3301
  450TMC3    C4 6755   1.348   0.445  14.121 -0.9475 -0.2636 -0.0456
  450TMC3    C5 6756   1.302   0.566  14.078 -0.2080  1.1259  0.4929
  450TMC3    C6 6757   1.359   0.638  13.975  1.0352  0.2743 -0.0347
  450TMC3     C 6758   1.384   0.263  14.002 -0.5957  0.6172 -0.6029
  450TMC3     O 6759   1.460   0.188  13.943  0.5346 -0.5816 -0.0081
  450TMC3     H 6760   1.577   0.392  13.892  1.9965  0.6098  1.4448
  450TMC3    H1 6761   1.304   0.391  14.204 -1.1515  1.4607  0.9663
  450TMC3    H2 6762   1.317   0.732  13.942 -1.6293 -1.2629 -1.0635
  450TMC3    C7 6763   1.160   0.564  14.094  0.3106 -0.4899 -0.1782
  450TMC3    C8 6764   1.495   0.621  13.775 -0.5553 -0.4448 -0.1098
  450TMC3    O1 6765   1.099   0.473  14.152  0.4305  0.1905  0.0210
  450TMC3    O2 6766   1.412   0.701  13.727  0.2428 -0.2670  0.3701
  451MPD2     C 6767   1.735   2.989   1.056  0.0105 -0.1445 -0.7425
  451MPD2    C1 6768   1.829   3.035   0.965  0.5179  0.0011  0.6186
  451MPD2    C2 6769   1.874   2.947   0.870  0.5027  0.1777 -0.3720
  451MPD2    C3 6770   1.824   2.816   0.867  0.6887  0.0180 -0.1439
  451MPD2    C4 6771   1.716   2.772   0.943 -0.0306  0.4828  0.2521
  451MPD2    C5 6772   1.686   2.867   1.041 -0.1391  0.3246  0.0779
  451MPD2     H 6773   1.951   2.977   0.799 -2.0976 -1.3831 -3.8131
  451MPD2    H1 6774   1.674   2.672   0.950 -0.3819  0.6997  1.2360
  451MPD2    H2 6775   1.695   3.040   1.142 -1.4041 -1.7595 -0.4399
  451MPD2    H3 6776   1.615   2.828   1.114  0.8534 -1.7674 -0.0737
  451MPD2     N 6777   1.880   2.718   0.775  0.3525 -0.2857  0.3632
  451MPD2    H5 6778   1.824   2.636   0.753  2.8679 -1.5544 -1.2764
  451MPD2    N1 6779   1.861   3.173   0.987 -0.1606  0.2717 -0.6794
  451MPD2    H7 6780   1.812   3.221   1.061  0.4560  3.1599 -2.1242
  452TMC3    C1 6781   2.013   2.632   0.608 -0.1377 -0.3012  0.2796
  452TMC3    C2 6782   1.913   2.546   0.573  0.2681 -0.1497  0.0797
  452TMC3    C3 6783   1.934   2.456   0.469  0.2658  0.1281 -0.7713
  452TMC3    C4 6784   2.129   2.636   0.537  0.1640 -0.6199  0.1191
  452TMC3    C5 6785   2.140   2.559   0.423  0.4990 -1.4746 -0.1469
  452TMC3    C6 6786   2.046   2.472   0.387  0.0032  0.0701 -0.1983
  452TMC3     C 6787   1.993   2.733   0.712  0.0852  0.1170  0.5229
  452TMC3     O 6788   2.081   2.821   0.727 -0.1292 -0.0616 -0.5823
  452TMC3     H 6789   1.816   2.547   0.622 -0.8292 -0.5336 -2.0841
  452TMC3    H1 6790   2.205   2.711   0.557  0.3822 -0.8079 -0.0036
  452TMC3    H2 6791   2.057   2.408   0.301 -2.6660  3.0612 -2.7784
  452TMC3    C7 6792   2.268   2.562   0.349 -0.1029  0.9348 -0.3678
  452TMC3    C8 6793   1.833   2.357   0.430  0.0459  0.0585  0.8626
  452TMC3    O1 6794   2.337   2.666   0.338  0.3141 -0.2774  0.2562
  452TMC3    O2 6795   1.848   2.307   0.317  0.5257 -0.0849  0.0904
  453TMC3    C1 6796   3.595   1.474  12.360  0.1063 -0.0939  0.7165
  453TMC3    C2 6797   3.530   1.362  12.411 -0.1414  0.1531  0.0685
  453TMC3    C3 6798   3.446   1.298  12.327  0.0784 -0.1494  0.9133
  453TMC3    C4 6799   3.576   1.520  12.234 -0.0229 -0.2833  0.6874
  453TMC3    C5 6800   3.493   1.448  12.153 -0.3521 -0.2045  0.1624
  453TMC3    C6 6801   3.421   1.341  12.203  0.5878 -0.3587  0.0423
  453TMC3     C 6802   3.720   1.499  12.416 -0.0297  0.0424 -0.1179
  453TMC3     O 6803   3.815   1.493  12.341  0.3748  0.0732  0.2880
  453TMC3     H 6804   3.554   1.312  12.504  1.4939 -0.7644 -0.8520
  453TMC3    H1 6805   3.611   1.616  12.199 -2.0425  0.5580  0.9955
  453TMC3    H2 6806   3.346   1.287  12.146  2.1229 -3.4482  0.9503
  453TMC3    C7 6807   3.466   1.489  12.014 -0.1726  0.3920  0.0100
  453TMC3    C8 6808   3.440   1.156  12.343 -0.7979  0.0520 -0.0276
  453TMC3    O1 6809   3.362   1.442  11.964 -0.8098  0.4753  0.2643
  453TMC3    O2 6810   3.400   1.121  12.455 -0.0682 -0.1116  0.2542
  454MPD2     C 6811   2.816   0.057  16.285 -0.1714 -0.5251  0.3613
  454MPD2    C1 6812   2.731   0.163  16.303  0.2092  0.2490  0.6732
  454MPD2    C2 6813   2.672   0.178  16.426 -0.2118  0.3070  0.8258
  454MPD2    C3 6814   2.689   0.087  16.528 -0.2464 -0.0050 -0.0963
  454MPD2    C4 6815   2.790   4.730  16.507 -0.1146 -0.2847 -0.2119
  454MPD2    C5 6816   2.847   4.705  16.389 -0.2285 -0.3771  0.9624
  454MPD2     H 6817   2.608   0.266  16.433  1.0483  1.3844 -1.2575
  454MPD2    H1 6818   2.812   4.677  16.599  0.0337 -0.4560 -0.3470
  454MPD2    H2 6819   2.868   0.039  16.192  1.4909 -1.9074  1.5653
  454MPD2    H3 6820   2.926   4.634  16.369 -0.5212 -0.1877 -0.8606
  454MPD2     N 6821   2.626   0.091  16.651 -0.3810 -0.3700  0.2043
  454MPD2    H5 6822   2.662   0.039  16.730 -1.3020  0.2206  1.0084
  454MPD2    N1 6823   2.689   0.252  16.199  0.1458  0.1591  0.4731
  454MPD2    H7 6824   2.648   0.341  16.227  0.9284  0.9604 -0.9850
  455TMC3    C1 6825   2.402   0.173  16.580  0.5226 -0.0940 -0.4660
  455TMC3    C2 6826   2.320   0.277  16.588  0.3963 -0.2734  0.4505
  455TMC3    C3 6827   2.231   0.299  16.487 -0.0347 -1.0262 -0.1568
  455TMC3    C4 6828   2.394   0.087  16.476 -0.6130 -0.2636  0.4405
  455TMC3    C5 6829   2.305   0.120  16.373  1.0751  1.1596 -0.0946
  455TMC3    C6 6830   2.218   0.217  16.379  0.3268 -0.2512  0.1074
  455TMC3     C 6831   2.508   0.159  16.682 -0.0325  0.1281  0.5573
  455TMC3     O 6832   2.466   0.175  16.796  0.3834  0.0439 -0.0773
  455TMC3     H 6833   2.335   0.360  16.656 -2.8132  1.0561 -0.4390
  455TMC3    H1 6834   2.453   4.731  16.476 -1.3715 -0.7483 -0.1462
  455TMC3    H2 6835   2.150   0.241  16.298  1.5415  2.1198 -0.2226
  455TMC3    C7 6836   2.303   0.032  16.264 -0.1751  0.0423 -0.6793
  455TMC3    C8 6837   2.161   0.429  16.480 -0.3348 -0.3891 -0.3407
  455TMC3    O1 6838   2.198   0.019  16.205 -0.2316 -0.1678  0.4530
  455TMC3    O2 6839   2.185   0.513  16.394  0.4226 -0.8882  0.1266
  456MPD2     C 6840   0.249   0.797  16.288 -0.0720  1.0158  0.5165
  456MPD2    C1 6841   0.294   0.709  16.385 -0.1440  0.0149  0.6371
  456MPD2    C2 6842   0.257   0.730  16.517 -0.3453 -0.0439 -0.4481
  456MPD2    C3 6843   0.164   0.830  16.551 -0.1543 -0.3395 -0.8713
  456MPD2    C4 6844   0.118   0.916  16.450 -0.1202 -0.3783 -0.0043
  456MPD2    C5 6845   0.158   0.895  16.321 -0.1096 -0.8683 -0.0509
  456MPD2     H 6846   0.296   0.665  16.595 -3.0792 -2.7991 -1.3762
  456MPD2    H1 6847   0.040   0.989  16.467 -0.9601 -1.4493  0.7019
  456MPD2    H2 6848   0.287   0.788  16.186 -1.8886 -0.7191 -0.0049
  456MPD2    H3 6849   0.119   0.961  16.245 -0.6390  1.4171  2.2155
  456MPD2     N 6850   0.128   0.838  16.688  0.4777 -0.6422  0.4335
  456MPD2    H5 6851   0.157   0.773  16.761 -0.8527 -1.8822 -0.1372
  456MPD2    N1 6852   0.393   0.616  16.343  0.1253  0.2248 -0.3255
  456MPD2    H7 6853   0.437   0.628  16.252  0.7225 -0.3967 -0.1183
  457TMC3    C1 6854   0.074   0.960  16.884  0.1344 -0.7455 -0.3243
  457TMC3    C2 6855   0.070   1.080  16.941 -0.2113 -0.2204 -0.0129
  457TMC3    C3 6856   0.048   1.093  17.080 -0.0499 -0.5677 -0.4950
  457TMC3    C4 6857   0.052   0.845  16.958  0.5548 -0.4302  0.1087
  457TMC3    C5 6858   0.019   0.865  17.094  0.0352  0.1033 -0.0014
  457TMC3    C6 6859   0.011   0.984  17.156  0.0270  0.3387  0.2981
  457TMC3     C 6860   0.075   0.951  16.743 -0.9891  0.7243  1.1856
  457TMC3     O 6861   0.031   1.050  16.692  0.3725 -0.3354 -0.1479
  457TMC3     H 6862   0.095   1.170  16.885 -0.0004 -0.5503 -0.4506
  457TMC3    H1 6863   0.051   0.748  16.910 -0.5728  0.0679 -0.8715
  457TMC3    H2 6864   4.713   0.993  17.259 -2.0024 -2.1317 -0.1694
  457TMC3    C7 6865   0.000   0.745  17.181 -1.0076 -0.0494  0.0611
  457TMC3    C8 6866   4.723   1.213  17.136 -0.2042 -0.3104  0.7148
  457TMC3    O1 6867   0.074   0.652  17.154  0.1457 -0.1104 -0.1125
  457TMC3    O2 6868   4.641   1.211  17.230  0.1195  0.7055 -0.2559
  458MPD2     C 6869   2.669   0.499  12.433 -0.0804  0.4216 -0.3749
  458MPD2    C1 6870   2.636   0.375  12.482  0.8752 -0.3090 -0.4109
  458MPD2    C2 6871   2.508   0.322  12.447  0.3706  0.3894  0.4342
  458MPD2    C3 6872   2.414   0.405  12.387 -0.4089  0.5412 -0.0088
  458MPD2    C4 6873   2.456   0.529  12.337  0.2404  0.3334  0.6526
  458MPD2    C5 6874   2.584   0.572  12.360 -0.0814  0.1124 -0.5247
  458MPD2     H 6875   2.474   0.225  12.480  1.2572 -0.0089  0.1691
  458MPD2    H1 6876   2.398   0.601  12.280 -1.3017 -0.7338  0.8647
  458MPD2    H2 6877   2.771   0.535  12.443 -0.7297  2.1251  0.0991
  458MPD2    H3 6878   2.618   0.670  12.329  1.0458 -0.1803 -0.2090
  458MPD2     N 6879   2.281   0.365  12.374 -0.7448  0.4134  0.1426
  458MPD2    H5 6880   2.250   0.272  12.401  1.9306 -0.9350 -1.4980
  458MPD2    N1 6881   2.727   0.309  12.569  0.3482 -0.3774 -0.3299
  458MPD2    H7 6882   2.803   0.372  12.595 -0.0628  0.1082 -0.2957
  459TMC3    C1 6883   2.817   0.147  12.709 -0.5840  0.1242 -0.3099
  459TMC3    C2 6884   2.929   0.228  12.719  0.1222  0.7150  0.5062
  459TMC3    C3 6885   3.041   0.184  12.788 -0.2454  0.0657 -0.0611
  459TMC3    C4 6886   2.815   0.019  12.755  0.2229  0.1551  0.6999
  459TMC3    C5 6887   2.932   4.712  12.826 -0.4308  0.3907 -0.6729
  459TMC3    C6 6888   3.048   0.056  12.840  0.1567  0.1483  0.3027
  459TMC3     C 6889   2.714   0.182  12.614  0.2816  0.3246  0.0505
  459TMC3     O 6890   2.623   0.101  12.600 -0.6196  0.3937  0.2190
  459TMC3     H 6891   2.945   0.312  12.653 -0.0684  0.8391  0.6188
  459TMC3    H1 6892   2.734   4.684  12.739  0.6166  0.0438 -0.8134
  459TMC3    H2 6893   3.135   0.031  12.899  0.0652  1.7973  1.1441
  459TMC3    C7 6894   2.958   4.573  12.847 -0.0594  0.7974 -0.2098
  459TMC3    C8 6895   3.171   0.251  12.759 -0.0027  0.6144  0.0830
  459TMC3    O1 6896   3.068   4.540  12.887 -0.9689 -0.3462  0.4473
  459TMC3    O2 6897   3.186   0.319  12.666 -0.0794 -0.2052 -0.2240
  460MPD2     C 6898   1.759   2.577  10.421  0.5235  0.1975 -0.2424
  460MPD2    C1 6899   1.670   2.548  10.522  0.1019  0.3256  0.4624
  460MPD2    C2 6900   1.546   2.602  10.510  0.3697  0.1812  0.5778
  460MPD2    C3 6901   1.504   2.685  10.405 -0.3425  0.4976 -0.4011
  460MPD2    C4 6902   1.595   2.713  10.310 -0.2148 -0.4702  0.3217
  460MPD2    C5 6903   1.725   2.654  10.313 -0.6152 -0.3426  0.3406
  460MPD2     H 6904   1.473   2.595  10.590 -0.3064 -0.4891 -0.0944
  460MPD2    H1 6905   1.569   2.759  10.216  0.5593  0.1265  0.3978
  460MPD2    H2 6906   1.859   2.537  10.411 -0.2258 -1.6725 -0.3777
  460MPD2    H3 6907   1.796   2.671  10.233 -0.1790  1.2968  1.0581
  460MPD2     N 6908   1.368   2.730  10.394  0.3134 -0.2908 -0.3255
  460MPD2    H5 6909   1.298   2.691  10.458  0.5499 -1.3288 -0.7045
  460MPD2    N1 6910   1.714   2.458  10.624  0.6367  0.0071  0.1703
  460MPD2    H7 6911   1.812   2.430  10.616  1.2635  1.6117  2.1763
  461TMC3    C1 6912   1.192   2.870  10.322 -0.0612 -0.2039  0.1199
  461TMC3    C2 6913   1.102   2.772  10.320 -0.2437 -0.2519 -0.2424
  461TMC3    C3 6914   0.966   2.802  10.313 -0.1237 -0.4099  0.3201
  461TMC3    C4 6915   1.159   3.002  10.316  0.4205  0.0214 -0.3914
  461TMC3    C5 6916   1.029   3.031  10.322 -0.0686  0.2159 -0.1072
  461TMC3    C6 6917   0.932   2.931  10.318  0.4457 -0.4514 -0.6273
  461TMC3     C 6918   1.334   2.842  10.324  0.6468  0.3634 -0.3584
  461TMC3     O 6919   1.405   2.934  10.290  0.0245  0.2757 -0.7381
  461TMC3     H 6920   1.135   2.676  10.282  0.5878  0.5486 -1.5652
  461TMC3    H1 6921   1.229   3.081  10.341  1.1588 -0.3230 -1.3703
  461TMC3    H2 6922   0.828   2.962  10.321  0.3138 -1.0553  0.9863
  461TMC3    C7 6923   0.995   3.173  10.322  0.5241 -0.4399 -0.5038
  461TMC3    C8 6924   0.870   2.706  10.263  0.2830 -0.1005 -0.0574
  461TMC3    O1 6925   0.887   3.202  10.369  0.2198 -0.7413 -0.1375
  461TMC3    O2 6926   0.776   2.758  10.204 -0.0043 -0.1000 -0.2898
  462TMC3    C1 6927   1.688   3.110   0.196  0.2001 -0.5482 -0.2349
  462TMC3    C2 6928   1.814   3.063   0.168  0.6570  0.1462  0.4332
  462TMC3    C3 6929   1.827   2.938   0.105  0.0049  0.1334  0.2901
  462TMC3    C4 6930   1.584   3.039   0.162  0.5949 -0.9431  0.2344
  462TMC3    C5 6931   1.597   2.916   0.097 -0.1236 -0.2254 -0.2188
  462TMC3    C6 6932   1.720   2.856   0.074 -0.6773  0.0725 -0.0320
  462TMC3     C 6933   1.665   3.243   0.258  0.3367  0.1860  0.1521
  462TMC3     O 6934   1.562   3.249   0.318  0.2110 -0.2805  0.2062
  462TMC3     H 6935   1.898   3.130   0.186  1.6816 -0.9718 -0.2002
  462TMC3    H1 6936   1.486   3.085   0.175  0.1948 -1.5924 -0.4488
  462TMC3    H2 6937   1.726   2.771   0.006 -0.4633 -0.5398  0.7460
  462TMC3    C7 6938   1.481   2.842   0.063 -0.8119  0.6546 -0.5355
  462TMC3    C8 6939   1.957   2.899   0.060 -0.3500 -0.4287 -0.4756
  462TMC3    O1 6940   1.483   2.719   0.057  0.0454 -0.0201  0.1931
  462TMC3    O2 6941   2.025   2.993   0.020  0.5156  0.0492  0.2042
  463MPD2     C 6942   1.507   2.370   1.391 -0.5332  0.1947 -0.0251
  463MPD2    C1 6943   1.564   2.310   1.280  0.9219  0.7426 -0.0435
  463MPD2    C2 6944   1.666   2.377   1.216 -0.3735 -0.0143 -0.7105
  463MPD2    C3 6945   1.725   2.488   1.281 -0.1533 -0.3813  0.3900
  463MPD2    C4 6946   1.665   2.541   1.394 -0.3708  0.1489 -0.2586
  463MPD2    C5 6947   1.555   2.479   1.446 -0.0414  0.3069  0.0352
  463MPD2     H 6948   1.708   2.344   1.121  0.1802  1.3951 -0.9543
  463MPD2    H1 6949   1.717   2.621   1.446 -1.1349  0.0901  0.6127
  463MPD2    H2 6950   1.425   2.319   1.440 -1.5158 -0.9211 -2.8254
  463MPD2    H3 6951   1.514   2.510   1.541 -0.7737 -1.3171  0.2359
  463MPD2     N 6952   1.845   2.551   1.248 -0.0540  0.5691 -0.4946
  463MPD2    H5 6953   1.890   2.621   1.307 -1.2451 -0.5966  1.7745
  463MPD2    N1 6954   1.507   2.188   1.228  0.2145  0.7813 -0.8844
  463MPD2    H7 6955   1.557   2.149   1.149 -0.6590  1.2787 -1.6851
  464TMC3    C1 6956   1.411   1.975   1.243  0.2285 -0.3094 -0.3367
  464TMC3    C2 6957   1.304   1.890   1.273  0.2062  0.9438  0.0375
  464TMC3    C3 6958   1.329   1.756   1.275  0.2879 -0.3303 -0.3359
  464TMC3    C4 6959   1.534   1.922   1.202 -0.5912 -0.3098 -0.4975
  464TMC3    C5 6960   1.554   1.783   1.203 -0.4710 -0.4512  0.0610
  464TMC3    C6 6961   1.457   1.702   1.256 -0.0770 -0.9525  0.1264
  464TMC3     C 6962   1.413   2.106   1.294  0.8993  0.1375  0.0218
  464TMC3     O 6963   1.321   2.141   1.364  0.5052  0.1205 -0.1035
  464TMC3     H 6964   1.208   1.938   1.276 -1.1517 -1.8474  1.5683
  464TMC3    H1 6965   1.621   1.984   1.182 -0.9720 -0.6693 -3.2091
  464TMC3    H2 6966   1.490   1.604   1.289  0.9085 -0.7920 -0.3939
  464TMC3    C7 6967   1.654   1.725   1.115  0.6572  0.7660  0.2246
  464TMC3    C8 6968   1.239   1.668   1.208  0.9365  0.1146  0.6666
  464TMC3    O1 6969   1.735   1.805   1.072 -0.7906  0.3931  0.3496
  464TMC3    O2 6970   1.292   1.581   1.136  0.1558 -0.0934  0.0044
  465MPD2     C 6971   4.055   0.452  16.832  0.1358  0.1193  0.2590
  465MPD2    C1 6972   3.914   0.444  16.851 -0.3116  0.5618 -0.5243
  465MPD2    C2 6973   3.839   0.473  16.736 -0.6324 -0.1130 -0.2183
  465MPD2    C3 6974   3.890   0.533  16.625  0.3453 -0.1841  0.4216
  465MPD2    C4 6975   4.029   0.532  16.603  0.0794  0.6460  0.0396
  465MPD2    C5 6976   4.110   0.485  16.707 -0.2635  0.1111 -0.4437
  465MPD2     H 6977   3.732   0.475  16.754 -0.7878 -0.1341 -1.1525
  465MPD2    H1 6978   4.076   0.581  16.519 -1.1386  1.3489 -0.2284
  465MPD2    H2 6979   4.118   0.433  16.918 -0.4167 -0.5125  0.5211
  465MPD2    H3 6980   4.218   0.495  16.695 -0.6525  2.9198 -1.5516
  465MPD2     N 6981   3.792   0.591  16.533  0.5835  0.7787  0.0509
  465MPD2    H5 6982   3.697   0.584  16.568  0.0031  2.2834 -1.2241
  465MPD2    N1 6983   3.845   0.416  16.977 -0.1327  0.0374 -0.0747
  465MPD2    H7 6984   3.743   0.423  16.974 -0.1016  0.9875  0.8349
  466TMC3    C1 6985   3.460   0.741  16.390  0.6038 -0.0648  0.3084
  466TMC3    C2 6986   3.466   0.874  16.355  0.4975 -0.6130 -0.0190
  466TMC3    C3 6987   3.592   0.924  16.324 -1.2271  0.0425  0.5045
  466TMC3    C4 6988   3.570   0.666  16.413  0.3635 -0.0525  0.8406
  466TMC3    C5 6989   3.693   0.711  16.367 -0.4919  0.3021 -0.4881
  466TMC3    C6 6990   3.703   0.839  16.321  0.0579  0.8264  0.0178
  466TMC3     C 6991   3.336   0.686  16.439  0.9264  1.1102  0.4414
  466TMC3     O 6992   3.341   0.592  16.518 -0.4429 -1.2465  0.1458
  466TMC3     H 6993   3.386   0.943  16.378  1.1418 -0.0477  0.5111
  466TMC3    H1 6994   3.567   0.560  16.436 -0.0411  0.0755  1.3673
  466TMC3    H2 6995   3.800   0.884  16.303  1.5380 -2.4363 -0.1314
  466TMC3    C7 6996   3.816   0.658  16.418 -0.2057 -0.1397  0.1199
  466TMC3    C8 6997   3.612   1.058  16.281  0.1264  0.4699 -0.1861
  466TMC3    O1 6998   3.919   0.697  16.370 -0.1272 -0.0569  0.5143
  466TMC3    O2 6999   3.715   1.081  16.218  0.3819 -0.0748  0.2466
  467TMC3    C1 7000   0.611   3.811  13.527 -0.1598  0.3211 -0.2601
  467TMC3    C2 7001   0.547   3.898  13.447 -0.1287 -0.5603 -0.8578
  467TMC3    C3 7002   0.412   3.885  13.435 -0.6714  0.3994  0.1830
  467TMC3    C4 7003   0.538   3.719  13.590 -0.3463 -0.6069 -0.3615
  467TMC3    C5 7004   0.405   3.690  13.569 -0.0007  0.3978  0.5221
  467TMC3    C6 7005   0.337   3.775  13.483 -0.2723  0.2860  0.3560
  467TMC3     C 7006   0.735   3.855  13.586  0.5992  0.3586  0.0804
  467TMC3     O 7007   0.764   3.974  13.573 -0.0798 -0.2446  0.8552
  467TMC3     H 7008   0.598   3.981  13.401 -0.3966  0.1327  0.0978
  467TMC3    H1 7009   0.586   3.659  13.667 -0.4549 -1.0137 -0.6125
  467TMC3    H2 7010   0.229   3.788  13.490 -0.4016  0.0001 -1.0992
  467TMC3    C7 7011   0.344   3.583  13.639  0.9276  0.3838 -0.1007
  467TMC3    C8 7012   0.345   4.006  13.391 -0.4133 -0.0598 -0.1703
  467TMC3    O1 7013   0.415   3.517  13.712  0.0804 -0.4661  1.0970
  467TMC3    O2 7014   0.406   4.110  13.412 -0.4536  0.2340  0.3483
  468MPD2     C 7015   3.200   2.176  10.796 -0.4424 -0.4565  0.2781
  468MPD2    C1 7016   3.330   2.169  10.745  1.2800 -0.3787 -0.2574
  468MPD2    C2 7017   3.380   2.049  10.695  0.2907 -1.0278 -0.4209
  468MPD2    C3 7018   3.296   1.941  10.691 -0.1293 -0.7896  0.6743
  468MPD2    C4 7019   3.168   1.950  10.730 -0.3744  0.3053  0.2994
  468MPD2    C5 7020   3.121   2.064  10.788 -0.7399 -0.0663  0.6985
  468MPD2     H 7021   3.483   2.044  10.661  0.1588  2.1152 -1.2747
  468MPD2    H1 7022   3.097   1.869  10.717 -0.1066  0.4002 -1.7378
  468MPD2    H2 7023   3.157   2.263  10.845 -0.1269  0.0655 -0.3844
  468MPD2    H3 7024   3.015   2.068  10.813 -0.7024  0.8017  0.7245
  468MPD2     N 7025   3.332   1.807  10.652  0.0682 -0.2885  0.1876
  468MPD2    H5 7026   3.259   1.737  10.663 -0.0960 -0.0390  0.7060
  468MPD2    N1 7027   3.420   2.275  10.752 -0.8129  0.4931  0.0900
  468MPD2    H7 7028   3.511   2.272  10.708 -1.0250 -0.1428 -0.2967
  469TMC3    C1 7029   3.502   2.486  10.812 -0.4456 -0.1882  0.1268
  469TMC3    C2 7030   3.629   2.429  10.817 -0.0039  0.0535 -0.1574
  469TMC3    C3 7031   3.743   2.496  10.867  0.7253 -0.8401  0.3493
  469TMC3    C4 7032   3.485   2.616  10.858  0.1635  0.1370  0.2548
  469TMC3    C5 7033   3.598   2.685  10.897 -0.1427 -1.4860  0.5383
  469TMC3    C6 7034   3.725   2.633  10.896  0.9033 -0.5562  0.1364
  469TMC3     C 7035   3.388   2.401  10.804 -0.6802 -0.5619  0.3112
  469TMC3     O 7036   3.283   2.449  10.844 -0.3250 -0.0305 -0.2040
  469TMC3     H 7037   3.650   2.334  10.767 -3.8813 -1.1540  0.5364
  469TMC3    H1 7038   3.387   2.662  10.850 -0.6599 -1.1569  2.9351
  469TMC3    H2 7039   3.802   2.700  10.931  1.7653 -0.2145 -2.4193
  469TMC3    C7 7040   3.569   2.811  10.969  0.2179 -0.5409 -0.2649
  469TMC3    C8 7041   3.863   2.429  10.906  0.0309 -0.7938 -0.0025
  469TMC3    O1 7042   3.664   2.879  11.002  0.1901 -0.2096 -0.2966
  469TMC3    O2 7043   3.882   2.318  10.856 -0.5667 -0.2552  0.0874
  470TMC3    C1 7044   0.623   2.468   0.261  0.5249  0.2434 -0.0719
  470TMC3    C2 7045   0.719   2.528   0.345 -0.1385 -0.6346  0.0628
  470TMC3    C3 7046   0.696   2.525   0.483 -0.3638  0.2044 -0.2393
  470TMC3    C4 7047   0.501   2.419   0.305  0.3572  0.1676 -0.0360
  470TMC3    C5 7048   0.483   2.421   0.437  0.8350 -0.2672 -0.3282
  470TMC3    C6 7049   0.578   2.467   0.534 -0.0113 -0.5194 -0.2819
  470TMC3     C 7050   0.636   2.501   0.121 -0.1620 -0.3811 -1.1217
  470TMC3     O 7051   0.725   2.578   0.081 -0.3377  0.0437 -0.4904
  470TMC3     H 7052   0.809   2.569   0.300 -0.0728  0.1756  0.9341
  470TMC3    H1 7053   0.433   2.363   0.242 -1.7649  0.4214  2.0376
  470TMC3    H2 7054   0.573   2.463   0.643 -0.4146 -0.6150 -0.3052
  470TMC3    C7 7055   0.349   2.389   0.474 -0.4539 -0.1743 -0.4385
  470TMC3    C8 7056   0.768   2.614   0.573 -0.4214 -0.5411  0.2898
  470TMC3    O1 7057   0.273   2.341   0.390  0.5227  0.0695 -0.2808
  470TMC3    O2 7058   0.722   2.648   0.683 -0.4069 -0.3713 -0.0923
  471MPD2     C 7059   2.205   3.703  16.253 -0.1564  0.6113  0.5013
  471MPD2    C1 7060   2.108   3.678  16.348  1.0970 -0.8252 -0.9334
  471MPD2    C2 7061   2.131   3.577  16.438 -0.6375  0.0606  0.2306
  471MPD2    C3 7062   2.242   3.506  16.423  0.5607 -0.4141 -0.0835
  471MPD2    C4 7063   2.339   3.540  16.341  0.5768 -0.0218  0.5533
  471MPD2    C5 7064   2.318   3.635  16.246 -0.2316  0.2515 -0.6316
  471MPD2     H 7065   2.057   3.548  16.511  0.2869 -0.4546  0.9693
  471MPD2    H1 7066   2.431   3.484  16.331  1.1615  0.5670  2.7726
  471MPD2    H2 7067   2.195   3.782  16.179 -1.5437 -0.1661 -0.1415
  471MPD2    H3 7068   2.395   3.666  16.177 -1.1348  1.0083 -1.3124
  471MPD2     N 7069   2.239   3.395  16.507 -0.2656 -0.4274  0.2451
  471MPD2    H5 7070   2.170   3.396  16.581  0.1219 -0.3152  0.6092
  471MPD2    N1 7071   1.983   3.752  16.364 -0.0427 -0.3525  0.2172
  471MPD2    H7 7072   1.932   3.726  16.447  1.1158  0.1957  1.1001
  472TMC3    C1 7073   1.790   3.812  16.262 -0.2620 -0.9730  0.8288
  472TMC3    C2 7074   1.719   3.903  16.176 -1.1396 -0.1253 -0.2284
  472TMC3    C3 7075   1.588   3.867  16.154  0.1265  0.0553  0.1818
  472TMC3    C4 7076   1.744   3.685  16.299  0.2524  0.4778 -0.3673
  472TMC3    C5 7077   1.618   3.655  16.248  1.0223  0.1494 -0.2391
  472TMC3    C6 7078   1.537   3.750  16.186 -0.2769  0.1166 -0.0742
  472TMC3     C 7079   1.931   3.837  16.267  0.2669  0.2036 -0.8540
  472TMC3     O 7080   1.989   3.906  16.185 -0.4082  0.0685  0.3628
  472TMC3     H 7081   1.760   3.999  16.148 -0.6739  0.1075  1.2475
  472TMC3    H1 7082   1.791   3.621  16.372  0.2837  0.0544 -0.7568
  472TMC3    H2 7083   1.434   3.737  16.154 -0.4177  2.4077 -0.5718
  472TMC3    C7 7084   1.548   3.537  16.299  0.2710 -0.8767 -0.1263
  472TMC3    C8 7085   1.496   3.962  16.085  0.1066  0.4020 -0.6688
  472TMC3    O1 7086   1.574   3.480  16.402 -0.3874  0.4557  0.0510
  472TMC3    O2 7087   1.551   4.018  15.988 -0.4728  0.6657 -0.2338
  473MPD2     C 7088   1.358   1.511  13.637  0.0872  0.2143  0.3438
  473MPD2    C1 7089   1.270   1.615  13.608 -0.2093  0.4988 -0.2279
  473MPD2    C2 7090   1.271   1.731  13.672  0.0203  0.6676 -0.1534
  473MPD2    C3 7091   1.355   1.751  13.779  0.1137 -0.6914 -0.4114
  473MPD2    C4 7092   1.440   1.654  13.809 -0.5014  0.4539  0.0603
  473MPD2    C5 7093   1.447   1.536  13.740 -0.3198 -0.3019 -0.5594
  473MPD2     H 7094   1.183   1.792  13.654 -0.1130  0.9166  1.3473
  473MPD2    H1 7095   1.506   1.661  13.895  1.4778  3.8087 -1.7249
  473MPD2    H2 7096   1.362   1.415  13.586 -1.1890  0.2797  0.1066
  473MPD2    H3 7097   1.512   1.454  13.771  1.4528  1.3841  0.2129
  473MPD2     N 7098   1.351   1.861  13.869  0.4621  0.1354  0.2644
  473MPD2    H5 7099   1.394   1.845  13.959 -2.0816  1.6785  1.7521
  473MPD2    N1 7100   1.175   1.596  13.509  0.4035  0.6402 -0.4184
  473MPD2    H7 7101   1.130   1.684  13.487  0.8952  0.5006 -2.0178
  474TMC3    C1 7102   1.284   2.081  13.955  0.2846  0.1315 -0.3062
  474TMC3    C2 7103   1.184   2.176  13.967 -0.4180  0.3340  0.9776
  474TMC3    C3 7104   1.198   2.278  14.056 -0.1481  0.3419 -0.2733
  474TMC3    C4 7105   1.401   2.088  14.026 -0.3686  0.1337 -0.0660
  474TMC3    C5 7106   1.414   2.185  14.119  0.0056  0.1531 -0.8477
  474TMC3    C6 7107   1.310   2.279  14.134  0.1465 -0.3369  0.7490
  474TMC3     C 7108   1.272   1.971  13.851  0.4669 -0.1627 -0.3071
  474TMC3     O 7109   1.193   1.993  13.759 -0.1331  0.2005  0.5067
  474TMC3     H 7110   1.098   2.167  13.902  0.1308  1.6223  0.0718
  474TMC3    H1 7111   1.485   2.021  14.010 -0.0784  1.3377 -3.5795
  474TMC3    H2 7112   1.329   2.357  14.206  3.5013 -1.0442  0.6606
  474TMC3    C7 7113   1.538   2.212  14.180  0.6274  0.3053 -0.2652
  474TMC3    C8 7114   1.131   2.398  14.005 -0.3745 -0.4635  0.4746
  474TMC3    O1 7115   1.636   2.174  14.118  0.4300 -0.0562 -0.2409
  474TMC3    O2 7116   1.031   2.387  13.938  0.0364 -0.5986  0.4234
  475MPD2     C 7117   4.306   4.637  11.098  0.2663  0.5823 -0.3644
  475MPD2    C1 7118   4.283   0.040  11.100  0.3048 -0.0744 -0.1899
  475MPD2    C2 7119   4.152   0.077  11.123  0.5005  0.2316  0.4689
  475MPD2    C3 7120   4.050   4.726  11.140  0.3022  0.0784  0.1724
  475MPD2    C4 7121   4.072   4.593  11.121  0.1065  0.4810  0.3891
  475MPD2    C5 7122   4.200   4.554  11.089 -0.4079 -0.5876  0.9509
  475MPD2     H 7123   4.120   0.180  11.106 -0.2258 -0.2623 -1.1613
  475MPD2    H1 7124   4.000   4.513  11.114 -0.6780  1.3941 -2.3093
  475MPD2    H2 7125   4.404   4.591  11.089 -1.1325 -2.3983 -0.5463
  475MPD2    H3 7126   4.221   4.453  11.057  2.2085 -0.0901  1.0708
  475MPD2     N 7127   3.921   0.052  11.161  0.6945 -0.4884  0.3015
  475MPD2    H5 7128   3.909   0.151  11.176  1.4129 -0.5692  1.4350
  475MPD2    N1 7129   4.384   0.134  11.107 -0.7275 -0.3771 -0.1351
  475MPD2    H7 7130   4.368   0.234  11.110 -1.4038 -0.4909  0.0585
  476TMC3    C1 7131   4.589   0.226  11.103  0.8215 -0.4168 -0.3686
  476TMC3    C2 7132   4.647   0.289  10.994 -0.0326  0.4197 -0.0855
  476TMC3    C3 7133   4.664   0.422  11.006  0.3197 -0.1088  0.5419
  476TMC3    C4 7134   4.549   0.282  11.225 -0.1363 -0.3813 -0.2305
  476TMC3    C5 7135   4.563   0.416  11.227 -0.0398 -0.3449 -0.1712
  476TMC3    C6 7136   4.621   0.483  11.120  0.4308 -0.0497  0.0840
  476TMC3     C 7137   4.516   0.108  11.077 -0.0104  0.3721 -0.0363
  476TMC3     O 7138   4.569   0.009  11.033  0.1124 -0.5661 -0.1511
  476TMC3     H 7139   4.675   0.237  10.903 -0.0268 -1.1188  0.7964
  476TMC3    H1 7140   4.502   0.214  11.296  0.2736  1.2416  1.6142
  476TMC3    H2 7141   4.641   0.590  11.123 -3.4804  0.6261  1.1674
  476TMC3    C7 7142   4.464   0.487  11.313 -0.3267  0.6299  0.0136
  476TMC3    C8 7143   4.692   0.516  10.891  0.3417 -1.0111  0.3238
  476TMC3    O1 7144   4.371   0.418  11.358 -0.1579 -0.2808  0.2522
  476TMC3    O2 7145   0.013   0.620  10.926 -0.2799 -0.0799  0.3328
  477MPD2     C 7146   2.412   1.698  11.774  0.9338  0.2962  0.4515
  477MPD2    C1 7147   2.311   1.617  11.719 -0.4489 -0.2020 -0.2896
  477MPD2    C2 7148   2.290   1.491  11.774 -0.3016  0.2778 -0.1051
  477MPD2    C3 7149   2.362   1.452  11.879  0.3094 -0.3742  0.0376
  477MPD2    C4 7150   2.459   1.532  11.937 -0.0887 -0.0773 -0.1172
  477MPD2    C5 7151   2.488   1.652  11.881 -0.4102  0.6761 -1.2779
  477MPD2     H 7152   2.219   1.422  11.729  1.3296 -1.3600 -0.1748
  477MPD2    H1 7153   2.522   1.505  12.020  0.0984 -1.8817 -0.8361
  477MPD2    H2 7154   2.432   1.796  11.734  1.8743  0.6540  1.8083
  477MPD2    H3 7155   2.565   1.720  11.915 -0.5283 -0.4422  1.2153
  477MPD2     N 7156   2.347   1.317  11.926  0.3013  0.6196 -0.0697
  477MPD2    H5 7157   2.283   1.250  11.884  1.2074  0.1419 -0.6864
  477MPD2    N1 7158   2.232   1.669  11.617 -0.4619 -0.1008  0.1592
  477MPD2    H7 7159   2.246   1.767  11.598 -0.5803 -0.2291 -0.5916
  478TMC3    C1 7160   2.049   1.722  11.481  0.5936  0.1961  0.4767
  478TMC3    C2 7161   2.072   1.857  11.496  0.3276  0.2032 -0.6874
  478TMC3    C3 7162   1.969   1.943  11.453 -0.5102  0.0503  0.0340
  478TMC3    C4 7163   1.949   1.687  11.396 -0.2094 -1.0138 -0.8502
  478TMC3    C5 7164   1.867   1.778  11.335  0.1921 -0.7882 -0.2998
  478TMC3    C6 7165   1.868   1.905  11.367 -0.0319 -0.0888 -0.3190
  478TMC3     C 7166   2.121   1.615  11.559  0.2080  0.5928 -0.5096
  478TMC3     O 7167   2.090   1.498  11.558  0.2989  0.1885 -0.0807
  478TMC3     H 7168   2.164   1.881  11.549  0.9045 -0.2516 -1.4709
  478TMC3    H1 7169   1.929   1.582  11.382  0.8319 -1.3431  0.1299
  478TMC3    H2 7170   1.786   1.975  11.349 -0.8763 -0.9113  0.3318
  478TMC3    C7 7171   1.774   1.725  11.240 -0.5285  0.5450 -0.4329
  478TMC3    C8 7172   1.988   2.080  11.494  0.7411  0.3045 -0.0619
  478TMC3    O1 7173   1.782   1.605  11.222  0.3951  0.0405  0.5002
  478TMC3    O2 7174   2.096   2.099  11.551  0.2932 -0.4434  0.2462
  479MPD2     C 7175   1.376   3.913  15.065  0.2491 -0.5930  0.7051
  479MPD2    C1 7176   1.318   3.825  15.146  0.1158  0.1352 -0.2750
  479MPD2    C2 7177   1.349   3.804  15.277  0.7651  0.0122  0.0626
  479MPD2    C3 7178   1.449   3.884  15.339  0.3806  0.0672  0.5219
  479MPD2    C4 7179   1.522   3.960  15.258  0.2909  0.3916  0.2155
  479MPD2    C5 7180   1.479   3.982  15.119 -0.2758 -0.4530 -0.7631
  479MPD2     H 7181   1.312   3.730  15.347 -0.8289 -0.0521 -0.8426
  479MPD2    H1 7182   1.612   4.005  15.297  0.7214  1.6257 -2.1885
  479MPD2    H2 7183   1.342   3.930  14.964  0.9903  0.3590  0.6165
  479MPD2    H3 7184   1.538   4.042  15.051 -1.7540  0.4111 -1.2875
  479MPD2     N 7185   1.502   3.868  15.469 -0.2691 -0.1628  0.0945
  479MPD2    H5 7186   1.585   3.927  15.473 -0.4137  0.0295  0.3033
  479MPD2    N1 7187   1.210   3.768  15.089  0.2350 -0.0323 -0.1797
  479MPD2    H7 7188   1.194   3.798  14.994 -2.2364  0.2489  0.3234
  480TMC3    C1 7189   1.148   3.652  15.678 -0.0565 -0.5282  0.3844
  480TMC3    C2 7190   1.056   3.751  15.640  0.3336  0.5791  0.4872
  480TMC3    C3 7191   1.100   3.860  15.572 -0.1867 -1.1473 -0.0043
  480TMC3    C4 7192   1.281   3.659  15.649  0.3780  0.2608 -0.1597
  480TMC3    C5 7193   1.321   3.775  15.590 -0.2296 -0.2681  0.1369
  480TMC3    C6 7194   1.241   3.882  15.562 -0.9159  0.1246  0.0468
  480TMC3     C 7195   1.100   3.516  15.711 -0.3251  0.2286  0.5608
  480TMC3     O 7196   1.178   3.421  15.700 -0.3076  0.2185 -0.2277
  480TMC3     H 7197   0.949   3.735  15.649  0.3830  1.0598  1.9796
  480TMC3    H1 7198   1.350   3.576  15.665 -1.2046 -1.5344 -2.5782
  480TMC3    H2 7199   1.279   3.950  15.487  0.8857 -0.6587  0.2409
  480TMC3    C7 7200   1.466   3.792  15.572 -0.2065 -0.3179 -0.4562
  480TMC3    C8 7201   1.010   3.898  15.464 -0.1758 -0.1078 -0.3588
  480TMC3    O1 7202   1.551   3.749  15.658 -0.0191 -0.4050 -0.1597
  480TMC3    O2 7203   0.900   3.849  15.466  0.1683 -0.1719  0.0376
  481MPD2     C 7204   2.746   2.561  14.190  0.7246  0.5601 -0.3473
  481MPD2    C1 7205   2.628   2.623  14.217  0.2895  0.0073 -0.1385
  481MPD2    C2 7206   2.575   2.617  14.342  0.3058 -0.6640  0.6686
  481MPD2    C3 7207   2.643   2.549  14.445 -0.0939 -0.3499 -1.0525
  481MPD2    C4 7208   2.752   2.476  14.411 -0.7667  0.4056  0.0128
  481MPD2    C5 7209   2.809   2.489  14.290  0.1725  0.1264 -0.5401
  481MPD2     H 7210   2.484   2.670  14.367 -0.5477 -0.6590 -2.4740
  481MPD2    H1 7211   2.791   2.409  14.487  2.0879  0.8476 -1.0934
  481MPD2    H2 7212   2.799   2.570  14.096 -0.9819 -0.3033 -1.4017
  481MPD2    H3 7213   2.896   2.429  14.267 -1.0647 -1.3440 -1.3325
  481MPD2     N 7214   2.613   2.569  14.579 -0.5077 -0.3747  0.1587
  481MPD2    H5 7215   2.673   2.520  14.644 -1.3665 -1.6516 -0.0091
  481MPD2    N1 7216   2.576   2.696  14.106 -0.0922  0.1222 -0.2310
  481MPD2    H7 7217   2.625   2.691  14.017  0.1245  0.1400 -0.1137
  482TMC3    C1 7218   2.469   2.877  14.016  0.6656 -0.2578  0.3959
  482TMC3    C2 7219   2.593   2.902  13.966  0.4788  0.6027  0.0695
  482TMC3    C3 7220   2.602   2.957  13.838  0.1668 -0.1729 -0.4740
  482TMC3    C4 7221   2.357   2.902  13.945 -0.6415  0.2718 -0.2085
  482TMC3    C5 7222   2.368   2.958  13.821  0.9541 -0.3660  0.5426
  482TMC3    C6 7223   2.490   2.978  13.763  0.8409 -0.0658  0.4562
  482TMC3     C 7224   2.462   2.768  14.116 -0.5272 -0.7357 -0.0776
  482TMC3     O 7225   2.370   2.767  14.193  0.0512 -0.3089 -0.2867
  482TMC3     H 7226   2.681   2.884  14.027  0.6483 -2.0675 -0.9349
  482TMC3    H1 7227   2.259   2.869  13.975 -1.0451  0.9622 -0.7514
  482TMC3    H2 7228   2.509   2.992  13.657  0.7377 -0.6204  0.3668
  482TMC3    C7 7229   2.251   2.985  13.742  0.1443  0.3594 -0.2040
  482TMC3    C8 7230   2.725   2.985  13.773  0.6839 -0.8856 -0.1407
  482TMC3    O1 7231   2.150   2.929  13.773 -0.2775  0.9757 -0.3621
  482TMC3    O2 7232   2.729   3.092  13.716 -0.1666 -0.4214 -0.3254
  483TMC3    C1 7233   0.040   1.655   0.183 -0.0047 -0.8583 -0.1213
  483TMC3    C2 7234   0.123   1.760   0.170  0.1890 -0.0014  0.0808
  483TMC3    C3 7235   0.207   1.795   0.276 -0.9318 -0.7383  0.3550
  483TMC3    C4 7236   0.022   1.595   0.302 -0.6688  0.5982  0.6313
  483TMC3    C5 7237   0.090   1.642   0.410 -0.4659  0.3434  0.9499
  483TMC3    C6 7238   0.180   1.744   0.399  0.4933 -1.2048 -0.3768
  483TMC3     C 7239   0.006   1.578   0.065  0.8067 -0.1983  0.3414
  483TMC3     O 7240   4.705   1.633  17.702 -0.4751 -0.2311 -0.4924
  483TMC3     H 7241   0.145   1.795   0.070  2.8108  0.7162  0.9101
  483TMC3    H1 7242   4.686   1.513   0.313 -1.3368  0.9186 -1.3795
  483TMC3    H2 7243   0.241   1.767   0.485 -0.0294  3.0990 -1.1577
  483TMC3    C7 7244   0.084   1.570   0.534  0.3633 -0.0699  0.0976
  483TMC3    C8 7245   0.321   1.885   0.256  0.1110 -0.3887 -0.4775
  483TMC3    O1 7246   0.084   1.443   0.522 -0.1698  0.5628 -0.4135
  483TMC3    O2 7247   0.331   1.919   0.138  0.6825 -0.8012 -0.6103
  484MPD2     C 7248   3.420   0.318  13.026 -0.5301  0.2189  0.3321
  484MPD2    C1 7249   3.376   0.311  12.895  0.2220  0.1109  1.0049
  484MPD2    C2 7250   3.459   0.363  12.797 -0.3820 -0.3426  0.7493
  484MPD2    C3 7251   3.578   0.422  12.826 -0.5384  0.3069  1.0570
  484MPD2    C4 7252   3.618   0.430  12.956 -0.7127  0.0469 -0.1458
  484MPD2    C5 7253   3.539   0.384  13.053  0.5163  0.2292  0.3820
  484MPD2     H 7254   3.429   0.343  12.695 -1.3986  0.9133  0.7950
  484MPD2    H1 7255   3.715   0.467  12.988 -0.2283  0.4789 -2.0792
  484MPD2    H2 7256   3.365   0.283  13.113  2.2760 -1.4682  1.4237
  484MPD2    H3 7257   3.575   0.397  13.155  0.1853  2.6316  0.1937
  484MPD2     N 7258   3.670   0.477  12.725 -0.1522  0.0258 -0.3394
  484MPD2    H5 7259   3.752   0.522  12.765  1.3071 -0.4343 -2.7687
  484MPD2    N1 7260   3.248   0.262  12.871 -0.4802  0.3084  0.2006
  484MPD2    H7 7261   3.209   0.227  12.958  1.3955  0.5655  1.1292
  485TMC3    C1 7262   3.760   0.540  12.518 -0.2099  0.6878 -0.1712
  485TMC3    C2 7263   3.872   0.574  12.591 -0.1568  0.5692 -0.4846
  485TMC3    C3 7264   3.968   0.644  12.527 -0.4415 -0.5882 -0.4103
  485TMC3    C4 7265   3.745   0.579  12.393  0.0181  0.2329 -0.2002
  485TMC3    C5 7266   3.848   0.642  12.328 -0.2575  0.0795 -0.5425
  485TMC3    C6 7267   3.956   0.685  12.396  0.7101  0.0964 -0.3941
  485TMC3     C 7268   3.658   0.467  12.589 -0.0131 -0.4221 -0.0734
  485TMC3     O 7269   3.560   0.448  12.523  0.5019 -0.0069 -0.1379
  485TMC3     H 7270   3.892   0.518  12.681 -2.1229  2.3091  1.0333
  485TMC3    H1 7271   3.654   0.548  12.342 -0.7887 -0.1567  1.4903
  485TMC3    H2 7272   4.043   0.739  12.360  0.5865  0.6532  0.1439
  485TMC3    C7 7273   3.869   0.575  12.200  0.0655 -0.6498  0.0219
  485TMC3    C8 7274   4.099   0.608  12.563 -0.5578  0.0148  0.1789
  485TMC3    O1 7275   3.834   0.454  12.197  0.0516  0.2902  0.8995
  485TMC3    O2 7276   4.175   0.702  12.567 -0.3262  0.0217  0.4064
  486MPD2     C 7277   0.874   4.015  13.180 -0.4447 -0.0978 -0.0259
  486MPD2    C1 7278   0.816   3.914  13.107 -1.0418 -0.9114 -0.4353
  486MPD2    C2 7279   0.692   3.932  13.044  0.0602 -0.1538 -0.5507
  486MPD2    C3 7280   0.626   4.048  13.059 -0.6307 -0.0059 -0.0488
  486MPD2    C4 7281   0.685   4.152  13.128 -0.3800  0.3984  0.4733
  486MPD2    C5 7282   0.810   4.134  13.188  0.2345 -0.9887  0.2604
  486MPD2     H 7283   0.647   3.855  12.982 -2.4093 -0.1817  1.2948
  486MPD2    H1 7284   0.641   4.250  13.135 -1.2629 -0.0895  1.8443
  486MPD2    H2 7285   0.970   4.001  13.229  0.0063 -1.4107 -1.2778
  486MPD2    H3 7286   0.863   4.219  13.231 -0.6992 -0.2355 -0.0804
  486MPD2     N 7287   0.504   4.074  12.986 -1.2035  0.0966 -0.2409
  486MPD2    H5 7288   0.474   3.991  12.936 -1.2451  0.1968 -0.3819
  486MPD2    N1 7289   0.877   3.790  13.114  0.8394  0.0285  1.0805
  486MPD2    H7 7290   0.962   3.794  13.169  1.3732 -0.0019  0.2569
  487TMC3    C1 7291   0.889   3.560  13.124  0.8135  0.6196 -0.2595
  487TMC3    C2 7292   0.921   3.449  13.053  0.1400  0.3867  1.3812
  487TMC3    C3 7293   0.988   3.349  13.117  0.3016 -0.7136 -0.4677
  487TMC3    C4 7294   0.894   3.560  13.262 -0.8577 -0.2347  0.5802
  487TMC3    C5 7295   0.935   3.441  13.323  0.3572 -0.1479 -1.1248
  487TMC3    C6 7296   0.996   3.341  13.256 -0.3141  0.0056  0.1653
  487TMC3     C 7297   0.831   3.670  13.057  0.9509  0.2232 -0.2986
  487TMC3     O 7298   0.756   3.652  12.967  0.8195  0.1840 -0.3166
  487TMC3     H 7299   0.929   3.466  12.946 -0.0754  0.5441  1.3905
  487TMC3    H1 7300   0.859   3.645  13.320  0.6311  0.3850  0.5561
  487TMC3    H2 7301   1.028   3.249  13.304  2.3458 -0.0359 -1.7083
  487TMC3    C7 7302   0.858   3.408  13.436 -0.3192  0.2387 -0.5362
  487TMC3    C8 7303   1.009   3.230  13.045 -0.4035  0.5325 -0.4058
  487TMC3    O1 7304   0.778   3.491  13.460 -0.4759 -0.1244 -0.2008
  487TMC3    O2 7305   1.102   3.158  13.080  0.0397 -0.0413 -0.6955
  488MPD2     C 7306   1.090   0.368  16.603  0.6995 -0.1098 -0.1661
  488MPD2    C1 7307   1.031   0.494  16.611  1.0371 -0.5232  0.5879
  488MPD2    C2 7308   0.915   0.512  16.680 -0.8615 -0.2468  0.5728
  488MPD2    C3 7309   0.838   0.404  16.718 -0.8331 -0.1902  0.6610
  488MPD2    C4 7310   0.900   0.281  16.710  0.2215 -0.2230  0.2477
  488MPD2    C5 7311   1.020   0.259  16.655  0.0931  0.1502 -0.6865
  488MPD2     H 7312   0.863   0.605  16.696  2.6322  2.0984 -1.5760
  488MPD2    H1 7313   0.862   0.189  16.753  0.6706 -0.5706 -0.1054
  488MPD2    H2 7314   1.191   0.353  16.566  0.9618  0.3232  0.3561
  488MPD2    H3 7315   1.059   0.160  16.633 -1.6408 -0.7568  0.3433
  488MPD2     N 7316   0.707   0.430  16.766  0.4923  0.1050 -0.9632
  488MPD2    H5 7317   0.675   0.525  16.779  1.2169  0.1662  0.4593
  488MPD2    N1 7318   1.087   0.605  16.555  0.3614  0.4510 -0.1671
  488MPD2    H7 7319   1.052   0.697  16.582  0.4063 -0.1335  1.9024
  489TMC3    C1 7320   0.486   0.377  16.839 -0.1044  0.5217 -1.4186
  489TMC3    C2 7321   0.469   0.514  16.833  0.3545 -0.3868 -0.1014
  489TMC3    C3 7322   0.386   0.571  16.927  0.6918 -0.5864  0.2417
  489TMC3    C4 7323   0.423   0.310  16.939  0.2450 -0.1543  0.4950
  489TMC3    C5 7324   0.334   0.370  17.024 -0.4156  0.5427  0.8356
  489TMC3    C6 7325   0.317   0.507  17.028  1.1220  0.1982  0.3358
  489TMC3     C 7326   0.613   0.329  16.786  0.1220 -0.3760 -0.7498
  489TMC3     O 7327   0.617   0.207  16.768 -0.1580  0.4911  0.0498
  489TMC3     H 7328   0.509   0.565  16.746 -0.4953  0.0132 -0.2543
  489TMC3    H1 7329   0.432   0.203  16.948 -1.7934 -0.5422 -2.0919
  489TMC3    H2 7330   0.270   0.546  17.117 -2.8123  0.2670 -1.8050
  489TMC3    C7 7331   0.239   0.280  17.090  0.2141 -0.0025  0.2037
  489TMC3    C8 7332   0.392   0.716  16.914 -0.1274  0.2177 -0.4049
  489TMC3    O1 7333   0.278   0.164  17.107 -0.4904 -0.0268  0.2432
  489TMC3    O2 7334   0.416   0.766  16.807 -0.0642 -0.3137  0.0055
  490MPD2     C 7335   1.601   4.493  16.897  0.2169  0.7336 -0.8616
  490MPD2    C1 7336   1.634   4.362  16.934 -0.3916  0.5599  0.2557
  490MPD2    C2 7337   1.740   4.339  17.018  0.8040  0.1481 -0.3879
  490MPD2    C3 7338   1.829   4.441  17.044  0.2190 -0.3949 -0.3323
  490MPD2    C4 7339   1.803   4.565  16.995 -0.3594 -0.6647 -0.4104
  490MPD2    C5 7340   1.691   4.589  16.927  0.4128  0.0906  0.5050
  490MPD2     H 7341   1.740   4.240  17.063 -1.1787 -0.1255 -0.9529
  490MPD2    H1 7342   1.872   4.644  17.021  0.6500 -1.7389  0.2037
  490MPD2    H2 7343   1.505   4.526  16.860 -1.2793 -0.3897  1.9683
  490MPD2    H3 7344   1.663   4.687  16.890  3.1069  1.2522  1.4886
  490MPD2     N 7345   1.928   4.429  17.144  0.2112 -0.2871 -0.2757
  490MPD2    H5 7346   1.970   4.512  17.184 -1.3789  0.2460  0.3108
  490MPD2    N1 7347   1.539   4.253  16.918 -0.0095 -0.2054  0.1024
  490MPD2    H7 7348   1.570   4.167  16.962  0.7992 -1.2673 -2.5315
  491TMC3    C1 7349   1.337   4.141  16.871  0.1493 -0.1602  0.4858
  491TMC3    C2 7350   1.363   4.061  16.985  0.0918  0.5168 -0.3420
  491TMC3    C3 7351   1.248   3.990  17.040 -0.4518  0.0019 -0.2377
  491TMC3    C4 7352   1.217   4.141  16.798  0.3850  0.2438  0.2161
  491TMC3    C5 7353   1.120   4.060  16.849  0.0005 -0.9863  0.9080
  491TMC3    C6 7354   1.130   3.991  16.968 -0.6955  0.0957 -0.6169
  491TMC3     C 7355   1.421   4.252  16.848  0.1443 -0.1411 -0.5934
  491TMC3     O 7356   1.367   4.343  16.786 -0.1219 -0.3910  0.0280
  491TMC3     H 7357   1.455   4.069  17.042 -1.3321 -1.0203  2.1100
  491TMC3    H1 7358   1.211   4.196  16.704 -0.3575  0.4623  0.3922
  491TMC3    H2 7359   1.038   3.950  17.008  0.1715 -2.6332 -1.3927
  491TMC3    C7 7360   0.992   4.076  16.796  0.8519 -0.5285 -0.6022
  491TMC3    C8 7361   1.252   3.983  17.182 -0.2977 -0.6482 -0.0804
  491TMC3    O1 7362   0.920   3.973  16.805 -0.1468 -0.3308  0.5005
  491TMC3    O2 7363   1.149   4.029  17.232  0.0406 -0.4427  0.4312
  492MPD2     C 7364   1.455   0.128  11.809 -0.0224 -0.4826  0.5499
  492MPD2    C1 7365   1.400   0.022  11.742  0.1764  0.5875  0.2349
  492MPD2    C2 7366   1.323   4.660  11.810 -0.2053 -0.5985 -0.0124
  492MPD2    C3 7367   1.314   4.670  11.956  0.1971  0.8165  0.3810
  492MPD2    C4 7368   1.365   0.049  12.010 -0.1570  0.6204  0.4794
  492MPD2    C5 7369   1.440   0.140  11.945  0.2792 -0.9760  0.1792
  492MPD2     H 7370   1.291   4.571  11.758 -0.5254 -0.9807  0.8236
  492MPD2    H1 7371   1.362   0.071  12.116 -1.7883 -0.8051  0.7297
  492MPD2    H2 7372   1.515   0.198  11.753  0.0774  0.0944  1.3816
  492MPD2    H3 7373   1.476   0.226  12.001 -1.1649 -2.4255  3.3461
  492MPD2     N 7374   1.262   4.576  12.034  0.6914 -0.9330  0.2273
  492MPD2    H5 7375   1.257   4.610  12.129 -2.6271  0.6489 -0.5324
  492MPD2    N1 7376   1.415   0.031  11.602 -0.2990 -0.1158 -0.2518
  492MPD2    H7 7377   1.472   0.109  11.572 -0.3997  0.6274  1.4947
  493TMC3    C1 7378   1.421   4.713  11.370 -0.0802 -0.1404 -0.7391
  493TMC3    C2 7379   1.509   0.075  11.353 -0.3415 -0.1402 -0.1135
  493TMC3    C3 7380   1.561   0.105  11.231  0.0059  0.2874  0.0639
  493TMC3    C4 7381   1.376   4.638  11.265 -0.0731  0.2861  0.2782
  493TMC3    C5 7382   1.424   4.673  11.139 -0.0965  0.2176 -0.4152
  493TMC3    C6 7383   1.519   0.038  11.121  0.0678 -0.4423  0.1129
  493TMC3     C 7384   1.376   4.676  11.508 -0.2925  0.3202 -0.2157
  493TMC3     O 7385   1.316   4.570  11.522  0.3108 -0.7835 -0.1461
  493TMC3     H 7386   1.579   0.093  11.434 -2.2230  1.6693  1.1112
  493TMC3    H1 7387   1.305   4.558  11.286 -1.6774  1.1776 -1.6857
  493TMC3    H2 7388   1.575   0.046  11.029  0.1665 -2.0056  0.0412
  493TMC3    C7 7389   1.357   4.626  11.022 -0.0935 -0.0343  0.6655
  493TMC3    C8 7390   1.676   0.193  11.224  0.2964 -0.0207 -0.2102
  493TMC3    O1 7391   1.254   4.565  11.040  0.0837 -0.1236  0.2588
  493TMC3    O2 7392   1.728   0.214  11.333 -0.1239  0.1430  0.6278
  494TMC3    C1 7393   1.741   1.567   0.036 -0.7507 -0.5451  0.2494
  494TMC3    C2 7394   1.749   1.432   0.062 -0.1533  0.7493 -0.2156
  494TMC3    C3 7395   1.813   1.350  17.711  0.0566 -0.1186  0.8629
  494TMC3    C4 7396   1.775   1.630  17.663  0.1093 -0.5519 -0.2265
  494TMC3    C5 7397   1.848   1.548  17.575  0.2228  0.1689  0.8191
  494TMC3    C6 7398   1.865   1.413  17.601 -0.3633 -0.9244 -0.2932
  494TMC3     C 7399   1.669   1.651   0.127 -0.1489  0.0409  0.4952
  494TMC3     O 7400   1.699   1.770   0.128  0.5738 -0.0474 -0.3679
  494TMC3     H 7401   1.706   1.402   0.157  0.3690  1.6545  0.3058
  494TMC3    H1 7402   1.773   1.738  17.651 -0.8208 -0.7022 -1.4726
  494TMC3    H2 7403   1.912   1.350  17.526 -0.8422 -0.2008 -1.1869
  494TMC3    C7 7404   1.903   1.594  17.450 -0.0576 -0.0125 -0.8529
  494TMC3    C8 7405   1.881   1.229   0.006  0.3032  0.3689 -0.7455
  494TMC3    O1 7406   1.984   1.518  17.397  0.4219  0.0038 -0.4798
  494TMC3    O2 7407   1.968   1.193  17.667  0.3829  0.4859  0.2269
  495TMC3    C1 7408   1.417   4.204  14.664  0.5800  0.3881  0.3791
  495TMC3    C2 7409   1.340   4.247  14.561  0.7156  0.1546  0.5339
  495TMC3    C3 7410   1.214   4.292  14.584  0.0102  0.1041  0.6032
  495TMC3    C4 7411   1.381   4.230  14.793  0.2112 -0.6602  0.4807
  495TMC3    C5 7412   1.264   4.290  14.823 -0.0642  0.3280 -0.0128
  495TMC3    C6 7413   1.183   4.310  14.713  0.4576  0.1731  1.1671
  495TMC3     C 7414   1.488   4.079  14.632  0.4121 -0.6459  0.1998
  495TMC3     O 7415   1.473   4.016  14.526 -0.0843 -0.1712  0.1278
  495TMC3     H 7416   1.376   4.224  14.462 -1.3558 -0.4752 -0.0808
  495TMC3    H1 7417   1.438   4.194  14.878  4.5690 -0.5081 -2.3625
  495TMC3    H2 7418   1.078   4.334  14.727  0.7522  1.8193  0.5953
  495TMC3    C7 7419   1.207   4.260  14.961 -0.7181  0.5851  0.0246
  495TMC3    C8 7420   1.110   4.219  14.513  0.1242 -0.1858  0.0103
  495TMC3    O1 7421   1.290   4.266  15.055  0.0316  0.4334 -0.0119
  495TMC3    O2 7422   0.994   4.255  14.533  0.0610 -0.2116  0.0546
  496MPD2     C 7423   2.952   3.943  14.701 -0.6923 -0.6013  0.0595
  496MPD2    C1 7424   3.025   3.852  14.772 -0.0572  0.5080  0.4093
  496MPD2    C2 7425   3.001   3.846  14.912  0.7915 -0.3551 -0.1489
  496MPD2    C3 7426   2.900   3.918  14.972  1.1053  0.1418 -0.4635
  496MPD2    C4 7427   2.834   4.005  14.892  0.1707 -0.1007 -1.0791
  496MPD2    C5 7428   2.850   4.010  14.757  0.7679 -0.4802 -0.7178
  496MPD2     H 7429   3.064   3.778  14.969  1.4411 -0.0339 -0.4840
  496MPD2    H1 7430   2.755   4.071  14.928  0.6086 -0.5184  0.6251
  496MPD2    H2 7431   2.973   3.961  14.596  2.0809  0.1639  0.7342
  496MPD2    H3 7432   2.804   4.088  14.697  0.4115 -0.9043 -0.9904
  496MPD2     N 7433   2.854   3.891  15.103  0.3073 -0.2292  0.2998
  496MPD2    H5 7434   2.775   3.949  15.129  0.9472  0.3935  0.8369
  496MPD2    N1 7435   3.117   3.779  14.691  0.4691 -0.2877  0.4336
  496MPD2    H7 7436   3.117   3.798  14.591 -2.5481 -0.5243  0.4084
  497TMC3    C1 7437   2.822   3.805  15.322  0.6072 -0.3850 -0.3459
  497TMC3    C2 7438   2.685   3.815  15.302  0.3088  0.0790  0.0771
  497TMC3    C3 7439   2.610   3.810  15.417 -0.6206  0.8020 -0.4512
  497TMC3    C4 7440   2.876   3.784  15.448  0.3645 -0.1443 -0.2692
  497TMC3    C5 7441   2.792   3.782  15.558  0.2676  0.4084  0.0491
  497TMC3    C6 7442   2.657   3.795  15.543  0.0938  0.7449 -0.3710
  497TMC3     C 7443   2.917   3.822  15.205 -0.3804 -0.6554 -0.1750
  497TMC3     O 7444   3.031   3.777  15.210  0.1249  0.0685 -0.3413
  497TMC3     H 7445   2.640   3.826  15.204 -0.2756  2.5249  0.6231
  497TMC3    H1 7446   2.983   3.775  15.455  0.5695  2.8014  0.3932
  497TMC3    H2 7447   2.578   3.778  15.615  0.6055  1.2512  0.3091
  497TMC3    C7 7448   2.841   3.726  15.685  0.1332  0.0410  0.2254
  497TMC3    C8 7449   2.466   3.791  15.394 -0.0883 -0.3966 -0.4932
  497TMC3    O1 7450   2.757   3.694  15.766 -0.3001 -0.1603 -0.4182
  497TMC3    O2 7451   2.442   3.742  15.286  0.1345  0.4815  0.2408
  498MPD2     C 7452   2.861   1.206  10.088 -0.2613  0.2330 -1.1765
  498MPD2    C1 7453   2.917   1.102  10.018 -0.6733  0.5226 -0.3399
  498MPD2    C2 7454   2.838   1.005   9.961 -0.6481 -1.6145  0.1297
  498MPD2    C3 7455   2.702   1.016   9.978 -0.0080 -0.1636 -0.1895
  498MPD2    C4 7456   2.651   1.125  10.052 -0.1185 -0.5252 -0.1746
  498MPD2    C5 7457   2.725   1.218  10.106  0.2410  0.7817 -0.1626
  498MPD2     H 7458   2.875   0.929   9.894  1.5304  0.3219 -0.8769
  498MPD2    H1 7459   2.546   1.125  10.078 -0.1185  0.6989 -0.1869
  498MPD2    H2 7460   2.921   1.286  10.131 -1.5671  0.5973 -0.0419
  498MPD2    H3 7461   2.685   1.296  10.169 -1.9194 -0.0517 -0.5137
  498MPD2     N 7462   2.625   0.916   9.915 -0.1589 -0.4589  0.2011
  498MPD2    H5 7463   2.677   0.851   9.856 -1.4544 -1.6637  0.3758
  498MPD2    N1 7464   3.050   1.089  10.005  0.3539 -0.0674 -0.5839
  498MPD2    H7 7465   3.087   1.005   9.962 -0.5811 -0.0637 -1.4012
  499TMC3    C1 7466   3.280   1.143  10.001  0.0257 -0.3516  0.9053
  499TMC3    C2 7467   3.307   1.013  10.036 -0.5209 -0.1816  0.3183
  499TMC3    C3 7468   3.434   0.976  10.066 -0.8427 -0.7112  0.6168
  499TMC3    C4 7469   3.377   1.234   9.980 -0.2135 -0.2792 -0.5763
  499TMC3    C5 7470   3.508   1.186   9.982 -0.2631 -0.0291  0.1332
  499TMC3    C6 7471   3.539   1.063  10.031  0.2101  0.0335  0.3326
  499TMC3     C 7472   3.146   1.192  10.025  0.5793  0.5671 -0.0705
  499TMC3     O 7473   3.134   1.309  10.053  0.1396 -0.4837  0.0048
  499TMC3     H 7474   3.227   0.947  10.067 -0.7413 -0.0638  0.0023
  499TMC3    H1 7475   3.343   1.327   9.936  1.0601  0.3753 -0.1613
  499TMC3    H2 7476   3.638   1.020  10.019  0.3329  0.6723 -0.9351
  499TMC3    C7 7477   3.617   1.257   9.916 -0.2945 -0.3842  0.2530
  499TMC3    C8 7478   3.462   0.841  10.101  0.5388 -0.0058  0.5762
  499TMC3    O1 7479   3.715   1.189   9.881  0.1064  0.1329 -0.1925
  499TMC3    O2 7480   3.376   0.759  10.074 -0.5704  0.0204  0.1791
  500MPD2     C 7481   0.522   0.942  10.806  0.3997 -0.0584 -0.3930
  500MPD2    C1 7482   0.553   0.990  10.684  0.0874  0.3334  0.6676
  500MPD2    C2 7483   0.451   1.018  10.597 -0.9022  0.1819  0.1747
  500MPD2    C3 7484   0.318   1.014  10.637 -0.1408 -0.5307 -0.2088
  500MPD2    C4 7485   0.287   0.967  10.756 -0.0892  0.1758 -0.3676
  500MPD2    C5 7486   0.388   0.927  10.837  0.7306  1.3252 -0.5973
  500MPD2     H 7487   0.482   1.060  10.501  0.5263 -0.2050  0.4612
  500MPD2    H1 7488   0.182   0.950  10.775  0.1118 -0.5972  0.0397
  500MPD2    H2 7489   0.595   0.918  10.882 -0.4877 -2.6934 -0.3867
  500MPD2    H3 7490   0.359   0.887  10.934 -0.5610 -1.9770 -2.3610
  500MPD2     N 7491   0.216   1.054  10.553 -0.0187  0.2477  0.6473
  500MPD2    H5 7492   0.125   1.052  10.598 -1.4013 -1.6014 -2.2251
  500MPD2    N1 7493   0.687   1.019  10.646  0.1441 -0.5882  0.3142
  500MPD2    H7 7494   0.695   1.085  10.569  1.0866 -0.8163  0.2253
  501TMC3    C1 7495   0.921   1.034  10.653 -0.1126 -0.4875 -0.0538
  501TMC3    C2 7496   0.921   1.163  10.596  0.6724 -0.5636 -0.0024
  501TMC3    C3 7497   1.038   1.208  10.552  0.6749 -0.6970 -0.9451
  501TMC3    C4 7498   1.031   0.955  10.667 -0.2001 -0.6510 -0.4700
  501TMC3    C5 7499   1.149   0.999  10.618  0.1331 -0.1626  0.4066
  501TMC3    C6 7500   1.153   1.127  10.565 -0.0425  0.1970  0.2356
  501TMC3     C 7501   0.796   0.973  10.708 -0.1545 -0.6140 -0.4332
  501TMC3     O 7502   0.812   0.895  10.800  0.1670 -0.2201  0.2243
  501TMC3     H 7503   0.838   1.231  10.609 -0.1352 -1.3673 -1.0052
  501TMC3    H1 7504   1.023   0.859  10.718  0.2307 -0.0224  0.7587
  501TMC3    H2 7505   1.248   1.172  10.539 -0.5804  0.4795 -1.2622
  501TMC3    C7 7506   1.261   0.954  10.691  0.2866 -0.1020 -0.3800
  501TMC3    C8 7507   1.050   1.337  10.480 -0.8988  0.6746  0.0356
  501TMC3    O1 7508   1.279   0.837  10.721  0.1922 -0.2095 -0.3225
  501TMC3    O2 7509   1.167   1.371  10.460  0.0468 -0.2369  0.4355
  502TMC3    C1 7510   0.550   4.459  14.855 -0.2785  0.3066 -0.7366
  502TMC3    C2 7511   0.562   4.531  14.735 -0.1778  0.2997 -0.9848
  502TMC3    C3 7512   0.451   4.575  14.677  0.3581  0.0987 -0.1673
  502TMC3    C4 7513   0.428   4.423  14.903 -0.2382  1.3466  0.2253
  502TMC3    C5 7514   0.316   4.473  14.843 -0.0699 -0.0505 -0.4591
  502TMC3    C6 7515   0.326   4.545  14.723  0.1807 -0.4324  0.2799
  502TMC3     C 7516   0.656   4.495  14.949 -0.1162  0.0932  0.3359
  502TMC3     O 7517   0.759   4.548  14.911 -0.4729  0.0126  0.2325
  502TMC3     H 7518   0.664   4.557  14.708  0.7790 -0.5650  1.8338
  502TMC3    H1 7519   0.415   4.367  14.995  0.3298  1.6935  0.5143
  502TMC3    H2 7520   0.246   4.582  14.660  1.5642  0.8402 -0.7265
  502TMC3    C7 7521   0.256   4.554  14.951  0.0170 -0.3375 -0.3606
  502TMC3    C8 7522   0.456   4.690  14.589 -0.4561  0.0541 -0.9142
  502TMC3    O1 7523   0.331   4.565  15.045  0.3692  0.1829 -0.3223
  502TMC3    O2 7524   0.353   0.017  14.570  0.3639  0.0669  0.3054
  503MPD2     C 7525   2.849   0.392  16.604  0.9248  0.5669  0.2356
  503MPD2    C1 7526   2.789   0.392  16.728  0.1348 -0.1086 -0.1008
  503MPD2    C2 7527   2.852   0.338  16.840  0.2346  0.7524 -0.5990
  503MPD2    C3 7528   2.977   0.283  16.836  0.6061  0.4464 -0.7382
  503MPD2    C4 7529   3.025   0.266  16.708 -0.1399 -1.2053  0.4810
  503MPD2    C5 7530   2.970   0.323  16.600  0.6697 -0.0431 -0.3160
  503MPD2     H 7531   2.809   0.347  16.939  0.4276  0.7143 -0.5130
  503MPD2    H1 7532   3.116   0.210  16.689 -0.4107 -0.6327 -2.4940
  503MPD2    H2 7533   2.811   0.448  16.519 -1.3501 -0.1198  0.8127
  503MPD2    H3 7534   3.034   0.334  16.513 -2.1623 -0.6732 -2.4800
  503MPD2     N 7535   3.033   0.232  16.958  0.5335  0.4511 -0.0098
  503MPD2    H5 7536   2.981   0.233  17.045 -1.1961 -0.5650 -1.0342
  503MPD2    N1 7537   2.659   0.446  16.756 -0.5502  0.3551  0.2796
  503MPD2    H7 7538   2.626   0.453  16.851  0.0136 -1.8849  0.6360
  504TMC3    C1 7539   3.212   0.101  17.062  0.1675  0.1301  0.8439
  504TMC3    C2 7540   3.125   0.031  17.130  0.4290  0.8925 -0.0343
  504TMC3    C3 7541   3.172   4.690  17.231 -0.4995 -0.2537 -0.0621
  504TMC3    C4 7542   3.347   0.097  17.088 -0.5580  0.0093 -0.4434
  504TMC3    C5 7543   3.392   0.018  17.193  0.9790 -0.0850 -0.0464
  504TMC3    C6 7544   3.301   4.690  17.273  0.3493 -0.2769  0.2653
  504TMC3     C 7545   3.167   0.193  16.955 -0.1679 -0.0251 -0.0031
  504TMC3     O 7546   3.250   0.232  16.875 -0.8054  0.5412  0.3835
  504TMC3     H 7547   3.022   0.020  17.098  0.5439 -1.0852  0.2398
  504TMC3    H1 7548   3.413   0.155  17.025  1.4158 -1.2133  0.4983
  504TMC3    H2 7549   3.335   4.620  17.348  0.9358 -0.8995 -0.5706
  504TMC3    C7 7550   3.538   0.018  17.222  0.4352 -0.7460  0.1970
  504TMC3    C8 7551   3.074   4.605  17.299  0.1178  0.1190 -0.6724
  504TMC3    O1 7552   3.583   0.000  17.335  1.2317  0.4083 -0.4809
  504TMC3    O2 7553   2.967   4.578  17.243 -0.4771  0.1280  0.0035
  505MPD2     C 7554   2.407   4.476   9.706 -0.6843 -0.0662  0.6066
  505MPD2    C1 7555   2.395   4.453   9.571  0.2367  0.1240 -0.3070
  505MPD2    C2 7556   2.511   4.463   9.497 -0.0195 -0.2139 -0.2915
  505MPD2    C3 7557   2.633   4.474   9.552  0.0112 -0.0242  0.2170
  505MPD2    C4 7558   2.643   4.476   9.690  0.7051 -0.0207  0.3719
  505MPD2    C5 7559   2.528   4.485   9.762 -0.1697 -0.3380  0.6527
  505MPD2     H 7560   2.506   4.432   9.393 -3.0006  1.4009 -0.6115
  505MPD2    H1 7561   2.736   4.482   9.744  0.1744 -0.7525  1.3529
  505MPD2    H2 7562   2.320   4.496   9.768 -0.2289  1.6646  0.6804
  505MPD2    H3 7563   2.542   4.490   9.869  2.5963  0.8704  0.2384
  505MPD2     N 7564   2.753   4.504   9.482 -0.1846 -0.0420 -0.4363
  505MPD2    H5 7565   2.835   4.532   9.534  0.1244  0.6082 -1.2664
  505MPD2    N1 7566   2.264   4.444   9.518 -0.1843  0.3013 -0.8686
  505MPD2    H7 7567   2.182   4.468   9.572  0.3314 -0.4673  0.2571
  506TMC3    C1 7568   2.097   4.444   9.345 -0.1124  0.0610 -0.1722
  506TMC3    C2 7569   2.035   4.541   9.422 -0.3154  0.5054 -0.3620
  506TMC3    C3 7570   1.983   4.646   9.354 -0.0664 -0.8255 -0.7429
  506TMC3    C4 7571   2.090   4.449   9.206  0.2129 -0.5370  0.7693
  506TMC3    C5 7572   2.040   4.561   9.138 -0.3059 -0.0052 -0.1962
  506TMC3    C6 7573   1.989   4.662   9.216  0.8026  0.2758 -0.5913
  506TMC3     C 7574   2.235   4.418   9.388  0.8611 -0.0910  0.3655
  506TMC3     O 7575   2.310   4.382   9.298 -0.5020  0.0800 -0.0038
  506TMC3     H 7576   2.031   4.548   9.530 -0.7066  0.3127 -0.3637
  506TMC3    H1 7577   2.137   4.372   9.146 -1.1016 -0.6967 -0.0469
  506TMC3    H2 7578   1.960   0.025   9.182 -0.0283 -0.6874 -2.6724
  506TMC3    C7 7579   2.130   4.620   9.044 -0.7618 -0.2141 -0.6364
  506TMC3    C8 7580   1.907   0.005   9.434 -0.8314 -0.5237  0.6173
  506TMC3    O1 7581   2.102   4.726   8.987 -0.0408 -0.1742  0.9597
  506TMC3    O2 7582   1.815   4.701   9.504  0.8290  0.5088 -0.3850
  507TMC3    C1 7583   3.883   0.735  14.988 -0.0967 -0.7525  0.1641
  507TMC3    C2 7584   3.772   0.696  14.919 -0.5746 -0.3859 -0.4167
  507TMC3    C3 7585   3.706   0.795  14.849  0.1212  0.3827 -0.7256
  507TMC3    C4 7586   3.930   0.861  14.984  0.0524  0.7633  0.2810
  507TMC3    C5 7587   3.849   0.951  14.917 -0.6998  0.2073 -0.0389
  507TMC3    C6 7588   3.747   0.921  14.834  1.0210 -0.6174 -0.1920
  507TMC3     C 7589   3.975   0.626  15.010  0.7167 -0.2157  0.2534
  507TMC3     O 7590   3.975   0.534  14.933 -0.4113 -0.3447  0.7732
  507TMC3     H 7591   3.741   0.593  14.909  0.9337 -0.7809 -1.0589
  507TMC3    H1 7592   3.998   0.894  15.062 -1.3010  1.4903  1.1589
  507TMC3    H2 7593   3.710   0.991  14.760 -0.4166 -1.8767 -0.6426
  507TMC3    C7 7594   3.825   1.077  14.980 -0.5205  0.1488 -0.1333
  507TMC3    C8 7595   3.557   0.808  14.862  0.7726 -0.8159  0.0559
  507TMC3    O1 7596   3.914   1.128  15.051  0.4489 -0.0710 -0.4054
  507TMC3    O2 7597   3.513   0.918  14.832 -0.2017  0.0808  0.5408
  508MPD2     C 7598   4.472   2.552  15.739 -0.1923 -0.6081 -0.1645
  508MPD2    C1 7599   4.529   2.645  15.821 -0.3156 -0.3005 -0.0237
  508MPD2    C2 7600   4.596   2.750  15.766 -0.3500  0.4842 -0.3730
  508MPD2    C3 7601   4.602   2.773  15.633 -0.4954 -0.1554 -0.1212
  508MPD2    C4 7602   4.539   2.679  15.548  0.0938  0.4953 -0.5759
  508MPD2    C5 7603   4.481   2.573  15.604  0.3371  0.5755  0.2133
  508MPD2     H 7604   4.654   2.815  15.831  0.2611 -0.7722  0.3356
  508MPD2    H1 7605   4.531   2.694  15.441  0.8170 -2.6089 -1.0531
  508MPD2    H2 7606   4.427   2.463  15.783  0.9934  0.2267  2.7345
  508MPD2    H3 7607   4.451   2.490  15.540  3.5111 -0.2158 -0.2462
  508MPD2     N 7608   4.679   2.880  15.580 -0.0490 -0.0724 -0.7357
  508MPD2    H5 7609   4.726   2.937  15.649  1.6983  0.3228 -2.2733
  508MPD2    N1 7610   4.545   2.616  15.956 -0.4232  0.4735  0.2582
  508MPD2    H7 7611   4.608   2.678  16.005  0.5585 -1.1071  0.9831
  509TMC3    C1 7612   0.020   3.231  15.286  0.6151 -0.8625 -0.7510
  509TMC3    C2 7613   0.116   3.289  15.371 -0.2568  0.4649  0.0101
  509TMC3    C3 7614   0.160   3.211  15.470 -0.0619 -0.5969 -0.2879
  509TMC3    C4 7615   4.706   3.102  15.305 -0.2404  0.0098 -0.5054
  509TMC3    C5 7616   0.021   3.031  15.412 -0.5810  0.1496 -0.1371
  509TMC3    C6 7617   0.114   3.086  15.498  0.0661 -0.0209  0.1166
  509TMC3     C 7618   4.670   3.319  15.204  0.3914  0.2167  0.4340
  509TMC3     O 7619   4.614   3.259  15.114  0.0625 -0.5314  0.5367
  509TMC3     H 7620   0.158   3.385  15.345  0.6871 -0.3402 -1.4292
  509TMC3    H1 7621   4.630   3.064  15.238  0.9362 -1.4046 -1.0517
  509TMC3    H2 7622   0.150   3.027  15.581  1.9582 -0.5140 -1.0701
  509TMC3    C7 7623   4.679   2.917  15.446  0.3035 -0.2820 -0.2371
  509TMC3    C8 7624   0.258   3.267  15.568 -0.3700  0.6188 -0.2368
  509TMC3    O1 7625   4.639   2.859  15.343 -0.4015  0.6636 -0.1616
  509TMC3    O2 7626   0.270   3.204  15.676 -0.3765 -0.0645 -0.1161
  510MPD2     C 7627   2.556   4.087  14.290  0.6133 -0.0817  0.3643
  510MPD2    C1 7628   2.636   3.973  14.326 -0.1071  0.0894  0.5615
  510MPD2    C2 7629   2.768   3.984  14.296 -0.6796  0.2204  0.7445
  510MPD2    C3 7630   2.814   4.092  14.221 -0.8768  0.0857 -0.0832
  510MPD2    C4 7631   2.735   4.193  14.179 -0.5293  0.3022  0.2598
  510MPD2    C5 7632   2.600   4.188  14.206  0.2036  0.3791  0.5504
  510MPD2     H 7633   2.837   3.902  14.300 -0.4398  0.3529 -0.4106
  510MPD2    H1 7634   2.772   4.267  14.109 -1.0771  0.5718  0.2567
  510MPD2    H2 7635   2.449   4.089  14.308  0.1267 -0.9189 -2.4601
  510MPD2    H3 7636   2.531   4.261  14.165 -0.3793 -1.4324 -1.7161
  510MPD2     N 7637   2.946   4.081  14.171  0.0448  0.3674  0.9927
  510MPD2    H5 7638   2.986   3.989  14.187  2.6452  1.3173 -0.1591
  510MPD2    N1 7639   2.585   3.885  14.413  0.3492 -0.5677  0.0901
  510MPD2    H7 7640   2.495   3.906  14.454 -0.1812 -0.3399 -1.1937
  511TMC3    C1 7641   2.622   3.760  14.601 -0.2305 -0.2008  0.1023
  511TMC3    C2 7642   2.564   3.857  14.675 -0.0937  0.1456 -0.4884
  511TMC3    C3 7643   2.549   3.824  14.807 -0.8301 -0.1148 -0.3389
  511TMC3    C4 7644   2.668   3.643  14.651  0.7458  1.3285  0.6340
  511TMC3    C5 7645   2.656   3.622  14.786  0.0087  0.1391 -0.0211
  511TMC3    C6 7646   2.591   3.710  14.861  0.3295 -0.8549 -0.3699
  511TMC3     C 7647   2.657   3.785  14.466  0.6131  0.7337 -0.6330
  511TMC3     O 7648   2.739   3.715  14.410  0.5244 -0.0884  0.1964
  511TMC3     H 7649   2.546   3.957  14.639 -1.3352 -1.2994 -3.9163
  511TMC3    H1 7650   2.694   3.561  14.585 -1.0195 -0.4325  2.1198
  511TMC3    H2 7651   2.596   3.709  14.969 -2.1142 -0.0352 -0.2507
  511TMC3    C7 7652   2.685   3.489  14.838  0.3025  0.3413  0.0528
  511TMC3    C8 7653   2.481   3.928  14.895 -0.2473  0.3975  0.6932
  511TMC3    O1 7654   2.761   3.418  14.775  0.3652  0.0022  0.5142
  511TMC3    O2 7655   2.532   3.949  15.002 -0.3541  0.4108  0.0192
  512TMC3    C1 7656   1.403   3.920  13.528 -0.1936  0.1736  0.4390
  512TMC3    C2 7657   1.492   3.845  13.600 -0.7340 -0.4598 -0.1311
  512TMC3    C3 7658   1.489   3.711  13.591 -0.7276  0.3003  0.2685
  512TMC3    C4 7659   1.311   3.866  13.452  0.2676 -0.3625  0.0434
  512TMC3    C5 7660   1.308   3.730  13.436  0.4392  0.1574 -0.2781
  512TMC3    C6 7661   1.397   3.653  13.509  0.4451  0.6182 -0.8521
  512TMC3     C 7662   1.419   4.064  13.545 -0.1900  0.2612 -0.2721
  512TMC3     O 7663   1.532   4.095  13.553 -0.0177  0.0256 -0.0788
  512TMC3     H 7664   1.553   3.899  13.671 -0.3713 -1.4319  0.3045
  512TMC3    H1 7665   1.251   3.933  13.392  2.5146 -0.5756 -2.4467
  512TMC3    H2 7666   1.390   3.546  13.496  0.0963  0.3467  1.6638
  512TMC3    C7 7667   1.241   3.697  13.311  0.5167  0.1289  0.5925
  512TMC3    C8 7668   1.618   3.641  13.613 -0.3501 -0.0163  0.4142
  512TMC3    O1 7669   1.140   3.758  13.275  0.1310  0.5136  0.3362
  512TMC3    O2 7670   1.608   3.517  13.604 -0.5895 -0.0176  0.4155
  513MPD2     C 7671   3.326   3.592  13.362  0.5845 -0.3265  0.1128
  513MPD2    C1 7672   3.345   3.465  13.329 -0.2490 -0.5855  0.1958
  513MPD2    C2 7673   3.443   3.390  13.385  0.0711  0.5195  0.4870
  513MPD2    C3 7674   3.528   3.451  13.479 -0.0026 -0.0298  0.1004
  513MPD2    C4 7675   3.510   3.582  13.519  0.0291 -0.6287 -0.3536
  513MPD2    C5 7676   3.409   3.652  13.461 -0.2497 -0.2865 -0.4886
  513MPD2     H 7677   3.461   3.285  13.366 -1.4848 -0.2818  3.3642
  513MPD2    H1 7678   3.557   3.626  13.606 -2.6599 -0.9165  1.2147
  513MPD2    H2 7679   3.252   3.658  13.319  0.9094  1.0819  1.6827
  513MPD2    H3 7680   3.388   3.757  13.475  0.1880 -0.0892 -1.2669
  513MPD2     N 7681   3.619   3.360  13.544 -0.3496  0.5275  0.3396
  513MPD2    H5 7682   3.602   3.264  13.514 -1.5834  0.3705  1.5135
  513MPD2    N1 7683   3.255   3.412  13.236 -0.1000  0.4580  0.5047
  513MPD2    H7 7684   3.191   3.480  13.197  2.6216  3.0941  0.6053
  514TMC3    C1 7685   3.169   3.252  13.090  0.5267  0.1440 -0.2658
  514TMC3    C2 7686   3.170   3.350  12.992 -0.0351 -0.6978  0.0719
  514TMC3    C3 7687   3.226   3.319  12.873 -0.1564  0.1319 -0.0175
  514TMC3    C4 7688   3.183   3.121  13.053 -0.0877  0.1648 -0.3783
  514TMC3    C5 7689   3.225   3.095  12.923 -0.2909  0.8905  0.0510
  514TMC3    C6 7690   3.259   3.190  12.831  0.3950  0.3858  0.1150
  514TMC3     C 7691   3.243   3.279  13.210 -0.4283 -0.2514 -1.0488
  514TMC3     O 7692   3.292   3.182  13.270  0.3116 -0.5953 -0.0647
  514TMC3     H 7693   3.149   3.454  13.012 -1.8509 -0.4970 -2.8422
  514TMC3    H1 7694   3.169   3.042  13.126  0.8063 -0.3541 -0.7625
  514TMC3    H2 7695   3.286   3.159  12.730  0.0341  1.7405 -0.4042
  514TMC3    C7 7696   3.334   2.997  12.930  0.3190  0.3529  0.2711
  514TMC3    C8 7697   3.167   3.403  12.772  0.2202  0.4490 -0.1561
  514TMC3    O1 7698   3.361   2.939  12.829  0.2606  0.0619  0.5266
  514TMC3    O2 7699   3.067   3.473  12.799 -0.5122  0.5151 -0.5444
  515MPD2     C 7700   1.242   1.082  14.876 -0.1933 -1.0294 -0.2605
  515MPD2    C1 7701   1.288   0.963  14.814  0.0908  0.4338 -0.0304
  515MPD2    C2 7702   1.410   0.908  14.866  0.1970 -0.3098  0.7788
  515MPD2    C3 7703   1.475   0.967  14.970 -0.0984  0.1900  0.1136
  515MPD2    C4 7704   1.417   1.077  15.038 -0.4075  0.7586 -1.0390
  515MPD2    C5 7705   1.307   1.138  14.990 -0.0203 -0.2341 -0.4234
  515MPD2     H 7706   1.443   0.812  14.827 -1.0000 -0.7384  0.8324
  515MPD2    H1 7707   1.464   1.110  15.130 -0.0323  0.7846 -1.2403
  515MPD2    H2 7708   1.160   1.135  14.830 -1.9247 -2.7878  0.7942
  515MPD2    H3 7709   1.269   1.230  15.034 -0.5164 -1.3135  1.3937
  515MPD2     N 7710   1.594   0.914  15.027 -0.6619 -0.6007  0.4473
  515MPD2    H5 7711   1.620   0.952  15.117 -1.8949  0.8177  0.2077
  515MPD2    N1 7712   1.218   0.884  14.717 -0.5599 -0.4601 -0.2435
  515MPD2    H7 7713   1.264   0.799  14.688 -2.1767 -0.8644 -1.6133
  516TMC3    C1 7714   1.069   0.821  14.553  0.2765  0.8077 -0.0273
  516TMC3    C2 7715   0.950   0.835  14.491  0.2396  0.0497 -0.0635
  516TMC3    C3 7716   0.904   0.728  14.420  0.3754  0.9189  0.0449
  516TMC3    C4 7717   1.144   0.709  14.544  0.0502 -0.2107 -0.0619
  516TMC3    C5 7718   1.095   0.604  14.476  0.9960  0.2359 -0.5631
  516TMC3    C6 7719   0.977   0.615  14.414  0.2132 -0.7976  0.2012
  516TMC3     C 7720   1.109   0.927  14.650 -0.1459 -0.0005 -0.1269
  516TMC3     O 7721   1.036   1.027  14.665  0.1142 -0.4354 -0.0683
  516TMC3     H 7722   0.903   0.933  14.486  0.6018  0.2878  1.0354
  516TMC3    H1 7723   1.246   0.698  14.577 -0.3138  0.2246  1.2060
  516TMC3    H2 7724   0.933   0.532  14.359 -1.7650  0.9083 -0.7689
  516TMC3    C7 7725   1.153   0.477  14.513  0.1568 -0.6954  0.7203
  516TMC3    C8 7726   0.774   0.737  14.355  0.2002  0.4085 -0.1709
  516TMC3    O1 7727   1.226   0.475  14.609 -0.1713 -0.0126  0.1175
  516TMC3    O2 7728   0.736   0.628  14.314  0.6475  0.1102 -0.1759
  517MPD2     C 7729   0.700   1.663  17.200 -0.4518  0.1570 -0.3423
  517MPD2    C1 7730   0.789   1.640  17.308 -0.7753 -0.4950 -0.0630
  517MPD2    C2 7731   0.829   1.751  17.380 -0.4329  0.2956 -0.9330
  517MPD2    C3 7732   0.778   1.879  17.356  0.3294  0.3469  0.3462
  517MPD2    C4 7733   0.680   1.887  17.260 -0.6266  0.0375  0.4936
  517MPD2    C5 7734   0.649   1.788  17.174 -0.6767 -0.1871  0.2343
  517MPD2     H 7735   0.902   1.739  17.459  2.5718  0.4552 -3.6955
  517MPD2    H1 7736   0.632   1.982  17.241  1.0689  0.5841 -0.9951
  517MPD2    H2 7737   0.662   1.587  17.133  0.2759 -0.1309 -0.4309
  517MPD2    H3 7738   0.579   1.810  17.095  0.8559  2.2488 -0.4668
  517MPD2     N 7739   0.826   1.988  17.430 -0.5324 -0.4004 -0.2096
  517MPD2    H5 7740   0.881   1.964  17.512  1.1263  0.4435 -1.0738
  517MPD2    N1 7741   0.838   1.512  17.338  0.2741  0.6889  0.5355
  517MPD2    H7 7742   0.906   1.509  17.413  1.6840 -0.5423 -0.7688
  518TMC3    C1 7743   0.897   1.282  17.302 -0.0028  0.3777  1.2277
  518TMC3    C2 7744   0.914   1.174  17.215  0.6251  0.1808  0.6928
  518TMC3    C3 7745   1.029   1.106  17.223  0.2748 -0.4440  1.0529
  518TMC3    C4 7746   0.989   1.290  17.412 -0.1819 -0.0194  0.1731
  518TMC3    C5 7747   1.112   1.226  17.402 -0.8623  0.2541 -0.1420
  518TMC3    C6 7748   1.128   1.136  17.303 -0.3361 -0.1968 -0.2016
  518TMC3     C 7749   0.814   1.397  17.261  0.0283  0.7119 -0.2546
  518TMC3     O 7750   0.771   1.380  17.148 -0.4839  0.1269  0.0094
  518TMC3     H 7751   0.840   1.150  17.140  1.9585 -0.3096 -0.4666
  518TMC3    H1 7752   0.972   1.347  17.502 -1.4420 -1.0355  0.5634
  518TMC3    H2 7753   1.221   1.082  17.295 -0.5794 -0.6613  0.1269
  518TMC3    C7 7754   1.188   1.206  17.518 -0.3908 -0.1204 -0.1318
  518TMC3    C8 7755   1.025   0.965  17.181 -0.1662  0.1175 -0.8659
  518TMC3    O1 7756   1.138   1.219  17.628 -0.3500  0.4116 -0.7442
  518TMC3    O2 7757   1.131   0.911  17.201  0.5668  0.1286 -0.2619
  519MPD2     C 7758   2.995   0.585  14.327 -0.0112  0.1759 -0.2130
  519MPD2    C1 7759   2.939   0.515  14.219  0.0335  0.4604 -0.3050
  519MPD2    C2 7760   3.000   0.516  14.092  0.6683 -0.2240  0.3258
  519MPD2    C3 7761   3.116   0.587  14.079  1.0686  0.3886 -0.1779
  519MPD2    C4 7762   3.181   0.647  14.187 -0.2021 -0.0724 -0.1916
  519MPD2    C5 7763   3.111   0.659  14.307 -0.0934 -0.4882 -0.0589
  519MPD2     H 7764   2.943   0.471  14.012 -1.2520  0.3139  1.3750
  519MPD2    H1 7765   3.274   0.702  14.176 -0.5851  0.2119 -1.9162
  519MPD2    H2 7766   2.947   0.588  14.423  2.3602 -0.1937  0.9947
  519MPD2    H3 7767   3.158   0.715  14.386  1.9455 -0.9354 -0.9381
  519MPD2     N 7768   3.186   0.587  13.957  0.4496  0.7456 -0.1168
  519MPD2    H5 7769   3.279   0.628  13.961  0.0506  1.6849 -0.5589
  519MPD2    N1 7770   2.814   0.446  14.236 -0.5187  0.3700 -0.0884
  519MPD2    H7 7771   2.768   0.412  14.152 -0.3504 -0.2862  0.0820
  520TMC3    C1 7772   3.237   0.539  13.729  0.2557  0.8490 -0.0153
  520TMC3    C2 7773   3.191   0.526  13.601 -0.2045  0.9547  1.5171
  520TMC3    C3 7774   3.286   0.492  13.516  0.2109 -0.0320  0.2486
  520TMC3    C4 7775   3.360   0.497  13.767  0.0445  0.3703 -0.7316
  520TMC3    C5 7776   3.450   0.444  13.676 -0.2744  0.1514  0.2252
  520TMC3    C6 7777   3.415   0.443  13.545 -0.0235  0.5245 -0.1194
  520TMC3     C 7778   3.135   0.551  13.830  0.0844  0.9378  0.1249
  520TMC3     O 7779   3.021   0.531  13.804 -0.1610  0.4470  0.0761
  520TMC3     H 7780   3.089   0.556  13.580 -0.5559 -2.1410 -1.1429
  520TMC3    H1 7781   3.401   0.492  13.868 -0.7031 -0.5026 -0.4663
  520TMC3    H2 7782   3.484   0.411  13.468 -0.8777  1.4629 -1.2936
  520TMC3    C7 7783   3.545   0.354  13.729 -0.0976  1.0949  0.3367
  520TMC3    C8 7784   3.254   0.474  13.378  0.4919 -0.0063  0.0588
  520TMC3    O1 7785   3.558   0.334  13.849  0.4141 -0.0390  0.2388
  520TMC3    O2 7786   3.346   0.481  13.300  0.7754  0.1069  0.3021
  521MPD2     C 7787   3.262   3.150  16.994 -0.4762  0.0783 -0.2914
  521MPD2    C1 7788   3.337   3.041  16.962 -0.2733  0.3903 -0.2866
  521MPD2    C2 7789   3.474   3.058  16.926  0.6925 -0.6689  0.0410
  521MPD2    C3 7790   3.525   3.183  16.914  0.5693 -0.2832 -0.4484
  521MPD2    C4 7791   3.454   3.289  16.954  0.6420 -0.2617  0.9832
  521MPD2    C5 7792   3.323   3.275  16.994  0.7004  0.8096  0.5151
  521MPD2     H 7793   3.545   2.978  16.910  1.5445  0.0510  0.2156
  521MPD2    H1 7794   3.486   3.391  16.972  1.3429 -0.4217  0.6339
  521MPD2    H2 7795   3.161   3.143  17.034 -0.0370 -1.1112  0.6114
  521MPD2    H3 7796   3.274   3.359  17.041  1.7962  1.4370  0.5251
  521MPD2     N 7797   3.656   3.189  16.868  0.1724 -0.4549  0.7330
  521MPD2    H5 7798   3.706   3.102  16.853  1.6534  0.4252  0.5587
  521MPD2    N1 7799   3.269   2.917  16.971 -0.0128 -0.3288 -0.2704
  521MPD2    H7 7800   3.177   2.918  17.014  0.6278 -0.7744  1.1181
  522TMC3    C1 7801   3.832   3.266  16.745  0.4550  0.2729  0.5663
  522TMC3    C2 7802   3.920   3.181  16.803  0.6229 -0.5133  0.3766
  522TMC3    C3 7803   4.025   3.130  16.728  0.2788 -0.4096 -1.0829
  522TMC3    C4 7804   3.843   3.300  16.615 -0.0219 -0.6013 -0.4373
  522TMC3    C5 7805   3.957   3.259  16.548  0.4828  0.2684  0.2618
  522TMC3    C6 7806   4.050   3.175  16.599 -0.7062  0.6751 -0.2558
  522TMC3     C 7807   3.708   3.306  16.817  0.0900 -0.7498  0.8651
  522TMC3     O 7808   3.662   3.418  16.804  0.3834  0.1895  0.0177
  522TMC3     H 7809   3.918   3.159  16.909  0.2768  0.2583  0.5294
  522TMC3    H1 7810   3.774   3.375  16.580  0.5180 -0.5450 -1.4055
  522TMC3    H2 7811   4.134   3.142  16.540 -1.3060 -0.0714 -0.6870
  522TMC3    C7 7812   3.980   3.325  16.425 -0.2728  0.4378 -0.1574
  522TMC3    C8 7813   4.134   3.066  16.803 -0.6152 -0.9557 -0.3092
  522TMC3    O1 7814   4.098   3.360  16.402  0.0701 -0.0296 -0.4672
  522TMC3    O2 7815   4.120   3.068  16.924 -0.0346  0.3198 -0.6188
  523MPD2     C 7816   1.155   3.423  10.099  0.4108 -0.1195  0.7920
  523MPD2    C1 7817   1.066   3.374  10.192  0.5986 -0.1836 -0.4588
  523MPD2    C2 7818   0.972   3.466  10.249 -0.4658  0.3524  0.7719
  523MPD2    C3 7819   0.965   3.597  10.201  0.4360 -0.5296  0.2107
  523MPD2    C4 7820   1.058   3.645  10.103  0.0402  0.1168 -0.0170
  523MPD2    C5 7821   1.161   3.556  10.056 -0.0574 -0.7233 -0.3327
  523MPD2     H 7822   0.911   3.438  10.334  1.1433 -0.9012  1.5136
  523MPD2    H1 7823   1.059   3.749  10.071 -2.1267 -0.2103 -1.1972
  523MPD2    H2 7824   1.231   3.356  10.059 -0.9425 -0.8125 -0.6401
  523MPD2    H3 7825   1.238   3.586   9.986 -1.8308  0.0372 -1.9475
  523MPD2     N 7826   0.861   3.687  10.240  0.9880  0.2435  0.0437
  523MPD2    H5 7827   0.852   3.770  10.183 -2.5594  0.2842  0.6427
  523MPD2    N1 7828   1.077   3.238  10.230  0.0712  0.5743  0.6642
  523MPD2    H7 7829   1.148   3.183  10.183 -0.1410 -0.5107  1.6161
  524TMC3    C1 7830   0.651   3.775  10.333  0.9387  0.4730  0.6404
  524TMC3    C2 7831   0.525   3.714  10.339  0.1503 -1.0249 -0.1878
  524TMC3    C3 7832   0.422   3.765  10.257  0.6315 -0.0198 -0.1092
  524TMC3    C4 7833   0.664   3.882  10.243  0.2578  0.0630 -0.1437
  524TMC3    C5 7834   0.559   3.934  10.174  0.5567 -0.2172  0.7303
  524TMC3    C6 7835   0.439   3.876  10.175  0.1719  0.2612 -0.8555
  524TMC3     C 7836   0.760   3.679  10.338  0.3252 -0.8619  0.7319
  524TMC3     O 7837   0.753   3.596  10.426  0.4944 -0.1765 -0.4210
  524TMC3     H 7838   0.521   3.611  10.372  3.0599 -0.6301  1.4363
  524TMC3    H1 7839   0.763   3.924  10.229  0.6889 -0.2289  2.0559
  524TMC3    H2 7840   0.372   3.905  10.094  1.7543  1.2240 -1.8318
  524TMC3    C7 7841   0.579   4.053  10.091  0.2835 -0.2157 -0.0093
  524TMC3    C8 7842   0.294   3.701  10.238 -0.1046  0.6013  0.0524
  524TMC3    O1 7843   0.697   4.081  10.060  0.5618  0.1172 -0.0810
  524TMC3    O2 7844   0.224   3.746  10.146 -0.5365  0.3867  0.3459
  525MPD2     C 7845   4.155   0.184  14.044 -0.7674 -0.6211 -0.6092
  525MPD2    C1 7846   4.203   0.211  14.172  0.5486 -0.0791 -0.1983
  525MPD2    C2 7847   4.211   0.343  14.210 -0.4029  0.2193  0.0062
  525MPD2    C3 7848   4.183   0.440  14.115  0.0809 -0.0137  0.4672
  525MPD2    C4 7849   4.123   0.414  13.992  0.5226  1.0482 -0.3635
  525MPD2    C5 7850   4.117   0.283  13.956 -0.1887 -0.0509  0.0402
  525MPD2     H 7851   4.240   0.368  14.311  1.5600 -2.4610  0.1084
  525MPD2    H1 7852   4.080   0.487  13.923  0.8865  1.9904  0.4014
  525MPD2    H2 7853   4.138   0.082  14.011  0.9451 -1.2279  0.3908
  525MPD2    H3 7854   4.077   0.250  13.861 -1.4994  1.0131  0.2335
  525MPD2     N 7855   4.198   0.571  14.166 -0.7268  0.4600  0.3098
  525MPD2    H5 7856   4.263   0.576  14.244 -1.3402  1.2491  0.7655
  525MPD2    N1 7857   4.260   0.118  14.263 -0.1048  0.0170 -0.2563
  525MPD2    H7 7858   4.270   0.152  14.358  1.3563  1.9931 -1.1248
  526TMC3    C1 7859   4.353   4.657  14.352 -0.5450  0.0098  0.1376
  526TMC3    C2 7860   4.310   4.691  14.480  1.3656 -0.2498  0.0325
  526TMC3    C3 7861   4.342   4.606  14.576 -0.0218 -0.7585  0.3689
  526TMC3    C4 7862   4.434   4.551  14.322  0.7096 -0.0048  0.8193
  526TMC3    C5 7863   4.475   4.479  14.428  0.4966 -0.0712  0.0212
  526TMC3    C6 7864   4.436   4.507  14.555  0.2876  0.9372  0.2512
  526TMC3     C 7865   4.295   4.724  14.234  0.9244 -0.0119  0.0924
  526TMC3     O 7866   4.299   4.669  14.124  0.4479  0.3010 -0.3031
  526TMC3     H 7867   4.250   0.045  14.490  1.1104 -0.2404 -1.5248
  526TMC3    H1 7868   4.455   4.528  14.218 -1.0107  1.3319  0.1694
  526TMC3    H2 7869   4.467   4.435  14.629 -3.8120 -0.3649  0.6997
  526TMC3    C7 7870   4.556   4.361  14.400  0.5473 -0.2264 -0.0285
  526TMC3    C8 7871   4.307   4.637  14.714  1.0825  0.5504  0.1413
  526TMC3    O1 7872   4.625   4.325  14.494  0.2043  0.4979  0.3605
  526TMC3    O2 7873   4.353   4.558  14.795 -0.8279 -0.4512  0.0459
  527MPD2     C 7874   1.097   2.138   1.006 -0.3424 -0.6305 -0.0948
  527MPD2    C1 7875   1.107   2.007   0.958 -0.6820  0.5218 -0.0729
  527MPD2    C2 7876   1.230   1.961   0.937  0.3545 -0.0809 -0.3545
  527MPD2    C3 7877   1.339   2.046   0.942  0.6089 -0.3827  0.2312
  527MPD2    C4 7878   1.328   2.180   0.982  0.1148 -0.1963 -0.0565
  527MPD2    C5 7879   1.202   2.223   1.017 -0.2959  0.7871  0.0195
  527MPD2     H 7880   1.234   1.854   0.923  0.7828 -0.2817  1.2898
  527MPD2    H1 7881   1.412   2.247   0.999  0.0197  0.3534 -1.7258
  527MPD2    H2 7882   0.999   2.179   1.025 -1.4522 -2.2807 -2.1647
  527MPD2    H3 7883   1.194   2.329   1.039  0.4100  1.0028 -0.7682
  527MPD2     N 7884   1.465   1.989   0.903 -0.5294 -0.3639 -0.2315
  527MPD2    H5 7885   1.465   1.894   0.868 -2.8202 -0.4695  0.0355
  527MPD2    N1 7886   0.996   1.922   0.933  0.6744  0.2769  0.3852
  527MPD2    H7 7887   1.019   1.831   0.894  2.6042  1.1505 -0.5109
  528TMC3    C1 7888   0.779   1.876   0.856 -0.8955 -0.3137 -0.6953
  528TMC3    C2 7889   0.832   1.797   0.762  0.2323  0.3018  0.7520
  528TMC3    C3 7890   0.754   1.734   0.670  0.0568  0.4461 -0.2973
  528TMC3    C4 7891   0.643   1.891   0.870 -0.4583 -0.9552 -0.5774
  528TMC3    C5 7892   0.565   1.825   0.777  0.4542 -0.0719 -0.7091
  528TMC3    C6 7893   0.618   1.751   0.674  0.2759 -0.1755  0.0048
  528TMC3     C 7894   0.863   1.965   0.941 -0.2353 -0.4984 -0.1974
  528TMC3     O 7895   0.809   2.063   0.997 -0.6846 -0.0187 -0.2550
  528TMC3     H 7896   0.937   1.775   0.751 -0.4659 -2.1568 -1.1101
  528TMC3    H1 7897   0.601   1.940   0.958  0.4425 -0.1110 -0.6171
  528TMC3    H2 7898   0.550   1.691   0.616 -0.5080  0.4738  0.2395
  528TMC3    C7 7899   0.422   1.863   0.770 -0.0980  0.2490  0.1440
  528TMC3    C8 7900   0.818   1.728   0.540  0.1930 -0.1735  0.0226
  528TMC3    O1 7901   0.363   1.831   0.668  0.8697 -0.2834  0.1056
  528TMC3    O2 7902   0.935   1.700   0.533 -0.5701  0.0290  0.5052
  529MPD2     C 7903   0.050   1.056   1.377  0.4318  0.4728  0.6133
  529MPD2    C1 7904   0.034   0.931   1.318  0.2943 -0.3679  0.2547
  529MPD2    C2 7905   4.717   0.932   1.189  0.4933 -0.5655 -0.9786
  529MPD2    C3 7906   4.665   1.048   1.133  0.0293 -0.0654  1.1888
  529MPD2    C4 7907   4.671   1.166   1.201 -0.2065  0.3138  0.1867
  529MPD2    C5 7908   4.728   1.164   1.327 -0.0404  0.2423 -0.1149
  529MPD2     H 7909   4.707   0.837   1.138  0.6030 -1.4678  0.6734
  529MPD2    H1 7910   4.625   1.258   1.169  1.5073  1.0969 -0.0205
  529MPD2    H2 7911   0.100   1.073   1.471 -1.3603 -2.0359  1.9926
  529MPD2    H3 7912   0.001   1.255   1.385 -3.2651  1.6742 -1.9282
  529MPD2     N 7913   4.600   1.054   1.010  0.2637  0.2599 -0.4721
  529MPD2    H5 7914   4.577   1.149   0.985 -3.5997 -0.7815 -0.9201
  529MPD2    N1 7915   0.077   0.815   1.381 -0.3374  0.0930 -0.1480
  529MPD2    H7 7916   0.076   0.732   1.322  0.9297 -1.0598  1.4326
  530TMC3    C1 7917   0.212   0.694   1.531  0.0172 -0.0240  0.0691
  530TMC3    C2 7918   0.332   0.728   1.586  0.1895  0.5755 -0.3143
  530TMC3    C3 7919   0.431   0.630   1.590  0.1843 -0.4242  0.1629
  530TMC3    C4 7920   0.193   0.576   1.471  0.5411  0.4723 -0.2426
  530TMC3    C5 7921   0.298   0.480   1.474  0.1238 -0.2865  0.3825
  530TMC3    C6 7922   0.417   0.512   1.523  0.3989  0.1212  0.1775
  530TMC3     C 7923   0.121   0.800   1.515  0.1866  0.6500  0.1748
  530TMC3     O 7924   0.113   0.885   1.600 -0.4874  0.4311 -0.4025
  530TMC3     H 7925   0.343   0.821   1.640 -0.5304  0.8555 -0.6560
  530TMC3    H1 7926   0.102   0.547   1.419  0.4142 -1.6430  1.1950
  530TMC3    H2 7927   0.494   0.436   1.535 -0.6560 -0.7036  1.6763
  530TMC3    C7 7928   0.296   0.364   1.387 -0.9220 -0.3429 -0.0770
  530TMC3    C8 7929   0.563   0.666   1.652 -0.3482  0.1431 -1.1518
  530TMC3    O1 7930   0.396   0.294   1.386 -0.2923 -0.0556 -0.0222
  530TMC3    O2 7931   0.560   0.765   1.724 -0.0860  0.5990  0.0670
  531MPD2     C 7932   3.732   2.799  13.196 -0.3556  0.6591  0.6224
  531MPD2    C1 7933   3.650   2.883  13.281 -0.0445 -0.3322  0.0001
  531MPD2    C2 7934   3.531   2.930  13.231 -0.9524  0.2760  0.1118
  531MPD2    C3 7935   3.493   2.917  13.102  0.1582  0.4332  0.1210
  531MPD2    C4 7936   3.579   2.847  13.018 -0.4594 -0.4943 -0.2685
  531MPD2    C5 7937   3.690   2.785  13.064  0.7670  0.7032  0.1609
  531MPD2     H 7938   3.461   2.991  13.286 -0.5132 -0.0343  1.0200
  531MPD2    H1 7939   3.564   2.847  12.911  0.5546  0.4798 -0.4104
  531MPD2    H2 7940   3.823   2.748  13.225 -0.9712 -0.0221  1.3398
  531MPD2    H3 7941   3.751   2.717  13.005 -0.3011  1.7664 -2.1530
  531MPD2     N 7942   3.389   2.995  13.056 -0.1583  0.4272 -0.0281
  531MPD2    H5 7943   3.367   3.067  13.124  0.8053  0.8680 -0.1800
  531MPD2    N1 7944   3.697   2.918  13.407 -0.4816 -0.5546  0.2167
  531MPD2    H7 7945   3.784   2.870  13.426  0.0094 -0.2895 -1.4226
  532TMC3    C1 7946   3.739   3.041  13.603 -0.3087  0.1312 -0.2744
  532TMC3    C2 7947   3.697   3.154  13.663  0.7192  0.6235 -0.9503
  532TMC3    C3 7948   3.779   3.264  13.683  0.0509 -0.4648 -0.6845
  532TMC3    C4 7949   3.867   3.027  13.585  0.5544  0.0608 -0.1043
  532TMC3    C5 7950   3.949   3.134  13.617 -0.4074 -0.0644 -0.3295
  532TMC3    C6 7951   3.912   3.255  13.664  0.4101  0.4721 -0.2789
  532TMC3     C 7952   3.651   3.012  13.491  0.9727 -0.4169  0.1868
  532TMC3     O 7953   3.567   3.093  13.469 -0.2878 -0.0241  0.6828
  532TMC3     H 7954   3.592   3.159  13.690  0.0280  0.1906 -3.4607
  532TMC3    H1 7955   3.898   2.949  13.516  1.2275 -1.6067  2.0817
  532TMC3    H2 7956   3.979   3.340  13.657  1.1222 -0.0412  0.3390
  532TMC3    C7 7957   4.093   3.101  13.634 -0.6013  0.7076 -0.6818
  532TMC3    C8 7958   3.714   3.388  13.644  0.2123  0.7180  0.0786
  532TMC3    O1 7959   4.180   3.187  13.641 -0.1617 -0.3781  0.1874
  532TMC3    O2 7960   3.745   3.499  13.688  0.4290 -0.0521  0.0945
  533TMC3    C1 7961   4.165   0.800  14.196  0.0539 -0.5513 -0.0450
  533TMC3    C2 7962   4.294   0.841  14.220  0.0871 -0.0511  0.2778
  533TMC3    C3 7963   4.319   0.961  14.273 -0.3096  0.1168  0.3793
  533TMC3    C4 7964   4.064   0.877  14.236  0.6730  0.2420  0.5752
  533TMC3    C5 7965   4.098   0.991  14.309 -0.1518 -0.0293  0.1244
  533TMC3    C6 7966   4.226   1.044  14.324  0.4514  0.1650 -0.0031
  533TMC3     C 7967   4.140   0.687  14.112  0.2384 -0.0966  0.2250
  533TMC3     O 7968   4.079   0.701  14.012  0.2284  0.8309  0.2344
  533TMC3     H 7969   4.374   0.791  14.166  1.7392  2.7145  0.1537
  533TMC3    H1 7970   3.964   0.838  14.223  1.3540 -1.7584  1.4437
  533TMC3    H2 7971   4.247   1.142  14.366 -0.7728  1.3572 -2.1461
  533TMC3    C7 7972   3.990   1.083  14.327 -0.4045 -1.0549  0.0571
  533TMC3    C8 7973   4.448   0.958  14.337 -0.5235 -0.2049 -0.7538
  533TMC3    O1 7974   3.936   1.125  14.227 -0.6741  0.4035 -0.2285
  533TMC3    O2 7975   4.539   0.904  14.276 -0.0352  0.9486  0.3597
  534MPD2     C 7976   1.791   1.549   0.925 -0.5280 -0.0655 -0.2779
  534MPD2    C1 7977   1.670   1.519   0.985  0.0148 -0.0003 -1.4935
  534MPD2    C2 7978   1.608   1.409   0.951  0.0427 -0.3717 -0.4902
  534MPD2    C3 7979   1.658   1.317   0.858  0.3422  0.1196  0.8534
  534MPD2    C4 7980   1.781   1.343   0.804  0.0179 -0.3176  1.2212
  534MPD2    C5 7981   1.847   1.464   0.832 -0.0041  0.9906  0.5473
  534MPD2     H 7982   1.514   1.391   1.003  0.8092 -1.4737  0.5020
  534MPD2    H1 7983   1.832   1.278   0.732  0.9218  0.0252  1.5473
  534MPD2    H2 7984   1.841   1.642   0.948 -0.6607 -0.3821  1.2355
  534MPD2    H3 7985   1.944   1.494   0.791 -0.0752  0.3748 -0.0689
  534MPD2     N 7986   1.602   1.188   0.826 -0.1974  0.0413  0.5453
  534MPD2    H5 7987   1.655   1.128   0.763 -2.2906 -3.3823  2.0289
  534MPD2    N1 7988   1.611   1.600   1.082  0.0195  0.4255 -0.1612
  534MPD2    H7 7989   1.530   1.569   1.136 -0.7859  0.4137 -1.3675
  535TMC3    C1 7990   1.459   0.995   0.870 -0.4417 -0.6813 -0.6907
  535TMC3    C2 7991   1.353   0.946   0.926  0.1044  0.0736 -0.1023
  535TMC3    C3 7992   1.296   0.828   0.879 -0.5957 -0.0264  0.1607
  535TMC3    C4 7993   1.531   0.922   0.779 -0.4598  0.2406 -0.5620
  535TMC3    C5 7994   1.475   0.799   0.734 -0.4965 -0.3054 -0.6065
  535TMC3    C6 7995   1.359   0.753   0.787  0.3731  0.3531  0.4793
  535TMC3     C 7996   1.493   1.133   0.895 -0.1521 -0.0743  0.2095
  535TMC3     O 7997   1.430   1.186   0.982 -0.9487  0.0344  0.2190
  535TMC3     H 7998   1.312   1.007   1.006  1.4043 -0.6111  1.0665
  535TMC3    H1 7999   1.625   0.957   0.738 -0.5652  0.4622 -0.6142
  535TMC3    H2 8000   1.313   0.661   0.753 -0.9993  0.8670  0.9454
  535TMC3    C7 8001   1.542   0.732   0.627 -0.0840  0.5454 -0.0328
  535TMC3    C8 8002   1.175   0.772   0.942  0.2523 -0.0525 -0.4765
  535TMC3    O1 8003   1.665   0.732   0.637  0.3930  0.3858  0.0972
  535TMC3    O2 8004   1.122   0.675   0.889 -0.3550 -0.3085 -0.0579
  536MPD2     C 8005   4.697   4.056  16.202  0.4570  0.3725  1.0241
  536MPD2    C1 8006   0.092   4.066  16.234 -0.6575  0.0784 -0.4150
  536MPD2    C2 8007   0.183   4.112  16.149 -0.0487  0.2121 -0.0340
  536MPD2    C3 8008   0.141   4.174  16.024 -0.1017 -0.0255  0.6838
  536MPD2    C4 8009   0.006   4.176  16.000  0.5156 -0.1369  0.7748
  536MPD2    C5 8010   4.653   4.109  16.085 -0.0317 -0.1608 -0.4622
  536MPD2     H 8011   0.286   4.105  16.181 -0.7918 -0.5904  2.1565
  536MPD2    H1 8012   4.695   4.234  15.921  0.8762 -0.1905  0.5207
  536MPD2    H2 8013   4.634   4.013  16.279 -1.2809 -0.0129 -0.6095
  536MPD2    H3 8014   4.548   4.106  16.057  0.1948  0.1736 -1.3604
  536MPD2     N 8015   0.226   4.253  15.938  0.4289  0.3976  0.1961
  536MPD2    H5 8016   0.183   4.319  15.873 -1.6503 -0.4084  0.7371
  536MPD2    N1 8017   0.141   4.016  16.364  0.7127 -0.2694 -0.3720
  536MPD2    H7 8018   0.236   4.043  16.386  0.7763 -0.3372 -0.5590
  537TMC3    C1 8019   0.151   3.937  16.581 -0.2935  0.6301 -0.4182
  537TMC3    C2 8020   0.279   3.975  16.592  0.1819  0.6271 -1.1651
  537TMC3    C3 8021   0.342   3.966  16.716 -0.3888 -0.5316  0.0258
  537TMC3    C4 8022   0.084   3.897  16.690 -0.5359 -0.1392 -0.5843
  537TMC3    C5 8023   0.158   3.900  16.814 -0.0579  0.3200 -0.3533
  537TMC3    C6 8024   0.281   3.933  16.828 -0.1213  0.3058  0.0699
  537TMC3     C 8025   0.072   3.939  16.459  0.6740 -0.4961  0.0500
  537TMC3     O 8026   4.689   3.901  16.463  0.5211  0.2388  0.1842
  537TMC3     H 8027   0.338   3.991  16.502  3.3532 -1.3008  0.5852
  537TMC3    H1 8028   4.716   3.865  16.685 -0.7962  0.4579  0.9464
  537TMC3    H2 8029   0.335   3.939  16.922 -2.1819 -1.3871  1.3462
  537TMC3    C7 8030   0.088   3.822  16.920  0.6240  0.6019  0.0465
  537TMC3    C8 8031   0.473   4.012  16.730  0.3645  0.4941  0.5870
  537TMC3    O1 8032   4.705   3.831  16.932  0.1693  0.0374  0.1929
  537TMC3    O2 8033   0.547   3.950  16.806  0.1748 -0.1252 -0.0173
  538TMC3    C1 8034   1.648   2.824  10.764 -0.2911  0.2348 -0.4436
  538TMC3    C2 8035   1.748   2.826  10.676  0.2032  0.2579 -0.3965
  538TMC3    C3 8036   1.742   2.904  10.562  0.1773 -0.4112  0.1656
  538TMC3    C4 8037   1.539   2.904  10.748  0.0291  0.5688 -0.4408
  538TMC3    C5 8038   1.535   2.986  10.637  0.1684 -1.0120 -0.0269
  538TMC3    C6 8039   1.639   2.992  10.542 -0.6447 -0.2760 -0.3060
  538TMC3     C 8040   1.672   2.776  10.900  0.2455 -0.3919  0.1781
  538TMC3     O 8041   1.596   2.812  10.991 -0.2000  0.0357 -0.5149
  538TMC3     H 8042   1.837   2.767  10.690 -0.0442  0.2148  0.9467
  538TMC3    H1 8043   1.475   2.919  10.834  0.3640  1.1148 -0.2853
  538TMC3    H2 8044   1.640   3.052  10.452 -0.8912 -0.5521 -0.4908
  538TMC3    C7 8045   1.432   3.088  10.629  0.0372  0.1504 -0.1467
  538TMC3    C8 8046   1.872   2.941  10.503 -0.7618 -0.6672  0.0702
  538TMC3    O1 8047   1.334   3.077  10.700 -0.5414  0.0589 -0.0587
  538TMC3    O2 8048   1.971   2.884  10.549 -0.0795 -0.3042 -1.0817
  539MPD2     C 8049   1.968   2.362  11.590 -0.5765  0.8675  0.0999
  539MPD2    C1 8050   1.875   2.306  11.500  0.1838  0.0636  0.4209
  539MPD2    C2 8051   1.765   2.382  11.459  0.0322 -0.0622  0.4113
  539MPD2    C3 8052   1.747   2.503  11.518  0.6674 -0.2647 -0.3586
  539MPD2    C4 8053   1.835   2.559  11.610  0.1845 -0.4249  0.1436
  539MPD2    C5 8054   1.944   2.485  11.647 -0.1444 -0.2134  0.1221
  539MPD2     H 8055   1.688   2.341  11.395 -0.0089 -0.6436  0.8400
  539MPD2    H1 8056   1.816   2.656  11.654  1.0686  0.3278 -1.1460
  539MPD2    H2 8057   2.048   2.300  11.629 -1.0327  0.5947  0.6019
  539MPD2    H3 8058   2.020   2.528  11.711 -0.6264 -1.7794  1.7617
  539MPD2     N 8059   1.640   2.590  11.491  0.1098  0.0886  0.0987
  539MPD2    H5 8060   1.638   2.677  11.543 -1.5367 -0.3833  0.8232
  539MPD2    N1 8061   1.886   2.170  11.458  0.3048 -0.1777  0.2427
  539MPD2    H7 8062   1.810   2.141  11.398  1.6075 -0.9279 -1.0151
  540TMC3    C1 8063   1.457   2.688  11.386 -0.0315  0.0573  0.2142
  540TMC3    C2 8064   1.436   2.729  11.258 -0.2458 -0.6239  0.2695
  540TMC3    C3 8065   1.344   2.832  11.255 -0.0752 -0.4968 -0.5115
  540TMC3    C4 8066   1.396   2.726  11.503 -0.7086  0.6630  0.6821
  540TMC3    C5 8067   1.310   2.831  11.490 -0.2711 -0.3917  0.2036
  540TMC3    C6 8068   1.276   2.877  11.361 -0.3122 -0.4159  0.2859
  540TMC3     C 8069   1.543   2.579  11.394  0.9390  0.1072 -0.4675
  540TMC3     O 8070   1.532   2.502  11.302 -0.1427  0.0124  0.3853
  540TMC3     H 8071   1.506   2.703  11.180 -0.3303  0.3714 -0.1377
  540TMC3    H1 8072   1.432   2.686  11.597 -0.7196  1.5586  1.0651
  540TMC3    H2 8073   1.216   2.967  11.352 -0.6677 -0.9309 -2.5392
  540TMC3    C7 8074   1.206   2.847  11.594  0.1761 -0.3253 -0.1307
  540TMC3    C8 8075   1.290   2.873  11.129  0.1032 -0.4142  0.1450
  540TMC3    O1 8076   1.149   2.952  11.612  0.1510 -0.0287 -0.0824
  540TMC3    O2 8077   1.221   2.972  11.122 -0.9278  0.3636  0.0493
  541MPD2     C 8078   0.498   3.502  13.266 -0.0823 -0.4255  0.0509
  541MPD2    C1 8079   0.374   3.446  13.282  0.3544 -0.7961 -0.3503
  541MPD2    C2 8080   0.265   3.501  13.210 -0.1813 -0.0557 -0.0434
  541MPD2    C3 8081   0.269   3.625  13.141 -0.9255 -0.1577  0.5544
  541MPD2    C4 8082   0.394   3.681  13.137 -0.0551  0.2509  0.2755
  541MPD2    C5 8083   0.501   3.626  13.204 -0.4925 -0.5346 -0.0553
  541MPD2     H 8084   0.168   3.453  13.214 -0.8054  1.4535  2.4086
  541MPD2    H1 8085   0.407   3.773  13.081 -0.8003  0.1230 -0.1146
  541MPD2    H2 8086   0.588   3.458  13.306  0.1674  0.3723  0.3598
  541MPD2    H3 8087   0.599   3.667  13.189 -1.0731  0.6360 -0.6134
  541MPD2     N 8088   0.161   3.672  13.066  0.5948  0.3963  0.0696
  541MPD2    H5 8089   0.089   3.602  13.053 -0.2883  0.9553  1.9863
  541MPD2    N1 8090   0.371   3.318  13.335  0.1165  0.1371 -0.4831
  541MPD2    H7 8091   0.458   3.265  13.338  0.1180  0.1974  0.7784
  542TMC3    C1 8092   0.048   3.788  12.891 -0.8145  0.1369 -0.0088
  542TMC3    C2 8093   4.718   3.674  12.849 -0.8478 -0.5959 -0.1362
  542TMC3    C3 8094   4.604   3.693  12.780  0.4505 -0.2622 -0.1254
  542TMC3    C4 8095   0.009   3.913  12.865 -0.8941  0.1951  0.5896
  542TMC3    C5 8096   4.629   3.926  12.797  0.1910 -0.2290  0.0571
  542TMC3    C6 8097   4.559   3.817  12.750  0.3401 -0.2932 -0.0554
  542TMC3     C 8098   0.156   3.785  12.988 -0.1188 -0.0281  0.1976
  542TMC3     O 8099   0.233   3.879  12.987  0.3769 -0.1561 -0.5102
  542TMC3     H 8100   0.013   3.576  12.883  3.6324  1.2595  1.2817
  542TMC3    H1 8101   0.076   3.998  12.881  0.2955 -0.7675  0.7576
  542TMC3    H2 8102   4.472   3.830  12.686  0.1349  0.2404  0.3338
  542TMC3    C7 8103   4.593   4.064  12.764 -0.8775  0.4977 -0.4773
  542TMC3    C8 8104   4.573   3.591  12.682 -0.2485  0.5794  0.0741
  542TMC3    O1 8105   4.632   4.156  12.839 -0.3527  0.1908  0.1616
  542TMC3    O2 8106   4.541   3.637  12.574  0.1335 -0.2511  0.3646
  543TMC3    C1 8107   4.174   0.631  17.394 -0.6650  0.2336 -0.4920
  543TMC3    C2 8108   4.212   0.499  17.405  0.0126  0.5554  0.0705
  543TMC3    C3 8109   4.231   0.438  17.525 -0.0572  0.1361 -0.4252
  543TMC3    C4 8110   4.163   0.711  17.505 -0.3453 -0.3445 -0.9782
  543TMC3    C5 8111   4.173   0.645  17.629 -0.4800 -0.1272  0.3269
  543TMC3    C6 8112   4.215   0.512  17.641  0.3483 -0.6644  0.0265
  543TMC3     C 8113   4.217   0.707  17.267  0.3396 -0.3146 -0.7347
  543TMC3     O 8114   4.217   0.833  17.268 -0.2252 -0.1839 -0.0380
  543TMC3     H 8115   4.204   0.433  17.320  3.8567  2.3039 -1.6282
  543TMC3    H1 8116   4.153   0.818  17.493 -0.8610 -0.1472  1.2187
  543TMC3    H2 8117   4.218   0.469   0.000  0.5912  2.2201  1.2979
  543TMC3    C7 8118   4.134   0.712   0.011  0.2307 -0.0963  0.3221
  543TMC3    C8 8119   4.256   0.291  17.529  0.0062  0.4081  0.1164
  543TMC3    O1 8120   4.167   0.665   0.118  0.7527  0.0281  0.8132
  543TMC3    O2 8121   4.230   0.226  17.432  0.4764  0.4930 -0.2104
  544MPD2     C 8122   4.372   4.583   0.015  0.0086 -0.2614 -0.5353
  544MPD2    C1 8123   4.328   4.613  17.632  0.0673  0.1997  0.5865
  544MPD2    C2 8124   4.303   0.007  17.595 -0.7372  0.0654  0.4294
  544MPD2    C3 8125   4.316   0.112  17.685  0.1858  0.7102 -0.2080
  544MPD2    C4 8126   4.349   0.079   0.072 -0.0592 -0.8419 -0.2751
  544MPD2    C5 8127   4.377   4.688   0.100  0.0145  0.0806 -0.0042
  544MPD2     H 8128   4.267   0.021  17.494 -0.1109  1.2884  0.3821
  544MPD2    H1 8129   4.348   0.157   0.148 -1.4378 -0.3607 -0.7834
  544MPD2    H2 8130   4.383   4.478   0.041  3.1780  0.3749  0.6982
  544MPD2    H3 8131   4.416   4.661   0.198  0.3631  1.6403  0.2821
  544MPD2     N 8132   4.290   0.248  17.651 -0.2750  0.0384 -0.0060
  544MPD2    H5 8133   4.297   0.321  17.721 -0.6860 -0.6393  0.7472
  544MPD2    N1 8134   4.339   4.507  17.537  0.1740 -0.5446  0.6487
  544MPD2    H7 8135   4.378   4.424  17.579  0.1426  0.3252  2.3699
  545TMC3    C1 8136   4.340   4.388  17.333  0.5423  0.0508 -0.7978
  545TMC3    C2 8137   4.322   4.379  17.195 -0.1908  0.3956  0.9670
  545TMC3    C3 8138   4.292   4.255  17.142 -0.1021  0.1607  0.5043
  545TMC3    C4 8139   4.343   4.267  17.408  1.0534  0.7255 -0.9411
  545TMC3    C5 8140   4.312   4.150  17.345 -0.3957  0.6118  0.0213
  545TMC3    C6 8141   4.286   4.140  17.215 -0.4038 -0.0430  0.0113
  545TMC3     C 8142   4.329   4.519  17.400  0.1264  0.1115  0.6211
  545TMC3     O 8143   4.306   4.620  17.338  0.2699  0.5069  0.5930
  545TMC3     H 8144   4.310   4.466  17.131  0.5529 -1.1603 -1.2818
  545TMC3    H1 8145   4.346   4.257  17.516 -3.9776 -2.3164 -1.0579
  545TMC3    H2 8146   4.266   4.049  17.159  0.0487  0.1139 -0.4073
  545TMC3    C7 8147   4.314   4.028  17.431  0.1678  0.0772  0.3238
  545TMC3    C8 8148   4.253   4.253  17.004 -0.4200  0.2713  0.4208
  545TMC3    O1 8149   4.323   4.028  17.552  0.1343  0.7186 -0.3141
  545TMC3    O2 8150   4.319   4.312  16.922 -0.7957 -0.2276 -0.4540
  546MPD2     C 8151   1.343   4.308  17.240  0.2388 -0.0747 -0.7112
  546MPD2    C1 8152   1.234   4.369  17.182 -0.3699  0.1626 -0.8622
  546MPD2    C2 8153   1.244   4.498  17.132  0.0094 -0.4595 -0.6380
  546MPD2    C3 8154   1.370   4.564  17.136  0.2542  0.1751  0.0820
  546MPD2    C4 8155   1.479   4.496  17.195  0.0480 -0.0416  0.3967
  546MPD2    C5 8156   1.460   4.372  17.243 -0.2772 -0.1469  0.4626
  546MPD2     H 8157   1.157   4.547  17.091  0.0609  1.2967  1.3560
  546MPD2    H1 8158   1.582   4.530  17.190  0.9274 -2.8788 -0.5315
  546MPD2    H2 8159   1.340   4.209  17.285 -0.1419 -0.0132 -0.6017
  546MPD2    H3 8160   1.550   4.313  17.260 -0.6484 -1.1361 -0.9532
  546MPD2     N 8161   1.388   4.693  17.078  0.1813 -0.6720  0.0825
  546MPD2    H5 8162   1.482   4.730  17.083  0.1835 -1.0630  2.6669
  546MPD2    N1 8163   1.107   4.310  17.191 -0.0873  0.5333  0.6694
  546MPD2    H7 8164   1.110   4.234  17.257 -1.1271 -2.0272 -2.2545
  547TMC3    C1 8165   0.868   4.265  17.146 -0.1391  0.3793  0.6335
  547TMC3    C2 8166   0.763   4.272  17.055  0.5286 -0.4049 -0.6254
  547TMC3    C3 8167   0.647   4.217  17.082 -0.8552 -0.0643  0.2758
  547TMC3    C4 8168   0.866   4.203  17.267  0.4996  0.1225 -0.3470
  547TMC3    C5 8169   0.738   4.134  17.288  0.2683  0.2302  0.1842
  547TMC3    C6 8170   0.634   4.152  17.202  0.2625 -0.1612  0.2786
  547TMC3     C 8171   0.994   4.335  17.115  0.9091 -0.3035 -0.2758
  547TMC3     O 8172   0.982   4.414  17.020  0.2809  0.0586 -0.3212
  547TMC3     H 8173   0.779   4.314  16.956 -1.0115  0.7691 -0.3633
  547TMC3    H1 8174   0.946   4.188  17.339 -0.6012  0.7745  1.0145
  547TMC3    H2 8175   0.549   4.088  17.223  0.0183  0.1618  0.2798
  547TMC3    C7 8176   0.734   4.033  17.396 -0.2749 -0.0062  0.6508
  547TMC3    C8 8177   0.526   4.281  17.027 -0.4265 -0.3351 -0.0181
  547TMC3    O1 8178   0.782   4.058  17.503  0.1539  0.1983 -0.1378
  547TMC3    O2 8179   0.557   4.364  16.941 -0.3690 -0.3090 -0.0735
  548MPD2     C 8180   0.945   0.601  12.701 -0.4429  0.3140 -0.6566
  548MPD2    C1 8181   0.857   0.528  12.779  0.1710 -0.2521  0.3601
  548MPD2    C2 8182   0.913   0.432  12.868 -0.2482  0.5315  0.2083
  548MPD2    C3 8183   1.049   0.412  12.883 -1.3765 -0.3635 -0.4720
  548MPD2    C4 8184   1.133   0.485  12.796 -0.3660 -0.0386 -0.4599
  548MPD2    C5 8185   1.078   0.576  12.710  0.5196  0.4548  0.2252
  548MPD2     H 8186   0.844   0.372  12.926 -0.3604 -0.2357 -0.7150
  548MPD2    H1 8187   1.239   0.492  12.816 -0.0432 -3.6397 -0.9189
  548MPD2    H2 8188   0.916   0.690  12.646 -0.4682  0.7694  0.0883
  548MPD2    H3 8189   1.146   0.639  12.656  0.9208 -1.0465 -1.0307
  548MPD2     N 8190   1.097   0.314  12.980 -0.1986 -0.0468 -0.4908
  548MPD2    H5 8191   1.025   0.294  13.048 -0.2055 -0.2446 -0.5590
  548MPD2    N1 8192   0.717   0.557  12.772 -0.7602 -0.1139  0.2602
  548MPD2    H7 8193   0.690   0.633  12.711 -2.5648 -0.8790  0.1016
  549TMC3    C1 8194   0.484   0.509  12.803  0.3987 -0.3324 -0.4251
  549TMC3    C2 8195   0.459   0.641  12.808 -0.1081  0.8323  0.0790
  549TMC3    C3 8196   0.339   0.684  12.849 -0.2092 -0.6198 -0.2089
  549TMC3    C4 8197   0.394   0.413  12.830 -0.2428  0.3813 -0.1255
  549TMC3    C5 8198   0.266   0.462  12.859 -0.1107  0.0088 -0.3504
  549TMC3    C6 8199   0.238   0.596  12.876 -0.3762 -0.2117  0.1506
  549TMC3     C 8200   0.625   0.466  12.822  0.0791  0.3263 -0.4873
  549TMC3     O 8201   0.640   0.354  12.875 -0.1459  0.2003 -0.0739
  549TMC3     H 8202   0.534   0.715  12.782 -1.2732  0.9950 -2.8257
  549TMC3    H1 8203   0.408   0.309  12.803  0.0009  0.2048  0.6824
  549TMC3    H2 8204   0.135   0.628  12.888  0.1581  1.7730 -0.4626
  549TMC3    C7 8205   0.160   0.398  12.784  0.4267 -0.2571  0.4235
  549TMC3    C8 8206   0.304   0.814  12.807 -0.0356 -0.5908  0.3677
  549TMC3    O1 8207   0.083   0.477  12.727 -0.4439 -0.1517 -0.2461
  549TMC3    O2 8208   0.204   0.855  12.870 -0.2128  0.8637  0.1494
  550TMC3    C1 8209   3.686   3.379  12.664 -0.1662  0.2509 -0.6215
  550TMC3    C2 8210   3.614   3.494  12.689  0.1957  0.9939  0.0323
  550TMC3    C3 8211   3.682   3.607  12.731 -0.2208  0.0893  0.5178
  550TMC3    C4 8212   3.822   3.384  12.653  0.1179 -0.1602  0.1932
  550TMC3    C5 8213   3.884   3.504  12.667  0.0479  0.0750 -0.0841
  550TMC3    C6 8214   3.813   3.612  12.720  0.0344  0.6708  0.0766
  550TMC3     C 8215   3.615   3.284  12.574 -0.0700 -0.4997 -0.4193
  550TMC3     O 8216   3.490   3.255  12.584 -0.3892 -0.2499  0.3535
  550TMC3     H 8217   3.507   3.475  12.688  0.7119 -2.0220 -1.4948
  550TMC3    H1 8218   3.890   3.300  12.645  1.8365  1.4054 -1.6975
  550TMC3    H2 8219   3.872   3.686  12.772  3.0427 -2.0548  0.5287
  550TMC3    C7 8220   3.931   3.539  12.529  1.1019 -0.1562  0.5838
  550TMC3    C8 8221   3.626   3.733  12.690 -0.4958  0.7953  0.4340
  550TMC3    O1 8222   3.968   3.451  12.452  0.0985  0.2219 -0.4040
  550TMC3    O2 8223   3.704   3.830  12.682  0.7237 -0.6477  0.2908
  551TMC3    C1 8224   1.694   1.335  13.471 -0.1812 -0.5382 -0.0501
  551TMC3    C2 8225   1.774   1.233  13.432 -0.0771  0.2050  0.3319
  551TMC3    C3 8226   1.908   1.256  13.456 -0.1146  0.6138  0.1478
  551TMC3    C4 8227   1.732   1.449  13.538 -0.7092 -0.1205 -0.0632
  551TMC3    C5 8228   1.861   1.457  13.577 -0.4540 -0.4752  0.4766
  551TMC3    C6 8229   1.952   1.369  13.531 -0.0219 -0.2254 -0.9115
  551TMC3     C 8230   1.567   1.353  13.402  0.1038  0.1015 -0.4939
  551TMC3     O 8231   1.514   1.252  13.373 -0.1469  0.5611  0.3558
  551TMC3     H 8232   1.746   1.154  13.363  0.7859 -0.5134  0.8155
  551TMC3    H1 8233   1.650   1.515  13.566 -0.1461  1.0687 -1.2006
  551TMC3    H2 8234   2.059   1.375  13.547  0.0994 -0.5579 -1.5756
  551TMC3    C7 8235   1.883   1.525  13.705 -0.4179  0.5414 -0.4899
  551TMC3    C8 8236   1.987   1.235  13.336 -0.2289  0.4589 -0.5041
  551TMC3    O1 8237   1.979   1.495  13.771  0.3854 -0.1125  0.5486
  551TMC3    O2 8238   1.987   1.125  13.285  0.1436 -0.2182 -0.3795
  552MPD2     C 8239   4.143   2.955  14.037 -0.3540 -0.5664 -0.3729
  552MPD2    C1 8240   4.051   2.940  14.143 -0.0014 -0.4959 -0.0125
  552MPD2    C2 8241   4.084   2.954  14.268  0.5255 -0.6757 -0.4288
  552MPD2    C3 8242   4.212   2.993  14.298 -0.3967 -0.2297  0.5013
  552MPD2    C4 8243   4.307   2.999  14.201 -0.1757  0.2410 -0.6222
  552MPD2    C5 8244   4.271   2.987  14.073 -0.0000  0.3918 -0.7012
  552MPD2     H 8245   4.010   2.939  14.346 -1.9137  1.1010 -2.3750
  552MPD2    H1 8246   4.404   3.046  14.212 -0.3006  0.5930 -1.0149
  552MPD2    H2 8247   4.117   2.974  13.934 -0.9012  0.7358  0.0119
  552MPD2    H3 8248   4.344   3.004  13.996  1.9221 -1.1965  0.7725
  552MPD2     N 8249   4.255   3.038  14.428 -0.0038  0.7584 -0.0218
  552MPD2    H5 8250   4.348   3.078  14.432 -0.1074  1.0454 -0.3962
  552MPD2    N1 8251   3.913   2.906  14.113 -0.4517  0.5720  0.2116
  552MPD2    H7 8252   3.842   2.907  14.185 -0.3756 -0.4649  0.3003
  553TMC3    C1 8253   3.726   2.806  13.991 -1.3950  0.1191  0.7780
  553TMC3    C2 8254   3.688   2.779  13.861  0.2663  0.4266 -0.1093
  553TMC3    C3 8255   3.632   2.660  13.832  0.3771  0.0539 -0.0721
  553TMC3    C4 8256   3.711   2.714  14.092 -0.0693 -0.2420 -0.1167
  553TMC3    C5 8257   3.649   2.596  14.061  0.1577  0.6290  0.1355
  553TMC3    C6 8258   3.605   2.569  13.933  0.1052  0.2336  0.8759
  553TMC3     C 8259   3.857   2.874  13.990  0.3083  0.5177 -0.5751
  553TMC3     O 8260   3.912   2.882  13.878  0.0884 -0.2062 -0.0925
  553TMC3     H 8261   3.717   2.849  13.784 -0.2963  1.0486  0.2489
  553TMC3    H1 8262   3.764   2.725  14.186  0.2142  2.0226 -0.5348
  553TMC3    H2 8263   3.572   2.473  13.897  1.3344 -0.5656  1.8755
  553TMC3    C7 8264   3.694   2.465  14.110  0.0195 -0.3207  0.3687
  553TMC3    C8 8265   3.680   2.596  13.714 -0.2738 -0.5480  0.3051
  553TMC3    O1 8266   3.623   2.359  14.093  0.2626  0.0225  0.1801
  553TMC3    O2 8267   3.791   2.635  13.689 -0.1965 -0.4875  0.3779
  554TMC3    C1 8268   1.029   2.457  11.330  0.1300  0.5288  0.3759
  554TMC3    C2 8269   0.955   2.366  11.259  0.2419  0.2952 -0.2299
  554TMC3    C3 8270   0.880   2.410  11.155 -0.0893 -0.0839 -0.2784
  554TMC3    C4 8271   1.032   2.585  11.293  0.7078 -0.2157 -0.3984
  554TMC3    C5 8272   0.951   2.624  11.191 -0.2258  0.0932 -0.0141
  554TMC3    C6 8273   0.864   2.539  11.124 -0.2110 -0.4791  0.4699
  554TMC3     C 8274   1.111   2.413  11.439  0.0745 -0.3239  0.0645
  554TMC3     O 8275   1.199   2.490  11.475  0.0476 -0.3249 -0.6495
  554TMC3     H 8276   0.963   2.259  11.276 -0.6013  0.0998 -1.1127
  554TMC3    H1 8277   1.112   2.651  11.326  0.1180  0.2845  0.0307
  554TMC3    H2 8278   0.800   2.581  11.047 -3.1664 -0.3979  2.9433
  554TMC3    C7 8279   0.931   2.765  11.163  0.3050 -0.3522  0.2509
  554TMC3    C8 8280   0.776   2.314  11.123 -0.5775  0.1206 -0.3478
  554TMC3    O1 8281   0.893   2.794  11.052  0.6316  0.3946 -0.0632
  554TMC3    O2 8282   0.748   2.232  11.213  0.9194  0.3152 -0.0770
  555TMC3    C1 8283   4.344   2.079  15.054 -0.3950  0.7764  0.1844
  555TMC3    C2 8284   4.410   2.159  15.140 -0.2326 -0.4117  0.1874
  555TMC3    C3 8285   4.508   2.098  15.224  0.4166 -0.4849  0.1953
  555TMC3    C4 8286   4.370   1.948  15.057 -0.4799  0.0153  0.1927
  555TMC3    C5 8287   4.468   1.895  15.138 -0.0075  0.3168  0.5469
  555TMC3    C6 8288   4.552   1.968  15.216 -0.2829 -0.0769  0.2333
  555TMC3     C 8289   4.263   2.130  14.941 -0.2582 -0.0162 -0.3442
  555TMC3     O 8290   4.190   2.053  14.885 -0.2885 -0.4656 -0.3741
  555TMC3     H 8291   4.381   2.263  15.150 -1.8353 -0.9270  0.9062
  555TMC3    H1 8292   4.290   1.887  15.017 -0.8065  0.4328  0.2181
  555TMC3    H2 8293   4.628   1.929  15.283  0.5199 -0.1907 -0.7441
  555TMC3    C7 8294   4.493   1.754  15.155  0.2859  0.1719  0.0852
  555TMC3    C8 8295   4.557   2.191  15.326 -0.0699 -0.0116 -0.6527
  555TMC3    O1 8296   4.518   1.710  15.265 -0.5900  0.4819 -0.3116
  555TMC3    O2 8297   4.487   2.289  15.353  0.1919  0.6041  0.0436
  556MPD2     C 8298   2.492   4.056  10.155  0.1277  0.9091 -0.6615
  556MPD2    C1 8299   2.465   3.933  10.225 -0.1867 -0.0010 -0.6942
  556MPD2    C2 8300   2.375   3.845  10.163 -0.3122  0.1026  0.1880
  556MPD2    C3 8301   2.321   3.869  10.042 -0.8204  0.1899 -0.5795
  556MPD2    C4 8302   2.354   3.984   9.974 -0.0525  0.4297  0.0811
  556MPD2    C5 8303   2.430   4.076  10.040 -0.0826  0.3255 -0.4941
  556MPD2     H 8304   2.347   3.754  10.215  2.9049 -1.4952 -0.8567
  556MPD2    H1 8305   2.314   4.009   9.876  1.2394 -0.2391 -0.6141
  556MPD2    H2 8306   2.541   4.142  10.199  0.0984  0.0338  1.0828
  556MPD2    H3 8307   2.459   4.166   9.987  2.2784  0.1853  0.5638
  556MPD2     N 8308   2.229   3.774   9.988 -0.8784 -1.0384 -0.4186
  556MPD2    H5 8309   2.220   3.684  10.034 -0.5127 -0.3951  0.9141
  556MPD2    N1 8310   2.510   3.908  10.358  0.1835 -0.4582  0.1600
  556MPD2    H7 8311   2.486   3.819  10.400 -1.3969 -1.1722 -2.2840
  557TMC3    C1 8312   2.083   3.658   9.841  0.5295 -0.2764 -0.4490
  557TMC3    C2 8313   2.020   3.658   9.718 -0.3408 -0.4161 -0.3744
  557TMC3    C3 8314   1.955   3.548   9.686  0.2547 -0.3116 -0.6001
  557TMC3    C4 8315   2.085   3.551   9.931  0.2282 -0.3182 -0.3014
  557TMC3    C5 8316   2.010   3.443   9.892 -0.2655 -0.3026  0.3424
  557TMC3    C6 8317   1.943   3.442   9.775 -0.4571 -0.6313 -0.1686
  557TMC3     C 8318   2.156   3.783   9.871  0.3562 -0.0090 -0.4171
  557TMC3     O 8319   2.157   3.871   9.779 -0.1045 -0.0221 -0.6597
  557TMC3     H 8320   2.028   3.748   9.658 -1.5521 -0.6732 -0.9046
  557TMC3    H1 8321   2.129   3.560  10.030  0.9718  3.3260 -0.9660
  557TMC3    H2 8322   1.877   3.359   9.753 -0.4161 -0.8334  0.4651
  557TMC3    C7 8323   2.002   3.324   9.975  0.0303  0.0642 -0.1374
  557TMC3    C8 8324   1.846   3.582   9.599  0.6247 -0.2927  0.2239
  557TMC3    O1 8325   1.926   3.231   9.944  0.4643 -0.1368 -0.0338
  557TMC3    O2 8326   1.850   3.694   9.548  0.1936  0.5435  0.4067
  558TMC3    C1 8327   0.098   1.104  10.361  0.4537  0.0964 -0.2011
  558TMC3    C2 8328   4.723   1.138  10.439 -0.1774  0.4224  0.6154
  558TMC3    C3 8329   4.605   1.147  10.377  0.0768  0.1306  0.4757
  558TMC3    C4 8330   0.087   1.085  10.227  0.1094  0.6617 -0.1454
  558TMC3    C5 8331   4.699   1.088  10.176 -0.2225  0.7971  0.1896
  558TMC3    C6 8332   4.587   1.122  10.244  0.0817 -0.1439  0.4047
  558TMC3     C 8333   0.230   1.096  10.423 -0.2101  0.0569  0.1354
  558TMC3     O 8334   0.326   1.117  10.343 -0.4306 -0.4757  0.3963
  558TMC3     H 8335   4.735   1.163  10.543  1.9509 -0.3403  0.5448
  558TMC3    H1 8336   0.174   1.050  10.173 -0.7566  1.0719 -1.8046
  558TMC3    H2 8337   4.487   1.112  10.204 -0.7442 -0.9955  2.6693
  558TMC3    C7 8338   4.687   1.019  10.039  0.3951  0.3842 -0.6621
  558TMC3    C8 8339   4.479   1.168  10.454 -0.9609 -0.7209  0.1037
  558TMC3    O1 8340   0.049   0.953  10.006  0.1722  0.4617  0.8104
  558TMC3    O2 8341   4.375   1.156  10.390 -0.0559  0.2214 -1.1823
  559MPD2     C 8342   0.242   2.193  10.464 -0.1277 -0.2392 -0.6845
  559MPD2    C1 8343   0.186   2.111  10.557  0.5704  0.0363  0.3996
  559MPD2    C2 8344   0.267   2.039  10.650  0.7635  0.1380 -0.3041
  559MPD2    C3 8345   0.404   2.061  10.644  0.1729 -0.5422  0.0472
  559MPD2    C4 8346   0.456   2.157  10.552  0.0584 -0.2830 -0.2742
  559MPD2    C5 8347   0.375   2.214  10.466  0.7191  0.0171 -0.1100
  559MPD2     H 8348   0.220   1.975  10.724 -1.9719  0.0488 -2.0942
  559MPD2    H1 8349   0.563   2.177  10.548  0.2029 -0.7127  1.3206
  559MPD2    H2 8350   0.186   2.243  10.386  0.2597  0.7919 -0.2992
  559MPD2    H3 8351   0.413   2.286  10.395 -0.2594  0.1768 -0.4563
  559MPD2     N 8352   0.483   2.000  10.748  0.3524 -0.0695 -0.3821
  559MPD2    H5 8353   0.431   1.934  10.805 -1.0883  0.4911 -1.0497
  559MPD2    N1 8354   0.044   2.092  10.569 -0.1638  0.0571  0.3759
  559MPD2    H7 8355   0.010   2.030  10.642 -0.2632 -0.2210  0.0910
  560TMC3    C1 8356   0.658   1.952  10.896 -1.0882  0.6299 -0.3165
  560TMC3    C2 8357   0.592   1.834  10.932  0.1432  0.3828  0.0206
  560TMC3    C3 8358   0.619   1.780  11.049 -0.3341 -0.0852  0.7344
  560TMC3    C4 8359   0.766   1.998  10.970  0.3129 -0.1282 -0.1115
  560TMC3    C5 8360   0.796   1.932  11.088  0.1708  0.2251 -0.2991
  560TMC3    C6 8361   0.717   1.825  11.130 -0.1453 -0.7853  0.3334
  560TMC3     C 8362   0.612   2.027  10.782  0.5448 -0.6539  0.2540
  560TMC3     O 8363   0.690   2.114  10.740  0.3743  0.2062  0.4053
  560TMC3     H 8364   0.512   1.806  10.865  0.1190  1.6078 -0.4680
  560TMC3    H1 8365   0.816   2.091  10.944  0.2309 -0.6871 -2.2613
  560TMC3    H2 8366   0.722   1.795  11.234 -2.0879  0.9766  0.9454
  560TMC3    C7 8367   0.911   1.966  11.180  0.1986  0.2508 -0.5132
  560TMC3    C8 8368   0.516   1.692  11.104  0.0716 -0.1185  0.0609
  560TMC3    O1 8369   0.902   1.910  11.289  0.0835  1.0431  0.0890
  560TMC3    O2 8370   0.410   1.692  11.045  0.0296  0.5616 -0.4891
  561TMC3    C1 8371   3.047   0.580  11.163 -0.3405 -0.3297  0.0317
  561TMC3    C2 8372   2.951   0.529  11.244 -0.2475 -0.3679  0.2503
  561TMC3    C3 8373   2.877   0.622  11.310 -0.4009 -0.1644 -0.4714
  561TMC3    C4 8374   3.055   0.716  11.132 -0.6169  0.5637  0.7730
  561TMC3    C5 8375   2.960   0.797  11.184  0.4558 -0.1861  0.4164
  561TMC3    C6 8376   2.870   0.752  11.284 -0.7265 -0.2452 -0.1603
  561TMC3     C 8377   3.167   0.507  11.186 -0.5023 -0.2140  0.2043
  561TMC3     O 8378   3.155   0.400  11.244  0.4444 -0.0965 -0.3407
  561TMC3     H 8379   2.937   0.423  11.262  1.5697 -0.5924  0.2953
  561TMC3    H1 8380   3.128   0.748  11.059 -0.9154 -1.4479 -0.4248
  561TMC3    H2 8381   2.785   0.811  11.316 -2.0884 -2.1750 -0.1920
  561TMC3    C7 8382   2.921   0.919  11.111  0.1223 -0.0780 -0.1712
  561TMC3    C8 8383   2.811   0.579  11.425  0.2821 -0.9491  0.0269
  561TMC3    O1 8384   2.807   0.959  11.140 -0.2320 -0.3719 -0.1171
  561TMC3    O2 8385   2.790   0.460  11.424 -0.5017 -0.4006 -0.3268
  562TMC3    C1 8386   4.108   2.538  16.684 -0.4424  0.2692 -0.5700
  562TMC3    C2 8387   4.085   2.662  16.630  0.3906 -0.2853  0.0938
  562TMC3    C3 8388   4.058   2.663  16.498  0.4424 -0.3836 -0.7492
  562TMC3    C4 8389   4.106   2.422  16.608 -0.4219 -0.6616  0.2361
  562TMC3    C5 8390   4.081   2.434  16.473  0.0382  0.7148  0.6923
  562TMC3    C6 8391   4.058   2.557  16.415  0.4309 -0.2783 -0.2505
  562TMC3     C 8392   4.161   2.540  16.818 -0.2596  0.6089 -0.4052
  562TMC3     O 8393   4.145   2.640  16.884 -0.5297  0.1677 -0.4567
  562TMC3     H 8394   4.090   2.752  16.689 -0.7580  1.3730 -2.3511
  562TMC3    H1 8395   4.127   2.327  16.656 -1.2789  0.2020  2.3180
  562TMC3    H2 8396   4.049   2.567  16.307 -1.4354  3.2780  0.2194
  562TMC3    C7 8397   4.105   2.330  16.374  0.5121 -0.2807  0.7283
  562TMC3    C8 8398   4.039   2.795  16.439 -0.0591  0.0433 -0.6342
  562TMC3    O1 8399   4.055   2.344  16.263  0.4176 -0.0548  0.3493
  562TMC3    O2 8400   4.088   2.889  16.496  0.0969  0.5700  0.4053
  563MPD2     C 8401   1.706   3.116  15.307  0.2807 -0.3420  0.0800
  563MPD2    C1 8402   1.681   3.195  15.415 -0.6176  0.5519 -0.0357
  563MPD2    C2 8403   1.783   3.285  15.446 -0.2078 -0.1401 -0.2801
  563MPD2    C3 8404   1.894   3.309  15.375 -0.1435  0.1251 -0.2772
  563MPD2    C4 8405   1.909   3.232  15.262  0.3741  0.1853  0.5760
  563MPD2    C5 8406   1.822   3.135  15.235 -0.1963  0.2008 -0.7820
  563MPD2     H 8407   1.768   3.348  15.533 -0.6766 -2.1857  1.1441
  563MPD2    H1 8408   2.001   3.227  15.204 -0.0549  0.5603 -0.1290
  563MPD2    H2 8409   1.638   3.037  15.276  1.0452 -1.2688  0.7600
  563MPD2    H3 8410   1.840   3.065  15.154 -0.4523  1.1676 -1.6688
  563MPD2     N 8411   1.990   3.403  15.425  0.5369  0.1599 -0.0191
  563MPD2    H5 8412   1.958   3.466  15.497  1.0456  0.0737  0.2784
  563MPD2    N1 8413   1.564   3.181  15.483 -0.8706  0.4603 -0.1885
  563MPD2    H7 8414   1.503   3.107  15.448 -1.1796  1.3894 -1.6002
  564TMC3    C1 8415   1.425   3.215  15.670 -0.5474 -0.0062 -0.0322
  564TMC3    C2 8416   1.345   3.124  15.621 -0.1719  0.0778  0.2551
  564TMC3    C3 8417   1.297   3.027  15.704  0.1969  0.0843 -0.3733
  564TMC3    C4 8418   1.473   3.210  15.796 -0.5066 -0.1092 -0.4753
  564TMC3    C5 8419   1.431   3.109  15.883  0.3633  0.4914  0.3716
  564TMC3    C6 8420   1.346   3.016  15.831  0.3983  0.0410  0.0126
  564TMC3     C 8421   1.510   3.275  15.574  0.2854  0.0304  0.1833
  564TMC3     O 8422   1.553   3.389  15.596 -0.1140  0.0633 -0.6721
  564TMC3     H 8423   1.307   3.138  15.520 -0.9784 -0.4652  0.4826
  564TMC3    H1 8424   1.547   3.285  15.820 -0.0415 -0.4162 -0.9462
  564TMC3    H2 8425   1.306   2.934  15.888 -1.2634  0.8823  0.0582
  564TMC3    C7 8426   1.539   3.062  15.957 -0.4480  0.4486 -0.5190
  564TMC3    C8 8427   1.202   2.928  15.665 -0.3222 -0.2764 -0.4343
  564TMC3    O1 8428   1.648   3.106  15.929  0.3489 -0.1820 -0.7049
  564TMC3    O2 8429   1.134   2.878  15.754 -0.0582  0.3760  0.6877
  565TMC3    C1 8430   1.648   4.297  10.237  0.0176  0.4984  0.4976
  565TMC3    C2 8431   1.660   4.214  10.344 -0.6919 -0.4576  0.2223
  565TMC3    C3 8432   1.568   4.115  10.362  0.0457  1.1289  0.0080
  565TMC3    C4 8433   1.547   4.282  10.145 -0.6761 -0.0185 -0.5762
  565TMC3    C5 8434   1.453   4.182  10.170  0.4306  0.6881  1.2667
  565TMC3    C6 8435   1.466   4.104  10.280  0.7577 -0.1374 -0.2857
  565TMC3     C 8436   1.754   4.380  10.196 -0.1775  0.5254  1.1891
  565TMC3     O 8437   1.773   4.402  10.076  0.4494 -0.1237  0.2595
  565TMC3     H 8438   1.755   4.218  10.396 -1.1127 -2.5559  1.1086
  565TMC3    H1 8439   1.535   4.358  10.069  0.1451 -0.1024 -0.7889
  565TMC3    H2 8440   1.408   4.012  10.278  0.6992 -0.1502  2.0707
  565TMC3    C7 8441   1.330   4.161  10.090  0.4982 -0.3609  0.2555
  565TMC3    C8 8442   1.578   4.041  10.492 -0.2822  0.1159 -0.0113
  565TMC3    O1 8443   1.238   4.109  10.150 -0.0617  0.1111  0.3702
  565TMC3    O2 8444   1.691   4.028  10.537 -0.6406  0.0755 -0.5980
  566MPD2     C 8445   3.554   1.557  14.107  0.0309 -0.7490  0.1595
  566MPD2    C1 8446   3.623   1.619  14.003  0.2241 -0.6315 -0.9134
  566MPD2    C2 8447   3.558   1.621  13.882  0.3784  0.1028  0.0716
  566MPD2    C3 8448   3.447   1.538  13.858 -0.5441 -0.6022  0.8613
  566MPD2    C4 8449   3.396   1.460  13.960  0.2966 -0.4357  0.0368
  566MPD2    C5 8450   3.451   1.474  14.088  0.0426  0.7705 -0.0567
  566MPD2     H 8451   3.610   1.677  13.805  2.6463  1.0188  2.2594
  566MPD2    H1 8452   3.312   1.393  13.944  0.7063 -0.7673 -0.7718
  566MPD2    H2 8453   3.588   1.551  14.210  3.2824 -0.9947 -0.9016
  566MPD2    H3 8454   3.431   1.414  14.176  1.6873  1.8600  1.0446
  566MPD2     N 8455   3.388   1.519  13.729 -0.3650 -0.0924  0.1631
  566MPD2    H5 8456   3.308   1.456  13.733 -0.2967 -0.1582  0.5748
  566MPD2    N1 8457   3.740   1.694  14.028 -0.5381  0.0825 -0.6829
  566MPD2    H7 8458   3.753   1.722  14.124 -1.3820  2.9649 -1.3990
  567TMC3    C1 8459   3.948   1.798  13.990  0.4971 -0.4938 -0.7186
  567TMC3    C2 8460   4.035   1.846  13.895 -0.3667  0.4709 -0.8449
  567TMC3    C3 8461   4.148   1.910  13.935 -0.0298 -0.2779  0.4493
  567TMC3    C4 8462   3.992   1.781  14.115  0.1229 -0.5717  0.5821
  567TMC3    C5 8463   4.122   1.826  14.147 -0.4743  0.0689  0.4826
  567TMC3    C6 8464   4.188   1.910  14.066 -0.1268  0.3490  0.2542
  567TMC3     C 8465   3.831   1.733  13.934 -0.2459 -0.0671 -0.3687
  567TMC3     O 8466   3.830   1.710  13.814 -0.4709 -0.1508  0.2923
  567TMC3     H 8467   4.011   1.851  13.789 -1.8248 -1.8911 -0.6218
  567TMC3    H1 8468   3.940   1.706  14.174 -3.2148  0.3741 -1.0940
  567TMC3    H2 8469   4.290   1.937  14.092  0.8169 -1.6717 -1.3868
  567TMC3    C7 8470   4.192   1.733  14.233  0.4758  0.0619  0.0532
  567TMC3    C8 8471   4.208   2.003  13.843  0.3813  0.4099  0.0127
  567TMC3    O1 8472   4.311   1.725  14.220  0.3968 -0.1261  0.2036
  567TMC3    O2 8473   4.163   2.007  13.728  0.5546 -0.2169  0.3807
  568MPD2     C 8474   1.794   1.839  15.906  0.2798 -0.8593  0.3936
  568MPD2    C1 8475   1.695   1.802  15.993  0.4241 -0.4632 -0.3232
  568MPD2    C2 8476   1.564   1.845  15.976 -0.2604  0.5731  0.7619
  568MPD2    C3 8477   1.536   1.923  15.865 -0.1759  0.6210 -0.7327
  568MPD2    C4 8478   1.637   1.961  15.778  0.5740 -0.5363  0.0087
  568MPD2    C5 8479   1.766   1.911  15.795 -0.3454 -0.1978 -0.4642
  568MPD2     H 8480   1.483   1.820  16.043 -0.4761 -0.7626 -0.0061
  568MPD2    H1 8481   1.623   2.033  15.697 -0.2638  1.0990  1.6099
  568MPD2    H2 8482   1.897   1.814  15.931  1.0689 -0.5302 -2.4525
  568MPD2    H3 8483   1.843   1.950  15.730  1.1055  0.1520  1.4686
  568MPD2     N 8484   1.405   1.961  15.839  1.0378 -0.1734 -0.1905
  568MPD2    H5 8485   1.338   1.959  15.914 -0.0393 -1.9084 -1.2059
  568MPD2    N1 8486   1.732   1.730  16.101 -0.7627  0.2029  0.2596
  568MPD2    H7 8487   1.831   1.708  16.101 -0.8372 -0.1422  0.5538
  569TMC3    C1 8488   1.240   2.090  15.745 -0.3835 -0.0691  0.4280
  569TMC3    C2 8489   1.210   2.139  15.872 -0.0026  0.1317 -0.8453
  569TMC3    C3 8490   1.104   2.214  15.881 -0.3917  0.2646  0.0377
  569TMC3    C4 8491   1.174   2.129  15.634  0.1094  0.1250  0.5611
  569TMC3    C5 8492   1.062   2.210  15.649 -0.0663  0.5370  0.4615
  569TMC3    C6 8493   1.020   2.246  15.769 -0.3083 -0.0479  0.4870
  569TMC3     C 8494   1.366   2.021  15.725  0.0610  0.5813  1.0072
  569TMC3     O 8495   1.410   2.000  15.613 -0.3232 -0.2073 -0.0535
  569TMC3     H 8496   1.278   2.132  15.956  1.1544 -1.0937 -1.8892
  569TMC3    H1 8497   1.210   2.103  15.534  1.0323  1.1786  0.6268
  569TMC3    H2 8498   0.936   2.312  15.781 -0.3013 -0.3356  2.0801
  569TMC3    C7 8499   1.057   2.299  15.533  0.3821  0.1816 -0.0490
  569TMC3    C8 8500   1.135   2.335  15.955 -0.8570  0.0199  0.2557
  569TMC3    O1 8501   1.052   2.256  15.422  0.2191 -0.3744 -0.3715
  569TMC3    O2 8502   1.108   2.437  15.897 -0.3091 -0.4271 -0.0052
  570TMC3    C1 8503   1.193   0.739  16.393 -0.8344  0.1609  0.3730
  570TMC3    C2 8504   1.264   0.741  16.274 -0.2093 -0.1282  0.1974
  570TMC3    C3 8505   1.329   0.855  16.239 -0.7141 -0.6173 -0.2116
  570TMC3    C4 8506   1.178   0.855  16.468  0.2941  0.9079 -0.1432
  570TMC3    C5 8507   1.239   0.967  16.418 -0.1281 -0.2259  0.7868
  570TMC3    C6 8508   1.312   0.970  16.306  0.5836 -0.4836  0.2866
  570TMC3     C 8509   1.159   0.607  16.443 -0.1581  0.0585  0.0300
  570TMC3     O 8510   1.178   0.511  16.373  0.2085  0.2755  0.0048
  570TMC3     H 8511   1.270   0.655  16.208 -1.5994  2.3803 -3.2110
  570TMC3    H1 8512   1.124   0.860  16.562  1.2222  2.7721  0.2927
  570TMC3    H2 8513   1.341   1.065  16.264  1.4411 -1.1605 -0.6790
  570TMC3    C7 8514   1.198   1.095  16.487 -0.1629  0.0820 -0.7581
  570TMC3    C8 8515   1.390   0.866  16.106  0.5478  0.0573 -0.8305
  570TMC3    O1 8516   1.106   1.094  16.569  0.0164  0.1217  0.7889
  570TMC3    O2 8517   1.421   0.983  16.079  0.4783  0.1051 -0.0776
  571MPD2     C 8518   3.525   2.387  17.399 -0.0146  0.5913  0.4942
  571MPD2    C1 8519   3.547   2.521  17.366 -0.5613 -0.0160  0.1718
  571MPD2    C2 8520   3.525   2.631  17.447 -1.0138  0.4022  0.2121
  571MPD2    C3 8521   3.482   2.610  17.576 -0.0011  0.4872 -0.0897
  571MPD2    C4 8522   3.467   2.482  17.612 -0.1763 -0.7174 -0.6106
  571MPD2    C5 8523   3.490   2.374  17.527  0.0422 -0.3489 -0.5898
  571MPD2     H 8524   3.526   2.730  17.404  1.1713  0.4537  0.3898
  571MPD2    H1 8525   3.451   2.450  17.714 -0.0955  0.2242 -0.2999
  571MPD2    H2 8526   3.535   2.294  17.344 -0.9936  0.1061  1.1334
  571MPD2    H3 8527   3.468   2.275  17.565 -2.6208 -0.6737 -2.9887
  571MPD2     N 8528   3.456   2.717  17.662  0.3698  0.2740 -0.0304
  571MPD2    H5 8529   3.423   2.691   0.015 -0.4752  3.6114  0.5993
  571MPD2    N1 8530   3.600   2.534  17.239 -0.3500  0.3061 -0.0463
  571MPD2    H7 8531   3.628   2.449  17.191 -0.0772  0.2647  0.1908
  572TMC3    C1 8532   3.460   2.944   0.018  0.2063 -0.2123  1.2373
  572TMC3    C2 8533   3.388   2.901   0.119 -0.6283  0.2811 -0.2324
  572TMC3    C3 8534   3.378   2.980   0.230  0.2182 -0.4891  0.9452
  572TMC3    C4 8535   3.521   3.063   0.018  0.1161  0.1388 -0.2486
  572TMC3    C5 8536   3.518   3.139   0.133  0.0673 -0.2823  0.2902
  572TMC3    C6 8537   3.442   3.097   0.240 -0.1284 -1.0824  0.2530
  572TMC3     C 8538   3.486   2.851  17.642 -0.0702  0.6876 -0.1721
  572TMC3     O 8539   3.553   2.896  17.553 -0.0521 -0.6048  0.0188
  572TMC3     H 8540   3.319   2.817   0.111 -0.6128  0.5424 -3.2840
  572TMC3    H1 8541   3.571   3.097  17.669 -1.2448  2.1146 -0.2516
  572TMC3    H2 8542   3.436   3.152   0.333  0.0886  1.1522 -1.0604
  572TMC3    C7 8543   3.566   3.272   0.127 -0.8838 -0.2658 -0.4971
  572TMC3    C8 8544   3.274   2.948   0.323 -0.5421  0.5843 -0.5305
  572TMC3    O1 8545   3.592   3.323   0.022 -0.0789 -0.5752  0.1330
  572TMC3    O2 8546   3.264   2.828   0.351 -0.0261 -0.2678 -0.3690
  573MPD2     C 8547   4.575   2.787   0.020  0.3043  0.2768 -0.4288
  573MPD2    C1 8548   4.673   2.873  17.711 -0.3685  0.0954  0.4983
  573MPD2    C2 8549   4.683   2.894  17.576  0.5009 -0.2650 -0.5230
  573MPD2    C3 8550   4.586   2.840  17.484 -0.0629  0.4509  0.0274
  573MPD2    C4 8551   4.489   2.754  17.538  0.2981  0.8983 -0.8416
  573MPD2    C5 8552   4.490   2.726  17.671  0.7983  0.2509  0.7522
  573MPD2     H 8553   0.013   2.972  17.540  1.1687  0.1030  1.5237
  573MPD2    H1 8554   4.415   2.698  17.481  0.4405 -0.0465 -0.0980
  573MPD2    H2 8555   4.564   2.765   0.126 -0.7929 -0.4031 -0.6735
  573MPD2    H3 8556   4.410   2.669  17.718  0.8091 -0.7255 -0.4249
  573MPD2     N 8557   4.570   2.889  17.355  0.3301 -0.0554 -0.0894
  573MPD2    H5 8558   4.482   2.862  17.311  0.0852  0.2400  0.2197
  573MPD2    N1 8559   0.014   2.944   0.063 -0.6499  0.2910  0.2680
  573MPD2    H7 8560   4.717   2.944   0.159 -1.6347  2.9933 -0.0711
  574TMC3    C1 8561   4.610   3.039  17.180 -0.0382 -0.1320  0.4650
  574TMC3    C2 8562   4.507   3.117  17.212 -0.0535 -0.6319 -0.3583
  574TMC3    C3 8563   4.515   3.248  17.188  0.0122  0.2037  0.3519
  574TMC3    C4 8564   4.712   3.085  17.104  0.0611  0.1270  0.2757
  574TMC3    C5 8565   4.715   3.216  17.077  0.1724  0.2342 -0.6152
  574TMC3    C6 8566   4.614   3.305  17.114  0.1485  0.9155 -0.1618
  574TMC3     C 8567   4.660   2.969  17.289  1.1436  0.2574  0.1969
  574TMC3     O 8568   0.030   3.021  17.325  0.1359  0.6355 -0.2704
  574TMC3     H 8569   4.422   3.073  17.263 -0.0239 -0.8829 -0.5257
  574TMC3    H1 8570   0.056   3.015  17.080  1.0368  1.6822 -0.9873
  574TMC3    H2 8571   4.622   3.412  17.101 -1.0168  1.4267  3.3407
  574TMC3    C7 8572   0.090   3.251  16.987 -0.7338 -0.2716 -0.4732
  574TMC3    C8 8573   4.425   3.330  17.266 -0.0706  0.0496 -0.4371
  574TMC3    O1 8574   0.178   3.164  16.970  0.1140 -0.0341 -0.0216
  574TMC3    O2 8575   4.355   3.267  17.348 -0.2462  0.0138 -0.4335
  575TMC3    C1 8576   1.989   3.798  11.194 -0.3897 -0.5146  0.5423
  575TMC3    C2 8577   1.945   3.708  11.290 -0.7329 -0.0151 -0.8393
  575TMC3    C3 8578   1.829   3.640  11.264  0.0536 -0.1845  0.4121
  575TMC3    C4 8579   1.931   3.812  11.075  0.9248  0.0217 -0.0871
  575TMC3    C5 8580   1.820   3.741  11.052 -0.3656  0.0551 -0.4461
  575TMC3    C6 8581   1.769   3.650  11.140  0.1762 -0.1384 -0.4946
  575TMC3     C 8582   2.063   3.908  11.251 -0.5968 -0.2764 -0.1665
  575TMC3     O 8583   2.097   3.888  11.367 -0.5360 -0.5556  0.2643
  575TMC3     H 8584   1.986   3.699  11.390 -0.6151 -3.0944 -1.1611
  575TMC3    H1 8585   1.981   3.882  11.008 -0.3369  1.0454  0.0316
  575TMC3    H2 8586   1.674   3.601  11.119  0.2051 -0.2610 -0.3352
  575TMC3    C7 8587   1.736   3.800  10.942 -0.2478  0.2892 -0.4512
  575TMC3    C8 8588   1.770   3.564  11.380 -0.0309  0.0132 -0.0652
  575TMC3    O1 8589   1.759   3.911  10.905  0.4077  0.1387  0.2882
  575TMC3    O2 8590   1.826   3.579  11.488 -0.3609  0.1132  0.1507
  576MPD2     C 8591   2.141   0.983  12.685 -0.6874 -0.3869  0.3652
  576MPD2    C1 8592   2.123   1.079  12.595 -0.3351  0.0628 -0.6586
  576MPD2    C2 8593   2.050   1.190  12.638  0.8053  0.2019  0.0511
  576MPD2    C3 8594   1.984   1.197  12.758 -0.2689  0.2166  0.9479
  576MPD2    C4 8595   1.998   1.092  12.843  0.0487  0.0647  0.6870
  576MPD2    C5 8596   2.076   0.983  12.806  0.2277 -0.5344 -0.4884
  576MPD2     H 8597   2.041   1.278  12.575 -1.2499 -0.7276 -0.9640
  576MPD2    H1 8598   1.945   1.089  12.938  2.3599 -1.1615  1.9281
  576MPD2    H2 8599   2.208   0.903  12.657 -1.4794 -1.8324  2.6420
  576MPD2    H3 8600   2.085   0.896  12.871 -1.3969  0.4070  0.9980
  576MPD2     N 8601   1.924   1.321  12.787  0.0778 -0.3500  0.0424
  576MPD2    H5 8602   1.950   1.399  12.727 -1.4811 -0.3817 -0.6761
  576MPD2    N1 8603   2.186   1.082  12.473  0.1997 -0.8595  0.0091
  576MPD2    H7 8604   2.167   1.169  12.425  1.7542 -0.9172 -0.7143
  577TMC3    C1 8605   2.307   1.012  12.282  0.3112  0.1567  0.2091
  577TMC3    C2 8606   2.322   0.904  12.205  0.1326  0.2529  0.9204
  577TMC3    C3 8607   2.371   0.923  12.080  0.1099 -0.1829 -0.4645
  577TMC3    C4 8608   2.313   1.135  12.233 -0.0284 -0.1286 -0.2494
  577TMC3    C5 8609   2.352   1.149  12.104  0.1563 -0.5520  0.5621
  577TMC3    C6 8610   2.386   1.049  12.021 -0.0386 -0.1303 -0.3002
  577TMC3     C 8611   2.263   0.985  12.419  0.2291  0.8501  0.0637
  577TMC3     O 8612   2.268   0.867  12.451 -0.0350  0.4078 -0.4333
  577TMC3     H 8613   2.307   0.803  12.244  1.2495 -0.4802 -0.5857
  577TMC3    H1 8614   2.304   1.221  12.298  0.7951 -0.4796  0.3292
  577TMC3    H2 8615   2.413   1.057  11.916  2.1494  1.1519  0.3689
  577TMC3    C7 8616   2.383   1.284  12.059  0.0974 -0.2777 -0.4850
  577TMC3    C8 8617   2.409   0.802  12.002 -0.2362 -0.4528 -0.1567
  577TMC3    O1 8618   2.392   1.365  12.151  0.0035 -0.2122 -0.2891
  577TMC3    O2 8619   2.373   0.701  12.062 -1.3597 -0.6054 -0.6171
  578MPD2     C 8620   0.090   0.810   0.484  0.3594  0.1726  0.4098
  578MPD2    C1 8621   0.187   0.717   0.449 -0.0457  0.2572  0.6226
  578MPD2    C2 8622   0.242   0.632   0.552 -0.4138  0.7855 -0.6675
  578MPD2    C3 8623   0.195   0.642   0.686 -0.7704  0.9634 -0.8197
  578MPD2    C4 8624   0.104   0.741   0.710  0.4905  0.8047  0.2302
  578MPD2    C5 8625   0.046   0.823   0.616  0.9361  0.3653 -0.3789
  578MPD2     H 8626   0.320   0.559   0.535 -1.0422  0.0446 -0.3588
  578MPD2    H1 8627   0.063   0.751   0.810 -0.2875 -3.0973  0.2938
  578MPD2    H2 8628   0.055   0.884   0.414  1.8138  2.1061  1.7354
  578MPD2    H3 8629   4.712   0.901   0.646  1.2892  0.0339  1.2786
  578MPD2     N 8630   0.242   0.546   0.775 -0.1548 -0.4693  0.1580
  578MPD2    H5 8631   0.328   0.496   0.755 -0.4784 -0.5428 -1.0914
  578MPD2    N1 8632   0.229   0.713   0.314  0.5018  0.1173  0.1873
  578MPD2    H7 8633   0.184   0.781   0.253  2.0202  1.7284  0.8525
  579TMC3    C1 8634   0.318   0.469   0.980  0.4845 -0.6307 -0.3230
  579TMC3    C2 8635   0.371   0.539   1.088 -0.2010  0.3516 -0.0439
  579TMC3    C3 8636   0.501   0.518   1.120  0.0649 -0.2919  0.4316
  579TMC3    C4 8637   0.385   0.361   0.915 -0.2945 -1.2104  0.1359
  579TMC3    C5 8638   0.503   0.332   0.979 -0.3182  0.1276 -0.4666
  579TMC3    C6 8639   0.571   0.413   1.063  0.3219 -0.2556  0.0657
  579TMC3     C 8640   0.210   0.540   0.911  0.3333  0.5943  0.0334
  579TMC3     O 8641   0.115   0.589   0.974 -0.3429  0.4816  0.0741
  579TMC3     H 8642   0.317   0.622   1.131 -2.0421 -0.9378  0.1183
  579TMC3    H1 8643   0.336   0.303   0.838 -1.2446  0.0862 -0.2360
  579TMC3    H2 8644   0.668   0.381   1.099  0.1298 -0.2337  0.6035
  579TMC3    C7 8645   0.547   0.193   0.975  0.1953 -0.4234  0.4249
  579TMC3    C8 8646   0.566   0.627   1.180 -0.5055  0.3125 -0.1325
  579TMC3    O1 8647   0.652   0.172   1.033 -0.1624  0.5574 -0.5329
  579TMC3    O2 8648   0.507   0.703   1.257 -0.1692  0.6439 -0.2314
  580TMC3    C1 8649   0.307   0.582  12.442  0.6579 -0.2139 -0.4162
  580TMC3    C2 8650   0.427   0.625  12.383 -1.1397  0.0764  0.0217
  580TMC3    C3 8651   0.529   0.535  12.363 -0.6303  0.5595  0.4628
  580TMC3    C4 8652   0.299   0.452  12.477 -0.1507  0.4165  0.1340
  580TMC3    C5 8653   0.412   0.368  12.463 -0.4528 -0.2727  0.8315
  580TMC3    C6 8654   0.533   0.408  12.407 -0.0235  0.1293  0.1255
  580TMC3     C 8655   0.185   0.662  12.435 -0.3037  0.5018 -0.3669
  580TMC3     O 8656   0.199   0.769  12.375  0.1043 -0.0791 -0.1412
  580TMC3     H 8657   0.425   0.710  12.316 -1.3169  0.1342  0.1000
  580TMC3    H1 8658   0.205   0.403  12.500  0.5711 -1.6914 -1.3097
  580TMC3    H2 8659   0.605   0.332  12.377 -1.0171 -0.6521 -0.2503
  580TMC3    C7 8660   0.389   0.227  12.503  0.6397  0.1372 -0.8882
  580TMC3    C8 8661   0.623   0.571  12.262  0.0920  0.4021  0.0997
  580TMC3    O1 8662   0.275   0.188  12.531  0.0681 -0.0664 -0.3946
  580TMC3    O2 8663   0.650   0.688  12.272 -0.3352  0.7387  0.4754
  581MPD2     C 8664   2.930   4.659  14.387 -0.5924  0.4883  0.9835
  581MPD2    C1 8665   2.938   4.715  14.513  0.0736 -0.0775  0.0161
  581MPD2    C2 8666   2.830   0.041  14.571  0.3480  0.1319  0.1347
  581MPD2    C3 8667   2.718   0.053  14.497  0.2222  0.0142  0.1316
  581MPD2    C4 8668   2.709   0.006  14.372 -0.4842 -0.9948 -0.1886
  581MPD2    C5 8669   2.816   4.678  14.315 -0.2961 -0.4317  0.9567
  581MPD2     H 8670   2.823   0.078  14.672  1.5013  0.6370  0.0212
  581MPD2    H1 8671   2.617   0.016  14.316 -1.1568  0.4430  1.1676
  581MPD2    H2 8672   3.010   4.608  14.334 -1.9700  0.4507 -1.0498
  581MPD2    H3 8673   2.813   4.648  14.210 -1.2730  1.0960  0.5507
  581MPD2     N 8674   2.599   0.107  14.544  0.2830  0.3989 -0.2296
  581MPD2    H5 8675   2.513   0.089  14.493 -0.7541  0.3957  1.5249
  581MPD2    N1 8676   3.052   4.678  14.589 -0.0349  0.3893 -0.3095
  581MPD2    H7 8677   3.127   4.620  14.553 -1.2090 -0.7748 -0.8859
  582TMC3    C1 8678   3.182   4.635  14.786 -0.0858 -0.1106 -0.2912
  582TMC3    C2 8679   3.196   4.654  14.922  0.0289 -0.3611 -0.5211
  582TMC3    C3 8680   3.255   4.554  14.989  0.0370  0.7092 -0.1868
  582TMC3    C4 8681   3.227   4.525  14.715  1.0929  0.1823 -0.4114
  582TMC3    C5 8682   3.263   4.416  14.793  0.1775  0.0847  1.1226
  582TMC3    C6 8683   3.291   4.438  14.924  0.0751 -0.3732  0.1857
  582TMC3     C 8684   3.068   4.713  14.726  0.6856 -0.6698  0.6944
  582TMC3     O 8685   3.003   0.054  14.797  0.6149  0.4335 -0.4693
  582TMC3     H 8686   3.161   0.010  14.969  0.8523 -1.2655  1.8361
  582TMC3    H1 8687   3.215   4.499  14.610 -1.2617 -2.7355  0.5999
  582TMC3    H2 8688   3.303   4.348  14.983 -1.1834 -1.0844 -0.6454
  582TMC3    C7 8689   3.263   4.280  14.741  0.1983 -0.3460  0.7225
  582TMC3    C8 8690   3.274   4.561  15.129  0.1371  0.0338  0.1569
  582TMC3    O1 8691   3.351   4.205  14.790  0.2745  0.1771  0.1909
  582TMC3    O2 8692   3.191   4.623  15.193  0.3789 -0.1863  0.4436
  583MPD2     C 8693   2.943   1.373  16.453 -0.3073 -0.3700 -0.5830
  583MPD2    C1 8694   2.890   1.491  16.386 -0.0718 -0.4448 -0.5859
  583MPD2    C2 8695   2.784   1.566  16.439  0.3194  0.4887 -0.1471
  583MPD2    C3 8696   2.726   1.523  16.556 -0.3444  0.2236  0.4065
  583MPD2    C4 8697   2.777   1.407  16.613  0.9204  0.1513  0.0437
  583MPD2    C5 8698   2.886   1.342  16.570  0.1949  0.8063  0.3463
  583MPD2     H 8699   2.750   1.652  16.382 -1.4353  0.5163  0.9567
  583MPD2    H1 8700   2.739   1.365  16.705 -2.4608  0.5564 -1.1854
  583MPD2    H2 8701   3.025   1.311  16.419 -0.0659 -1.7247  2.4568
  583MPD2    H3 8702   2.934   1.263  16.626 -1.5954  0.4843  1.4219
  583MPD2     N 8703   2.635   1.607  16.623  0.2501 -0.1655  0.0527
  583MPD2    H5 8704   2.626   1.705  16.598  0.5692  0.4153  2.1998
  583MPD2    N1 8705   2.937   1.535  16.264  0.1595 -0.3997  0.1239
  583MPD2    H7 8706   2.880   1.605  16.218  0.6452  1.3370  2.1349
  584TMC3    C1 8707   2.493   1.684  16.792 -0.4186 -0.9460  0.0913
  584TMC3    C2 8708   2.543   1.813  16.777  0.0799  0.3038 -0.1770
  584TMC3    C3 8709   2.490   1.907  16.857  0.2942 -0.1343  0.3784
  584TMC3    C4 8710   2.395   1.646  16.882 -0.4313 -0.0551 -0.0665
  584TMC3    C5 8711   2.346   1.746  16.959 -0.8958 -0.0365 -0.1123
  584TMC3    C6 8712   2.389   1.877  16.950 -0.1936 -0.3884  0.0730
  584TMC3     C 8713   2.562   1.574  16.734 -0.5820 -0.6808  0.0866
  584TMC3     O 8714   2.562   1.474  16.802  0.1722 -0.2188 -0.0164
  584TMC3     H 8715   2.625   1.835  16.710 -0.1187  0.4456 -0.3727
  584TMC3    H1 8716   2.368   1.543  16.902 -0.5675  0.6550  3.3114
  584TMC3    H2 8717   2.343   1.944  17.022 -1.5887 -0.3782 -0.8242
  584TMC3    C7 8718   2.238   1.706  17.046  0.2395  0.5106 -0.0429
  584TMC3    C8 8719   2.562   2.030  16.868 -0.2451 -0.4586  0.1311
  584TMC3    O1 8720   2.254   1.600  17.107  0.5232  0.0041  0.3419
  584TMC3    O2 8721   2.681   2.031  16.844 -0.0100  0.6427  0.1734
  585MPD2     C 8722   1.981   0.020   0.315  0.2548 -0.4318  0.6782
  585MPD2    C1 8723   2.022   0.065   0.194  0.4971  0.3208  0.1519
  585MPD2    C2 8724   2.041   4.710   0.092 -0.1949  0.4210 -0.2575
  585MPD2    C3 8725   2.043   4.577   0.118 -0.4217  0.7114 -0.4923
  585MPD2    C4 8726   2.010   4.527   0.243 -0.0031 -1.1251 -0.2523
  585MPD2    C5 8727   1.973   4.620   0.337 -0.4294  0.3028  0.3606
  585MPD2     H 8728   2.057   0.015  17.733 -1.4219  2.4379  0.3532
  585MPD2    H1 8729   2.025   4.423   0.268 -1.7249 -1.8748 -2.2921
  585MPD2    H2 8730   1.965   0.079   0.405  3.4156  0.0663  0.9131
  585MPD2    H3 8731   1.958   4.586   0.439 -2.2029 -0.5030 -0.1745
  585MPD2     N 8732   2.065   4.485   0.008  0.0199  0.4020  0.1562
  585MPD2    H5 8733   2.075   4.387   0.034  0.2424  0.3496 -0.1240
  585MPD2    N1 8734   2.043   0.202   0.178 -0.6818 -0.1739 -0.0479
  585MPD2    H7 8735   2.009   0.264   0.251 -1.4004 -1.4075  0.6561
  586TMC3    C1 8736   2.091   4.400  17.527  0.6499 -0.0658 -0.0143
  586TMC3    C2 8737   2.183   4.300  17.552  0.4135 -0.2586  1.1914
  586TMC3    C3 8738   2.199   4.205  17.462  0.1592 -0.6090  0.2500
  586TMC3    C4 8739   2.017   4.406  17.413  0.3407  0.4029  0.3515
  586TMC3    C5 8740   2.036   4.300  17.325 -0.2761 -0.2156 -1.3236
  586TMC3    C6 8741   2.125   4.198  17.352 -0.9472  0.0836  0.2596
  586TMC3     C 8742   2.075   4.517  17.612  0.1826  0.7490 -0.2305
  586TMC3     O 8743   2.036   4.617  17.553 -0.4344 -0.6435  0.3414
  586TMC3     H 8744   2.245   4.308  17.641  0.5530  0.0755  1.0678
  586TMC3    H1 8745   1.938   4.477  17.391  1.3770  2.1658  2.3413
  586TMC3    H2 8746   2.139   4.115  17.283 -0.0438 -0.3801  0.9912
  586TMC3    C7 8747   1.966   4.306  17.194 -0.1974  0.4030 -0.3618
  586TMC3    C8 8748   2.282   4.088  17.499 -0.8399  0.3064  0.3225
  586TMC3    O1 8749   1.961   4.199  17.137 -0.2360  0.0021 -0.0359
  586TMC3    O2 8750   2.261   3.993  17.427 -0.2745 -0.1183  0.2755
  587TMC3    C1 8751   4.458   4.293  15.633 -0.0865  0.2635  0.7895
  587TMC3    C2 8752   4.488   4.406  15.704  0.4007  1.1838 -0.5753
  587TMC3    C3 8753   4.616   4.431  15.744 -0.0744  0.0001  0.4976
  587TMC3    C4 8754   4.554   4.202  15.598 -0.2044  0.4603  0.3828
  587TMC3    C5 8755   4.685   4.249  15.618  0.0785 -0.3411 -0.4133
  587TMC3    C6 8756   4.716   4.351  15.696 -0.1454 -0.3459  0.0843
  587TMC3     C 8757   4.318   4.250  15.624 -0.0458 -0.2379 -0.3772
  587TMC3     O 8758   4.243   4.290  15.712 -0.0615 -0.2867 -0.6503
  587TMC3     H 8759   4.407   4.467  15.743 -0.1099 -0.2010  0.5480
  587TMC3    H1 8760   4.537   4.125  15.523 -0.2801  0.1338  0.7321
  587TMC3    H2 8761   0.086   4.376  15.695  0.0202 -1.0386  0.1955
  587TMC3    C7 8762   0.052   4.157  15.576  0.7386 -0.0578 -0.1182
  587TMC3    C8 8763   4.662   4.514  15.853  0.0376 -0.1151 -0.3929
  587TMC3    O1 8764   0.163   4.205  15.560 -0.0362 -0.1156  0.1889
  587TMC3    O2 8765   0.045   4.543  15.846 -0.1572  0.5811  0.3063
  588TMC3    C1 8766   1.237   1.468   9.743  0.5021 -0.5530 -0.2565
  588TMC3    C2 8767   1.208   1.337   9.775 -0.0566 -0.6836 -0.4659
  588TMC3    C3 8768   1.283   1.288   9.881 -0.0584 -0.5031 -0.6307
  588TMC3    C4 8769   1.346   1.534   9.794  0.2698  0.7037 -0.8012
  588TMC3    C5 8770   1.429   1.471   9.885  0.5101 -0.1770 -1.2268
  588TMC3    C6 8771   1.399   1.344   9.928 -0.1010  0.0771 -0.5301
  588TMC3     C 8772   1.130   1.536   9.675 -0.1019  0.2031 -0.5097
  588TMC3     O 8773   1.021   1.483   9.669 -0.0088 -0.2981 -0.0032
  588TMC3     H 8774   1.108   1.297   9.763  0.6177 -2.5884  0.2476
  588TMC3    H1 8775   1.350   1.642   9.782  1.6873  0.6514 -0.8057
  588TMC3    H2 8776   1.460   1.292  10.001 -0.3724  1.4789  0.7030
  588TMC3    C7 8777   1.513   1.555   9.965  0.2450  0.1966  0.6959
  588TMC3    C8 8778   1.258   1.147   9.910  0.3981  0.4481  0.7296
  588TMC3    O1 8779   1.539   1.511  10.076  0.0369 -0.2396 -0.4972
  588TMC3    O2 8780   1.195   1.086   9.827 -0.2375  0.2194  0.6350
  589TMC3    C1 8781   0.653   3.349   0.985  0.4717 -0.0525 -0.3740
  589TMC3    C2 8782   0.748   3.445   1.000 -0.1591 -0.3713 -0.1633
  589TMC3    C3 8783   0.872   3.417   0.935  0.4533  0.0752  0.0294
  589TMC3    C4 8784   0.682   3.227   0.933  0.5616  0.6159  0.2768
  589TMC3    C5 8785   0.809   3.206   0.876 -0.2417 -0.3694  0.1706
  589TMC3    C6 8786   0.907   3.303   0.880 -0.1583  0.6772  0.3064
  589TMC3     C 8787   0.536   3.352   1.068  0.4659  0.4102 -0.1780
  589TMC3     O 8788   0.495   3.245   1.100  0.1013 -0.4587 -0.3598
  589TMC3     H 8789   0.731   3.536   1.055  0.5472  0.2023 -0.8950
  589TMC3    H1 8790   0.606   3.150   0.924 -0.9068  1.8613  2.0995
  589TMC3    H2 8791   0.988   3.311   0.809 -1.3149  0.0009 -1.0841
  589TMC3    C7 8792   0.826   3.080   0.804 -0.4354  0.1328 -0.3819
  589TMC3    C8 8793   0.959   3.533   0.938 -0.2563  0.1251 -0.2194
  589TMC3    O1 8794   0.726   3.022   0.770  0.5673 -0.1914 -0.6663
  589TMC3    O2 8795   0.920   3.633   0.990 -0.0172  0.2066  0.1349
  590MPD2     C 8796   0.412   2.505  16.520 -0.3489 -0.6331 -0.0186
  590MPD2    C1 8797   0.363   2.515  16.394 -0.5911 -0.0279  0.3190
  590MPD2    C2 8798   0.452   2.533  16.291  0.7765  0.0197  0.0119
  590MPD2    C3 8799   0.587   2.525  16.316  0.2823  0.0566  0.1072
  590MPD2    C4 8800   0.636   2.503  16.444  0.9020  0.5976 -0.6631
  590MPD2    C5 8801   0.547   2.505  16.547 -0.0683 -0.0613 -1.2511
  590MPD2     H 8802   0.416   2.554  16.191 -0.7990 -0.3629  0.5037
  590MPD2    H1 8803   0.744   2.495  16.450  0.9071  1.4844  0.4225
  590MPD2    H2 8804   0.356   2.476  16.608 -2.3823 -2.1407 -1.8121
  590MPD2    H3 8805   0.594   2.492  16.644 -2.0737 -0.0468 -0.2903
  590MPD2     N 8806   0.674   2.533  16.206 -0.1222 -0.3660 -0.1746
  590MPD2    H5 8807   0.632   2.517  16.115 -0.1871 -0.5683 -0.1107
  590MPD2    N1 8808   0.222   2.519  16.372 -0.5297 -0.0800  0.1675
  590MPD2    H7 8809   0.167   2.511  16.457  1.6445 -0.6763  1.5301
  591TMC3    C1 8810   0.862   2.616  16.082 -0.9607 -0.2701 -0.7961
  591TMC3    C2 8811   0.785   2.575  15.976  0.7075  0.2158  0.1346
  591TMC3    C3 8812   0.792   2.664  15.873  0.1231  0.1854 -0.4636
  591TMC3    C4 8813   0.933   2.736  16.088 -0.3354 -0.0435 -0.7703
  591TMC3    C5 8814   0.931   2.820  15.983  0.8326  0.2472  0.3719
  591TMC3    C6 8815   0.861   2.783  15.872 -0.3133 -0.3240 -0.0282
  591TMC3     C 8816   0.806   2.579  16.214 -0.0303  0.3897 -0.3789
  591TMC3     O 8817   0.865   2.617  16.312  0.4946  0.0767 -0.7103
  591TMC3     H 8818   0.740   2.476  15.972  1.9480 -0.4358  2.2523
  591TMC3    H1 8819   0.990   2.768  16.174 -0.5318 -0.5464 -0.4580
  591TMC3    H2 8820   0.859   2.845  15.783 -0.0556 -0.7095 -0.3077
  591TMC3    C7 8821   0.890   2.951  16.008 -0.0147 -0.4666 -0.1124
  591TMC3    C8 8822   0.771   2.606  15.746  0.9094  0.4629 -0.4350
  591TMC3    O1 8823   0.831   2.965  16.112 -0.3163 -0.4057  0.8223
  591TMC3    O2 8824   0.787   2.488  15.737  0.1908  0.2884 -0.0620
  592MPD2     C 8825   0.897   4.435  11.959 -0.0420  0.1458 -0.8527
  592MPD2    C1 8826   0.895   4.507  12.080 -0.4872 -0.0497  0.1126
  592MPD2    C2 8827   0.879   4.437  12.202  0.1910  0.7173 -0.1220
  592MPD2    C3 8828   0.832   4.306  12.200  0.0714  0.2430 -0.1013
  592MPD2    C4 8829   0.809   4.243  12.081 -0.6226  0.0170 -0.7907
  592MPD2    C5 8830   0.847   4.312  11.966  0.5640  0.3572 -0.3093
  592MPD2     H 8831   0.884   4.479  12.301 -0.2697 -0.9737  0.6329
  592MPD2    H1 8832   0.786   4.138  12.072  1.9573 -0.6042 -0.1756
  592MPD2    H2 8833   0.927   4.476  11.863  0.8847  0.5726 -0.3873
  592MPD2    H3 8834   0.839   4.258  11.873  0.5577 -0.0127 -0.0934
  592MPD2     N 8835   0.818   4.219  12.313  0.1145 -0.2472 -0.4544
  592MPD2    H5 8836   0.780   4.125  12.300  2.9502 -1.4117 -0.3604
  592MPD2    N1 8837   0.914   4.647  12.070  0.2208 -0.0713  0.1623
  592MPD2    H7 8838   0.933   4.678  11.975 -2.6817  1.4918  0.1082
  593TMC3    C1 8839   0.960   0.133  12.129  0.5123 -0.7559 -0.3575
  593TMC3    C2 8840   0.946   0.230  12.224  0.5121  0.4633  0.2693
  593TMC3    C3 8841   1.012   0.346  12.200 -0.2148 -0.3514 -0.0085
  593TMC3    C4 8842   1.036   0.144  12.013  0.1689 -0.0951 -0.0484
  593TMC3    C5 8843   1.090   0.266  11.989 -0.2674  0.6177  0.4054
  593TMC3    C6 8844   1.077   0.367  12.082  0.6991 -0.1169  0.1863
  593TMC3     C 8845   0.909   0.008  12.171  0.1735  0.0781 -0.0542
  593TMC3     O 8846   0.866   4.733  12.283  0.6738  0.3262  0.2654
  593TMC3     H 8847   0.887   0.219  12.314  0.6843 -1.0621  0.1928
  593TMC3    H1 8848   1.054   0.068  11.938  0.1541  0.2110 -0.3608
  593TMC3    H2 8849   1.118   0.465  12.059  1.2300 -0.7244 -1.4745
  593TMC3    C7 8850   1.141   0.308  11.866 -0.4760 -0.0299 -0.6025
  593TMC3    C8 8851   1.010   0.458  12.294  0.2197 -0.1269  0.1408
  593TMC3    O1 8852   1.204   0.408  11.859 -0.9583  0.2186 -0.3880
  593TMC3    O2 8853   0.925   0.449  12.384  0.3242 -0.2909 -0.5646
  594MPD2     C 8854   0.127   3.263  14.940  0.1742 -0.3253  0.3731
  594MPD2    C1 8855   0.041   3.309  14.847 -0.5502 -0.1844 -0.3351
  594MPD2    C2 8856   0.088   3.405  14.757  0.2642  1.0896 -0.1545
  594MPD2    C3 8857   0.216   3.450  14.767 -0.3145  1.0519  0.1514
  594MPD2    C4 8858   0.305   3.391  14.852  0.7030  0.1599 -0.1673
  594MPD2    C5 8859   0.260   3.295  14.935 -0.2892  0.0394  0.8978
  594MPD2     H 8860   0.022   3.456  14.687  1.5995  0.9372 -1.5237
  594MPD2    H1 8861   0.408   3.421  14.861  0.5763 -0.0264  1.8991
  594MPD2    H2 8862   0.099   3.175  14.998 -0.2818 -0.2482  0.2707
  594MPD2    H3 8863   0.328   3.262  15.012  1.2527 -1.8156 -1.2400
  594MPD2     N 8864   0.256   3.561  14.686 -1.0001 -1.0815 -0.0280
  594MPD2    H5 8865   0.193   3.586  14.611 -0.6346 -2.4404 -0.7699
  594MPD2    N1 8866   4.646   3.258  14.851  0.0585 -0.2229 -0.0220
  594MPD2    H7 8867   4.609   3.208  14.931  0.3511 -0.8596 -0.2832
  595TMC3    C1 8868   0.525   3.839  14.449  0.1367 -0.1909  0.0505
  595TMC3    C2 8869   0.521   3.737  14.529 -0.5094  0.5023 -0.7038
  595TMC3    C3 8870   0.390   3.718  14.581  0.7109 -0.1158  0.4940
  595TMC3    C4 8871   0.420   3.923  14.413  0.0186 -0.0539  0.4176
  595TMC3    C5 8872   0.300   3.891  14.466 -0.3915  0.5496 -0.2921
  595TMC3    C6 8873   0.284   3.792  14.553  0.0262  0.8589  0.1743
  595TMC3     C 8874   0.656   3.905  14.433 -0.0470 -0.1357 -0.4642
  595TMC3     O 8875   0.656   4.023  14.425 -0.2222  0.2168 -0.3757
  595TMC3     H 8876   0.603   3.678  14.567 -0.5872  0.6761 -0.2725
  595TMC3    H1 8877   0.442   4.006  14.347  2.5875 -0.2394  1.0256
  595TMC3    H2 8878   0.196   3.775  14.613 -0.2993  1.5640 -0.1002
  595TMC3    C7 8879   0.182   3.959  14.426  0.3761 -0.5529  0.7375
  595TMC3    C8 8880   0.379   3.611  14.675  0.2382 -0.2141 -0.4280
  595TMC3    O1 8881   0.084   3.951  14.494 -0.0467 -0.0015  0.4955
  595TMC3    O2 8882   0.479   3.586  14.735  0.1596 -0.3516  0.3390
  596MPD2     C 8883   3.498   1.559  16.878  0.1686 -0.1860 -0.0439
  596MPD2    C1 8884   3.471   1.676  16.810 -0.1545 -0.0101  0.3510
  596MPD2    C2 8885   3.545   1.709  16.697 -0.4565 -0.3092  0.0392
  596MPD2    C3 8886   3.649   1.628  16.652  0.2463 -0.0821  0.3156
  596MPD2    C4 8887   3.670   1.514  16.727  0.0986 -0.1380  0.3188
  596MPD2    C5 8888   3.585   1.471  16.830 -0.0484  0.0696  0.0630
  596MPD2     H 8889   3.526   1.806  16.652 -0.4228 -0.0185  0.6488
  596MPD2    H1 8890   3.747   1.442  16.702 -0.5367 -0.3142 -1.1164
  596MPD2    H2 8891   3.440   1.528  16.964  1.7948  1.7251  1.7785
  596MPD2    H3 8892   3.616   1.385  16.888 -2.0673 -1.1842 -0.7506
  596MPD2     N 8893   3.727   1.646  16.533 -0.0317  0.4377 -0.8227
  596MPD2    H5 8894   3.790   1.568  16.517  0.7334  1.1898 -1.4934
  596MPD2    N1 8895   3.372   1.772  16.861 -0.2250 -0.1984 -0.3512
  596MPD2    H7 8896   3.371   1.860  16.811  1.3291  1.5006  2.6313
  597TMC3    C1 8897   3.182   1.858  16.989  0.3981 -0.4274  0.7094
  597TMC3    C2 8898   3.177   1.959  16.898  0.2143  0.2296 -0.3897
  597TMC3    C3 8899   3.078   2.051  16.926  0.3666  0.1283 -0.2994
  597TMC3    C4 8900   3.081   1.835  17.086  0.4406  0.4542  0.1191
  597TMC3    C5 8901   2.984   1.932  17.101 -0.6625  0.1111  0.7357
  597TMC3    C6 8902   2.982   2.037  17.018  0.3313  0.3587 -0.0979
  597TMC3     C 8903   3.277   1.751  16.967  1.0251 -1.2415 -0.5624
  597TMC3     O 8904   3.263   1.644  17.026 -0.5655 -0.1701  0.1500
  597TMC3     H 8905   3.238   1.965  16.808  0.9109  0.9919  0.1381
  597TMC3    H1 8906   3.088   1.744  17.145  1.9407  0.0851 -0.6323
  597TMC3    H2 8907   2.896   2.102  17.012 -0.7142 -0.9711  0.5745
  597TMC3    C7 8908   2.868   1.888  17.179 -0.6891  0.0527 -0.0294
  597TMC3    C8 8909   3.090   2.176  16.862  0.6144 -0.3343 -0.0076
  597TMC3    O1 8910   2.887   1.800  17.264  0.5275  0.5087 -0.4042
  597TMC3    O2 8911   2.998   2.254  16.882  0.3745  0.0209 -0.4137
  598TMC3    C1 8912   2.178   3.105  15.602 -0.0584  0.3837 -0.2408
  598TMC3    C2 8913   2.075   3.019  15.598 -0.3481  0.2815 -0.1084
  598TMC3    C3 8914   2.049   2.957  15.484 -0.6641  0.5731 -0.0768
  598TMC3    C4 8915   2.261   3.123  15.488 -1.0434  0.1160 -0.7575
  598TMC3    C5 8916   2.221   3.063  15.370 -0.0993 -0.2575 -0.0000
  598TMC3    C6 8917   2.120   2.973  15.371 -0.0975 -0.8434 -0.1438
  598TMC3     C 8918   2.210   3.147  15.741 -0.5473 -0.2173  0.6845
  598TMC3     O 8919   2.327   3.174  15.756  0.4647  0.1107 -0.1481
  598TMC3     H 8920   2.018   3.007  15.689  0.1956 -0.5807  0.1240
  598TMC3    H1 8921   2.348   3.187  15.497 -0.1992 -1.0230 -0.8955
  598TMC3    H2 8922   2.088   2.916  15.284  0.2486 -1.0157 -0.1570
  598TMC3    C7 8923   2.333   3.047  15.279 -0.1113 -0.3381  0.3600
  598TMC3    C8 8924   1.935   2.862  15.479  0.1977  0.0897 -0.5634
  598TMC3    O1 8925   2.363   2.931  15.244 -0.5298  0.5732 -0.1699
  598TMC3    O2 8926   1.915   2.797  15.375  0.1762  0.7093 -0.3142
  599MPD2     C 8927   2.053   0.684  15.912  0.8389 -0.4366  0.7532
  599MPD2    C1 8928   2.101   0.580  15.985  0.0700  0.1882  0.5433
  599MPD2    C2 8929   2.038   0.546  16.100  0.7968  0.7147  0.0959
  599MPD2    C3 8930   1.918   0.612  16.134 -0.3253 -0.4485  0.1690
  599MPD2    C4 8931   1.862   0.702  16.046 -0.5262 -0.8175 -0.1150
  599MPD2    C5 8932   1.934   0.742  15.939  0.6005  0.2853  0.1161
  599MPD2     H 8933   2.080   0.467  16.162  0.5280 -1.9506 -3.1200
  599MPD2    H1 8934   1.771   0.752  16.078  0.2324 -0.9241  2.2424
  599MPD2    H2 8935   2.115   0.709  15.827 -1.0069 -0.9150 -0.7221
  599MPD2    H3 8936   1.894   0.820  15.874  1.5767  1.2638  0.6810
  599MPD2     N 8937   1.846   0.580  16.252  0.5656 -0.7084  0.4070
  599MPD2    H5 8938   1.771   0.642  16.281  0.6471 -0.0229 -0.8750
  599MPD2    N1 8939   2.216   0.510  15.936  0.0918 -0.1591  0.3798
  599MPD2    H7 8940   2.251   0.542  15.846 -0.1536  0.9746  0.6870
  600TMC3    C1 8941   1.763   0.445  16.422  0.6029 -0.8112  0.3191
  600TMC3    C2 8942   1.687   0.331  16.401 -1.3136 -1.1211  0.3485
  600TMC3    C3 8943   1.554   0.328  16.434 -0.5252  0.0150 -0.3133
  600TMC3    C4 8944   1.708   0.548  16.491 -0.3073 -0.4581  0.3131
  600TMC3    C5 8945   1.573   0.543  16.520  0.4363  0.7012  0.0799
  600TMC3    C6 8946   1.494   0.441  16.478  0.3649 -0.2305 -0.3668
  600TMC3     C 8947   1.866   0.465  16.325  0.1067  0.3708 -0.1137
  600TMC3     O 8948   1.921   0.359  16.298 -0.0034  0.3509 -0.4531
  600TMC3     H 8949   1.714   0.255  16.328  1.6780  1.4502 -1.1858
  600TMC3    H1 8950   1.771   0.633  16.515 -2.3233  1.1540 -0.0793
  600TMC3    H2 8951   1.391   0.445  16.510  0.1634  1.4896 -1.1850
  600TMC3    C7 8952   1.514   0.653  16.598  0.2776 -0.2967 -0.2284
  600TMC3    C8 8953   1.481   0.211  16.389 -0.2279 -0.0939  0.3946
  600TMC3    O1 8954   1.400   0.638  16.623 -0.1293 -0.3863  0.1791
  600TMC3    O2 8955   1.530   0.099  16.385  0.1492 -0.3622  0.5026
  601MPD2     C 8956   3.660   3.760   0.320 -0.6447  0.7999 -0.1043
  601MPD2    C1 8957   3.632   3.720   0.192  0.8247 -0.4110  0.1881
  601MPD2    C2 8958   3.618   3.581   0.164  0.0054  0.7578 -0.3969
  601MPD2    C3 8959   3.617   3.481   0.262 -0.4475 -0.0410 -0.0231
  601MPD2    C4 8960   3.630   3.526   0.391  0.0885  0.2221  0.5574
  601MPD2    C5 8961   3.655   3.660   0.416  0.0393  0.6161  0.4655
  601MPD2     H 8962   3.606   3.555   0.060  1.6300 -0.9348 -0.1607
  601MPD2    H1 8963   3.620   3.455   0.472 -2.1584 -0.6942 -0.5388
  601MPD2    H2 8964   3.678   3.861   0.356 -1.3525  0.6384  0.7077
  601MPD2    H3 8965   3.669   3.691   0.519 -0.2346  1.3389  0.2851
  601MPD2     N 8966   3.583   3.342   0.249  0.0541 -0.7380 -0.6195
  601MPD2    H5 8967   3.586   3.291   0.336 -0.3675  2.2456  1.1174
  601MPD2    N1 8968   3.624   3.811   0.085 -0.0075  0.7365 -0.2176
  601MPD2    H7 8969   3.601   3.772  17.734 -0.9445 -1.0844  0.8138
  602TMC3    C1 8970   3.619   4.005  17.690 -0.3435 -0.6012  1.1202
  602TMC3    C2 8971   3.714   4.092  17.644 -0.2389  0.3592  0.3351
  602TMC3    C3 8972   3.740   4.106  17.505  0.4137 -0.1663 -0.2257
  602TMC3    C4 8973   3.542   3.925  17.607 -0.4526 -0.2735 -0.1958
  602TMC3    C5 8974   3.573   3.942  17.479  0.0412  0.0368 -0.0595
  602TMC3    C6 8975   3.666   4.021  17.421  0.5781 -0.1115  0.8719
  602TMC3     C 8976   3.649   3.950   0.081 -0.3744  0.7471 -1.0910
  602TMC3     O 8977   3.729   4.008   0.153  0.3805  0.0194 -0.1292
  602TMC3     H 8978   3.775   4.149  17.714  1.1699  0.3911 -0.9242
  602TMC3    H1 8979   3.472   3.851  17.644 -0.1194  0.4160  1.8442
  602TMC3    H2 8980   3.709   4.005  17.323 -0.3446 -0.8762  0.5964
  602TMC3    C7 8981   3.498   3.864  17.379 -0.2869  0.3666 -0.2150
  602TMC3    C8 8982   3.831   4.208  17.457 -0.7750 -0.2134  0.0227
  602TMC3    O1 8983   3.456   3.750  17.401 -0.2831 -0.1417 -0.2875
  602TMC3    O2 8984   3.949   4.203  17.488  0.0299  0.2569 -0.2092
  603TMC3    C1 8985   1.424   3.964  11.116  0.1999  1.0722 -0.5283
  603TMC3    C2 8986   1.509   3.940  11.222 -0.0134  0.2801 -0.2221
  603TMC3    C3 8987   1.615   4.023  11.219 -0.6286  0.2662 -0.4551
  603TMC3    C4 8988   1.448   4.056  11.018 -0.1525  0.2413 -0.3159
  603TMC3    C5 8989   1.563   4.128  11.022 -0.5521 -0.0819  0.2207
  603TMC3    C6 8990   1.646   4.124  11.131  0.4415  0.4527  0.3267
  603TMC3     C 8991   1.289   3.906  11.118 -0.0837 -0.1771 -0.2619
  603TMC3     O 8992   1.275   3.795  11.171  0.3569 -0.8905  0.2934
  603TMC3     H 8993   1.485   3.865  11.295 -0.4488 -0.4660 -1.1280
  603TMC3    H1 8994   1.384   4.051  10.931 -0.4364 -0.8974 -0.0368
  603TMC3    H2 8995   1.743   4.173  11.121  0.3209  0.9418  1.5574
  603TMC3    C7 8996   1.593   4.221  10.917 -0.2151 -0.4843 -0.6604
  603TMC3    C8 8997   1.706   4.021  11.327  0.1671  0.6223 -0.4107
  603TMC3    O1 8998   1.707   4.265  10.911  0.1208 -0.1303  0.3209
  603TMC3    O2 8999   1.734   3.913  11.378 -0.1720 -0.4541 -0.2449
  604MPD2     C 9000   2.627   3.048  15.578 -0.4404 -0.6749  0.0894
  604MPD2    C1 9001   2.572   2.926  15.614  0.5211  0.1082 -0.0587
  604MPD2    C2 9002   2.624   2.805  15.569  0.1097 -0.2472 -0.7435
  604MPD2    C3 9003   2.746   2.815  15.497  0.6759  0.4321  0.8503
  604MPD2    C4 9004   2.802   2.938  15.468  0.4384  0.3127  0.0063
  604MPD2    C5 9005   2.743   3.051  15.512  0.1198  0.4208  0.0293
  604MPD2     H 9006   2.576   2.712  15.596  0.4665  0.4569  2.2991
  604MPD2    H1 9007   2.893   2.959  15.414 -0.5346  2.0565 -0.9462
  604MPD2    H2 9008   2.588   3.146  15.604  1.5248  0.3990 -1.0174
  604MPD2    H3 9009   2.790   3.147  15.498  2.7420 -0.7998  0.4372
  604MPD2     N 9010   2.814   2.702  15.461  0.6787  0.3003 -0.2804
  604MPD2    H5 9011   2.756   2.618  15.455  2.7839 -1.0660 -1.5021
  604MPD2    N1 9012   2.460   2.930  15.703 -0.5225  0.6234  0.0534
  604MPD2    H7 9013   2.447   3.018  15.752  3.2767  0.6655  0.9387
  605TMC3    C1 9014   2.322   2.861  15.869 -0.0315 -0.3518 -0.6077
  605TMC3    C2 9015   2.402   2.918  15.969  0.2580  0.3060 -0.2042
  605TMC3    C3 9016   2.345   2.946  16.090  0.2111  0.6879  0.0907
  605TMC3    C4 9017   2.189   2.824  15.888 -0.3670 -0.4038  0.0154
  605TMC3    C5 9018   2.145   2.844  16.015  0.7339  0.4113 -0.4059
  605TMC3    C6 9019   2.215   2.908  16.115 -0.9734 -0.3405 -0.7360
  605TMC3     C 9020   2.383   2.831  15.744  0.3751 -0.5786  0.4497
  605TMC3     O 9021   2.374   2.722  15.694  0.2482  0.6429 -0.1676
  605TMC3     H 9022   2.507   2.937  15.955  0.5202 -0.4510  0.7238
  605TMC3    H1 9023   2.128   2.771  15.816  0.5249  0.5232 -1.4128
  605TMC3    H2 9024   2.166   2.941  16.206  1.2741 -0.1450  0.4012
  605TMC3    C7 9025   2.000   2.856  16.011 -0.4800 -0.4019  0.3788
  605TMC3    C8 9026   2.427   2.966  16.204 -0.5050 -0.4379  0.2955
  605TMC3    O1 9027   1.950   2.886  15.904 -0.4007 -0.1161 -0.0315
  605TMC3    O2 9028   2.398   2.899  16.304  0.1511 -0.1888  0.1750
  606TMC3    C1 9029   3.413   0.693   0.349  0.1619 -0.2304 -1.0310
  606TMC3    C2 9030   3.535   0.723   0.413 -0.3062  0.6253  0.4809
  606TMC3    C3 9031   3.644   0.659   0.362  0.0249 -0.2049 -0.8901
  606TMC3    C4 9032   3.402   0.614   0.244 -0.4456  0.6113 -0.5482
  606TMC3    C5 9033   3.515   0.554   0.196  0.5504  0.8299 -0.1129
  606TMC3    C6 9034   3.638   0.575   0.251 -0.2347 -0.0490 -0.6421
  606TMC3     C 9035   3.297   0.775   0.389  0.8991  0.4677 -0.6470
  606TMC3     O 9036   3.191   0.724   0.370 -0.1825  0.2073 -0.1320
  606TMC3     H 9037   3.531   0.774   0.509  0.0552  0.7118  0.4495
  606TMC3    H1 9038   3.309   0.592   0.193 -0.6477 -0.3143  0.2084
  606TMC3    H2 9039   3.722   0.511   0.225 -0.1080 -0.6367  1.1812
  606TMC3    C7 9040   3.506   0.481   0.076 -0.5023 -0.5554  0.1908
  606TMC3    C8 9041   3.759   0.677   0.438  0.0127 -0.3131 -0.4952
  606TMC3    O1 9042   3.576   0.387   0.063 -0.6813 -0.3690  0.6960
  606TMC3    O2 9043   3.768   0.785   0.500  0.2929  0.8245  0.3080
  607MPD2     C 9044   1.135   3.759  12.384 -0.8619 -0.0133 -0.2212
  607MPD2    C1 9045   1.246   3.846  12.392 -0.3848  0.4631 -0.2443
  607MPD2    C2 9046   1.360   3.791  12.451  0.3828 -0.0076  0.3360
  607MPD2    C3 9047   1.369   3.665  12.503  0.3103  0.3412  0.1097
  607MPD2    C4 9048   1.255   3.591  12.490 -0.4236 -0.3015 -0.4173
  607MPD2    C5 9049   1.136   3.636  12.440  0.1405  0.2753  0.8143
  607MPD2     H 9050   1.440   3.859  12.474  0.2994  0.8737 -2.0088
  607MPD2    H1 9051   1.266   3.489  12.525 -0.6500 -0.6833 -1.4764
  607MPD2    H2 9052   1.042   3.801  12.348  0.0734  0.6869 -1.8435
  607MPD2    H3 9053   1.053   3.568  12.427  1.1949 -0.9345  0.3711
  607MPD2     N 9054   1.486   3.636  12.567  0.4049  0.4632 -0.6449
  607MPD2    H5 9055   1.537   3.714  12.606 -0.0766  0.2209  0.4575
  607MPD2    N1 9056   1.253   3.980  12.347 -0.4588 -0.2970  0.3408
  607MPD2    H7 9057   1.337   4.036  12.364 -0.3667 -0.2464 -0.2960
  608TMC3    C1 9058   1.207   4.181  12.260 -0.5029  0.4182 -0.4018
  608TMC3    C2 9059   1.280   4.229  12.366  0.2646 -0.0779  0.7951
  608TMC3    C3 9060   1.335   4.357  12.353 -0.5775 -0.2627  0.0431
  608TMC3    C4 9061   1.194   4.241  12.144  0.3128 -0.8374  0.1212
  608TMC3    C5 9062   1.256   4.364  12.125  0.1418 -0.6478 -0.3277
  608TMC3    C6 9063   1.324   4.423  12.228 -0.2270 -0.3306 -0.0585
  608TMC3     C 9064   1.167   4.038  12.260 -0.2706 -0.2862  0.5347
  608TMC3     O 9065   1.070   4.004  12.192 -0.3197 -0.8957  0.0658
  608TMC3     H 9066   1.271   4.176  12.460  1.7169 -0.4686  0.7203
  608TMC3    H1 9067   1.122   4.197  12.076  0.6370  1.1851 -1.5346
  608TMC3    H2 9068   1.390   4.509  12.222 -1.5238  0.7192  0.8875
  608TMC3    C7 9069   1.232   4.443  12.002 -0.5608 -0.2035 -1.0298
  608TMC3    C8 9070   1.455   4.388  12.430 -0.3564 -0.2243 -0.2422
  608TMC3    O1 9071   1.220   4.386  11.895 -0.0389  0.1983  0.5456
  608TMC3    O2 9072   1.483   4.509  12.436  0.1783  0.6541 -0.3892
  609TMC3    C1 9073   3.217   3.915   9.293 -0.0958 -0.6104  0.2708
  609TMC3    C2 9074   3.215   4.011   9.198 -0.1194 -0.3312 -1.0346
  609TMC3    C3 9075   3.281   3.991   9.079  0.3034 -0.5368  0.3391
  609TMC3    C4 9076   3.310   3.814   9.287 -0.2290 -0.2126  0.3391
  609TMC3    C5 9077   3.391   3.805   9.179 -0.1879 -0.9703 -0.2617
  609TMC3    C6 9078   3.386   3.894   9.072  0.3208 -0.3288 -1.3783
  609TMC3     C 9079   3.146   3.938   9.418 -0.4670  0.5259 -0.2869
  609TMC3     O 9080   3.179   3.862   9.513  0.0355 -0.3822 -0.5781
  609TMC3     H 9081   3.145   4.094   9.202  0.1184 -0.2169  0.7305
  609TMC3    H1 9082   3.297   3.749   9.372 -1.7281  0.2308  0.4527
  609TMC3    H2 9083   3.431   3.871   8.977  2.5405 -0.2896 -0.3322
  609TMC3    C7 9084   3.474   3.686   9.171 -1.2466 -0.2285  0.4363
  609TMC3    C8 9085   3.283   4.091   8.973 -0.0341 -0.5215 -0.2672
  609TMC3    O1 9086   3.585   3.694   9.114 -0.5462  0.4185  0.6959
  609TMC3    O2 9087   3.375   4.099   8.895 -0.0672  0.2017 -0.2934
  610TMC3    C1 9088   1.653   4.548  13.041 -0.8418  0.4605 -0.3420
  610TMC3    C2 9089   1.595   4.621  12.944  0.0669 -0.6268  0.2410
  610TMC3    C3 9090   1.533   4.555  12.835  0.5277 -0.5455 -0.5712
  610TMC3    C4 9091   1.638   4.410  13.037  0.0837  0.1728 -0.1167
  610TMC3    C5 9092   1.591   4.352  12.919  0.2428 -0.2024 -1.4696
  610TMC3    C6 9093   1.528   4.424  12.820  0.1206  0.4428 -0.4717
  610TMC3     C 9094   1.653   4.602  13.175  0.4631 -0.4097 -0.3476
  610TMC3     O 9095   1.668   4.522  13.269 -0.0323 -0.1695 -0.3485
  610TMC3     H 9096   1.589   4.729  12.939 -0.0262 -0.7065 -1.4026
  610TMC3    H1 9097   1.657   4.345  13.121  2.3991  3.0292  1.5806
  610TMC3    H2 9098   1.484   4.367  12.739 -1.0524  1.1170 -0.3010
  610TMC3    C7 9099   1.565   4.208  12.914 -0.0229 -0.1270 -0.6817
  610TMC3    C8 9100   1.481   4.643  12.740  1.1526  0.5460  0.0866
  610TMC3    O1 9101   1.471   4.168  12.852 -0.3393  0.2169 -0.2620
  610TMC3    O2 9102   1.523   0.024  12.729  0.0045  0.1404  0.2259
  611MPD2     C 9103   0.290   4.421  10.446 -0.0584  0.5895 -0.4923
  611MPD2    C1 9104   0.385   4.342  10.508  0.2636  1.0755 -0.4127
  611MPD2    C2 9105   0.513   4.349  10.456 -0.9692  0.4128 -0.9172
  611MPD2    C3 9106   0.546   4.417  10.338  0.2741  0.5637 -0.1495
  611MPD2    C4 9107   0.445   4.491  10.277  0.0443  0.4799  0.0298
  611MPD2    C5 9108   0.322   4.492  10.335 -0.2010  0.0985 -0.0101
  611MPD2     H 9109   0.586   4.276  10.490 -0.7882  1.1721  0.3192
  611MPD2    H1 9110   0.451   4.548  10.185 -0.5306  0.5119  0.0131
  611MPD2    H2 9111   0.189   4.426  10.486  0.2430  1.4087  0.1784
  611MPD2    H3 9112   0.242   4.541  10.281 -0.1312  0.5555  0.3059
  611MPD2     N 9113   0.671   4.422  10.280 -0.3387  0.7307  0.3057
  611MPD2    H5 9114   0.674   4.474  10.192 -0.6376  0.2010 -0.0171
  611MPD2    N1 9115   0.354   4.264  10.620  0.6389 -0.6241  0.4868
  611MPD2    H7 9116   0.259   4.280  10.654  0.4937 -1.1155  0.3164
  612TMC3    C1 9117   0.896   4.389  10.240  0.0578  0.4298  0.6215
  612TMC3    C2 9118   1.013   4.382  10.309 -0.1681  0.0904  0.8610
  612TMC3    C3 9119   1.124   4.426  10.242 -0.6259 -0.1170  0.5784
  612TMC3    C4 9120   0.887   4.444  10.114  0.5825 -0.1258 -0.2490
  612TMC3    C5 9121   1.001   4.489  10.053  0.5131  1.0133  0.0019
  612TMC3    C6 9122   1.122   4.476  10.115 -0.0992  0.1434  0.2908
  612TMC3     C 9123   0.783   4.361  10.324 -0.8919 -0.0249  0.6305
  612TMC3     O 9124   0.799   4.301  10.431 -0.2615  0.6183 -0.6536
  612TMC3     H 9125   1.013   4.366  10.416 -3.7566  1.2823  1.0551
  612TMC3    H1 9126   0.789   4.454  10.068  0.4536  1.4241  0.3690
  612TMC3    H2 9127   1.208   4.516  10.062 -1.3549 -1.3704 -2.8742
  612TMC3    C7 9128   1.003   4.551   9.919  0.2994 -1.0333 -1.3352
  612TMC3    C8 9129   1.257   4.443  10.307 -1.0028 -0.2021  0.2151
  612TMC3    O1 9130   1.100   4.620   9.894  0.4382 -0.3367 -0.0393
  612TMC3    O2 9131   1.336   4.515  10.243  0.0664 -0.1820 -0.1635
  613MPD2     C 9132   0.336   2.037  16.506 -0.3359 -0.0500 -0.0094
  613MPD2    C1 9133   0.339   1.914  16.436 -0.2852  0.0905 -0.5032
  613MPD2    C2 9134   0.265   1.803  16.493  0.0089  0.3244 -0.1011
  613MPD2    C3 9135   0.181   1.826  16.601 -0.8841 -0.0392  0.2058
  613MPD2    C4 9136   0.174   1.949  16.662 -0.7745  0.1199 -0.0182
  613MPD2    C5 9137   0.248   2.055  16.615 -0.4741 -0.2559  0.4420
  613MPD2     H 9138   0.266   1.705  16.448  2.3505  0.4858 -0.4256
  613MPD2    H1 9139   0.107   1.970  16.745 -2.4208  1.3199 -1.6402
  613MPD2    H2 9140   0.389   2.128  16.479 -0.9880 -0.0169 -1.1906
  613MPD2    H3 9141   0.238   2.153  16.660  0.0936 -1.0128  2.2189
  613MPD2     N 9142   0.096   1.720  16.629 -0.4941 -0.2547  0.3483
  613MPD2    H5 9143   0.115   1.638  16.572 -0.5362  0.8351 -1.2355
  613MPD2    N1 9144   0.410   1.911  16.318  0.6545  0.2070 -0.7671
  613MPD2    H7 9145   0.465   1.994  16.297  0.8184  0.1393 -0.5990
  614TMC3    C1 9146   0.477   1.840  16.111 -0.0507 -0.0186 -1.2232
  614TMC3    C2 9147   0.491   1.726  16.033  0.2933  1.0579  0.5836
  614TMC3    C3 9148   0.433   1.726  15.904 -0.1403  0.3814 -0.2958
  614TMC3    C4 9149   0.427   1.953  16.055  0.4608  0.2035  0.3939
  614TMC3    C5 9150   0.387   1.958  15.922  0.3013 -0.4070 -0.4882
  614TMC3    C6 9151   0.389   1.842  15.849 -0.2495 -0.2755  0.5684
  614TMC3     C 9152   0.415   1.802  16.231 -0.5976  0.1466 -0.3900
  614TMC3     O 9153   0.354   1.693  16.241  0.3208  0.0452 -0.0724
  614TMC3     H 9154   0.521   1.630  16.072 -1.6652  1.7088  3.6403
  614TMC3    H1 9155   0.429   2.044  16.115  1.1349 -0.1407  0.8887
  614TMC3    H2 9156   0.349   1.829  15.749 -0.2076 -0.0923  0.5278
  614TMC3    C7 9157   0.314   2.074  15.878  0.6440  0.8464 -0.2146
  614TMC3    C8 9158   0.350   1.619  15.869 -0.6740 -1.2522 -0.0693
  614TMC3    O1 9159   0.299   2.163  15.960  0.3863 -0.7684 -0.4416
  614TMC3    O2 9160   0.307   1.609  15.753  0.1337  0.4311 -0.1532
  615MPD2     C 9161   4.321   3.072  15.830 -0.4051 -0.4589  0.4885
  615MPD2    C1 9162   4.307   3.208  15.804 -0.6388  0.8322 -0.2819
  615MPD2    C2 9163   4.283   3.247  15.668 -0.0217  1.2811  0.1367
  615MPD2    C3 9164   4.278   3.157  15.568  0.4077  0.1982 -0.3968
  615MPD2    C4 9165   4.288   3.023  15.593 -0.0014  0.0634  0.6163
  615MPD2    C5 9166   4.303   2.982  15.725 -0.8075 -0.0277  0.1965
  615MPD2     H 9167   4.280   3.352  15.639 -0.9000  1.4836  0.9497
  615MPD2    H1 9168   4.283   2.943  15.519 -2.4109  0.4961  0.3389
  615MPD2    H2 9169   4.328   3.033  15.931  3.0832  0.8063  0.7285
  615MPD2    H3 9170   4.317   2.878  15.753 -0.9035  0.0058  0.3712
  615MPD2     N 9171   4.259   3.188  15.430  0.0579 -0.0727 -0.3232
  615MPD2    H5 9172   4.267   3.107  15.369  0.6690 -0.4912  0.3091
  615MPD2    N1 9173   4.316   3.308  15.898  0.0332  0.3722 -0.0301
  615MPD2    H7 9174   4.300   3.403  15.868  1.6357  0.9604  1.0045
  616TMC3    C1 9175   4.378   3.423  16.088  0.9049  0.7981 -0.0979
  616TMC3    C2 9176   4.442   3.509  16.017  0.2416  0.3072 -0.4778
  616TMC3    C3 9177   4.521   3.605  16.082 -0.5466 -0.6461  0.0416
  616TMC3    C4 9178   4.365   3.426  16.227  0.0596 -0.1052 -0.1967
  616TMC3    C5 9179   4.432   3.530  16.293 -0.4897  0.4157 -0.5775
  616TMC3    C6 9180   4.514   3.613  16.219  0.6329 -0.6962  0.1152
  616TMC3     C 9181   4.352   3.294  16.032 -0.3815  0.0829  0.2282
  616TMC3     O 9182   4.361   3.194  16.102 -0.4361  0.8074  0.2932
  616TMC3     H 9183   4.441   3.519  15.909 -0.0715 -2.1386 -0.7060
  616TMC3    H1 9184   4.314   3.346  16.279  0.7513 -2.0484 -2.5107
  616TMC3    H2 9185   4.561   3.700  16.264 -1.0641  0.0297  0.4676
  616TMC3    C7 9186   4.462   3.537  16.436 -0.7242 -0.4676 -0.2241
  616TMC3    C8 9187   4.620   3.674  16.003  0.1331  0.3390  0.0046
  616TMC3    O1 9188   4.553   3.614  16.473 -0.4856  0.4299  0.2949
  616TMC3    O2 9189   4.605   3.671  15.882 -0.1654  0.3135 -0.0353
  617MPD2     C 9190   2.388   1.858  13.908  0.0386  0.2745  0.3107
  617MPD2    C1 9191   2.456   1.769  13.976  0.2644  0.6062  0.3313
  617MPD2    C2 9192   2.389   1.653  14.015  0.0152  0.3682  0.8715
  617MPD2    C3 9193   2.255   1.635  13.985 -0.5359  0.4140 -0.2759
  617MPD2    C4 9194   2.189   1.728  13.918  0.7343 -0.3258  0.5439
  617MPD2    C5 9195   2.252   1.843  13.887 -0.1957 -0.1289 -0.1515
  617MPD2     H 9196   2.432   1.565  14.062  1.9657  1.1078  0.4712
  617MPD2    H1 9197   2.085   1.718  13.887  1.7175 -3.3810 -1.7147
  617MPD2    H2 9198   2.444   1.945  13.874  0.6269 -0.0397  0.4685
  617MPD2    H3 9199   2.197   1.917  13.830  0.0135 -1.3051 -1.9063
  617MPD2     N 9200   2.187   1.511  14.017 -0.4001  0.0650 -0.3340
  617MPD2    H5 9201   2.095   1.506  13.974 -0.3676 -0.5612 -0.3268
  617MPD2    N1 9202   2.597   1.779  13.989 -0.6389 -0.2784  0.4683
  617MPD2    H7 9203   2.641   1.851  13.932 -1.2677 -0.0832  0.2227
  618TMC3    C1 9204   2.819   1.705  14.067  0.4045  0.3860  0.3272
  618TMC3    C2 9205   2.885   1.621  14.155 -0.1650 -0.1950 -0.2721
  618TMC3    C3 9206   3.003   1.562  14.112 -0.0292 -0.3284  0.4289
  618TMC3    C4 9207   2.872   1.750  13.952  0.6160 -0.1301  0.0051
  618TMC3    C5 9208   2.994   1.690  13.911  0.6048 -0.3267 -0.3013
  618TMC3    C6 9209   3.050   1.586  13.980 -0.0408 -0.1994  0.2481
  618TMC3     C 9210   2.670   1.698  14.074  0.0377  0.0112 -0.0770
  618TMC3     O 9211   2.633   1.617  14.156 -0.2116 -0.6290  0.4346
  618TMC3     H 9212   2.842   1.591  14.250 -0.8899 -0.0400 -0.5509
  618TMC3    H1 9213   2.837   1.820  13.877  1.2510 -0.4033 -0.5406
  618TMC3    H2 9214   3.153   1.564  13.954 -0.8315 -0.5879 -2.5826
  618TMC3    C7 9215   3.021   1.682  13.770  0.0832 -1.1166 -0.0498
  618TMC3    C8 9216   3.055   1.449  14.181  0.1893 -0.2605  0.3897
  618TMC3    O1 9217   3.008   1.784  13.703  0.5327 -0.0834  0.5843
  618TMC3    O2 9218   3.096   1.459  14.296 -0.4018  0.0701  0.0373
  619MPD2     C 9219   3.570   1.971  13.858 -0.1074  0.0886 -0.8608
  619MPD2    C1 9220   3.575   2.040  13.741 -0.1037  1.0246 -0.5568
  619MPD2    C2 9221   3.468   2.044  13.649 -0.0101 -0.0566 -0.2032
  619MPD2    C3 9222   3.351   1.974  13.675  0.0194 -0.1385 -0.1049
  619MPD2    C4 9223   3.345   1.917  13.802  0.5125  0.7451 -0.2667
  619MPD2    C5 9224   3.449   1.919  13.888  0.7355  0.3462  0.5482
  619MPD2     H 9225   3.482   2.099  13.556 -1.1028 -0.2367 -0.4714
  619MPD2    H1 9226   3.255   1.869  13.839  1.3068  0.7037  1.6058
  619MPD2    H2 9227   3.644   1.956  13.936  0.1419  1.2648 -0.8794
  619MPD2    H3 9228   3.435   1.874  13.985  1.2975 -1.1517 -0.0634
  619MPD2     N 9229   3.234   1.968  13.593  0.1782 -0.0488 -0.0889
  619MPD2    H5 9230   3.144   1.953  13.638  0.1077 -2.7501 -1.1323
  619MPD2    N1 9231   3.688   2.120  13.699 -0.2526 -0.8430 -0.2909
  619MPD2    H7 9232   3.686   2.160  13.606 -1.6355 -3.4529 -1.4000
  620TMC3    C1 9233   3.908   2.206  13.713  0.1470  0.6153 -1.4165
  620TMC3    C2 9234   3.939   2.175  13.578  0.0888  0.4145  0.8120
  620TMC3    C3 9235   4.016   2.267  13.516  0.0743 -0.3224 -0.0577
  620TMC3    C4 9236   3.983   2.294  13.787 -0.3502  0.0217 -0.7735
  620TMC3    C5 9237   4.083   2.364  13.718 -0.2117  0.0957 -0.7203
  620TMC3    C6 9238   4.096   2.357  13.585 -1.2654 -0.8745 -0.1102
  620TMC3     C 9239   3.800   2.138  13.780  0.2122  0.3162 -0.4499
  620TMC3     O 9240   3.815   2.105  13.898  0.3395  0.4302  0.4308
  620TMC3     H 9241   3.876   2.111  13.516 -1.2104  1.0576  1.4614
  620TMC3    H1 9242   3.956   2.312  13.890  0.2555 -1.4923 -0.3522
  620TMC3    H2 9243   4.169   2.423  13.539 -0.5968 -1.2681  0.3826
  620TMC3    C7 9244   4.142   2.472  13.803 -0.4755 -0.4689 -0.3389
  620TMC3    C8 9245   4.003   2.296  13.374  0.2242  0.4290 -0.2870
  620TMC3    O1 9246   4.076   2.506  13.900  0.0444 -0.0478  0.5644
  620TMC3    O2 9247   4.102   2.316  13.308  0.2086 -0.1327 -0.4266
  621MPD2     C 9248   3.173   3.507  10.497  0.5494 -0.4862 -0.0153
  621MPD2    C1 9249   3.284   3.432  10.478  0.0458  0.2077 -0.1468
  621MPD2    C2 9250   3.366   3.481  10.374  0.4303 -0.4748 -0.7663
  621MPD2    C3 9251   3.339   3.585  10.284 -0.4206 -0.2361 -0.5934
  621MPD2    C4 9252   3.219   3.643  10.305 -0.1464 -0.1696 -0.6232
  621MPD2    C5 9253   3.138   3.597  10.403  0.3619 -0.2096  0.2091
  621MPD2     H 9254   3.454   3.420  10.355  0.4660 -1.6883  3.4052
  621MPD2    H1 9255   3.176   3.716  10.237 -0.1280 -0.5019 -0.9868
  621MPD2    H2 9256   3.107   3.494  10.583 -2.4748  2.3346 -1.9200
  621MPD2    H3 9257   3.042   3.647  10.410  1.9529  2.8060  0.5628
  621MPD2     N 9258   3.436   3.629  10.198  0.1423 -0.1505  0.0693
  621MPD2    H5 9259   3.523   3.578  10.206  0.0281  0.0420  2.6279
  621MPD2    N1 9260   3.326   3.324  10.557  0.5463  0.3344 -0.1138
  621MPD2    H7 9261   3.419   3.291  10.533  0.7690  0.4417  0.6080
  622TMC3    C1 9262   3.295   3.129  10.698  0.1980 -0.0956  0.3968
  622TMC3    C2 9263   3.236   3.080  10.808 -0.1198 -0.2843 -0.3362
  622TMC3    C3 9264   3.229   2.940  10.808  0.4791  0.8739  0.1061
  622TMC3    C4 9265   3.355   3.056  10.605 -0.4152  0.0445 -0.5542
  622TMC3    C5 9266   3.335   2.919  10.604  0.3899 -0.1888  0.4495
  622TMC3    C6 9267   3.281   2.861  10.713  0.4899  0.1024  0.1504
  622TMC3     C 9268   3.249   3.262  10.657  0.1344  0.2994  0.1610
  622TMC3     O 9269   3.153   3.307  10.722 -0.4099 -0.0274 -0.2151
  622TMC3     H 9270   3.202   3.150  10.884  0.2128 -0.6961  0.1909
  622TMC3    H1 9271   3.427   3.101  10.537 -0.6269  3.2239  1.3062
  622TMC3    H2 9272   3.255   2.755  10.709 -0.0398  0.2572 -0.6549
  622TMC3    C7 9273   3.299   2.864  10.482  0.5192  0.9422 -0.5959
  622TMC3    C8 9274   3.137   2.875  10.894 -0.4705 -0.4663 -0.5331
  622TMC3    O1 9275   3.278   2.743  10.477  0.1467 -0.2510 -0.1914
  622TMC3    O2 9276   3.128   2.751  10.894  0.0601  0.0962 -0.2885
  623MPD2     C 9277   2.785   3.462  15.325  0.2443 -1.2554 -0.9346
  623MPD2    C1 9278   2.737   3.445  15.450 -0.3868 -0.1019 -1.4023
  623MPD2    C2 9279   2.826   3.429  15.556  0.1941 -0.0561  0.7464
  623MPD2    C3 9280   2.959   3.444  15.537  0.5216 -1.2971 -0.2686
  623MPD2    C4 9281   3.007   3.465  15.414 -0.2555  0.0644 -0.3507
  623MPD2    C5 9282   2.919   3.475  15.305 -0.8513 -0.1531  0.4672
  623MPD2     H 9283   2.787   3.420  15.657  3.1611  1.1129  2.0104
  623MPD2    H1 9284   3.114   3.484  15.407  0.0615 -2.0802 -1.3550
  623MPD2    H2 9285   2.724   3.480  15.237  0.4460 -0.0012 -0.8242
  623MPD2    H3 9286   2.963   3.496  15.208 -2.9726 -1.6693 -0.8373
  623MPD2     N 9287   3.042   3.428  15.650 -0.1188  0.1036  0.4533
  623MPD2    H5 9288   2.987   3.401  15.731  1.2523 -0.2548  1.2636
  623MPD2    N1 9289   2.597   3.450  15.472  0.2006  0.4669  0.8281
  623MPD2    H7 9290   2.542   3.459  15.387  1.6813 -1.9957 -0.3710
  624TMC3    C1 9291   3.334   3.347  15.988 -0.1778  0.0278 -0.8818
  624TMC3    C2 9292   3.238   3.266  16.040  0.1509 -0.4188 -0.1613
  624TMC3    C3 9293   3.138   3.217  15.959 -0.2087  0.6787  0.7854
  624TMC3    C4 9294   3.330   3.394  15.858 -0.7528  0.1854  0.6834
  624TMC3    C5 9295   3.216   3.357  15.785  0.1482  0.6357 -0.0223
  624TMC3    C6 9296   3.130   3.259  15.837  0.1716 -0.4451  0.4376
  624TMC3     C 9297   3.453   3.364  16.070 -0.1769 -0.4469 -0.1400
  624TMC3     O 9298   3.446   3.328  16.191 -0.0411  0.1751  0.0756
  624TMC3     H 9299   3.241   3.244  16.146 -0.8807  2.1804  0.4281
  624TMC3    H1 9300   3.387   3.484  15.839 -0.3204 -0.5515 -1.5752
  624TMC3    H2 9301   3.062   3.215  15.765 -3.1240  2.7209  1.6138
  624TMC3    C7 9302   3.176   3.421  15.661  0.4165 -0.2055 -0.0082
  624TMC3    C8 9303   3.024   3.146  16.005  0.2866  0.0210 -0.3432
  624TMC3    O1 9304   3.253   3.478  15.589  0.2204  0.2073  0.3398
  624TMC3    O2 9305   2.939   3.121  15.921 -0.1521 -0.5271 -0.1685
  625MPD2     C 9306   3.068   3.857   0.727  0.0978 -0.2227  0.6921
  625MPD2    C1 9307   3.110   3.980   0.777 -0.4902  0.0148  0.1232
  625MPD2    C2 9308   3.169   3.990   0.898 -0.7613  0.4168  0.1153
  625MPD2    C3 9309   3.172   3.874   0.977 -0.1874  0.1538 -0.0756
  625MPD2    C4 9310   3.129   3.749   0.929 -0.5510 -0.0124 -0.1303
  625MPD2    C5 9311   3.086   3.744   0.801 -0.0705  0.4691 -0.4254
  625MPD2     H 9312   3.196   4.088   0.935  0.1655 -0.1938  1.0751
  625MPD2    H1 9313   3.126   3.662   0.993 -0.5980  2.1964  2.8614
  625MPD2    H2 9314   3.022   3.845   0.630 -1.1428  0.8530  1.1493
  625MPD2    H3 9315   3.040   3.655   0.759 -0.6047  1.3597 -1.7583
  625MPD2     N 9316   3.224   3.892   1.108 -0.1125 -0.5567  0.0292
  625MPD2    H5 9317   3.281   3.976   1.119 -1.3333  0.4607 -1.5473
  625MPD2    N1 9318   3.102   4.099   0.709  1.0299 -0.1855 -0.4427
  625MPD2    H7 9319   3.128   4.177   0.768  0.5643  0.1210 -0.6370
  626TMC3    C1 9320   3.101   4.246   0.522  0.5957 -0.2975 -0.2368
  626TMC3    C2 9321   3.066   4.278   0.394 -0.7561 -0.0518  0.7021
  626TMC3    C3 9322   3.098   4.408   0.350 -0.2983  0.2205 -0.0971
  626TMC3    C4 9323   3.156   4.337   0.606  0.2573 -0.1211 -0.5399
  626TMC3    C5 9324   3.192   4.464   0.560 -0.8029 -0.0239  0.1099
  626TMC3    C6 9325   3.156   4.501   0.431  0.1445 -0.6146 -0.1299
  626TMC3     C 9326   3.072   4.112   0.575  1.0749 -0.5863  0.3056
  626TMC3     O 9327   3.027   4.025   0.504  0.1757 -0.2967 -0.1275
  626TMC3     H 9328   3.025   4.199   0.331  0.4121  1.7830 -2.3632
  626TMC3    H1 9329   3.167   4.325   0.713  0.6468  1.1470 -0.4369
  626TMC3    H2 9330   3.163   4.604   0.400 -0.6648 -0.2952  0.7667
  626TMC3    C7 9331   3.221   4.556   0.664  0.5405  0.7466 -0.2955
  626TMC3    C8 9332   3.086   4.453   0.216  0.1327  0.3074 -0.1890
  626TMC3    O1 9333   3.314   4.524   0.738  0.0277  0.7770 -0.5208
  626TMC3    O2 9334   3.145   4.555   0.184  0.1924 -0.3154 -0.1033
  627MPD2     C 9335   1.874   4.686  14.564  0.1674 -0.1349 -0.5643
  627MPD2    C1 9336   2.002   4.632  14.567 -0.7161 -0.3112 -0.9230
  627MPD2    C2 9337   2.024   4.495  14.552 -0.5353  0.1819 -0.3575
  627MPD2    C3 9338   1.920   4.414  14.515  0.6854  0.1007  0.0263
  627MPD2    C4 9339   1.792   4.470  14.510  0.5845 -0.0265 -0.0749
  627MPD2    C5 9340   1.777   4.602  14.523  0.2407 -0.1685 -0.0765
  627MPD2     H 9341   2.120   4.449  14.570 -0.9045 -0.3324  0.3139
  627MPD2    H1 9342   1.706   4.407  14.489  1.3565 -2.1809  3.2399
  627MPD2    H2 9343   1.852   0.054  14.587  0.5011  0.0345 -1.0034
  627MPD2    H3 9344   1.680   4.650  14.516 -0.0161 -0.4853  1.4464
  627MPD2     N 9345   1.956   4.276  14.509  0.3665  0.4076  0.7409
  627MPD2    H5 9346   2.054   4.251  14.519  0.8940  1.8136 -0.8189
  627MPD2    N1 9347   2.113   4.721  14.593  0.5404  0.2801 -0.4557
  627MPD2    H7 9348   2.199   4.673  14.616 -0.3436 -2.1241 -2.1802
  628TMC3    C1 9349   2.227   0.197  14.610  0.0258  0.4081  0.2227
  628TMC3    C2 9350   2.349   0.136  14.618  0.0162 -0.0716  0.3747
  628TMC3    C3 9351   2.443   0.220  14.677  0.6679  0.6075  0.1613
  628TMC3    C4 9352   2.209   0.331  14.624 -0.3553 -0.4436 -0.3622
  628TMC3    C5 9353   2.303   0.404  14.683 -0.8857 -0.8849 -0.4058
  628TMC3    C6 9354   2.423   0.349  14.730  0.4144 -0.0232  0.0465
  628TMC3     C 9355   2.110   0.121  14.569 -0.1510  0.1953 -0.8362
  628TMC3     O 9356   2.024   0.189  14.519 -0.1007  0.1108  0.2814
  628TMC3     H 9357   2.370   0.035  14.584 -2.1529 -0.2009 -0.5840
  628TMC3    H1 9358   2.108   0.366  14.607 -1.3526 -2.8316  0.6663
  628TMC3    H2 9359   2.500   0.411  14.773 -1.1200  0.4327  2.1475
  628TMC3    C7 9360   2.269   0.542  14.718 -0.0421  0.4275 -0.0112
  628TMC3    C8 9361   2.580   0.188  14.650 -0.5463  0.8142  0.8231
  628TMC3    O1 9362   2.323   0.582  14.819  0.0450  0.8102  0.0899
  628TMC3    O2 9363   2.663   0.243  14.721 -0.0547 -0.0688  0.1023
  629MPD2     C 9364   0.356   3.858  15.936  0.3893  0.2610  0.3113
  629MPD2    C1 9365   0.338   3.830  16.068 -0.0319 -0.1865 -0.2889
  629MPD2    C2 9366   0.211   3.792  16.106 -0.0030 -0.2775  0.3239
  629MPD2    C3 9367   0.102   3.784  16.014  0.3260  0.8295 -0.1608
  629MPD2    C4 9368   0.125   3.813  15.880 -0.7986 -0.2417 -0.3397
  629MPD2    C5 9369   0.255   3.843  15.846 -0.5874  0.1470  0.5321
  629MPD2     H 9370   0.188   3.785  16.212  0.8227  1.5531  0.6285
  629MPD2    H1 9371   0.054   3.818  15.798 -1.0973  0.5160 -0.0364
  629MPD2    H2 9372   0.451   3.887  15.891 -0.2647  0.6258 -0.8449
  629MPD2    H3 9373   0.288   3.867  15.745 -0.7914  0.5078  0.5506
  629MPD2     N 9374   4.723   3.728  16.071  0.5368 -0.0538  0.0932
  629MPD2    H5 9375   4.721   3.704  16.169  1.5178 -4.3146 -0.9108
  629MPD2    N1 9376   0.453   3.838  16.158 -0.4036  0.2953  0.6317
  629MPD2    H7 9377   0.536   3.874  16.113 -0.6596 -0.7653 -0.6859
  630TMC3    C1 9378   0.575   3.825  16.366 -0.0801 -0.4400  0.2601
  630TMC3    C2 9379   0.676   3.897  16.303  0.1402 -0.2132 -0.2865
  630TMC3    C3 9380   0.793   3.916  16.382 -0.1224  0.1746 -0.0134
  630TMC3    C4 9381   0.584   3.788  16.495  0.6211  0.4517 -0.0444
  630TMC3    C5 9382   0.708   3.792  16.560  0.2418 -0.4092 -0.6785
  630TMC3    C6 9383   0.815   3.859  16.508  0.0571 -0.0673 -0.1588
  630TMC3     C 9384   0.447   3.813  16.297 -1.0942 -0.1923 -0.0281
  630TMC3     O 9385   0.351   3.780  16.366 -0.4307 -0.3227  0.5849
  630TMC3     H 9386   0.651   3.958  16.217 -0.8051  1.3757  1.1269
  630TMC3    H1 9387   0.507   3.723  16.537  0.8107 -1.0422 -2.0068
  630TMC3    H2 9388   0.905   3.873  16.568 -0.3486 -0.8785  0.6354
  630TMC3    C7 9389   0.733   3.692  16.655  0.5845  0.7755 -0.2247
  630TMC3    C8 9390   0.897   4.007  16.329  0.0961  0.1037 -0.0186
  630TMC3    O1 9391   0.652   3.604  16.656 -0.8632 -0.1530  0.0475
  630TMC3    O2 9392   0.989   4.026  16.410 -0.7350 -0.4460  1.1283
  631MPD2     C 9393   3.519   3.098  14.935 -0.5280  0.7692 -0.1692
  631MPD2    C1 9394   3.568   3.201  14.860  0.2032  1.3956  0.5482
  631MPD2    C2 9395   3.704   3.228  14.857  0.2931 -0.1215  0.3427
  631MPD2    C3 9396   3.801   3.156  14.931 -0.1469 -0.5442  0.3955
  631MPD2    C4 9397   3.752   3.055  15.014 -0.1342 -0.0272 -0.4342
  631MPD2    C5 9398   3.617   3.030  15.006  0.7867  0.1484  0.3457
  631MPD2     H 9399   3.732   3.317  14.804  1.6699 -0.1055  1.1049
  631MPD2    H1 9400   3.816   2.993  15.075 -2.0896 -0.0474  1.6070
  631MPD2    H2 9401   3.415   3.066  14.940 -0.4593  0.8031  1.5178
  631MPD2    H3 9402   3.579   2.949  15.066 -1.2964 -0.4720 -1.7884
  631MPD2     N 9403   3.936   3.203  14.937  0.0831 -0.1982  0.0193
  631MPD2    H5 9404   3.949   3.293  14.893  1.3822 -1.4356 -2.1037
  631MPD2    N1 9405   3.483   3.271  14.770 -0.5478 -0.3934 -0.3926
  631MPD2    H7 9406   3.384   3.258  14.787 -0.6886 -0.8909 -1.6300
  632TMC3    C1 9407   3.424   3.440  14.615 -0.4567  0.0134  0.9939
  632TMC3    C2 9408   3.341   3.508  14.698 -0.0822 -0.2367 -0.2872
  632TMC3    C3 9409   3.287   3.623  14.647  0.1278  0.2177 -0.5271
  632TMC3    C4 9410   3.454   3.487  14.492  0.1769  0.3578  0.9744
  632TMC3    C5 9411   3.385   3.594  14.434 -0.4004  0.6636 -0.6049
  632TMC3    C6 9412   3.307   3.670  14.518  0.0262 -0.1777  0.3746
  632TMC3     C 9413   3.526   3.355  14.666  0.1771 -0.2482  0.6546
  632TMC3     O 9414   3.629   3.348  14.602 -0.6386 -0.1381 -0.3777
  632TMC3     H 9415   3.328   3.470  14.799  2.3166 -0.5682 -0.1034
  632TMC3    H1 9416   3.524   3.440  14.425 -1.6122 -1.0317  0.0794
  632TMC3    H2 9417   3.277   3.770  14.489 -1.1997 -0.8067 -0.5041
  632TMC3    C7 9418   3.474   3.663  14.336  0.2114 -0.5309 -0.0440
  632TMC3    C8 9419   3.220   3.703  14.747  0.2246 -0.4697  0.0964
  632TMC3    O1 9420   3.489   3.611  14.228  0.1693  0.5602 -0.8323
  632TMC3    O2 9421   3.233   3.664  14.863 -0.3896  0.0965  0.5221
  633MPD2     C 9422   2.771   1.473  17.106 -0.1157 -0.1931  0.4468
  633MPD2    C1 9423   2.844   1.417  17.006 -0.4172  0.1608 -0.4662
  633MPD2    C2 9424   2.880   1.282  17.019 -0.0595  0.2077 -0.1176
  633MPD2    C3 9425   2.845   1.202  17.133  0.4700 -0.5513 -0.1225
  633MPD2    C4 9426   2.763   1.271  17.229 -0.0373 -0.9573 -0.6528
  633MPD2    C5 9427   2.739   1.404  17.217 -0.4495 -0.0367 -0.5657
  633MPD2     H 9428   2.941   1.233  16.944 -0.2836 -0.2516  0.0006
  633MPD2    H1 9429   2.700   1.218  17.299  0.1564  0.3872  0.5382
  633MPD2    H2 9430   2.753   1.580  17.109  1.2843  0.0690 -1.1407
  633MPD2    H3 9431   2.662   1.451  17.277 -0.3872  1.3334 -1.5631
  633MPD2     N 9432   2.872   1.069  17.125 -0.2375  0.4074  0.8381
  633MPD2    H5 9433   2.899   1.024  17.038  3.6475  0.9155  1.7842
  633MPD2    N1 9434   2.910   1.480  16.904 -0.4637 -0.5388  0.4032
  633MPD2    H7 9435   2.973   1.425  16.844 -1.0874  1.3242 -1.9505
  634TMC3    C1 9436   2.987   1.665  16.783 -0.1762 -0.2422 -0.3151
  634TMC3    C2 9437   3.079   1.577  16.742 -0.1082  0.1778 -0.1058
  634TMC3    C3 9438   3.142   1.608  16.624 -0.4842  0.8622 -1.5549
  634TMC3    C4 9439   2.949   1.775  16.711 -0.0367 -0.2312 -0.2282
  634TMC3    C5 9440   3.013   1.794  16.587 -0.5990  0.1043 -0.1878
  634TMC3    C6 9441   3.115   1.719  16.548 -0.1395 -0.2914 -0.1172
  634TMC3     C 9442   2.893   1.615  16.877  0.5577  1.0242  0.7256
  634TMC3     O 9443   2.821   1.697  16.929 -0.1185  0.1751 -0.1724
  634TMC3     H 9444   3.113   1.488  16.794  1.5613  0.2198 -1.1036
  634TMC3    H1 9445   2.857   1.826  16.736 -0.8147 -1.8743  0.2714
  634TMC3    H2 9446   3.151   1.729  16.447 -2.5706 -1.0706 -1.0608
  634TMC3    C7 9447   3.001   1.914  16.511 -0.3279  0.8815  0.1757
  634TMC3    C8 9448   3.243   1.513  16.584 -0.5550 -0.9329  0.2042
  634TMC3    O1 9449   3.053   1.919  16.401 -0.2143  0.2834  0.4557
  634TMC3    O2 9450   3.244   1.401  16.638  0.2063  0.3164 -0.2173
  635TMC3    C1 9451   3.719   2.622  17.054  0.4654 -0.8458  0.0822
  635TMC3    C2 9452   3.738   2.734  16.979 -0.4791 -0.2566  0.1346
  635TMC3    C3 9453   3.768   2.713  16.844  0.0796  0.2740  0.2988
  635TMC3    C4 9454   3.735   2.490  17.006 -0.5496  0.0462  1.1214
  635TMC3    C5 9455   3.775   2.478  16.877  0.6157 -0.2511  0.7631
  635TMC3    C6 9456   3.791   2.589  16.798 -0.1183 -0.0053  0.9166
  635TMC3     C 9457   3.651   2.645  17.183 -0.9338 -0.1072  0.7235
  635TMC3     O 9458   3.654   2.763  17.220  0.6387 -0.0968 -0.1405
  635TMC3     H 9459   3.738   2.830  17.028 -0.4757 -0.7546  1.1191
  635TMC3    H1 9460   3.727   2.405  17.074  3.1911  0.4012  2.0308
  635TMC3    H2 9461   3.822   2.579  16.695  3.0603  0.8930  1.7936
  635TMC3    C7 9462   3.828   2.355  16.820 -0.4470 -0.5327  0.2002
  635TMC3    C8 9463   3.747   2.823  16.756 -0.2117  0.3983  0.4469
  635TMC3    O1 9464   3.844   2.348  16.695  0.1343 -0.2945  0.3409
  635TMC3    O2 9465   3.769   2.934  16.797 -0.3015 -0.5110 -0.2554
  636MPD2     C 9466   4.109   2.057  16.267 -0.0835 -0.3203  0.5930
  636MPD2    C1 9467   4.170   2.091  16.384  0.0735 -0.0420 -0.0635
  636MPD2    C2 9468   4.237   1.995  16.460 -0.1535  0.1466 -0.0784
  636MPD2    C3 9469   4.244   1.866  16.414  0.0887 -0.5449  0.1034
  636MPD2    C4 9470   4.179   1.829  16.294 -0.2129  1.1959  0.2333
  636MPD2    C5 9471   4.116   1.927  16.227  0.0344 -0.0265 -0.0676
  636MPD2     H 9472   4.260   2.001  16.566  0.1006  0.9157 -0.1812
  636MPD2    H1 9473   4.172   1.731  16.250  1.3877  0.1346  2.3058
  636MPD2    H2 9474   4.056   2.126  16.202 -0.8586 -1.3744  0.1016
  636MPD2    H3 9475   4.072   1.890  16.135 -1.9509 -1.5533  1.4796
  636MPD2     N 9476   4.316   1.772  16.492  0.6005 -0.8948  0.1740
  636MPD2    H5 9477   4.357   1.794  16.582  1.7045 -1.9347 -0.0676
  636MPD2    N1 9478   4.159   2.221  16.439 -0.3725  0.0182  0.3455
  636MPD2    H7 9479   4.192   2.243  16.533  0.5060 -1.7842  0.4665
  637TMC3    C1 9480   4.451   1.579  16.526  0.4344 -0.5909  1.0313
  637TMC3    C2 9481   4.504   1.637  16.643  0.4612 -0.0184  0.2981
  637TMC3    C3 9482   4.626   1.604  16.681 -0.1969  0.6200 -0.1077
  637TMC3    C4 9483   4.522   1.488  16.448 -0.0550 -0.0174  0.1989
  637TMC3    C5 9484   4.645   1.455  16.494 -0.6960 -0.2001 -0.8655
  637TMC3    C6 9485   4.696   1.509  16.608  0.4085 -0.4776 -0.6308
  637TMC3     C 9486   4.342   1.638  16.456 -1.1649 -0.2797  0.2252
  637TMC3     O 9487   4.306   1.592  16.351  0.1745 -0.9672  0.0425
  637TMC3     H 9488   4.456   1.713  16.704 -1.3869  0.3920 -1.6580
  637TMC3    H1 9489   4.488   1.454  16.351  0.5509  2.3480 -0.8181
  637TMC3    H2 9490   0.058   1.479  16.645  0.3584 -1.0638 -0.9594
  637TMC3    C7 9491   0.012   1.452  16.388 -0.0324  0.4222  0.1931
  637TMC3    C8 9492   4.713   1.718  16.706 -0.0819  0.9221  0.0700
  637TMC3    O1 9493   0.117   1.507  16.408  0.3806 -0.4405 -0.0739
  637TMC3    O2 9494   4.661   1.815  16.764  0.3802 -0.0061  0.1807
  638MPD2     C 9495   4.039   1.189  14.662 -0.7982 -0.7143 -0.3989
  638MPD2    C1 9496   4.038   1.096  14.564 -0.0853  0.2006  0.0672
  638MPD2    C2 9497   4.085   0.966  14.592  0.0989  1.2172 -0.0028
  638MPD2    C3 9498   4.139   0.943  14.715 -0.0595  0.0789 -0.0728
  638MPD2    C4 9499   4.144   1.040  14.815 -0.3001 -0.2461 -0.1725
  638MPD2    C5 9500   4.095   1.163  14.782 -0.2279  0.2123  0.3980
  638MPD2     H 9501   4.074   0.888  14.517  1.6549  0.6795  0.3315
  638MPD2    H1 9502   4.177   1.024  14.917 -0.3158 -1.4689 -0.3612
  638MPD2    H2 9503   4.000   1.288  14.640  1.3560  0.1708 -0.2539
  638MPD2    H3 9504   4.099   1.239  14.858 -1.0149  0.1354  0.5239
  638MPD2     N 9505   4.193   0.821  14.738  0.6220  0.9776  0.6038
  638MPD2    H5 9506   4.192   0.757  14.659 -2.8603  2.1731 -0.3334
  638MPD2    N1 9507   3.971   1.134  14.448  0.6864  0.1455 -0.2680
  638MPD2    H7 9508   3.897   1.202  14.450  2.8396  2.4696  0.2420
  639TMC3    C1 9509   4.307   0.643  14.833  1.8087 -0.4296  0.6235
  639TMC3    C2 9510   4.220   0.563  14.766  0.0522 -0.6068  0.1731
  639TMC3    C3 9511   4.250   0.435  14.738  0.9960  0.0215  0.3761
  639TMC3    C4 9512   4.426   0.595  14.879  0.0253 -0.0800 -0.3096
  639TMC3    C5 9513   4.450   0.467  14.849 -0.4262  0.4295  0.4011
  639TMC3    C6 9514   4.372   0.387  14.765  1.1986 -0.8326  0.3316
  639TMC3     C 9515   4.266   0.782  14.854  0.4152  0.1488 -0.5656
  639TMC3     O 9516   4.315   0.843  14.944  0.3190  0.0605 -0.4269
  639TMC3     H 9517   4.120   0.600  14.746  0.2374  0.0889  0.5207
  639TMC3    H1 9518   4.502   0.658  14.923  2.4538 -3.3265  0.1886
  639TMC3    H2 9519   4.392   0.280  14.760  0.8838 -0.7713 -2.3184
  639TMC3    C7 9520   4.559   0.405  14.931  0.4259  0.2460 -0.1167
  639TMC3    C8 9521   4.166   0.364  14.646  0.4472  0.2758 -0.4499
  639TMC3    O1 9522   4.622   0.480  15.003  0.0285  0.1740 -0.2940
  639TMC3    O2 9523   4.214   0.279  14.575  0.9637 -0.3391 -0.3088
  640MPD2     C 9524   4.289   4.552  10.061  1.1299  0.7452  0.6674
  640MPD2    C1 9525   4.188   4.606   9.995 -0.6065 -0.2368 -0.8766
  640MPD2    C2 9526   4.163   0.008  10.000 -0.3722  0.6781  0.4978
  640MPD2    C3 9527   4.248   0.086  10.071 -0.1536  0.1254 -0.5012
  640MPD2    C4 9528   4.353   0.024  10.135 -0.0697  0.5894 -0.9757
  640MPD2    C5 9529   4.381   4.626  10.126 -0.0160  0.9436 -1.3518
  640MPD2     H 9530   4.077   0.056   9.953 -1.4301 -0.5783  1.1654
  640MPD2    H1 9531   4.412   0.086  10.200 -0.5717 -0.0713  0.1014
  640MPD2    H2 9532   4.287   4.444  10.065 -0.3272  0.7543  0.1183
  640MPD2    H3 9533   4.462   4.581  10.182 -1.1102  2.0000  1.0621
  640MPD2     N 9534   4.230   0.225  10.087 -0.4560  0.3836  0.0057
  640MPD2    H5 9535   4.305   0.276  10.133  1.6133 -1.0157 -1.8207
  640MPD2    N1 9536   4.109   4.517   9.917 -0.4602  0.2587  0.3679
  640MPD2    H7 9537   4.133   4.418   9.919  0.1469  0.3779 -1.1078
  641TMC3    C1 9538   3.963   4.456   9.744  0.5024  0.0668 -0.0842
  641TMC3    C2 9539   4.030   4.337   9.735  0.1854  0.5186 -0.1819
  641TMC3    C3 9540   3.966   4.235   9.676  0.6878  0.2734 -0.4397
  641TMC3    C4 9541   3.847   4.473   9.676 -0.3280 -0.0444 -0.1530
  641TMC3    C5 9542   3.791   4.369   9.608  0.2725  0.0657  0.8243
  641TMC3    C6 9543   3.850   4.246   9.608 -0.5487  0.3446  0.5629
  641TMC3     C 9544   4.008   4.559   9.833 -0.5297  0.2507 -0.0608
  641TMC3     O 9545   3.955   4.670   9.821  0.1516 -0.4386  0.9149
  641TMC3     H 9546   4.131   4.329   9.773  0.7739  1.3577 -1.5587
  641TMC3    H1 9547   3.812   4.574   9.663 -0.1935 -0.0418 -0.5049
  641TMC3    H2 9548   3.802   4.169   9.549 -1.8684  0.2837  1.7203
  641TMC3    C7 9549   3.710   4.409   9.494 -0.3801 -0.1932  0.3187
  641TMC3    C8 9550   4.028   4.105   9.654  0.8352  0.2266  0.7967
  641TMC3    O1 9551   3.716   4.341   9.393  0.3979 -0.6516 -0.0660
  641TMC3    O2 9552   3.965   4.024   9.593 -0.0384  0.2178  0.6264
  642TMC3    C1 9553   1.253   0.177  13.091  0.5270  0.3660 -0.4295
  642TMC3    C2 9554   1.212   0.206  13.220 -0.1273  0.0877  0.0136
  642TMC3    C3 9555   1.228   0.106  13.313  0.1798  0.1421 -0.1805
  642TMC3    C4 9556   1.281   0.050  13.055 -0.3580 -0.2882 -0.5873
  642TMC3    C5 9557   1.271   4.687  13.149 -0.6837  0.3960 -0.2054
  642TMC3    C6 9558   1.243   4.708  13.279 -1.5733 -0.2075  0.1981
  642TMC3     C 9559   1.233   0.276  12.985  0.3176  0.0373 -0.3695
  642TMC3     O 9560   1.329   0.302  12.914 -0.0243 -0.6414 -0.2946
  642TMC3     H 9561   1.176   0.308  13.233  1.0408  0.7944 -2.2997
  642TMC3    H1 9562   1.308   0.038  12.951 -1.4651 -1.4218 -0.7409
  642TMC3    H2 9563   1.211   4.625  13.342  1.4244 -0.0947  1.8835
  642TMC3    C7 9564   1.246   4.555  13.093 -0.0607 -0.3682 -0.1128
  642TMC3    C8 9565   1.155   0.136  13.440  0.0977  0.1637 -0.0743
  642TMC3    O1 9566   1.205   4.558  12.979 -0.0523 -0.2365  0.2741
  642TMC3    O2 9567   1.072   0.051  13.484 -0.3847 -0.7533  0.5420
  643TMC3    C1 9568   0.509   4.097   0.481  0.5192  0.3424  0.5515
  643TMC3    C2 9569   0.378   4.080   0.500 -0.0612  0.5867  0.2657
  643TMC3    C3 9570   0.316   3.986   0.423 -0.3834  0.5999  0.0445
  643TMC3    C4 9571   0.577   4.036   0.373 -0.3245 -0.4780  0.7491
  643TMC3    C5 9572   0.501   3.956   0.291  0.0628 -0.2634  0.5252
  643TMC3    C6 9573   0.376   3.919   0.315 -0.3148  0.2728  0.2376
  643TMC3     C 9574   0.571   4.215   0.534  0.5685  0.4143  0.1476
  643TMC3     O 9575   0.494   4.294   0.593 -0.0905 -0.8052  0.0280
  643TMC3     H 9576   0.330   4.114   0.591  1.7344 -2.6215  2.4201
  643TMC3    H1 9577   0.675   4.068   0.340 -0.7253 -2.7236 -2.5932
  643TMC3    H2 9578   0.321   3.865   0.239 -0.9962 -1.3776  1.9131
  643TMC3    C7 9579   0.556   3.942   0.160  0.6937  0.4441 -0.1231
  643TMC3    C8 9580   0.188   4.010   0.388 -0.3526  0.3574  0.2384
  643TMC3    O1 9581   0.642   4.020   0.125 -0.0843 -0.3507  0.1745
  643TMC3    O2 9582   0.130   3.908   0.342 -0.4536  0.1234 -1.0460
  644MPD2     C 9583   4.601   0.479  10.019  0.0291 -0.1210  0.1925
  644MPD2    C1 9584   4.544   0.404   9.917 -0.6320  0.0322 -0.3502
  644MPD2    C2 9585   4.439   0.464   9.843  0.4973 -0.1249  0.4138
  644MPD2    C3 9586   4.412   0.601   9.855  0.5867 -0.3734 -0.3234
  644MPD2    C4 9587   4.475   0.674   9.960  0.5097 -0.4850  0.5158
  644MPD2    C5 9588   4.571   0.610  10.038  0.4240  0.4095  0.1070
  644MPD2     H 9589   4.380   0.406   9.773 -0.8918 -0.2894  1.7049
  644MPD2    H1 9590   4.461   0.780   9.980  1.1510 -0.7898  2.6085
  644MPD2    H2 9591   4.676   0.439  10.086 -0.7060 -2.1385 -0.1935
  644MPD2    H3 9592   4.621   0.669  10.114  1.5931 -0.7918  0.2857
  644MPD2     N 9593   4.303   0.649   9.776 -0.0013  0.1831 -0.2413
  644MPD2    H5 9594   4.284   0.584   9.701  0.4636  0.4268 -0.5641
  644MPD2    N1 9595   4.569   0.267   9.924 -0.4335 -0.0731  0.8277
  644MPD2    H7 9596   4.642   0.246   9.992  1.2454 -1.0977 -1.3016
  645TMC3    C1 9597   4.123   0.790   9.708  0.4141  0.1772 -0.3769
  645TMC3    C2 9598   4.078   0.916   9.695  0.1839 -0.6300 -0.1792
  645TMC3    C3 9599   3.964   0.934   9.623  0.2241  0.2122 -0.5394
  645TMC3    C4 9600   4.058   0.676   9.664  0.4838 -0.4616 -0.6275
  645TMC3    C5 9601   3.943   0.702   9.589 -0.1605 -0.5704 -0.8071
  645TMC3    C6 9602   3.907   0.831   9.566 -1.4737 -0.8637  0.4921
  645TMC3     C 9603   4.243   0.776   9.782 -0.3741  0.1329 -1.1291
  645TMC3     O 9604   4.255   0.868   9.861  0.3332  0.1942  0.3339
  645TMC3     H 9605   4.140   1.001   9.721 -1.6542  0.6625  0.0213
  645TMC3    H1 9606   4.093   0.575   9.682 -0.2335 -0.2866  1.6456
  645TMC3    H2 9607   3.828   0.853   9.495 -1.0947 -0.8606  0.0737
  645TMC3    C7 9608   3.839   0.605   9.581 -0.5561 -0.2088 -0.5893
  645TMC3    C8 9609   3.951   1.065   9.557 -0.7579 -0.1403 -0.4433
  645TMC3    O1 9610   3.865   0.503   9.637  0.4360  0.1836  0.2811
  645TMC3    O2 9611   3.967   1.172   9.615  0.0145 -0.2734 -0.5360
  646MPD2     C 9612   4.405   3.913  14.453  0.4467  0.0157 -0.0187
  646MPD2    C1 9613   4.386   4.023  14.536  0.1532 -0.1534 -0.3480
  646MPD2    C2 9614   4.317   4.130  14.484 -0.1855 -0.1569 -0.3707
  646MPD2    C3 9615   4.256   4.133  14.362  0.4133 -0.2608  0.7490
  646MPD2    C4 9616   4.265   4.027  14.283  0.1344  0.5634 -0.3565
  646MPD2    C5 9617   4.336   3.916  14.334  0.2074 -0.5035  0.1386
  646MPD2     H 9618   4.310   4.219  14.547 -0.7941 -1.2740  1.1453
  646MPD2    H1 9619   4.214   4.007  14.189  0.9520  0.6506 -0.8229
  646MPD2    H2 9620   4.457   3.825  14.487  0.2825 -0.7652 -1.7920
  646MPD2    H3 9621   4.336   3.821  14.282 -1.9142  0.0587 -0.8883
  646MPD2     N 9622   4.171   4.243  14.338 -0.4741  0.3597 -0.5804
  646MPD2    H5 9623   4.150   4.307  14.413  1.7306  0.2375  0.1284
  646MPD2    N1 9624   4.449   4.030  14.664 -0.2889  0.0923 -0.5606
  646MPD2    H7 9625   4.518   3.957  14.677 -0.3005  0.7768  3.0947
  647TMC3    C1 9626   4.540   4.108  14.853 -0.8737  0.1651 -0.5916
  647TMC3    C2 9627   4.500   4.113  14.983  0.7911 -0.4973 -0.2906
  647TMC3    C3 9628   4.579   4.051  15.069 -0.6596 -0.7290 -0.4936
  647TMC3    C4 9629   4.658   4.049  14.804  0.1156  0.6326  0.1346
  647TMC3    C5 9630   4.732   3.980  14.896  0.5417  0.4214  0.1210
  647TMC3    C6 9631   4.697   3.980  15.032  0.1373  0.4180 -0.3860
  647TMC3     C 9632   4.443   4.127  14.756  0.3868 -0.6498  0.5613
  647TMC3     O 9633   4.365   4.220  14.770  0.2526 -0.3262 -0.5369
  647TMC3     H 9634   4.403   4.156  15.009 -0.0369 -2.9850  0.6870
  647TMC3    H1 9635   4.684   4.031  14.700  0.9192  0.1429  0.4211
  647TMC3    H2 9636   0.029   3.927  15.099  0.8033  0.7859 -0.7702
  647TMC3    C7 9637   0.127   3.931  14.861 -1.1624  0.3618 -0.9741
  647TMC3    C8 9638   4.526   4.037  15.200 -0.7890  0.1280  0.0558
  647TMC3    O1 9639   0.170   3.836  14.932  0.0668  0.3895  0.0501
  647TMC3    O2 9640   4.483   4.135  15.269 -0.6110  0.0606  0.3738
  648TMC3    C1 9641   3.795   1.734  16.324  0.2041  0.5452  0.0723
  648TMC3    C2 9642   3.896   1.634  16.324 -0.8287  0.3233  0.8470
  648TMC3    C3 9643   3.937   1.593  16.200  0.1641 -0.6881  0.0200
  648TMC3    C4 9644   3.742   1.795  16.213 -0.3510 -0.6887  0.7350
  648TMC3    C5 9645   3.799   1.755  16.092  0.0677  0.0525 -0.9266
  648TMC3    C6 9646   3.890   1.651  16.086  0.0247 -0.0053 -0.1226
  648TMC3     C 9647   3.732   1.759  16.453 -0.3358  0.0486 -0.1230
  648TMC3     O 9648   3.652   1.852  16.458  0.2495  0.2304 -0.1784
  648TMC3     H 9649   3.954   1.609  16.412  0.5805 -0.7698 -0.3943
  648TMC3    H1 9650   3.675   1.880  16.213 -0.3649 -0.7033 -1.1625
  648TMC3    H2 9651   3.927   1.635  15.985 -0.7934 -0.3215 -0.3672
  648TMC3    C7 9652   3.760   1.823  15.961 -1.0686 -0.1538 -0.1454
  648TMC3    C8 9653   4.021   1.469  16.201  0.1814 -0.1778 -0.5255
  648TMC3    O1 9654   3.813   1.783  15.857 -0.7436  0.7546 -0.2189
  648TMC3    O2 9655   4.036   1.412  16.310 -0.0339 -0.0535 -0.6587
  649TMC3    C1 9656   3.035   2.673  12.870 -0.4198 -0.5067 -0.4720
  649TMC3    C2 9657   3.166   2.645  12.889 -1.1293  0.6955  0.3440
  649TMC3    C3 9658   3.197   2.545  12.976 -0.0117 -0.0769  0.2825
  649TMC3    C4 9659   2.933   2.596  12.915 -0.1296  0.7221 -0.0125
  649TMC3    C5 9660   2.969   2.505  13.011  0.0214 -0.0566  0.2868
  649TMC3    C6 9661   3.102   2.473  13.038  0.3707  0.6991 -0.8585
  649TMC3     C 9662   2.998   2.774  12.769  0.4426 -0.3302  0.2813
  649TMC3     O 9663   2.881   2.795  12.748  0.2487 -0.6158  0.1394
  649TMC3     H 9664   3.247   2.707  12.852 -2.1373  1.3311 -0.7824
  649TMC3    H1 9665   2.830   2.625  12.893 -0.7003 -0.9699  0.4001
  649TMC3    H2 9666   3.133   2.413  13.123  1.1798  3.1094  0.5421
  649TMC3    C7 9667   2.859   2.448  13.092  0.1415 -0.2685  0.0828
  649TMC3    C8 9668   3.342   2.509  12.997 -0.4173 -0.0453  0.3634
  649TMC3    O1 9669   2.760   2.518  13.097 -0.2905  0.3561 -0.5903
  649TMC3    O2 9670   3.363   2.445  13.099 -0.0189  0.1454  0.1634
  650TMC3    C1 9671   0.301   4.186  12.914 -0.2862  0.2691  0.0125
  650TMC3    C2 9672   0.219   4.288  12.955 -0.2435  0.8585 -0.3300
  650TMC3    C3 9673   0.146   4.345  12.858 -0.1293 -0.3853 -0.2451
  650TMC3    C4 9674   0.328   4.161  12.783  1.0089 -0.0594 -0.4845
  650TMC3    C5 9675   0.267   4.233  12.691  0.0592  0.4124  0.0321
  650TMC3    C6 9676   0.166   4.318  12.727 -0.7265 -0.3893  0.4734
  650TMC3     C 9677   0.419   4.180  12.999 -1.2630 -0.1868 -0.2223
  650TMC3     O 9678   0.429   4.280  13.067  0.1140  0.0194  0.1551
  650TMC3     H 9679   0.194   4.292  13.061 -0.1311 -0.5741 -0.2389
  650TMC3    H1 9680   0.403   4.088  12.754 -0.0328 -0.6557 -1.6797
  650TMC3    H2 9681   0.099   4.363  12.655  1.3400  1.4295 -0.3484
  650TMC3    C7 9682   0.361   4.294  12.601 -0.2176  0.3773 -0.3827
  650TMC3    C8 9683   0.110   4.484  12.886  0.2424  1.1036  0.8931
  650TMC3    O1 9684   0.454   4.229  12.565 -0.3955  0.0042 -0.1475
  650TMC3    O2 9685   0.182   4.539  12.965 -0.5496  0.4393  0.4366
  651MPD2     C 9686   4.030   1.409  10.421 -0.0137  0.5789  0.5937
  651MPD2    C1 9687   3.978   1.500  10.514 -0.0296  0.2196  0.1082
  651MPD2    C2 9688   4.052   1.614  10.563  0.6037 -0.0429  0.2475
  651MPD2    C3 9689   4.176   1.640  10.506 -0.2626  0.7882 -0.0132
  651MPD2    C4 9690   4.227   1.548  10.412 -0.0186  0.0502  0.6326
  651MPD2    C5 9691   4.153   1.435  10.374 -0.4580  0.1558 -0.4409
  651MPD2     H 9692   4.008   1.681  10.635 -0.1028  1.2993 -1.4372
  651MPD2    H1 9693   4.322   1.548  10.360 -0.1315 -1.6478  0.4342
  651MPD2    H2 9694   3.981   1.316  10.394  1.1386 -0.2570  1.3591
  651MPD2    H3 9695   4.200   1.357  10.314 -1.3120  1.0648 -2.3035
  651MPD2     N 9696   4.247   1.748  10.551  0.1912  0.2133 -0.2901
  651MPD2    H5 9697   4.200   1.812  10.614 -1.2016  0.8117 -1.9611
  651MPD2    N1 9698   3.842   1.495  10.561 -0.2485 -0.5593 -0.4185
  651MPD2    H7 9699   3.810   1.568  10.623 -0.5607 -1.4128  0.4289
  652TMC3    C1 9700   4.557   2.105  10.528  0.4060  0.2697  0.0661
  652TMC3    C2 9701   4.528   1.979  10.519  0.5279  0.3633 -0.7693
  652TMC3    C3 9702   4.402   1.929  10.535  0.1253 -0.4552  0.0726
  652TMC3    C4 9703   4.462   2.200  10.563  0.0298 -0.1437 -1.1893
  652TMC3    C5 9704   4.333   2.149  10.580  0.0963 -0.4213  0.2093
  652TMC3    C6 9705   4.299   2.017  10.555  0.5946 -0.0298 -0.9179
  652TMC3     C 9706   4.686   2.159  10.498 -0.2479  0.4422  0.2805
  652TMC3     O 9707   4.686   2.256  10.423  0.2890  0.5710  0.6276
  652TMC3     H 9708   4.608   1.911  10.492  1.3709  1.6093 -1.4077
  652TMC3    H1 9709   4.493   2.303  10.579 -1.2475 -0.3178  2.4488
  652TMC3    H2 9710   4.196   1.992  10.533  0.1747  1.7994 -0.9796
  652TMC3    C7 9711   4.223   2.237  10.611 -0.0243 -0.6231 -0.7383
  652TMC3    C8 9712   4.366   1.791  10.508  0.5042 -0.0871  0.4691
  652TMC3    O1 9713   4.116   2.185  10.644 -0.5281  0.4109 -0.4588
  652TMC3    O2 9714   4.457   1.719  10.478  0.0883  0.4469 -0.0155
  653MPD2     C 9715   2.523   0.944  17.476 -0.1861 -0.5004 -0.5935
  653MPD2    C1 9716   2.468   1.040  17.393 -0.2179  0.7548  0.4317
  653MPD2    C2 9717   2.444   1.002  17.263  0.4357  0.8856  0.4161
  653MPD2    C3 9718   2.460   0.871  17.224  0.7663 -0.0091  0.1633
  653MPD2    C4 9719   2.504   0.778  17.315 -0.3160 -0.4392 -0.1203
  653MPD2    C5 9720   2.537   0.818  17.442 -0.2096 -0.0762 -0.0987
  653MPD2     H 9721   2.403   1.073  17.192  0.2008  2.9665  2.5926
  653MPD2    H1 9722   2.514   0.671  17.299 -0.6332 -0.4494 -0.2439
  653MPD2    H2 9723   2.541   0.967  17.580 -0.5884  0.5994 -0.7695
  653MPD2    H3 9724   2.569   0.746  17.516 -2.0192  0.1331  0.8951
  653MPD2     N 9725   2.420   0.830  17.094  0.6225 -0.5584 -0.5867
  653MPD2    H5 9726   2.388   0.906  17.034  1.9463 -0.0275 -0.6146
  653MPD2    N1 9727   2.442   1.169  17.437 -0.0675  0.5211 -0.1650
  653MPD2    H7 9728   2.382   1.219  17.371 -2.0288 -0.5425  0.8022
  654TMC3    C1 9729   2.395   0.683  16.905  0.0203  0.5017  0.1823
  654TMC3    C2 9730   2.357   0.791  16.831  0.2696 -0.2045  0.2835
  654TMC3    C3 9731   2.381   0.799  16.690  0.4938  0.0284 -0.5319
  654TMC3    C4 9732   2.459   0.577  16.844  0.3864  0.5537 -1.1774
  654TMC3    C5 9733   2.475   0.587  16.709 -0.2363  0.4213 -0.8777
  654TMC3    C6 9734   2.446   0.698  16.631  0.0809  0.4402  0.5228
  654TMC3     C 9735   2.445   0.706  17.040  0.2559  0.0988  0.3287
  654TMC3     O 9736   2.503   0.606  17.084  1.0468  0.2351 -0.0720
  654TMC3     H 9737   2.297   0.866  16.882 -1.1709  0.6273 -2.6389
  654TMC3    H1 9738   2.483   0.491  16.905  1.8001  0.9819 -1.1423
  654TMC3    H2 9739   2.476   0.691  16.527  1.0893  0.8733  0.7871
  654TMC3    C7 9740   2.577   0.501  16.658 -0.7111  0.2041 -0.2850
  654TMC3    C8 9741   2.323   0.908  16.617  0.2752  0.4625  0.0899
  654TMC3    O1 9742   2.608   0.518  16.540  0.3352  0.8087  0.2162
  654TMC3    O2 9743   2.263   0.989  16.684 -0.5697  0.3125 -0.1169
  655MPD2     C 9744   4.235   1.915  15.651 -0.3257 -0.4313 -0.1871
  655MPD2    C1 9745   4.117   1.978  15.606 -0.2631  0.5599  0.7823
  655MPD2    C2 9746   4.072   1.947  15.476 -0.2289  0.1825 -0.0762
  655MPD2    C3 9747   4.121   1.841  15.407  0.1697  0.0123  0.5422
  655MPD2    C4 9748   4.229   1.770  15.458 -0.0094 -1.0598 -0.2088
  655MPD2    C5 9749   4.282   1.813  15.575 -0.2100 -0.2907  0.2983
  655MPD2     H 9750   3.984   1.998  15.436 -0.4220  1.6678  2.2692
  655MPD2    H1 9751   4.265   1.684  15.404 -1.1513 -1.2278 -0.7064
  655MPD2    H2 9752   4.288   1.942  15.742 -1.0659 -1.7079  0.6240
  655MPD2    H3 9753   4.359   1.744  15.609 -0.4805  0.0169  1.5335
  655MPD2     N 9754   4.066   1.792  15.289 -0.2825  0.1543  0.0355
  655MPD2    H5 9755   4.084   1.697  15.256 -1.0062  0.7297 -2.0177
  655MPD2    N1 9756   4.054   2.074  15.684  0.2745 -0.6829  0.1957
  655MPD2    H7 9757   3.984   2.128  15.636  1.2284 -0.5905 -1.0994
  656TMC3    C1 9758   3.980   2.200  15.860 -0.1502  0.1564  0.2346
  656TMC3    C2 9759   3.907   2.176  15.974 -0.2130  0.2976 -0.1316
  656TMC3    C3 9760   3.798   2.250  15.999  0.4604  0.2817 -0.5964
  656TMC3    C4 9761   3.932   2.289  15.766  0.9933 -0.3285 -0.3290
  656TMC3    C5 9762   3.828   2.367  15.806  0.1267  0.6582  0.3487
  656TMC3    C6 9763   3.757   2.355  15.922  0.8704  0.1187  0.0936
  656TMC3     C 9764   4.070   2.094  15.818 -0.5263  0.3319 -0.1040
  656TMC3     O 9765   4.120   2.023  15.903  0.4587  0.0623 -0.1881
  656TMC3     H 9766   3.949   2.097  16.035 -0.8508 -0.5260 -0.7544
  656TMC3    H1 9767   3.992   2.317  15.680  1.1892  1.2644  0.3281
  656TMC3    H2 9768   3.669   2.413  15.945 -1.1074 -1.7287 -2.9111
  656TMC3    C7 9769   3.771   2.460  15.708  0.3088 -0.7162  0.3273
  656TMC3    C8 9770   3.717   2.202  16.112 -0.5382  0.2314 -0.1969
  656TMC3    O1 9771   3.660   2.501  15.745 -0.3951  0.1954  0.3471
  656TMC3    O2 9772   3.753   2.104  16.177 -0.5672 -0.3823 -0.0649
  657TMC3    C1 9773   2.660   1.325  15.534  0.4659  0.5610 -0.2573
  657TMC3    C2 9774   2.735   1.419  15.601 -0.2251  0.2922  0.3097
  657TMC3    C3 9775   2.678   1.503  15.692 -0.1729 -1.1449  0.8776
  657TMC3    C4 9776   2.525   1.319  15.559  0.3233  0.2260 -0.3934
  657TMC3    C5 9777   2.476   1.401  15.659 -0.6195 -0.1778  0.5820
  657TMC3    C6 9778   2.547   1.490  15.722 -0.2278  0.2581  0.5620
  657TMC3     C 9779   2.717   1.209  15.471  0.3646 -0.4171  0.9455
  657TMC3     O 9780   2.650   1.107  15.438  0.0374 -0.0310  0.2496
  657TMC3     H 9781   2.838   1.432  15.571 -0.5643  1.1947 -0.4795
  657TMC3    H1 9782   2.461   1.244  15.515  1.3327  0.0982 -1.6394
  657TMC3    H2 9783   2.494   1.549  15.796 -2.0416 -0.4044 -0.2134
  657TMC3    C7 9784   2.342   1.372  15.717 -0.5059 -0.1998 -0.1549
  657TMC3    C8 9785   2.742   1.629  15.734 -0.2251  0.4842 -0.7430
  657TMC3    O1 9786   2.325   1.388  15.834  0.0191 -0.1386  0.6271
  657TMC3    O2 9787   2.679   1.703  15.811 -0.7225  0.1965 -0.0601
  658MPD2     C 9788   4.206   1.491  14.681  0.8183  0.0900  0.2099
  658MPD2    C1 9789   4.088   1.564  14.671 -0.2318 -0.0076  0.0215
  658MPD2    C2 9790   4.054   1.629  14.552  0.3783  0.5233  0.2024
  658MPD2    C3 9791   4.145   1.630  14.454 -0.4112  0.2199  0.5760
  658MPD2    C4 9792   4.267   1.575  14.462  0.0935  0.1542 -0.3505
  658MPD2    C5 9793   4.295   1.502  14.572  0.4711  0.2124 -0.1047
  658MPD2     H 9794   3.965   1.686  14.530  0.2471  1.1378  2.2691
  658MPD2    H1 9795   4.341   1.578  14.383  1.0050  0.1210  0.5003
  658MPD2    H2 9796   4.248   1.445  14.769  2.8498 -0.3730 -0.9920
  658MPD2    H3 9797   4.390   1.452  14.583 -0.6730 -1.7647  0.8820
  658MPD2     N 9798   4.108   1.697  14.334 -0.0676  0.6218 -0.3065
  658MPD2    H5 9799   4.015   1.736  14.331 -0.9497 -1.5085 -0.3796
  658MPD2    N1 9800   3.996   1.573  14.777 -0.4866 -0.0933  0.1006
  658MPD2    H7 9801   3.913   1.630  14.762 -0.2915 -0.1305 -1.0817
  659TMC3    C1 9802   3.911   1.579  14.990 -1.2359 -0.4732  0.1359
  659TMC3    C2 9803   3.979   1.660  15.074 -0.0084  0.7703  0.4979
  659TMC3    C3 9804   3.925   1.782  15.105 -0.4430  0.5150 -0.3954
  659TMC3    C4 9805   3.787   1.607  14.946  0.0366 -0.3284 -1.2745
  659TMC3    C5 9806   3.740   1.728  14.982 -0.6666  0.8291  0.1941
  659TMC3    C6 9807   3.810   1.821  15.051 -0.1888 -0.3488 -0.2452
  659TMC3     C 9808   4.008   1.520  14.900 -0.0283 -0.1906  0.2365
  659TMC3     O 9809   4.108   1.465  14.949 -0.4823  0.1433 -0.0860
  659TMC3     H 9810   4.079   1.622  15.089  0.6928  2.9296  1.2954
  659TMC3    H1 9811   3.740   1.531  14.886  0.1941 -0.8562 -0.7236
  659TMC3    H2 9812   3.765   1.917  15.071  0.6976 -0.2057  1.1111
  659TMC3    C7 9813   3.595   1.743  15.006 -0.2487  0.7219 -0.1373
  659TMC3    C8 9814   3.974   1.857  15.211 -0.9875  0.3198 -0.2575
  659TMC3    O1 9815   3.565   1.823  15.090 -0.0905 -0.0042  0.4814
  659TMC3    O2 9816   3.930   1.970  15.212 -0.2042 -0.2407  0.3584
  660MPD2     C 9817   2.282   0.606  12.629 -0.2153 -0.2306 -0.0729
  660MPD2    C1 9818   2.148   0.605  12.664  0.0531  0.9984 -0.7909
  660MPD2    C2 9819   2.108   0.530  12.776  0.3315  0.0857  0.8738
  660MPD2    C3 9820   2.198   0.440  12.840 -0.3165  0.3827  0.0266
  660MPD2    C4 9821   2.329   0.446  12.800 -0.0042 -0.1503  0.7877
  660MPD2    C5 9822   2.375   0.528  12.705  0.0347  0.5136  0.4899
  660MPD2     H 9823   2.004   0.522  12.805 -0.2870  2.1809 -0.7792
  660MPD2    H1 9824   2.395   0.382  12.858 -0.3498 -1.1943  0.0205
  660MPD2    H2 9825   2.331   0.648  12.542  1.1471  2.1973  1.8476
  660MPD2    H3 9826   2.476   0.525  12.666 -0.2372 -1.8819  0.0250
  660MPD2     N 9827   2.149   0.359  12.944  1.1415 -0.1671 -0.3422
  660MPD2    H5 9828   2.055   0.367  12.981  0.1270 -1.2460 -2.6982
  660MPD2    N1 9829   2.066   0.690  12.595  0.0265  0.6049  0.5561
  660MPD2    H7 9830   2.107   0.757  12.530  0.2381 -0.5875 -0.5233
  661TMC3    C1 9831   1.888   0.809  12.510  0.1446 -0.3602  0.2910
  661TMC3    C2 9832   1.951   0.832  12.395 -0.4584  0.4700 -0.4981
  661TMC3    C3 9833   1.882   0.900  12.300  0.4819  0.1173 -0.1087
  661TMC3    C4 9834   1.756   0.850  12.525 -0.3109  0.3520 -0.5524
  661TMC3    C5 9835   1.697   0.927  12.428  0.0065  0.5332  0.4535
  661TMC3    C6 9836   1.756   0.958  12.312  0.2344  0.2302 -0.1757
  661TMC3     C 9837   1.933   0.702  12.600  0.0407  0.6915  0.1205
  661TMC3     O 9838   1.855   0.645  12.671  0.7403  0.0018 -0.5124
  661TMC3     H 9839   2.051   0.791  12.387  0.7598  3.1317  1.3176
  661TMC3    H1 9840   1.705   0.826  12.618  0.2455  1.5925  0.0643
  661TMC3    H2 9841   1.702   1.015  12.238 -1.3993 -1.0256  0.0627
  661TMC3    C7 9842   1.549   0.946  12.441 -0.1766  0.2591 -0.3074
  661TMC3    C8 9843   1.938   0.891  12.167 -0.2058  0.1944  0.4765
  661TMC3    O1 9844   1.495   1.053  12.416  0.1295 -0.3234  0.2022
  661TMC3    O2 9845   2.008   0.794  12.140 -0.4620 -0.4187 -0.3114
  662MPD2     C 9846   2.702   3.842  17.621  0.1524  1.0588  0.3174
  662MPD2    C1 9847   2.578   3.796  17.582  0.5519 -0.6046 -0.3920
  662MPD2    C2 9848   2.480   3.884  17.566 -0.0409  0.3301  0.6059
  662MPD2    C3 9849   2.493   4.019  17.598 -0.2694  0.2427  0.0571
  662MPD2    C4 9850   2.612   4.068  17.641 -0.1318  0.2026  0.2577
  662MPD2    C5 9851   2.717   3.976  17.655  0.4275  0.7782 -0.8733
  662MPD2     H 9852   2.382   3.847  17.537  0.2538  0.2314 -0.2314
  662MPD2    H1 9853   2.631   4.174  17.648 -1.3594  0.5306 -1.2327
  662MPD2    H2 9854   2.791   3.781  17.620  0.3447  1.3801 -0.9151
  662MPD2    H3 9855   2.818   4.006  17.680  1.5595 -2.2973 -1.6376
  662MPD2     N 9856   2.391   4.116  17.582 -0.0024 -0.6870 -0.8622
  662MPD2    H5 9857   2.414   4.210  17.610  0.5122 -1.8747  2.6902
  662MPD2    N1 9858   2.544   3.659  17.552 -0.0478 -0.2533 -0.3973
  662MPD2    H7 9859   2.447   3.638  17.530  0.3182  0.8740 -3.1594
  663TMC3    C1 9860   2.561   3.439  17.486 -0.3196 -0.9907 -0.7660
  663TMC3    C2 9861   2.439   3.410  17.535  1.0109  0.3310  0.5406
  663TMC3    C3 9862   2.372   3.301  17.489  0.2381 -0.0554 -0.3649
  663TMC3    C4 9863   2.603   3.390  17.369 -0.3093 -0.9125 -0.3536
  663TMC3    C5 9864   2.524   3.294  17.309 -0.1759 -0.6209  0.6883
  663TMC3    C6 9865   2.414   3.242  17.372 -0.1143  0.1222  0.3572
  663TMC3     C 9866   2.630   3.557  17.527  0.3156 -0.0040  0.0676
  663TMC3     O 9867   2.751   3.554  17.524  0.3837 -0.6920  0.5332
  663TMC3     H 9868   2.426   3.434  17.640 -3.5350 -0.7549  0.2162
  663TMC3    H1 9869   2.694   3.427  17.325  0.1191  0.2143  1.4771
  663TMC3    H2 9870   2.352   3.169  17.322 -1.2924  1.2180  0.2442
  663TMC3    C7 9871   2.577   3.239  17.185 -0.4318 -0.0478  0.5262
  663TMC3    C8 9872   2.233   3.279  17.514 -0.1011 -0.4247  0.2555
  663TMC3    O1 9873   2.669   3.293  17.130 -0.0034  0.1076 -0.1761
  663TMC3    O2 9874   2.199   3.161  17.498  0.6919  0.2220  0.0267
  664MPD2     C 9875   0.144   2.721  17.094  0.5278 -0.5386 -0.5657
  664MPD2    C1 9876   0.210   2.779  17.193  0.0793  0.7946  0.4162
  664MPD2    C2 9877   0.189   2.739  17.321  0.5074 -0.1920  0.3291
  664MPD2    C3 9878   0.090   2.644  17.359 -0.3044  0.0651  0.1325
  664MPD2    C4 9879   0.013   2.601  17.256  0.5174  0.1385 -0.6036
  664MPD2    C5 9880   0.051   2.634  17.134 -0.4568 -0.1161 -0.1991
  664MPD2     H 9881   0.241   2.785  17.404  1.7646  0.5139 -0.8454
  664MPD2    H1 9882   4.668   2.529  17.267 -0.0971  0.1999 -4.6491
  664MPD2    H2 9883   0.157   2.744  16.989 -1.8443 -1.1253 -1.0008
  664MPD2    H3 9884   4.718   2.591  17.062 -0.9725 -0.8420  0.7248
  664MPD2     N 9885   0.092   2.596  17.490  0.1203 -0.1868  0.3333
  664MPD2    H5 9886   0.160   2.639  17.551  0.0285  2.8210 -1.6681
  664MPD2    N1 9887   0.303   2.891  17.172 -0.0227  0.1912  0.3288
  664MPD2    H7 9888   0.343   2.930  17.257 -0.1978 -0.0677  0.5283
  665TMC3    C1 9889   0.030   2.495  17.685  0.5567 -0.2512 -0.5918
  665TMC3    C2 9890   4.652   2.462   0.027 -0.0886 -0.9526 -0.2264
  665TMC3    C3 9891   4.656   2.490   0.161  0.2749 -0.0380  0.0273
  665TMC3    C4 9892   0.143   2.546  17.734 -0.0170  0.0798 -0.1197
  665TMC3    C5 9893   0.136   2.575   0.126  0.5747  0.4529  0.1779
  665TMC3    C6 9894   0.033   2.554   0.215 -0.7083  0.1085  0.0704
  665TMC3     C 9895   4.735   2.510  17.546 -0.1044 -0.5557  0.0722
  665TMC3     O 9896   4.642   2.445  17.499 -0.9305 -0.1708 -0.0937
  665TMC3     H 9897   4.566   2.417  17.719 -0.1543  2.0560 -2.9840
  665TMC3    H1 9898   0.235   2.564  17.681  0.2392 -0.8295  0.0071
  665TMC3    H2 9899   0.032   2.582   0.320 -2.4314  1.2752 -0.2414
  665TMC3    C7 9900   0.250   2.665   0.167 -0.2853 -0.1061  0.6637
  665TMC3    C8 9901   4.532   2.489   0.238 -0.5825  0.0053  0.3876
  665TMC3    O1 9902   0.326   2.709   0.082  1.0120  0.0509 -1.0172
  665TMC3    O2 9903   4.533   2.545   0.345  0.1790  0.0212  0.1009
  666TMC3    C1 9904   3.547   3.754  10.033  0.3473  0.8037  0.2831
  666TMC3    C2 9905   3.650   3.668  10.028  0.0715  0.1231  0.0705
  666TMC3    C3 9906   3.768   3.706   9.972 -0.2561  0.5043  0.0177
  666TMC3    C4 9907   3.558   3.873   9.965 -0.2632 -0.1881  0.3818
  666TMC3    C5 9908   3.676   3.914   9.914 -0.9314  0.1575 -0.4640
  666TMC3    C6 9909   3.786   3.827   9.914 -0.4556 -0.0765  0.2924
  666TMC3     C 9910   3.423   3.730  10.103 -0.1375  0.0356  0.5871
  666TMC3     O 9911   3.335   3.813  10.076 -0.2411 -0.0447  0.4975
  666TMC3     H 9912   3.629   3.571  10.073  0.8665  1.2960  2.9483
  666TMC3    H1 9913   3.468   3.933   9.975 -1.0637 -1.5657  1.4822
  666TMC3    H2 9914   3.883   3.868   9.891 -0.2790 -2.5218 -3.2539
  666TMC3    C7 9915   3.703   4.051   9.905  0.1011 -0.6290  0.0588
  666TMC3    C8 9916   3.888   3.643  10.030 -0.0008 -0.4166 -0.7210
  666TMC3    O1 9917   3.820   4.089   9.914 -0.4502  0.4902 -0.3031
  666TMC3    O2 9918   3.875   3.522  10.051  0.4138 -0.2148 -0.3435
  667MPD2     C 9919   1.368   2.914  14.423  0.2327 -0.3346  0.2814
  667MPD2    C1 9920   1.305   2.947  14.545 -0.1659  0.1432  0.0888
  667MPD2    C2 9921   1.177   2.898  14.560 -0.0069 -0.4587  0.3640
  667MPD2    C3 9922   1.114   2.832  14.458  0.2356  0.5953  0.3550
  667MPD2    C4 9923   1.176   2.816  14.340  0.1596 -0.1072  0.7754
  667MPD2    C5 9924   1.307   2.852  14.322  0.2471 -0.3461  0.7315
  667MPD2     H 9925   1.126   2.904  14.656 -1.3534 -4.1183 -0.1185
  667MPD2    H1 9926   1.125   2.767  14.257  2.1621 -0.5150 -0.2014
  667MPD2    H2 9927   1.474   2.929  14.403 -0.1413 -0.9887 -2.2202
  667MPD2    H3 9928   1.363   2.822  14.234  0.7246  0.3825  0.7882
  667MPD2     N 9929   0.985   2.778  14.465 -0.6047  0.4918 -0.6921
  667MPD2    H5 9930   0.955   2.711  14.395  0.5014 -0.3090 -0.3903
  667MPD2    N1 9931   1.369   3.010  14.659 -0.4153  0.1496  0.1735
  667MPD2    H7 9932   1.313   3.022  14.743  0.8400 -0.4869  1.0896
  668TMC3    C1 9933   1.533   3.142  14.758 -0.3028 -0.6603 -0.5316
  668TMC3    C2 9934   1.667   3.169  14.763 -0.1480 -0.5636  0.6858
  668TMC3    C3 9935   1.712   3.268  14.851  0.1975  0.3303  0.7450
  668TMC3    C4 9936   1.444   3.197  14.852 -0.5209 -0.2222  0.1778
  668TMC3    C5 9937   1.490   3.285  14.936 -0.3582  0.4968  0.4880
  668TMC3    C6 9938   1.620   3.328  14.939  0.0587  0.6381  0.4514
  668TMC3     C 9939   1.497   3.057  14.652 -0.2600  0.1609 -0.3186
  668TMC3     O 9940   1.577   3.052  14.557  0.0991  1.1215 -0.4821
  668TMC3     H 9941   1.739   3.123  14.696 -1.0112 -0.8033 -0.0876
  668TMC3    H1 9942   1.340   3.182  14.828 -0.5472 -0.3513  0.3690
  668TMC3    H2 9943   1.669   3.363  15.029  1.4071 -1.2428  0.4561
  668TMC3    C7 9944   1.414   3.322  15.049  0.0857  0.0670  0.2187
  668TMC3    C8 9945   1.846   3.306  14.872  0.6150 -0.7597  0.3576
  668TMC3    O1 9946   1.467   3.402  15.126  0.5632 -0.5060  0.1356
  668TMC3    O2 9947   1.875   3.375  14.966 -0.0517 -0.3240 -0.0161
  669TMC3    C1 9948   4.357   2.974  14.854 -0.2129 -0.4757 -0.3109
  669TMC3    C2 9949   4.262   2.959  14.761  0.2572  1.1012 -0.3350
  669TMC3    C3 9950   4.275   3.051  14.656  0.8867 -0.6323 -0.0218
  669TMC3    C4 9951   4.438   3.089  14.864 -0.2512  0.2755 -0.3990
  669TMC3    C5 9952   4.436   3.183  14.769 -0.4158 -0.0628 -0.1914
  669TMC3    C6 9953   4.361   3.156  14.652 -0.6039  0.5329  0.8000
  669TMC3     C 9954   4.388   2.867  14.953  0.2565  0.5005  0.0379
  669TMC3     O 9955   4.502   2.839  14.995  0.8245 -0.0835  0.0429
  669TMC3     H 9956   4.202   2.871  14.744  0.6497  1.0566 -1.4731
  669TMC3    H1 9957   4.504   3.095  14.950 -0.8060 -1.3474  0.1457
  669TMC3    H2 9958   4.363   3.234  14.576 -1.3820 -0.7958 -0.5977
  669TMC3    C7 9959   4.554   3.265  14.748 -0.4179  0.5905 -0.0722
  669TMC3    C8 9960   4.189   3.018  14.543  0.0367 -0.1043  0.3712
  669TMC3    O1 9961   4.566   3.312  14.632  0.1476  0.2601  0.4546
  669TMC3    O2 9962   4.087   2.954  14.559 -0.6536  0.5788  0.2148
  670MPD2     C 9963   2.479   1.085  13.994 -0.2111  0.2085  0.9920
  670MPD2    C1 9964   2.459   0.973  13.910  0.1116 -0.3435 -0.0716
  670MPD2    C2 9965   2.434   0.849  13.969 -0.5230 -0.2314 -0.3180
  670MPD2    C3 9966   2.437   0.834  14.110  0.3430  0.0474  0.0250
  670MPD2    C4 9967   2.454   0.947  14.193 -0.5394 -0.5622 -0.2685
  670MPD2    C5 9968   2.485   1.069  14.130 -0.1095  0.2087  0.0886
  670MPD2     H 9969   2.426   0.760  13.907 -1.1332  0.1662 -0.8070
  670MPD2    H1 9970   2.469   0.949  14.300 -2.7003  1.5342 -0.0001
  670MPD2    H2 9971   2.494   1.188  13.962 -0.2239  0.1487  0.7987
  670MPD2    H3 9972   2.507   1.157  14.188 -0.1552  0.5340 -0.3844
  670MPD2     N 9973   2.424   0.706  14.162 -0.1256 -0.1084 -0.2505
  670MPD2    H5 9974   2.401   0.631  14.097  1.5397 -1.4630  0.7173
  670MPD2    N1 9975   2.480   0.970  13.771  0.5248 -0.3477  0.0039
  670MPD2    H7 9976   2.454   0.883  13.725 -1.1292  1.0293 -1.6249
  671TMC3    C1 9977   2.410   0.533  14.317  0.0024  0.0070 -0.1206
  671TMC3    C2 9978   2.518   0.484  14.396  0.1100  0.1808 -0.2184
  671TMC3    C3 9979   2.598   0.399  14.326  0.4852 -0.3024 -0.1839
  671TMC3    C4 9980   2.375   0.475  14.201 -0.1948 -0.1663  0.0931
  671TMC3    C5 9981   2.459   0.384  14.144 -0.4102  0.1159  0.3105
  671TMC3    C6 9982   2.568   0.349  14.210 -0.1978  0.0239 -0.4154
  671TMC3     C 9983   2.426   0.673  14.294  0.1666  0.5019 -0.1034
  671TMC3     O 9984   2.464   0.736  14.390  0.1152  0.2020  0.0768
  671TMC3     H 9985   2.549   0.551  14.475  2.1505 -0.5573 -0.3735
  671TMC3    H1 9986   2.283   0.499  14.148  0.8291  2.0280 -0.6784
  671TMC3    H2 9987   2.647   0.289  14.164 -0.6076 -1.5968  1.0019
  671TMC3    C7 9988   2.425   0.327  14.016 -0.5254 -0.0317  0.4613
  671TMC3    C8 9989   2.740   0.441  14.355 -0.1412  0.4007 -0.1176
  671TMC3    O1 9990   2.346   0.394  13.945 -0.0461  0.2084  0.2641
  671TMC3    O2 9991   2.768   0.476  14.469 -0.1469  0.4155 -0.2595
  672MPD2     C 9992   2.847   1.158   0.206  0.0218  0.0251 -0.3403
  672MPD2    C1 9993   2.727   1.124   0.254  0.0217 -0.1792  0.1339
  672MPD2    C2 9994   2.676   1.186   0.367 -0.6732 -0.4289  0.2961
  672MPD2    C3 9995   2.759   1.266   0.443 -0.0298 -0.0271  0.4471
  672MPD2    C4 9996   2.882   1.302   0.396 -0.8017 -0.3463  1.0799
  672MPD2    C5 9997   2.917   1.255   0.270 -0.2012 -0.0652 -0.3573
  672MPD2     H 9998   2.581   1.159   0.413  0.3085 -1.0446  1.9861
  672MPD2    H1 9999   2.953   1.364   0.449  0.6801  0.2926 -1.6175
  672MPD2    H210000   2.892   1.121   0.115 -0.0468 -0.2660 -0.2573
  672MPD2    H310001   3.015   1.284   0.234 -0.6140  1.6725 -0.0551
  672MPD2     N10002   2.728   1.314   0.574  0.3712 -0.3284 -0.4420
  672MPD2    H510003   2.800   1.352   0.635  1.7174 -0.2918 -2.0576
  672MPD2    N110004   2.640   1.029   0.194 -0.5144  0.1883  0.3655
  672MPD2    H710005   2.557   1.018   0.250 -0.4526  3.7282  1.1919
  673TMC3    C110006   2.582   0.827   0.088 -0.3337  0.2935  0.2750
  673TMC3    C210007   2.639   0.706   0.084  0.4685 -1.1387 -0.0738
  673TMC3    C310008   2.566   0.596   0.110 -0.0870  0.1845 -0.5424
  673TMC3    C410009   2.453   0.847   0.132  0.9900  0.4956  0.3087
  673TMC3    C510010   2.384   0.737   0.167  0.1259 -0.5643  0.4455
  673TMC3    C610011   2.431   0.609   0.144  0.1832 -0.2542 -0.0767
  673TMC3     C10012   2.673   0.935   0.099  0.5285  0.9371 -0.6799
  673TMC3     O10013   2.770   0.919   0.025 -0.1321 -0.1413 -0.0712
  673TMC3     H10014   2.739   0.703   0.043 -0.1299  2.3912 -1.7991
  673TMC3    H110015   2.411   0.947   0.141 -0.1656  0.0657 -0.2515
  673TMC3    H210016   2.379   0.522   0.182  1.2697 -0.6170  0.5895
  673TMC3    C710017   2.248   0.741   0.210 -0.1095  0.7342 -0.3852
  673TMC3    C810018   2.634   0.484   0.158  0.0822 -0.2744  0.2600
  673TMC3    O110019   2.204   0.639   0.259 -0.4963 -0.2793  0.4209
  673TMC3    O210020   2.574   0.377   0.161 -0.0564 -0.0052 -0.1356
  674MPD2     C10021   2.286   0.230  17.125 -0.2669 -0.0973  0.0106
  674MPD2    C110022   2.278   0.160  17.242 -0.1355 -0.1696  0.3545
  674MPD2    C210023   2.223   0.229  17.360 -0.2158  0.0245 -0.7682
  674MPD2    C310024   2.226   0.369  17.357 -0.7662  0.3040  0.6912
  674MPD2    C410025   2.244   0.438  17.241  0.1397  0.4087  0.2252
  674MPD2    C510026   2.262   0.366  17.125  0.0609  0.1353 -0.0844
  674MPD2     H10027   2.202   0.183  17.456  0.8506  1.7448  0.3101
  674MPD2    H110028   2.242   0.546  17.238  0.6017  0.4220  0.4115
  674MPD2    H210029   2.330   0.178  17.042 -0.5190  0.3107 -0.3792
  674MPD2    H310030   2.272   0.427  17.036  0.0548 -1.0894 -0.9115
  674MPD2     N10031   2.199   0.427  17.477  0.0246  0.0042  0.4911
  674MPD2    H510032   2.177   0.359  17.549  1.2792 -1.4965 -0.5379
  674MPD2    N110033   2.325   0.030  17.237 -0.4742  0.1412 -0.4227
  674MPD2    H710034   2.330   4.715  17.149  0.0709 -0.0339 -0.2912
  675TMC3    C110035   2.400   0.044  17.459  0.1361 -0.3773  0.3882
  675TMC3    C210036   2.382   0.008  17.586  0.3941 -0.2408 -0.1261
  675TMC3    C310037   2.454   0.069  17.685 -0.4980  0.1815 -0.2168
  675TMC3    C410038   2.497   0.133  17.427 -0.8808 -0.0701 -0.2008
  675TMC3    C510039   2.572   0.183  17.528 -0.1710  0.8133 -0.4983
  675TMC3    C610040   2.559   0.142  17.656 -0.3240 -0.0599 -0.0631
  675TMC3     C10041   2.348   4.698  17.353  1.3941 -1.0083 -0.2132
  675TMC3     O10042   2.344   4.580  17.378 -0.0585  0.2220  0.0898
  675TMC3     H10043   2.299   4.678  17.610 -0.1182  0.7878  0.8876
  675TMC3    H110044   2.525   0.140  17.323 -0.2108  0.2384  0.0019
  675TMC3    H210045   2.618   0.183  17.737  0.0605  0.5967 -0.6723
  675TMC3    C710046   2.639   0.309  17.495 -0.1254  0.3255 -0.2639
  675TMC3    C810047   2.432   0.007   0.078  0.3877  0.5837 -0.1523
  675TMC3    O110048   2.602   0.379  17.399 -0.0081  0.1245 -0.2553
  675TMC3    O210049   2.385   4.631   0.079 -0.3727 -0.3866  0.3435
  676MPD2     C10050   4.637   3.641  11.880  0.8059 -0.2537 -0.1716
  676MPD2    C110051   4.586   3.767  11.855 -0.3889  0.1547  0.4009
  676MPD2    C210052   4.484   3.790  11.760 -0.5242 -0.1822 -0.0463
  676MPD2    C310053   4.443   3.676  11.690  0.0015 -0.4531 -1.0049
  676MPD2    C410054   4.496   3.551  11.715  0.2854  0.0543  0.2150
  676MPD2    C510055   4.585   3.538  11.819  0.1797  0.1128  0.1789
  676MPD2     H10056   4.453   3.891  11.737  0.5873  0.4792  1.3908
  676MPD2    H110057   4.456   3.465  11.663  0.6195 -0.5766  1.0027
  676MPD2    H210058   4.707   3.627  11.961  1.1534  0.0659 -0.4152
  676MPD2    H310059   4.619   3.439  11.848 -2.6463 -1.1480 -0.7064
  676MPD2     N10060   4.346   3.684  11.588 -0.3490 -0.5359 -0.6988
  676MPD2    H510061   4.320   3.605  11.530 -0.8903  0.9698 -2.4924
  676MPD2    N110062   4.638   3.875  11.938 -0.2754  0.4464  0.1077
  676MPD2    H710063   4.704   3.854  12.013 -0.9154 -1.0443  0.2540
  677TMC3    C110064   4.653   4.099  12.031  0.3788  0.1024 -0.4061
  677TMC3    C210065   4.686   4.041  12.150  0.1579  0.1362 -0.1164
  677TMC3    C310066   4.713   4.130  12.248 -0.1921 -0.3975  0.0013
  677TMC3    C410067   4.654   4.237  12.003 -0.5098  0.4122  0.0830
  677TMC3    C510068   4.698   4.316  12.101  0.9906  0.2469  0.3288
  677TMC3    C610069   4.711   4.264  12.231 -0.5589  0.3687 -0.1805
  677TMC3     C10070   4.613   4.011  11.913 -0.3425 -0.5205  0.1055
  677TMC3     O10071   4.564   4.059  11.812 -0.2236 -0.4399 -0.4907
  677TMC3     H10072   4.676   3.934  12.165  0.2177  0.1725  0.1762
  677TMC3    H110073   4.623   4.266  11.903  1.4142  0.3564 -0.5340
  677TMC3    H210074   0.006   4.328  12.313  1.3783  0.4783 -0.9614
  677TMC3    C710075   0.003   4.450  12.082  0.1689  0.2633  0.0598
  677TMC3    C810076   0.076   4.094  12.342 -0.0121  0.2949 -0.0364
  677TMC3    O110077   4.728   4.520  12.178  0.3627 -0.3947  0.2662
  677TMC3    O210078   0.162   4.174  12.369  0.3779  0.0224  0.0866
  678MPD2     C10079   1.402   3.754   1.007  0.1178 -0.2640  0.4433
  678MPD2    C110080   1.433   3.622   0.985 -0.0890 -0.1065 -0.1552
  678MPD2    C210081   1.328   3.540   0.954 -0.4382  0.6393  0.0178
  678MPD2    C310082   1.195   3.581   0.962  0.1391  0.2990  0.0881
  678MPD2    C410083   1.172   3.713   0.983  0.2150  0.0850  1.3506
  678MPD2    C510084   1.278   3.796   1.005  0.4568 -0.1763  0.2410
  678MPD2     H10085   1.336   3.434   0.933  1.5673  0.7471  0.2463
  678MPD2    H110086   1.079   3.769   0.991  0.2707  0.4805 -0.8326
  678MPD2    H210087   1.479   3.831   1.004  0.1244 -0.3061 -0.3350
  678MPD2    H310088   1.265   3.903   1.017 -0.4357 -0.2463 -0.0691
  678MPD2     N10089   1.090   3.492   0.943 -0.7138 -0.5275  0.0819
  678MPD2    H510090   1.118   3.395   0.929 -0.7482 -0.5832  0.4020
  678MPD2    N110091   1.563   3.571   0.989 -0.3091  0.2034 -0.4445
  678MPD2    H710092   1.564   3.474   0.958  2.7624 -0.5519  1.8820
  679TMC3    C110093   1.940   3.374   0.944  0.0865  0.0725  0.9340
  679TMC3    C210094   1.816   3.429   0.988  0.3335  0.2614 -0.2465
  679TMC3    C310095   1.805   3.567   1.010 -0.6273 -0.4962 -0.8837
  679TMC3    C410096   2.040   3.458   0.897  0.1760  0.7136  0.3704
  679TMC3    C510097   2.024   3.592   0.922  0.3076  0.1603  0.5493
  679TMC3    C610098   1.910   3.644   0.977  0.6158 -0.0907 -0.0076
  679TMC3     C10099   1.948   3.237   0.910 -0.3309 -0.8345 -0.0460
  679TMC3     O10100   2.014   3.200   0.812 -0.6057  0.1656  0.0373
  679TMC3     H10101   1.727   3.369   1.003  0.1568  1.0843  2.0136
  679TMC3    H110102   2.128   3.422   0.844 -1.8798 -3.8222 -0.0355
  679TMC3    H210103   1.898   3.751   0.992  0.7473 -0.2010  0.8844
  679TMC3    C710104   2.084   3.685   0.830  0.0427 -0.6337  0.2812
  679TMC3    C810105   1.675   3.629   1.041  0.1795  0.4407 -0.2580
  679TMC3    O110106   2.045   3.802   0.843  0.4701  0.1809  0.5249
  679TMC3    O210107   1.691   3.742   1.079 -0.3188 -0.3906  0.2151
  680MPD2     C10108   2.772   2.471  13.820  0.2258 -0.1845  0.8727
  680MPD2    C110109   2.671   2.556  13.771  0.0815  0.2454  0.4058
  680MPD2    C210110   2.690   2.693  13.759 -0.1410  0.1768  0.4432
  680MPD2    C310111   2.812   2.753  13.795  0.3693  0.4552  0.8257
  680MPD2    C410112   2.916   2.668  13.838  0.0944  0.1808 -0.1512
  680MPD2    C510113   2.896   2.527  13.838  0.4204  0.1614  0.1724
  680MPD2     H10114   2.613   2.749  13.706  1.5085  3.5095  1.6165
  680MPD2    H110115   3.012   2.701  13.876  0.8973 -1.7975 -0.4837
  680MPD2    H210116   2.766   2.363  13.833  0.8587 -0.4580 -1.1291
  680MPD2    H310117   2.980   2.463  13.861  1.0736 -0.0146 -2.7182
  680MPD2     N10118   2.827   2.894  13.799  0.5822  0.1473 -0.2465
  680MPD2    H510119   2.921   2.931  13.798 -0.3141  2.4040 -0.3642
  680MPD2    N110120   2.548   2.494  13.741 -0.2536 -0.0195 -0.5000
  680MPD2    H710121   2.551   2.392  13.742 -0.3537 -0.0163  0.0955
  681TMC3    C110122   2.328   2.460  13.659 -0.1521 -0.2758  0.2773
  681TMC3    C210123   2.191   2.481  13.671  0.4943  1.0949 -0.2307
  681TMC3    C310124   2.112   2.422  13.575  0.1887 -0.9730 -0.4082
  681TMC3    C410125   2.383   2.365  13.579 -0.3587  0.5335 -0.3909
  681TMC3    C510126   2.295   2.292  13.510  0.1781 -0.2997 -0.9124
  681TMC3    C610127   2.163   2.321  13.494 -0.6394 -0.7527 -0.1417
  681TMC3     C10128   2.423   2.551  13.714 -0.2899  0.1683  0.1246
  681TMC3     O10129   2.390   2.667  13.731 -0.4070  0.6606 -0.1377
  681TMC3     H10130   2.161   2.564  13.733 -1.0580  0.0317  0.4172
  681TMC3    H110131   2.488   2.338  13.582 -0.7579 -0.6736  2.7256
  681TMC3    H210132   2.104   2.262  13.424  1.1981  0.7874 -2.9490
  681TMC3    C710133   2.352   2.194  13.424  0.2134 -0.3414 -0.4467
  681TMC3    C810134   1.970   2.452  13.580 -0.1914 -0.9190  0.1368
  681TMC3    O110135   2.325   2.076  13.447  0.5738 -0.0153  0.2779
  681TMC3    O210136   1.909   2.396  13.488 -0.4103 -0.1455 -0.3647
  682MPD2     C10137   3.540   0.023  10.715  0.4139  0.3160  0.0344
  682MPD2    C110138   3.660   4.700  10.712 -0.1311 -0.3050 -0.0008
  682MPD2    C210139   3.684   4.596  10.798 -0.9579  0.0806 -0.5994
  682MPD2    C310140   3.589   4.536  10.885  0.1791  0.2300  1.0657
  682MPD2    C410141   3.468   4.609  10.888 -0.5841  0.2807 -0.3807
  682MPD2    C510142   3.443   4.710  10.801 -0.1489  0.2472 -0.3021
  682MPD2     H10143   3.783   4.553  10.811 -1.0126  0.5271  1.2406
  682MPD2    H110144   3.390   4.585  10.960 -0.5577 -2.9129 -1.4164
  682MPD2    H210145   3.517   0.110  10.654  1.9877  0.5355 -0.2365
  682MPD2    H310146   3.342   0.016  10.803  0.2221  1.1709 -0.8034
  682MPD2     N10147   3.618   4.438  10.977  0.3501 -0.8534  0.0409
  682MPD2    H510148   3.717   4.424  10.997  0.9331 -0.0783 -2.3625
  682MPD2    N110149   3.753   4.731  10.610  0.0142  0.4448  0.0030
  682MPD2    H710150   3.829   4.663  10.602 -0.1660  0.3695 -1.0716
  683TMC3    C110151   3.652   4.241  11.365 -0.5752  0.7047  0.1671
  683TMC3    C210152   3.644   4.101  11.341  0.1455  0.8257  0.6140
  683TMC3    C310153   3.612   4.060  11.212  0.7461 -0.6612  0.3555
  683TMC3    C410154   3.621   4.330  11.270  0.3931  0.1076 -0.3691
  683TMC3    C510155   3.577   4.282  11.146  0.0805  0.3166  0.3983
  683TMC3    C610156   3.576   4.150  11.118 -0.3205 -0.2390 -0.0598
  683TMC3     C10157   3.687   4.296  11.494 -0.1164 -0.6465  0.6511
  683TMC3     O10158   3.695   4.418  11.492  0.0493 -0.3690 -0.0679
  683TMC3     H10159   3.688   4.031  11.411 -0.0609  1.3817  1.2990
  683TMC3    H110160   3.622   4.436  11.294  0.5328  0.2210 -0.8774
  683TMC3    H210161   3.560   4.124  11.014 -2.4834 -1.3196  0.5407
  683TMC3    C710162   3.523   4.370  11.048 -0.1778 -0.1359  0.2274
  683TMC3    C810163   3.591   3.926  11.181 -0.1411 -0.2327 -0.0331
  683TMC3    O110164   3.401   4.371  11.038 -0.1675  0.4563 -0.0483
  683TMC3    O210165   3.551   3.907  11.066  0.0642 -0.0551  0.4583
  684MPD2     C10166   2.201   3.894  15.937  0.0324 -0.2655 -0.8812
  684MPD2    C110167   2.309   3.816  15.899  0.1066 -0.0998 -0.1356
  684MPD2    C210168   2.437   3.874  15.915 -0.3601 -0.6928  0.0756
  684MPD2    C310169   2.458   4.002  15.951 -0.5528  0.9343 -0.0899
  684MPD2    C410170   2.348   4.081  15.978 -0.2458  0.8864 -0.4783
  684MPD2    C510171   2.223   4.021  15.980  0.0834  0.1056  0.2514
  684MPD2     H10172   2.521   3.817  15.878  0.1608 -1.1471  1.9211
  684MPD2    H110173   2.358   4.187  16.001 -1.9687  0.7393  0.9462
  684MPD2    H210174   2.098   3.860  15.933 -0.8201  1.9644  2.5872
  684MPD2    H310175   2.129   4.070  16.004 -0.2643 -0.3373 -0.2206
  684MPD2     N10176   2.585   4.059  15.942  0.6748  0.4995 -0.2839
  684MPD2    H510177   2.600   4.158  15.925  0.1380  0.7777  0.8358
  684MPD2    N110178   2.288   3.679  15.849  0.3504 -0.0438  0.0530
  684MPD2    H710179   2.374   3.631  15.829  0.0906  0.4757 -2.3040
  685TMC3    C110180   2.212   3.525  15.699  0.0359  0.2254 -0.5227
  685TMC3    C210181   2.144   3.540  15.578 -0.1220 -0.2048 -0.1192
  685TMC3    C310182   2.202   3.497  15.461 -0.4210  0.0523 -0.0210
  685TMC3    C410183   2.335   3.473  15.702  0.1917  0.3455 -0.6785
  685TMC3    C510184   2.394   3.445  15.579 -0.1434  0.7179  0.3763
  685TMC3    C610185   2.332   3.451  15.455 -0.5333 -0.0503  0.0871
  685TMC3     C10186   2.171   3.621  15.798 -0.3119  0.0068 -0.6839
  685TMC3     O10187   2.058   3.656  15.805 -0.8239 -0.2960 -0.0410
  685TMC3     H10188   2.054   3.600  15.573  0.1805  0.3710  1.4266
  685TMC3    H110189   2.391   3.449  15.791 -0.3837 -1.6397 -0.8280
  685TMC3    H210190   2.383   3.427  15.362  0.4172  3.0423 -0.2046
  685TMC3    C710191   2.532   3.402  15.584 -0.4463  0.2507 -0.3386
  685TMC3    C810192   2.119   3.411  15.383  0.7501  0.3633  0.0351
  685TMC3    O110193   2.572   3.367  15.694 -0.1973 -0.2607  0.2955
  685TMC3    O210194   2.176   3.355  15.293  0.0543 -0.3630  0.1884
  686MPD2     C10195   3.598   3.612  14.897 -0.2986 -1.3738 -0.2153
  686MPD2    C110196   3.646   3.549  15.009  0.0293  0.9700 -0.0484
  686MPD2    C210197   3.783   3.530  15.024 -0.4169 -0.4681 -0.2148
  686MPD2    C310198   3.871   3.569  14.924 -0.2451  0.3014  0.3025
  686MPD2    C410199   3.820   3.633  14.813  0.0017  0.3274  0.2091
  686MPD2    C510200   3.681   3.648  14.796 -0.0349 -0.4176  0.1066
  686MPD2     H10201   3.825   3.480  15.111 -1.4171 -1.6744 -0.4349
  686MPD2    H110202   3.882   3.669  14.732  0.8190  0.8650  1.0770
  686MPD2    H210203   3.492   3.627  14.881 -0.4479  0.8177  2.9517
  686MPD2    H310204   3.634   3.704  14.716  0.8583  0.1580 -0.0059
  686MPD2     N10205   4.005   3.543  14.925 -0.2378 -0.0433 -0.2152
  686MPD2    H510206   4.064   3.531  14.844 -1.1757  1.3536 -1.0817
  686MPD2    N110207   3.550   3.488  15.099  0.0350  0.6389 -0.1168
  686MPD2    H710208   3.453   3.494  15.070 -0.3572 -0.7079  0.9133
  687TMC3    C110209   4.193   3.459  15.042  0.0788 -0.4532 -0.0008
  687TMC3    C210210   4.157   3.346  14.965 -0.1443 -0.7401 -0.2023
  687TMC3    C310211   4.156   3.227  15.029 -0.2409  0.0572  0.2599
  687TMC3    C410212   4.236   3.445  15.170  0.3116  0.7889 -0.2740
  687TMC3    C510213   4.250   3.325  15.227  0.2650 -0.8551  0.0459
  687TMC3    C610214   4.206   3.215  15.157 -0.1878 -0.0516  0.4707
  687TMC3     C10215   4.080   3.549  15.039  0.6968  0.0819  0.8990
  687TMC3     O10216   4.037   3.590  15.147  0.6566  0.6778  0.2834
  687TMC3     H10217   4.134   3.357  14.860  0.3814 -2.5450 -0.5062
  687TMC3    H110218   4.279   3.528  15.224 -0.3037  1.3251 -0.6075
  687TMC3    H210219   4.202   3.119  15.207  0.4025 -0.2076  0.2214
  687TMC3    C710220   4.277   3.316  15.374  0.0854  0.6480 -0.0625
  687TMC3    C810221   4.042   3.146  15.007 -0.1670 -0.2518 -0.5183
  687TMC3    O110222   4.299   3.424  15.429 -0.0002 -0.5570 -0.8459
  687TMC3    O210223   4.063   3.028  15.026 -0.3437  0.6358  0.1918
  688MPD2     C10224   2.381   1.931  17.339 -0.2379  0.5712 -0.4345
  688MPD2    C110225   2.460   1.820  17.333  0.1425  0.0896 -0.3838
  688MPD2    C210226   2.592   1.842  17.283  0.1629 -0.3322 -0.1126
  688MPD2    C310227   2.628   1.957  17.222  0.3488 -0.5076  0.1764
  688MPD2    C410228   2.547   2.068  17.225  0.6921 -0.0696  0.0066
  688MPD2    C510229   2.427   2.049  17.291 -0.8852  0.1488  0.2085
  688MPD2     H10230   2.659   1.757  17.280 -0.3726 -0.7743  0.5906
  688MPD2    H110231   2.575   2.166  17.187  1.5141 -0.4138 -0.2839
  688MPD2    H210232   2.287   1.927  17.392  0.7005 -0.2936  1.1592
  688MPD2    H310233   2.352   2.124  17.313 -1.3202  0.0574 -0.9967
  688MPD2     N10234   2.755   1.965  17.155  0.2323  0.0580 -0.8128
  688MPD2    H510235   2.764   2.045  17.093 -2.1319  0.0035 -1.2361
  688MPD2    N110236   2.424   1.707  17.407 -0.3090 -0.4816 -0.3351
  688MPD2    H710237   2.496   1.638  17.427  0.5867  0.9206  1.3411
  689TMC3    C110238   2.307   1.550  17.544  0.3787 -0.1263  0.0408
  689TMC3    C210239   2.225   1.537  17.646 -0.0216  0.6853  0.0914
  689TMC3    C310240   2.229   1.427  17.728  0.0608  0.1068 -0.3489
  689TMC3    C410241   2.404   1.458  17.514  0.6421  0.6217  0.4685
  689TMC3    C510242   2.397   1.348  17.593  0.3013 -0.3501 -0.0051
  689TMC3    C610243   2.308   1.323  17.696 -0.2903  0.1780 -0.3051
  689TMC3     C10244   2.303   1.676  17.467 -0.7411 -0.0287  0.2487
  689TMC3     O10245   2.198   1.737  17.472 -0.2290 -0.0364  0.1262
  689TMC3     H10246   2.165   1.624  17.673 -0.5767  0.9509 -2.0141
  689TMC3    H110247   2.472   1.454  17.429 -0.1277  0.3548 -0.1290
  689TMC3    H210248   2.317   1.238   0.021 -0.2017  0.3587 -0.0806
  689TMC3    C710249   2.466   1.226  17.560 -0.4191 -0.4580 -0.1040
  689TMC3    C810250   2.169   1.409   0.118 -0.1187  0.0007 -0.1089
  689TMC3    O110251   2.534   1.188  17.655  0.1315  0.2950 -0.4571
  689TMC3    O210252   2.186   1.301   0.172  0.1641  0.5763  0.3635
  690MPD2     C10253   1.028   4.535  15.507 -0.2105  0.5167 -0.5156
  690MPD2    C110254   1.008   4.446  15.403 -0.7013 -0.0211  0.1670
  690MPD2    C210255   1.084   4.452  15.287 -0.0858  0.3293 -0.1717
  690MPD2    C310256   1.190   4.543  15.286 -0.3126 -0.7870  0.5733
  690MPD2    C410257   1.202   4.637  15.388 -0.1406 -0.5385 -0.1701
  690MPD2    C510258   1.127   4.627  15.497  0.0206 -0.2890  0.4722
  690MPD2     H10259   1.058   4.395  15.198 -0.6100 -0.2694  0.3667
  690MPD2    H110260   1.277   4.715  15.378 -0.1260 -0.7547 -1.8601
  690MPD2    H210261   0.969   4.526  15.598  2.7810 -1.7595  1.2389
  690MPD2    H310262   1.136   4.705  15.572  2.1718 -2.1542  2.1526
  690MPD2     N10263   1.274   4.551  15.173  0.3222 -0.1943  0.4181
  690MPD2    H510264   1.268   4.482  15.099 -1.5656 -0.5306  0.8866
  690MPD2    N110265   0.911   4.346  15.405  0.7382  0.5691  0.1882
  690MPD2    H710266   0.898   4.293  15.320 -1.5933  1.1642  0.1607
  691TMC3    C110267   0.742   4.209  15.489 -0.1569  0.0133  0.4531
  691TMC3    C210268   0.683   4.210  15.359 -0.3212  0.9792 -0.3844
  691TMC3    C310269   0.580   4.117  15.348 -0.2807  0.2151 -0.4202
  691TMC3    C410270   0.706   4.122  15.588 -0.0761 -0.0924 -0.2113
  691TMC3    C510271   0.615   4.026  15.564 -0.2980  0.3040  0.6080
  691TMC3    C610272   0.545   4.020  15.443 -0.0388  1.0250  0.0445
  691TMC3     C10273   0.838   4.316  15.515  0.3858 -0.1004 -0.8225
  691TMC3     O10274   0.855   4.333  15.638 -0.2420  0.4620 -0.0065
  691TMC3     H10275   0.675   4.294  15.291 -0.2206  0.2883 -1.2403
  691TMC3    H110276   0.771   4.112  15.674 -0.1531 -2.1329 -0.4080
  691TMC3    H210277   0.466   3.950  15.419  1.0652  0.1246 -0.9816
  691TMC3    C710278   0.617   3.909  15.649 -0.4562  0.2118  1.2308
  691TMC3    C810279   0.477   4.140  15.255 -0.0139 -0.2380 -0.0476
  691TMC3    O110280   0.655   3.932  15.761  0.1997 -0.2842  0.1458
  691TMC3    O210281   0.461   4.058  15.165  0.1280 -0.0171 -0.6498
  692TMC3    C110282   2.415   0.380  15.938 -0.7170  0.4536  0.5970
  692TMC3    C210283   2.508   0.349  16.034 -0.1794 -0.9098 -1.0259
  692TMC3    C310284   2.630   0.316  15.986 -0.3812  0.3176  0.1424
  692TMC3    C410285   2.410   0.346  15.804  0.5968  0.0074 -0.4077
  692TMC3    C510286   2.531   0.295  15.771  0.4818  0.5492 -0.2428
  692TMC3    C610287   2.639   0.277  15.859  0.0728  0.0265 -0.3469
  692TMC3     C10288   2.290   0.417  16.004 -0.6572  0.2698 -0.0915
  692TMC3     O10289   2.286   0.398  16.128 -0.5616 -0.4147 -0.3582
  692TMC3     H10290   2.494   0.405  16.125 -0.8918  0.1473 -1.7899
  692TMC3    H110291   2.329   0.360  15.733  0.5325 -0.6890 -0.4744
  692TMC3    H210292   2.736   0.263  15.813  0.5424  1.1744  0.2891
  692TMC3    C710293   2.518   0.192  15.672  0.2281  0.4125  0.1982
  692TMC3    C810294   2.705   0.220  16.066  0.2353  0.2358 -0.2914
  692TMC3    O110295   2.426   0.209  15.594  0.4778 -0.6553  0.3476
  692TMC3    O210296   2.747   0.118  16.009 -0.3935  0.0155 -0.4274
  693MPD2     C10297   1.243   3.531  10.417  0.0332  0.0434 -0.4171
  693MPD2    C110298   1.204   3.464  10.532 -0.6633 -0.6881 -0.2642
  693MPD2    C210299   1.278   3.352  10.568 -0.0073  0.6338 -0.2995
  693MPD2    C310300   1.385   3.301  10.495  0.5212  0.3724  0.2796
  693MPD2    C410301   1.421   3.374  10.387 -0.1452  0.6711  0.0307
  693MPD2    C510302   1.365   3.496  10.360  0.0756 -0.2982  0.3826
  693MPD2     H10303   1.260   3.313  10.668  0.2258 -0.6976 -0.7741
  693MPD2    H110304   1.499   3.341  10.319  2.1645  4.1020  1.0205
  693MPD2    H210305   1.202   3.630  10.397  0.5379  0.2963 -0.2102
  693MPD2    H310306   1.411   3.561  10.287 -0.2845 -0.9223 -0.4041
  693MPD2     N10307   1.454   3.176  10.518  0.3207  0.1865  1.0985
  693MPD2    H510308   1.529   3.152  10.455  1.0671  1.2159  1.5991
  693MPD2    N110309   1.092   3.502  10.603 -0.0438 -0.5704 -0.1826
  693MPD2    H710310   1.033   3.576  10.565 -1.4259 -1.4993  0.1820
  694TMC3    C110311   0.924   3.505  10.761  0.0473 -0.1107 -0.0314
  694TMC3    C210312   0.824   3.452  10.685  0.5552  0.1563  0.2463
  694TMC3    C310313   0.711   3.403  10.751  0.7463  0.4180 -0.1897
  694TMC3    C410314   0.906   3.514  10.897 -0.3653  0.9656 -0.3440
  694TMC3    C510315   0.797   3.465  10.963  1.0245  0.1088  0.3845
  694TMC3    C610316   0.700   3.401  10.891  0.6617  0.2562  0.1508
  694TMC3     C10317   1.057   3.461  10.726 -0.4171 -0.4733 -0.0639
  694TMC3     O10318   1.135   3.422  10.817 -0.4268  0.2716  0.0278
  694TMC3     H10319   0.849   3.432  10.581  0.3013 -1.7764  0.5558
  694TMC3    H110320   0.995   3.540  10.953 -1.6299  1.0890  1.6116
  694TMC3    H210321   0.609   3.362  10.936  0.4069 -0.1361 -0.6903
  694TMC3    C710322   0.824   3.411  11.097  0.0720  0.2540 -0.0596
  694TMC3    C810323   0.602   3.343  10.675  0.2759 -0.2932  0.2900
  694TMC3    O110324   0.890   3.479  11.171 -0.1255 -0.1936  0.0141
  694TMC3    O210325   0.500   3.321  10.741  0.2014 -0.1918 -0.1493
  695MPD2     C10326   3.100   0.496  13.124 -0.0899  0.1492 -0.2652
  695MPD2    C110327   3.044   0.452  13.242  0.1295  0.7617  0.1052
  695MPD2    C210328   2.909   0.418  13.248  0.1068  0.2675 -0.3273
  695MPD2    C310329   2.827   0.437  13.136  0.8189  0.1935 -0.1218
  695MPD2    C410330   2.881   0.460  13.015  0.4080  0.0172  0.2484
  695MPD2    C510331   3.018   0.490  13.009 -0.0104  0.5966  0.2369
  695MPD2     H10332   2.865   0.407  13.346  1.0671  1.4457  0.2373
  695MPD2    H110333   2.832   0.448  12.919  0.0433 -0.8319  0.5487
  695MPD2    H210334   3.205   0.510  13.104 -0.0613  1.1856  0.6303
  695MPD2    H310335   3.070   0.508  12.915  0.2794 -0.9985  0.0964
  695MPD2     N10336   2.686   0.421  13.154 -0.0797 -0.1714  0.1845
  695MPD2    H510337   2.657   0.411  13.251 -0.5805  0.1088  0.0641
  695MPD2    N110338   3.119   0.456  13.362 -0.1289  0.0162  0.0807
  695MPD2    H710339   3.060   0.437  13.442 -0.6965 -0.6511 -0.5044
  696TMC3    C110340   2.463   0.457  13.121  0.2226  0.4388 -0.0847
  696TMC3    C210341   2.445   0.380  13.235  0.2242  0.0777 -0.4157
  696TMC3    C310342   2.380   0.443  13.336 -0.6941 -0.1495  0.7026
  696TMC3    C410343   2.413   0.586  13.100 -0.5887  0.2239 -0.4931
  696TMC3    C510344   2.347   0.636  13.207 -0.3353 -0.7409  0.1070
  696TMC3    C610345   2.323   0.568  13.321  0.1898 -0.5530  0.1401
  696TMC3     C10346   2.586   0.439  13.058  0.7615  0.3431  0.6651
  696TMC3     O10347   2.592   0.487  12.941  0.4340 -0.5170 -0.4477
  696TMC3     H10348   2.483   0.278  13.237  2.0639  0.7489 -1.5643
  696TMC3    H110349   2.430   0.644  13.010 -2.5911  1.1804 -0.2611
  696TMC3    H210350   2.272   0.610  13.407 -0.6568  0.5872 -0.9075
  696TMC3    C710351   2.329   0.788  13.207  0.0862 -0.2308  0.5190
  696TMC3    C810352   2.385   0.374  13.472  0.2676  0.3321 -0.0517
  696TMC3    O110353   2.387   0.844  13.119  0.2476 -0.2965 -0.1166
  696TMC3    O210354   2.328   0.434  13.556 -0.5210  0.0265  0.1662
  697MPD2     C10355   1.151   1.718  15.386 -0.4507 -0.6751 -0.0814
  697MPD2    C110356   1.286   1.711  15.376 -0.3276 -0.2798  0.0986
  697MPD2    C210357   1.353   1.828  15.340  0.4913  0.6884  0.3738
  697MPD2    C310358   1.278   1.941  15.309  0.3464 -0.1255 -0.5595
  697MPD2    C410359   1.139   1.944  15.320 -0.0039 -0.3273  0.1991
  697MPD2    C510360   1.080   1.831  15.366 -0.5905 -0.2276  0.3941
  697MPD2     H10361   1.460   1.825  15.322 -0.2658 -1.2968 -3.8026
  697MPD2    H110362   1.083   2.034  15.297  1.3343  0.7855  1.3329
  697MPD2    H210363   1.093   1.631  15.416 -0.8865 -0.1237  0.6837
  697MPD2    H310364   0.972   1.830  15.374 -0.8705  0.8089 -3.3032
  697MPD2     N10365   1.344   2.062  15.280  0.1305 -0.4076  0.2398
  697MPD2    H510366   1.443   2.073  15.297 -0.3613  1.9174  1.5769
  697MPD2    N110367   1.365   1.591  15.388  0.1280  0.0523 -0.4013
  697MPD2    H710368   1.460   1.586  15.353 -0.3791 -0.9337 -1.6167
  698TMC3    C110369   1.385   2.251  15.164  0.6557  0.8705  0.2122
  698TMC3    C210370   1.505   2.262  15.235 -0.4440  0.0344  0.3126
  698TMC3    C310371   1.620   2.285  15.170  0.6625 -0.1067 -0.6934
  698TMC3    C410372   1.378   2.272  15.031 -0.0264 -0.7660 -0.0109
  698TMC3    C510373   1.499   2.298  14.965  0.4550  0.4148  0.0849
  698TMC3    C610374   1.624   2.296  15.037 -0.2605  0.1462 -0.6849
  698TMC3     C10375   1.286   2.154  15.200 -0.0243  0.0781 -0.0949
  698TMC3     O10376   1.199   2.143  15.117 -0.0427  0.7185  0.3124
  698TMC3     H10377   1.501   2.263  15.344 -0.8911 -1.1433  0.3048
  698TMC3    H110378   1.286   2.282  14.976  1.4519 -0.7926 -2.4873
  698TMC3    H210379   1.718   2.306  14.983  0.6326 -1.2626  0.5833
  698TMC3    C710380   1.501   2.277  14.820  0.0088 -0.4376 -0.8918
  698TMC3    C810381   1.734   2.314  15.250  0.0717 -0.5902 -0.4128
  698TMC3    O110382   1.392   2.248  14.769  0.1811  0.1746 -0.6802
  698TMC3    O210383   1.722   2.273  15.365 -0.2916 -0.0480 -0.2269
  699TMC3    C110384   2.154   0.203  13.126 -0.4448 -0.6426  0.0481
  699TMC3    C210385   2.206   0.085  13.174 -0.1900  0.6292  0.4704
  699TMC3    C310386   2.153   0.037  13.292  0.1682  0.1522  0.3783
  699TMC3    C410387   2.078   0.288  13.199  0.4993  0.5583 -0.3041
  699TMC3    C510388   2.032   0.235  13.317 -0.0649 -0.1699 -0.3502
  699TMC3    C610389   2.053   0.105  13.361 -0.3452  0.5236  0.0646
  699TMC3     C10390   2.220   0.255  13.008  0.7459 -0.1437 -0.1641
  699TMC3     O10391   2.330   0.208  12.984 -0.1306  0.0528  1.2486
  699TMC3     H10392   2.277   0.024  13.119 -0.9153  0.8564 -0.7098
  699TMC3    H110393   2.067   0.392  13.171  0.0719  0.6774  0.3036
  699TMC3    H210394   2.007   0.070  13.453  0.0450  2.1027  0.8643
  699TMC3    C710395   1.942   0.319  13.400  0.2333 -0.1550 -0.3794
  699TMC3    C810396   2.234   4.681  13.378  0.1679 -0.5454 -0.4760
  699TMC3    O110397   1.933   0.272  13.515  0.4893 -0.2306 -0.2779
  699TMC3    O210398   2.181   4.634  13.478 -0.2738  0.4273  0.7222
  700TMC3    C110399   0.948   2.016  16.975 -0.4687 -0.2857 -0.1705
  700TMC3    C210400   1.044   1.931  16.923  0.4295 -0.2825  0.6029
  700TMC3    C310401   1.145   1.897  17.007  0.5169 -0.0573  0.0467
  700TMC3    C410402   0.954   2.055  17.104 -0.3746 -0.6257 -0.2285
  700TMC3    C510403   1.067   2.035  17.182 -0.4755 -0.6417  0.3708
  700TMC3    C610404   1.165   1.959  17.132  0.2340  0.4184 -0.1269
  700TMC3     C10405   0.929   2.128  16.891 -0.2548  0.1321 -0.0535
  700TMC3     O10406   0.926   2.239  16.935 -0.5092 -0.1061  0.0842
  700TMC3     H10407   1.041   1.875  16.831  0.4510 -0.2044  0.5541
  700TMC3    H110408   0.875   2.120  17.141  1.2363 -0.2683  2.5735
  700TMC3    H210409   1.248   1.939  17.199  0.1895  2.1163  0.4150
  700TMC3    C710410   1.103   2.156  17.249 -0.3699 -0.7363  0.2740
  700TMC3    C810411   1.263   1.840  16.948 -0.1334 -0.2356 -0.4685
  700TMC3    O110412   1.160   2.147  17.357  0.6498  0.1165 -0.5959
  700TMC3    O210413   1.281   1.865  16.829  0.1534  0.1648  0.0885
  701TMC3    C110414   1.115   1.042  15.511  0.4632 -0.3672 -0.2190
  701TMC3    C210415   1.145   0.955  15.411  0.4979 -0.3002  0.7735
  701TMC3    C310416   1.116   0.991  15.281  0.3252 -0.2566  0.3239
  701TMC3    C410417   1.070   1.171  15.487 -0.0205 -0.2845  0.7939
  701TMC3    C510418   1.053   1.211  15.356  0.0926 -0.2424  0.0251
  701TMC3    C610419   1.064   1.118  15.253 -0.3937 -0.0723 -0.2869
  701TMC3     C10420   1.113   1.002  15.648  0.1285 -0.3169  0.0721
  701TMC3     O10421   1.082   1.087  15.735 -0.3047 -0.1990  0.3545
  701TMC3     H10422   1.196   0.862  15.435  1.3431  1.3162  5.2830
  701TMC3    H110423   1.068   1.248  15.563  3.6589 -0.8915  1.5037
  701TMC3    H210424   1.051   1.152  15.151  0.1551  0.2395 -0.2500
  701TMC3    C710425   0.962   1.322  15.330 -0.4557 -0.3680  0.1010
  701TMC3    C810426   1.138   0.886  15.178  0.4666  0.2165  0.0907
  701TMC3    O110427   0.958   1.367  15.215  0.2414  0.2522  0.1800
  701TMC3    O210428   1.224   0.807  15.206 -0.6108 -0.2156  0.1038
  702MPD2     C10429   4.226   4.128  10.979 -0.1266  1.0515  0.4305
  702MPD2    C110430   4.280   4.017  11.041  0.8477  0.2003  0.0754
  702MPD2    C210431   4.404   3.975  11.009  0.3659  0.1156 -0.2947
  702MPD2    C310432   4.480   4.033  10.909 -0.0747  0.2955 -0.3256
  702MPD2    C410433   4.437   4.157  10.862  0.3592 -0.7097  0.0083
  702MPD2    C510434   4.315   4.199  10.901  0.3435 -0.1824 -0.5825
  702MPD2     H10435   4.445   3.886  11.056 -0.8088 -0.3905 -0.2299
  702MPD2    H110436   4.499   4.229  10.810 -0.3127  0.2346  0.5228
  702MPD2    H210437   4.130   4.174  11.001 -1.2391 -1.5895  1.0729
  702MPD2    H310438   4.281   4.299  10.880 -1.8131 -0.8681 -0.4467
  702MPD2     N10439   4.612   3.986  10.883  0.5643  0.0751 -0.2761
  702MPD2    H510440   4.641   3.897  10.922  0.3795  1.1126  2.2861
  702MPD2    N110441   4.213   3.954  11.144  0.5513  0.1470  0.0603
  702MPD2    H710442   4.275   3.895  11.199  0.0381  0.7513  1.3052
  703TMC3    C110443   0.110   4.021  10.828 -0.4618  0.1719 -1.2616
  703TMC3    C210444   0.153   3.971  10.941 -0.5052  0.1170  0.3295
  703TMC3    C310445   0.285   3.992  10.970  0.0422 -0.3512 -0.2592
  703TMC3    C410446   0.197   4.088  10.744  0.2443  0.1932  0.1602
  703TMC3    C510447   0.334   4.097  10.766  0.2712  0.6193 -0.6335
  703TMC3    C610448   0.374   4.047  10.885  0.2833  0.3331  0.1168
  703TMC3     C10449   4.704   4.047  10.797 -0.2489 -0.0375 -0.6219
  703TMC3     O10450   4.684   4.127  10.706  0.4699 -0.0155 -0.2136
  703TMC3     H10451   0.087   3.924  11.014 -0.6131  0.0791  0.2071
  703TMC3    H110452   0.164   4.094  10.641 -1.4319 -0.9586  0.6400
  703TMC3    H210453   0.473   4.074  10.920 -0.9949  2.4101  2.1597
  703TMC3    C710454   0.425   4.169  10.673 -0.3147  0.7446 -0.2562
  703TMC3    C810455   0.314   4.012  11.115  0.0790 -0.3604  0.2509
  703TMC3    O110456   0.542   4.138  10.647  0.1093  0.3961  0.2001
  703TMC3    O210457   0.421   3.969  11.158 -0.4135 -0.0855 -0.3730
  704TMC3    C110458   3.176   2.113  12.297 -0.2722 -1.2588 -0.0494
  704TMC3    C210459   3.265   2.051  12.209 -0.0651  1.1223  0.5514
  704TMC3    C310460   3.317   1.929  12.246 -0.9598  0.1442 -0.7108
  704TMC3    C410461   3.167   2.080  12.424 -0.3760 -0.2990  0.0212
  704TMC3    C510462   3.222   1.960  12.455  0.2678 -0.2133 -0.1525
  704TMC3    C610463   3.301   1.887  12.374 -0.2190  0.0105  0.2539
  704TMC3     C10464   3.041   2.101  12.245 -0.0922 -0.4615 -0.1306
  704TMC3     O10465   2.951   2.079  12.325  0.2614  0.5404  0.1681
  704TMC3     H10466   3.266   2.066  12.101  0.4799 -2.5606  0.0164
  704TMC3    H110467   3.103   2.135  12.492  0.6969 -1.6562  2.1063
  704TMC3    H210468   3.325   1.786  12.404  2.8557  1.1890  1.7501
  704TMC3    C710469   3.160   1.878  12.550  0.3796 -0.0541  0.7897
  704TMC3    C810470   3.276   1.829  12.151 -0.0494  0.3692 -0.1071
  704TMC3    O110471   3.227   1.811  12.629  0.1801 -0.5834 -0.0764
  704TMC3    O210472   3.228   1.723  12.190 -0.5762  0.3278  0.7998
  705MPD2     C10473   2.989   4.225  16.298 -0.2580  0.2674 -0.9550
  705MPD2    C110474   2.930   4.347  16.271  0.5113 -0.1797  0.3392
  705MPD2    C210475   2.795   4.365  16.304 -0.0141 -0.0430 -0.5231
  705MPD2    C310476   2.716   4.264  16.356  0.1028 -0.2849 -0.7402
  705MPD2    C410477   2.773   4.140  16.361 -0.1252  0.0073  0.1002
  705MPD2    C510478   2.910   4.127  16.355  0.5644  0.3866 -0.6686
  705MPD2     H10479   2.743   4.460  16.295 -0.1528  0.2059  2.8010
  705MPD2    H110480   2.719   4.047  16.375 -0.9993  0.5656  0.3722
  705MPD2    H210481   3.089   4.191  16.274  0.2523  0.8009  0.4077
  705MPD2    H310482   2.949   4.027  16.360  0.4081  0.3191 -0.8000
  705MPD2     N10483   2.571   4.274  16.372 -0.0462 -0.2957 -0.6236
  705MPD2    H510484   2.515   4.189  16.368 -0.5782  0.1251 -1.7497
  705MPD2    N110485   2.982   4.449  16.183  0.3234  0.1793  0.4278
  705MPD2    H710486   2.915   4.512  16.140  0.4266 -0.7392 -1.0404
  706TMC3    C110487   3.284   4.590  15.862 -0.5455  0.9193  0.0692
  706TMC3    C210488   3.203   4.694  15.816 -0.4495 -0.0453  0.0722
  706TMC3    C310489   3.088   4.714  15.894 -0.1133 -0.2671  0.4001
  706TMC3    C410490   3.274   4.526  15.979 -0.4436  0.0272  0.5826
  706TMC3    C510491   3.155   4.549  16.046 -0.4837  0.3242 -0.4149
  706TMC3    C610492   3.058   4.639  16.006  0.1034  0.7454 -0.7921
  706TMC3     C10493   3.386   4.551  15.774 -0.3623  0.0334 -0.0791
  706TMC3     O10494   3.486   4.505  15.819 -0.3281  0.2727  0.5883
  706TMC3     H10495   3.222   0.029  15.735 -0.3061  1.0862  1.0788
  706TMC3    H110496   3.333   4.439  16.004  0.3073  0.2536 -0.3820
  706TMC3    H210497   2.965   4.654  16.059  0.6396 -2.0355  0.9645
  706TMC3    C710498   3.115   4.447  16.149 -0.5613  0.1804 -0.4132
  706TMC3    C810499   3.052   0.118  15.892 -0.0136 -0.5287  0.7743
  706TMC3    O110500   3.205   4.388  16.209 -0.2424 -0.1348  0.5383
  706TMC3    O210501   3.054   0.173  15.787 -0.3066  0.3531 -0.9634
  707TMC3    C110502   4.285   3.917   0.202  0.2811  0.5505 -0.2265
  707TMC3    C210503   4.193   3.866   0.286 -1.0664 -0.4560 -0.1302
  707TMC3    C310504   4.080   3.940   0.321 -0.2396 -0.3320 -0.2673
  707TMC3    C410505   4.262   4.039   0.141 -0.0443  0.0456 -0.1669
  707TMC3    C510506   4.157   4.115   0.185  0.3583 -0.7346  0.5282
  707TMC3    C610507   4.062   4.065   0.275  0.5323  0.3943  0.0054
  707TMC3     C10508   4.399   3.847   0.180 -0.2056  0.0132 -0.6691
  707TMC3     O10509   4.433   3.773   0.272  0.8697 -0.1823 -0.4248
  707TMC3     H10510   4.224   3.782   0.346  2.3205  1.2751  0.5228
  707TMC3    H110511   4.339   4.086   0.080  2.2895 -0.5726  2.3060
  707TMC3    H210512   3.986   4.123   0.326  0.9060 -0.3906  1.4670
  707TMC3    C710513   4.123   4.227   0.107 -0.0485  0.2849  0.1740
  707TMC3    C810514   4.010   3.896   0.440 -0.1574 -0.4100  0.2947
  707TMC3    O110515   4.207   4.274   0.030  0.2300 -0.0855 -0.4147
  707TMC3    O210516   3.944   3.978   0.506 -0.2876  0.4108  0.8415
  708MPD2     C10517   0.909   3.447  14.007  0.3170 -0.1809  0.2677
  708MPD2    C110518   0.841   3.477  14.120  0.4395  0.5271  0.1775
  708MPD2    C210519   0.891   3.433  14.238  0.1824  0.0227 -0.5525
  708MPD2    C310520   1.013   3.363  14.249  0.0875  0.2908  1.0889
  708MPD2    C410521   1.087   3.337  14.133  0.5784  0.0104  0.4857
  708MPD2    C510522   1.035   3.386  14.011  0.3859  0.6430 -0.4619
  708MPD2     H10523   0.833   3.459  14.326  0.4617  3.1569 -1.2721
  708MPD2    H110524   1.185   3.291  14.129  0.1566 -0.6018 -3.3169
  708MPD2    H210525   0.872   3.474  13.909 -0.3568  0.1252  0.6073
  708MPD2    H310526   1.097   3.382  13.923  0.6816 -5.4563  0.0356
  708MPD2     N10527   1.056   3.330  14.383  0.2466  0.3630  0.0457
  708MPD2    H510528   0.999   3.371  14.456  0.5179  0.2936  0.2924
  708MPD2    N110529   0.723   3.557  14.111 -0.6350 -0.2603  1.1329
  708MPD2    H710530   0.698   3.595  14.020  0.1462 -0.6716  0.7481
  709TMC3    C110531   0.487   3.575  14.161  0.2205 -0.0698  0.3537
  709TMC3    C210532   0.473   3.516  14.043 -0.1293 -0.0968 -0.0733
  709TMC3    C310533   0.403   3.394  14.040 -0.0451 -0.4227 -0.4123
  709TMC3    C410534   0.401   3.542  14.263  0.3536  0.1132 -0.7892
  709TMC3    C510535   0.325   3.427  14.254  0.0716  0.8433 -0.1539
  709TMC3    C610536   0.325   3.350  14.141 -0.6352  0.6087  0.6229
  709TMC3     C10537   0.623   3.574  14.212  0.8006  0.3692 -0.1596
  709TMC3     O10538   0.629   3.549  14.332  0.0132 -0.7329 -0.2496
  709TMC3     H10539   0.524   3.566  13.962 -1.4393 -0.6980 -1.2733
  709TMC3    H110540   0.395   3.599  14.355  1.5760 -0.2305 -0.4947
  709TMC3    H210541   0.276   3.253  14.144  0.4883  0.0673  1.3502
  709TMC3    C710542   0.340   3.344  14.372  0.1047 -0.1379 -0.2771
  709TMC3    C810543   0.472   3.287  13.967 -0.1653  0.7585  0.6082
  709TMC3    O110544   0.271   3.243  14.377 -0.0529  0.0398  0.0426
  709TMC3    O210545   0.483   3.181  14.029  0.3150 -0.2759  0.4026
  710TMC3    C110546   1.673   3.996   0.247  0.3018 -0.0199  0.7535
  710TMC3    C210547   1.698   3.908   0.134  0.4051  0.1248  0.3327
  710TMC3    C310548   1.821   3.856   0.121  0.1508  0.2592  0.1734
  710TMC3    C410549   1.777   4.029   0.328 -0.3252  0.0953 -0.1440
  710TMC3    C510550   1.902   3.988   0.296 -0.0549  0.2735  0.1406
  710TMC3    C610551   1.926   3.890   0.207 -0.6508 -0.1606  0.1657
  710TMC3     C10552   1.550   4.076   0.259  0.1181 -0.5526  0.0116
  710TMC3     O10553   1.453   4.040   0.199  0.7866  0.0860 -0.4606
  710TMC3     H10554   1.621   3.874   0.066 -0.4790  3.0480 -0.1480
  710TMC3    H110555   1.760   4.090   0.416  1.7306  1.7172 -0.8842
  710TMC3    H210556   2.020   3.841   0.187  0.1549  1.0876  0.9058
  710TMC3    C710557   2.000   3.993   0.408  0.7673  0.3655 -0.1698
  710TMC3    C810558   1.869   3.770   0.020 -0.2804 -0.2406 -0.2802
  710TMC3    O110559   1.961   4.023   0.518  0.0894  0.2187  0.2254
  710TMC3    O210560   1.975   3.804  17.710 -0.3192 -0.3233  0.0983
  711TMC3    C110561   1.782   0.785  15.054  0.3724 -0.1864 -0.1320
  711TMC3    C210562   1.805   0.831  15.184  0.6191 -0.4762  0.1695
  711TMC3    C310563   1.911   0.781  15.249  0.5347  0.5277  0.4183
  711TMC3    C410564   1.879   0.719  14.993  1.0303  0.8476 -0.4383
  711TMC3    C510565   1.989   0.677  15.056  0.6315 -0.4427  0.1093
  711TMC3    C610566   2.011   0.715  15.187  0.4223  0.0321  0.1524
  711TMC3     C10567   1.669   0.811  14.971  1.2314  0.2995  0.3486
  711TMC3     O10568   1.664   0.771  14.855  0.1822 -0.3239 -0.2307
  711TMC3     H10569   1.732   0.893  15.234  0.5034 -0.4218 -0.0703
  711TMC3    H110570   1.880   0.700  14.886 -0.6765  2.4892 -0.7509
  711TMC3    H210571   2.086   0.666  15.249 -1.2864 -1.3473  1.1284
  711TMC3    C710572   2.037   0.544  15.039 -0.6044  0.8091  0.2558
  711TMC3    C810573   1.934   0.838  15.381  0.5171  0.0679  0.4266
  711TMC3    O110574   2.131   0.512  15.114  0.1127  0.2480 -0.4616
  711TMC3    O210575   1.841   0.865  15.454  0.0316  0.2252  0.1982
  712MPD2     C10576   2.460   1.605  13.524 -0.2847  0.3170 -0.2445
  712MPD2    C110577   2.426   1.740  13.527  0.6378 -0.2743  0.5899
  712MPD2    C210578   2.517   1.835  13.564  0.0664 -0.5898  0.6420
  712MPD2    C310579   2.649   1.797  13.584  0.4146  0.1199 -0.4833
  712MPD2    C410580   2.677   1.661  13.587  0.2868 -0.3605 -0.5383
  712MPD2    C510581   2.582   1.561  13.567  0.2050 -0.2726  0.4184
  712MPD2     H10582   2.486   1.939  13.560  0.2785 -0.4177  3.2618
  712MPD2    H110583   2.775   1.623  13.614  0.4092 -0.0850 -0.5987
  712MPD2    H210584   2.381   1.534  13.502 -0.7060  0.9251 -0.6710
  712MPD2    H310585   2.611   1.457  13.571  0.1112 -0.3184 -0.1227
  712MPD2     N10586   2.761   1.889  13.588 -0.9320  0.1207  0.1696
  712MPD2    H510587   2.851   1.847  13.610 -0.8032  1.0341  1.3925
  712MPD2    N110588   2.300   1.797  13.495 -0.5712  0.0040 -0.0868
  712MPD2    H710589   2.288   1.898  13.488 -2.3483 -0.2483 -0.8132
  713TMC3    C110590   2.895   2.078  13.537  0.1759  1.0418  0.3305
  713TMC3    C210591   2.994   1.998  13.486  1.1772 -0.1346  0.9505
  713TMC3    C310592   3.102   2.053  13.429  0.1418 -0.5859 -0.3373
  713TMC3    C410593   2.900   2.216  13.517 -0.3447 -0.2259 -0.5042
  713TMC3    C510594   3.005   2.265  13.457  0.2273 -0.1956 -0.4860
  713TMC3    C610595   3.108   2.190  13.402  0.1521 -0.3685  0.0713
  713TMC3     C10596   2.762   2.027  13.569 -0.0770 -0.3753  0.0257
  713TMC3     O10597   2.669   2.105  13.582  0.2755  0.2511 -0.7310
  713TMC3     H10598   2.986   1.890  13.481 -0.6321  0.0936 -1.1622
  713TMC3    H110599   2.834   2.279  13.574  0.2282  0.4237 -0.5658
  713TMC3    H210600   3.197   2.242  13.369  0.3533 -0.7099  0.0815
  713TMC3    C710601   3.020   2.404  13.451 -0.0218 -0.7648 -0.1995
  713TMC3    C810602   3.236   2.002  13.460 -0.0650  0.3559  0.3479
  713TMC3    O110603   3.121   2.452  13.404 -0.5480 -0.6012 -0.3500
  713TMC3    O210604   3.327   2.052  13.394 -0.3294  0.1758  0.2149
  714MPD2     C10605   1.084   0.675   1.655  0.1808 -0.0428  0.2242
  714MPD2    C110606   1.043   0.616   1.535 -0.7130  0.0334  0.2605
  714MPD2    C210607   0.905   0.589   1.530 -0.5492  0.3525 -0.1165
  714MPD2    C310608   0.811   0.620   1.624 -0.5490  0.4889  0.2773
  714MPD2    C410609   0.861   0.680   1.741 -0.5494 -0.0724  0.6275
  714MPD2    C510610   0.994   0.718   1.749 -0.5141 -0.0297 -0.0128
  714MPD2     H10611   0.869   0.536   1.442  1.0603 -0.4033 -0.3174
  714MPD2    H110612   0.800   0.717   1.822 -0.8998  1.6810 -0.4402
  714MPD2    H210613   1.191   0.685   1.672  0.4903  0.0525 -1.7197
  714MPD2    H310614   1.030   0.775   1.834  0.1324  0.4132 -0.5914
  714MPD2     N10615   0.671   0.599   1.590 -0.3211 -0.1064  0.1461
  714MPD2    H510616   0.653   0.544   1.506 -0.7367 -0.8204  0.7046
  714MPD2    N110617   1.139   0.587   1.435  0.0761  0.4776  0.0890
  714MPD2    H710618   1.238   0.603   1.448  0.0477  0.7809 -0.0545
  715TMC3    C110619   1.236   0.489   1.253  0.0364 -0.7943  0.1740
  715TMC3    C210620   1.248   0.375   1.174 -0.1180 -0.0551  0.5963
  715TMC3    C310621   1.350   0.373   1.082  0.2697  0.4182  0.6251
  715TMC3    C410622   1.315   0.601   1.233 -0.5652  0.0594 -0.7440
  715TMC3    C510623   1.413   0.592   1.134  0.0407  0.7135 -0.2120
  715TMC3    C610624   1.436   0.480   1.058  0.0634  0.3249  0.3072
  715TMC3     C10625   1.118   0.500   1.334 -0.3974  0.1854  0.0391
  715TMC3     O10626   1.022   0.423   1.313 -0.1661  0.6066  0.1963
  715TMC3     H10627   1.188   0.286   1.193  0.8669 -0.6600  0.8801
  715TMC3    H110628   1.283   0.698   1.270  1.1119  0.0878  0.6134
  715TMC3    H210629   1.490   0.482   0.965 -2.0305 -0.9830 -0.9533
  715TMC3    C710630   1.506   0.695   1.116  0.1588 -0.2994  0.3917
  715TMC3    C810631   1.392   0.248   1.026 -0.0939  0.2798 -0.7515
  715TMC3    O110632   1.582   0.690   1.018 -0.5079  0.0202  0.3523
  715TMC3    O210633   1.316   0.159   1.044  0.3854  0.1536 -0.2164
  716MPD2     C10634   4.382   4.020   9.722 -0.4675 -0.1795 -0.1713
  716MPD2    C110635   4.257   4.006   9.671 -0.1908 -1.1617  0.0560
  716MPD2    C210636   4.232   3.892   9.598  0.3103 -0.0650 -0.0262
  716MPD2    C310637   4.328   3.793   9.584 -0.0290 -0.1641 -0.3644
  716MPD2    C410638   4.457   3.810   9.635 -0.6262 -0.0869 -0.1789
  716MPD2    C510639   4.480   3.921   9.707  0.0871  0.4618 -0.3911
  716MPD2     H10640   4.133   3.884   9.554  0.7834  0.3729 -1.1438
  716MPD2    H110641   4.532   3.731   9.636  0.7421  1.1977 -0.1820
  716MPD2    H210642   4.401   4.110   9.779 -0.3591 -1.4764  1.8162
  716MPD2    H310643   4.573   3.939   9.760  1.3062 -1.9073 -1.7315
  716MPD2     N10644   4.283   3.681   9.509  0.6014  0.6520 -0.4448
  716MPD2    H510645   4.182   3.680   9.500  0.5165 -0.6719  0.8368
  716MPD2    N110646   4.155   4.099   9.700  0.1291 -0.4678  0.7591
  716MPD2    H710647   4.183   4.170   9.768 -1.4373  1.2292 -0.3733
  717TMC3    C110648   4.285   3.468   9.412 -0.9127 -0.8133 -0.2218
  717TMC3    C210649   4.152   3.506   9.374 -0.3868 -0.0985  0.0363
  717TMC3    C310650   4.058   3.409   9.369 -0.1617  0.4090 -0.3654
  717TMC3    C410651   4.325   3.341   9.436 -0.9549 -0.0314  0.0785
  717TMC3    C510652   4.227   3.245   9.413  0.2931 -0.4344  0.7209
  717TMC3    C610653   4.097   3.278   9.382 -0.7270  0.2373 -0.3406
  717TMC3     C10654   4.360   3.574   9.472 -0.2007  0.2640  0.4076
  717TMC3     O10655   4.477   3.568   9.470  0.1057  0.0254  0.0865
  717TMC3     H10656   4.128   3.610   9.358 -2.3267 -0.4385  0.7147
  717TMC3    H110657   4.422   3.326   9.481 -0.5800  4.3636  0.7124
  717TMC3    H210658   4.034   3.192   9.361 -0.0001  0.2177 -2.4979
  717TMC3    C710659   4.263   3.102   9.418  0.5655  0.3071 -0.4501
  717TMC3    C810660   3.923   3.438   9.345  0.1711 -0.3189 -0.8787
  717TMC3    O110661   4.189   3.020   9.376  0.7666  0.4785  0.3907
  717TMC3    O210662   3.896   3.551   9.307  0.1923 -0.1690  0.6896
  718MPD2     C10663   4.600   1.851  12.964  0.2790  0.2318  0.0006
  718MPD2    C110664   4.578   1.880  12.833  0.1772  0.4247 -0.2522
  718MPD2    C210665   4.461   1.841  12.784 -0.1426  0.2690  0.0921
  718MPD2    C310666   4.356   1.796  12.862  0.2515  0.6368 -0.0032
  718MPD2    C410667   4.378   1.752  12.990 -0.2676  0.2042 -0.1267
  718MPD2    C510668   4.506   1.777  13.037 -0.2796 -0.0843  0.0209
  718MPD2     H10669   4.449   1.863  12.679 -2.2187  0.4263  0.3585
  718MPD2    H110670   4.305   1.720  13.062  1.2261  1.1946  1.8199
  718MPD2    H210671   4.695   1.881  13.007  0.4504  0.1961 -0.3519
  718MPD2    H310672   4.535   1.761  13.140 -1.7404  1.9858  0.7425
  718MPD2     N10673   4.231   1.798  12.804  0.2558  0.2066  0.0466
  718MPD2    H510674   4.224   1.840  12.711 -0.9287  1.8397  0.8722
  718MPD2    N110675   4.665   1.950  12.741  0.3855  0.3162 -0.3018
  718MPD2    H710676   4.651   1.945  12.641 -0.9907 -0.1212 -0.0776
  719TMC3    C110677   0.090   2.096  12.655  0.2364 -0.6811  0.9942
  719TMC3    C210678   0.073   2.027  12.535 -0.0977  0.2890  0.0079
  719TMC3    C310679   0.013   2.096  12.432 -0.2142 -0.6117 -0.1402
  719TMC3    C410680   0.119   2.226  12.659 -0.0621  0.0142 -0.2652
  719TMC3    C510681   0.085   2.286  12.543 -0.1261  0.5009  0.0876
  719TMC3    C610682   0.022   2.230  12.438 -0.0743 -1.0975 -0.1536
  719TMC3     C10683   0.033   2.035  12.772 -0.4949 -0.1954 -0.1871
  719TMC3     O10684   0.051   2.081  12.885  0.5412  0.0065 -0.0733
  719TMC3     H10685   0.076   1.919  12.539 -0.8560  0.2697  0.0650
  719TMC3    H110686   0.147   2.284  12.746  0.6659 -1.4803  0.4843
  719TMC3    H210687   4.728   2.283  12.349 -0.8059 -0.2407  0.6003
  719TMC3    C710688   0.127   2.424  12.516  0.9077  0.3888 -0.2060
  719TMC3    C810689   4.618   2.040  12.399  0.4413 -0.0133 -0.4744
  719TMC3    O110690   0.145   2.453  12.396 -0.5513 -0.0227 -0.0352
  719TMC3    O210691   4.582   1.949  12.473  0.1827 -0.3272  0.1794
  720MPD2     C10692   3.593   4.117  13.532  0.0502  0.4120 -1.1548
  720MPD2    C110693   3.629   4.003  13.469  0.1896 -0.1626 -0.2892
  720MPD2    C210694   3.741   3.931  13.513 -0.4524  0.5094  0.1620
  720MPD2    C310695   3.818   3.975  13.622 -0.7919  0.1922  0.2704
  720MPD2    C410696   3.771   4.085  13.697 -0.6588 -0.0468 -0.1268
  720MPD2    C510697   3.655   4.140  13.652  0.4568  0.5035  0.2046
  720MPD2     H10698   3.776   3.844  13.458  0.5133  0.0371  1.4971
  720MPD2    H110699   3.818   4.116  13.789  0.6396 -2.1170 -0.0988
  720MPD2    H210700   3.509   4.176  13.496  1.3865  1.5869 -2.3927
  720MPD2    H310701   3.607   4.219  13.709  0.8704  0.0625  1.1446
  720MPD2     N10702   3.928   3.909  13.676  1.0252 -0.4267  0.3562
  720MPD2    H510703   3.980   3.945  13.756 -0.7840 -0.0261  1.3606
  720MPD2    N110704   3.565   3.957  13.354 -0.0912 -0.0416  0.4587
  720MPD2    H710705   3.608   3.878  13.307 -0.1648 -0.3615  0.9279
  721TMC3    C110706   4.086   3.743  13.716 -0.7297 -0.0189 -0.2490
  721TMC3    C210707   4.042   3.728  13.846 -0.1624  0.1289 -0.2746
  721TMC3    C310708   4.113   3.643  13.926 -0.4547 -1.2080  0.3031
  721TMC3    C410709   4.206   3.692  13.675 -0.7251  0.1341 -0.0759
  721TMC3    C510710   4.281   3.620  13.766 -0.7343  0.1688 -0.9013
  721TMC3    C610711   4.237   3.594  13.889 -0.2854  0.0757  0.9890
  721TMC3     C10712   4.001   3.809  13.621  0.6633 -0.0747 -0.0913
  721TMC3     O10713   3.986   3.759  13.510  0.0938 -0.3032  0.0308
  721TMC3     H10714   3.971   3.800  13.886  0.0638  0.3961 -0.3509
  721TMC3    H110715   4.243   3.705  13.574 -3.5321  1.3742 -0.9485
  721TMC3    H210716   4.298   3.537  13.958 -4.5984 -3.4989  1.8506
  721TMC3    C710717   4.418   3.605  13.722 -0.4893  0.6816  0.5993
  721TMC3    C810718   4.102   3.657  14.067  0.3791  0.1719 -0.3347
  721TMC3    O110719   4.461   3.699  13.658  0.7155 -0.4727  0.6007
  721TMC3    O210720   4.200   3.677  14.134  0.7503  0.1657 -0.4606
  722MPD2     C10721   1.828   2.761  13.362  0.4148 -0.4010 -0.1109
  722MPD2    C110722   1.867   2.850  13.260 -0.4796  0.6496 -0.9582
  722MPD2    C210723   1.778   2.883  13.159 -0.2229 -0.0211 -1.2383
  722MPD2    C310724   1.648   2.824  13.170  0.5515  0.6773 -0.0647
  722MPD2    C410725   1.608   2.735  13.270  0.2232  0.6544  0.1908
  722MPD2    C510726   1.707   2.699  13.361  0.9321 -0.9022  0.0397
  722MPD2     H10727   1.798   2.951  13.077  2.4610  0.2081 -0.3963
  722MPD2    H110728   1.513   2.684  13.275  1.3341 -1.5384 -1.4635
  722MPD2    H210729   1.897   2.717  13.432 -0.7215 -1.6847  0.2155
  722MPD2    H310730   1.700   2.621  13.436 -2.0456 -2.0123 -1.3773
  722MPD2     N10731   1.549   2.869  13.074 -0.1499 -0.9752 -0.1073
  722MPD2    H510732   1.575   2.954  13.025 -0.9521  0.6406  2.2469
  722MPD2    N110733   2.000   2.906  13.254 -0.1295  0.6254 -0.1031
  722MPD2    H710734   2.018   2.973  13.180  0.2423 -1.3440 -1.7925
  723TMC3    C110735   1.363   2.872  12.931  1.0389  0.1019 -0.7472
  723TMC3    C210736   1.330   2.787  12.832 -1.0842 -0.1390  0.5482
  723TMC3    C310737   1.296   2.848  12.708  0.2643 -0.2730 -0.3477
  723TMC3    C410738   1.367   3.008  12.925  0.4718 -0.1720 -0.1821
  723TMC3    C510739   1.345   3.061  12.798  0.1048  0.3001  0.0935
  723TMC3    C610740   1.306   2.985  12.694  0.1595  0.6290  0.4604
  723TMC3     C10741   1.431   2.805  13.042 -0.1055  0.4824 -0.4660
  723TMC3     O10742   1.391   2.694  13.071 -0.7799  0.8874 -0.2788
  723TMC3     H10743   1.354   2.681  12.839 -1.1333 -0.0606  1.8161
  723TMC3    H110744   1.389   3.061  13.017  1.7139 -1.0072 -0.0047
  723TMC3    H210745   1.273   3.026  12.599 -0.6319 -2.1561 -0.4662
  723TMC3    C710746   1.320   3.199  12.792 -0.1320  0.5533 -0.5809
  723TMC3    C810747   1.236   2.766  12.606 -0.0848 -0.0509 -0.3165
  723TMC3    O110748   1.245   3.230  12.700  0.2490 -0.6810  0.0896
  723TMC3    O210749   1.207   2.824  12.500  0.2744 -0.2397 -0.8585
  724TMC3    C110750   1.662   0.819  10.014 -0.1641 -0.1177  0.6828
  724TMC3    C210751   1.624   0.899   9.909  0.6792  0.5036 -0.6726
  724TMC3    C310752   1.640   1.033   9.928 -0.3180 -0.2578  0.4890
  724TMC3    C410753   1.713   0.870  10.133  0.1522 -0.1294 -0.1072
  724TMC3    C510754   1.721   1.002  10.146  0.1445  0.1748 -0.9394
  724TMC3    C610755   1.686   1.088  10.045  0.0448  0.5897 -0.3493
  724TMC3     C10756   1.658   0.677   9.984  0.3310  0.3602  0.8403
  724TMC3     O10757   1.588   0.647   9.887  0.1639 -0.7317 -0.3171
  724TMC3     H10758   1.588   0.863   9.813  0.8843  0.3802 -0.7026
  724TMC3    H110759   1.723   0.815  10.226  2.0613  0.2537 -0.0947
  724TMC3    H210760   1.683   1.196  10.046 -0.6368  0.5660  1.0352
  724TMC3    C710761   1.832   1.040  10.225 -0.6940  0.1542  0.2690
  724TMC3    C810762   1.630   1.118   9.809 -0.0852 -0.1973  0.4044
  724TMC3    O110763   1.899   0.943  10.261  0.4244 -0.1056  0.0021
  724TMC3    O210764   1.547   1.085   9.724  0.3233 -0.1047 -0.3584
  725TMC3    C110765   3.786   4.527  12.453 -0.2597 -0.3863  0.0555
  725TMC3    C210766   3.708   4.588  12.358 -0.3855 -0.0908 -0.0406
  725TMC3    C310767   3.626   4.511  12.289  0.8385 -0.9676 -0.5006
  725TMC3    C410768   3.767   4.400  12.496 -0.2022 -0.4895  0.4225
  725TMC3    C510769   3.678   4.327  12.425 -0.1539  0.2547  0.0243
  725TMC3    C610770   3.613   4.371  12.315 -0.5522 -1.2840 -0.0143
  725TMC3     C10771   3.874   4.607  12.540  0.2978 -0.2424 -0.0287
  725TMC3     O10772   3.860   4.729  12.562 -0.4126  0.0820 -0.7771
  725TMC3     H10773   3.713   4.694  12.336 -1.7005 -0.2545 -1.1025
  725TMC3    H110774   3.821   4.354  12.577  0.2361 -0.0188  0.3999
  725TMC3    H210775   3.555   4.303  12.253  1.9247 -2.7017 -0.7603
  725TMC3    C710776   3.630   4.203  12.492 -0.7676  0.5358 -0.3424
  725TMC3    C810777   3.608   4.540  12.147 -0.1100  0.6010 -0.4143
  725TMC3    O110778   3.710   4.153  12.571 -0.0982 -0.2582  0.1092
  725TMC3    O210779   3.524   4.474  12.088 -0.4035  0.1309 -0.0944
  726MPD2     C10780   0.961   0.906  10.268  0.3380 -0.3368 -0.0861
  726MPD2    C110781   0.840   0.973  10.273  0.2404  0.4047  0.1149
  726MPD2    C210782   0.734   0.914  10.328 -0.8311 -0.3700 -0.1942
  726MPD2    C310783   0.743   0.789  10.391  0.4818 -0.4873  0.4808
  726MPD2    C410784   0.869   0.730  10.403  0.9626 -0.2900 -0.3968
  726MPD2    C510785   0.979   0.794  10.347 -0.7650  0.0423 -0.5425
  726MPD2     H10786   0.640   0.969  10.321  0.3390  2.0917  3.0947
  726MPD2    H110787   0.895   0.641  10.460 -1.3446 -0.6711  0.0723
  726MPD2    H210788   1.052   0.947  10.226 -0.0943 -0.3635 -1.0351
  726MPD2    H310789   1.077   0.747  10.352 -0.5490  0.3387 -1.8272
  726MPD2     N10790   0.626   0.736  10.454 -0.3382 -0.2884  0.6293
  726MPD2    H510791   0.636   0.660  10.521  0.6196  2.3670  3.4836
  726MPD2    N110792   0.822   1.099  10.214 -0.0825  0.0933  0.1638
  726MPD2    H710793   0.728   1.135  10.201  0.1344 -0.4370 -2.9055
  727TMC3    C110794   0.886   1.292  10.098  0.2408  0.3646 -0.8181
  727TMC3    C210795   0.964   1.403  10.097 -0.2749  0.3409 -0.2961
  727TMC3    C310796   0.937   1.496  10.003 -0.2950 -0.4443 -0.5708
  727TMC3    C410797   0.772   1.283  10.024 -0.2099 -0.0474 -0.6969
  727TMC3    C510798   0.748   1.381   9.938  0.2237 -0.0267 -0.2109
  727TMC3    C610799   0.827   1.497   9.928  0.5231 -0.1696 -0.4302
  727TMC3     C10800   0.929   1.180  10.174 -0.2636  0.8127 -0.6475
  727TMC3     O10801   1.048   1.177  10.205  0.5280  0.9209 -1.0910
  727TMC3     H10802   1.055   1.405  10.155  0.2503 -1.5555 -1.0393
  727TMC3    H110803   0.704   1.198  10.024 -0.2532  0.0023 -2.6158
  727TMC3    H210804   0.820   1.568   9.847  2.0229  0.4424 -0.0168
  727TMC3    C710805   0.640   1.362   9.843 -0.3675  0.4201  0.4597
  727TMC3    C810806   1.033   1.604  10.006 -0.0389  0.1874  0.4055
  727TMC3    O110807   0.609   1.251   9.807  0.0809 -0.0620  0.5747
  727TMC3    O210808   1.141   1.571  10.048  0.5767 -0.0443 -0.0541
  728TMC3    C110809   1.466   4.588  15.045  0.7395 -0.6159  0.5454
  728TMC3    C210810   1.601   4.565  15.050  0.3305 -0.3958 -0.2674
  728TMC3    C310811   1.659   4.538  14.925 -0.0405 -0.3284  0.0183
  728TMC3    C410812   1.393   4.598  14.926 -0.2329 -0.1994 -0.0026
  728TMC3    C510813   1.464   4.579  14.802  0.3514  0.2867  0.2489
  728TMC3    C610814   1.597   4.541  14.805  0.0782  0.3126 -0.0199
  728TMC3     C10815   1.393   4.617  15.161 -0.5660  0.7369 -0.4579
  728TMC3     O10816   1.456   4.679  15.245  0.1773  0.1195 -0.2255
  728TMC3     H10817   1.647   4.554  15.147 -2.9307  1.0186  1.4395
  728TMC3    H110818   1.291   4.631  14.915 -0.9236 -2.2802  0.1257
  728TMC3    H210819   1.641   4.502  14.714  0.5097  1.2651 -0.2172
  728TMC3    C710820   1.413   4.608  14.670 -0.2717 -0.1610 -0.5239
  728TMC3    C810821   1.794   4.488  14.927 -0.0435 -0.4675  0.0008
  728TMC3    O110822   1.454   4.538  14.573 -0.3538 -0.1250 -0.5229
  728TMC3    O210823   1.821   4.406  14.840  0.3234  0.0099 -0.2225
  729MPD2     C10824   2.991   0.825  16.384 -0.0886  0.2619  0.3287
  729MPD2    C110825   3.095   0.760  16.447 -0.0454  0.5304 -0.4333
  729MPD2    C210826   3.070   0.704  16.579 -0.0860  0.1651  0.2894
  729MPD2    C310827   2.944   0.717  16.633  0.2215 -0.4747 -0.4901
  729MPD2    C410828   2.836   0.773  16.555 -0.0405 -0.6225 -0.0059
  729MPD2    C510829   2.864   0.829  16.435  0.1783 -0.4876 -0.1888
  729MPD2     H10830   3.144   0.651  16.637  0.4352  0.1072 -0.4389
  729MPD2    H110831   2.734   0.763  16.588  0.2409 -2.5190  0.2845
  729MPD2    H210832   3.009   0.880  16.293  1.9849 -0.9698 -0.0137
  729MPD2    H310833   2.794   0.860  16.358 -0.9043  1.0574  1.4417
  729MPD2     N10834   2.926   0.672  16.761  0.3192 -0.3653  0.0020
  729MPD2    H510835   3.001   0.620  16.804  1.9441  2.9727  1.2526
  729MPD2    N110836   3.223   0.755  16.388 -0.2238  0.1018 -0.5398
  729MPD2    H710837   3.237   0.808  16.302 -3.2513 -1.3919 -1.9935
  730TMC3    C110838   2.852   0.715  16.986 -0.4056 -0.2321 -0.2540
  730TMC3    C210839   2.949   0.633  17.035  0.2993 -0.4104 -0.4789
  730TMC3    C310840   2.996   0.659  17.154 -0.0848  0.0312  0.0840
  730TMC3    C410841   2.810   0.825  17.058 -0.2642  0.1757  0.1801
  730TMC3    C510842   2.865   0.851  17.178  0.7445  0.0442  0.1739
  730TMC3    C610843   2.967   0.774  17.228  0.1143 -0.4054  0.4405
  730TMC3     C10844   2.828   0.725  16.840  0.3525  0.5164 -0.1608
  730TMC3     O10845   2.741   0.800  16.813  0.3042  1.4855 -0.4458
  730TMC3     H10846   2.989   0.551  16.977  0.5575  1.3216 -2.7566
  730TMC3    H110847   2.735   0.892  17.019  0.9651  1.7045  0.4570
  730TMC3    H210848   3.012   0.791  17.326 -0.2351  2.0697  0.1674
  730TMC3    C710849   2.860   0.982  17.230  0.0921 -0.2612 -0.3020
  730TMC3    C810850   3.098   0.565  17.198 -0.4764 -0.1894  0.0171
  730TMC3    O110851   2.884   0.993  17.352  0.3425 -0.0387  0.2677
  730TMC3    O210852   3.125   0.466  17.133  0.3418  0.0739 -0.2878
  731MPD2     C10853   3.085   3.493  12.271  0.0282 -0.6353 -0.7422
  731MPD2    C110854   3.213   3.453  12.279  0.8632 -0.6200 -0.3804
  731MPD2    C210855   3.262   3.434  12.406  0.4655 -0.2918 -0.4949
  731MPD2    C310856   3.186   3.439  12.522  0.5878  0.0883 -0.5459
  731MPD2    C410857   3.059   3.492  12.508 -0.1275 -0.9355 -0.5556
  731MPD2    C510858   3.006   3.511  12.382  0.3199  0.7920  0.3988
  731MPD2     H10859   3.362   3.393  12.418  1.0094  0.8707 -1.0569
  731MPD2    H110860   2.981   3.491  12.583  0.7147  2.6981  0.3943
  731MPD2    H210861   3.028   3.505  12.179  2.2930  1.4844 -1.8769
  731MPD2    H310862   2.901   3.538  12.380  0.2996  0.6497 -0.4739
  731MPD2     N10863   3.233   3.391  12.650 -0.1619  0.0516 -0.4612
  731MPD2    H510864   3.322   3.342  12.658  0.5316  1.5202  0.7558
  731MPD2    N110865   3.280   3.442  12.158 -0.3924  0.3453  0.4607
  731MPD2    H710866   3.235   3.461  12.069  1.1020  0.6355 -0.2419
  732TMC3    C110867   3.468   3.412  12.018  0.0863 -0.0681  0.0884
  732TMC3    C210868   3.389   3.431  11.914 -0.4682  0.1480  1.0047
  732TMC3    C310869   3.433   3.486  11.799  0.1740  0.4109  0.3728
  732TMC3    C410870   3.598   3.450  12.014 -0.2803 -0.0024  0.1693
  732TMC3    C510871   3.641   3.527  11.904  0.5828  0.0598  0.3197
  732TMC3    C610872   3.554   3.545  11.799  0.0170 -0.5823 -0.0818
  732TMC3     C10873   3.413   3.414  12.150 -0.8552  0.1002 -0.3469
  732TMC3     O10874   3.498   3.378  12.235  0.3368  0.0497  0.3199
  732TMC3     H10875   3.288   3.391  11.912 -1.0558  1.6681  0.2164
  732TMC3    H110876   3.652   3.451  12.108  0.4392 -0.4914 -0.2380
  732TMC3    H210877   3.578   3.603  11.711  2.1265  1.1172  1.6325
  732TMC3    C710878   3.724   3.643  11.946  0.1245  0.5047 -0.0176
  732TMC3    C810879   3.341   3.536  11.700 -0.2135 -0.2152 -0.5886
  732TMC3    O110880   3.681   3.749  11.897 -0.5336  0.0756 -0.1171
  732TMC3    O210881   3.391   3.552  11.587 -0.3285 -0.3554  0.8405
  733TMC3    C110882   3.781   1.814  12.701  0.2107 -0.0184  0.3364
  733TMC3    C210883   3.878   1.794  12.794  0.1737 -0.2688 -0.4139
  733TMC3    C310884   4.009   1.784  12.749 -0.4162  0.3598  0.1082
  733TMC3    C410885   3.809   1.835  12.563 -0.2618 -0.3135  0.1993
  733TMC3    C510886   3.937   1.817  12.522 -0.1102 -0.1436  0.0605
  733TMC3    C610887   4.041   1.796  12.618  0.2439 -0.1865 -0.6372
  733TMC3     C10888   3.649   1.820  12.756  0.1829 -0.5803 -0.0353
  733TMC3     O10889   3.574   1.848  12.667 -0.0962 -0.0646 -0.3309
  733TMC3     H10890   3.846   1.814  12.896 -1.9312  1.3735 -1.3909
  733TMC3    H110891   3.737   1.871  12.490 -0.3006  0.5670  0.6822
  733TMC3    H210892   4.138   1.761  12.586  1.6674  0.9555  2.4378
  733TMC3    C710893   3.978   1.895  12.398  0.0240  0.1846 -0.4081
  733TMC3    C810894   4.112   1.755  12.852 -0.0306  0.6943 -0.5289
  733TMC3    O110895   3.896   1.908  12.307 -0.0968  0.0163  0.2871
  733TMC3    O210896   4.074   1.721  12.963 -0.1066 -0.6551  0.5937
  734MPD2     C10897   1.886   4.201  12.635  0.4486 -0.4646  0.2265
  734MPD2    C110898   1.793   4.101  12.615 -0.3594 -0.6697 -0.3821
  734MPD2    C210899   1.674   4.124  12.554 -0.3034 -0.0629  0.2382
  734MPD2    C310900   1.640   4.254  12.529 -0.4070 -0.1092  0.4968
  734MPD2    C410901   1.730   4.354  12.552 -0.3414  0.3696  0.0353
  734MPD2    C510902   1.853   4.326  12.600  0.2750 -0.4754 -0.5628
  734MPD2     H10903   1.615   4.041  12.518 -0.5808  0.2780 -0.0933
  734MPD2    H110904   1.707   4.452  12.513  0.6070  1.1261  1.3741
  734MPD2    H210905   1.986   4.176  12.669  0.3500 -0.7721  0.2857
  734MPD2    H310906   1.934   4.398  12.614 -0.6672  0.4434  0.1900
  734MPD2     N10907   1.511   4.271  12.467 -0.1367  0.0414 -0.1564
  734MPD2    H510908   1.466   4.182  12.445  0.0649  0.1015 -0.8274
  734MPD2    N110909   1.824   3.966  12.652 -0.1276  0.1603  0.5383
  734MPD2    H710910   1.924   3.951  12.662 -0.2661 -1.1786 -0.1421
  735TMC3    C110911   1.783   3.735  12.689 -0.1172 -0.9806 -0.3257
  735TMC3    C210912   1.687   3.647  12.722 -0.1005  0.4096 -0.2506
  735TMC3    C310913   1.666   3.526  12.659  0.4174 -0.6367 -0.7265
  735TMC3    C410914   1.881   3.687  12.607  0.0307 -0.9090 -0.7620
  735TMC3    C510915   1.888   3.554  12.572  0.4334 -0.0554 -0.2242
  735TMC3    C610916   1.776   3.473  12.591  0.3530 -0.5323 -0.0143
  735TMC3     C10917   1.731   3.866  12.668  0.2275 -0.1133  0.5725
  735TMC3     O10918   1.608   3.878  12.657  0.1384  0.0953  0.3877
  735TMC3     H10919   1.608   3.686  12.785  0.6268  2.8391 -0.8019
  735TMC3    H110920   1.955   3.754  12.563  0.8360 -1.8579 -0.8535
  735TMC3    H210921   1.773   3.372  12.552 -0.9778 -0.2995 -0.5062
  735TMC3    C710922   1.946   3.529  12.445  0.5846  0.9165 -0.1269
  735TMC3    C810923   1.546   3.514  12.591  0.7772 -0.0152 -0.7290
  735TMC3    O110924   1.955   3.634  12.378 -0.1482  0.4617 -0.5600
  735TMC3    O210925   1.528   3.404  12.541  0.7998 -0.1466  0.6794
  736MPD2     C10926   2.143   3.231  12.327 -0.9497 -0.0046 -0.0015
  736MPD2    C110927   2.075   3.351  12.320  0.2769  0.0031 -0.1154
  736MPD2    C210928   2.095   3.431  12.203 -0.3747  0.0706 -0.0352
  736MPD2    C310929   2.180   3.396  12.100  0.0361 -0.0434 -0.2916
  736MPD2    C410930   2.245   3.272  12.114  0.1355  0.9041  0.7874
  736MPD2    C510931   2.223   3.193  12.224  0.3604 -0.1903  0.4419
  736MPD2     H10932   2.066   3.535  12.193  2.2587  0.9282  1.2678
  736MPD2    H110933   2.314   3.249  12.034 -0.0752  0.8122  0.6322
  736MPD2    H210934   2.134   3.171  12.417  1.1214 -1.0661 -0.5049
  736MPD2    H310935   2.270   3.095  12.223  3.5996  1.3632  1.7722
  736MPD2     N10936   2.205   3.480  11.989  0.7425 -0.2442 -0.3056
  736MPD2    H510937   2.255   3.439  11.910  0.8037  2.7296 -1.8239
  736MPD2    N110938   2.002   3.401  12.431 -0.1070  0.1950 -0.4224
  736MPD2    H710939   2.005   3.348  12.518  1.5252  3.0130  1.2311
  737TMC3    C110940   2.232   3.681  11.859 -0.1028 -0.0978  0.4281
  737TMC3    C210941   2.246   3.814  11.870  0.5704 -0.0219 -0.5717
  737TMC3    C310942   2.271   3.879  11.752  0.1899 -0.7898  0.4911
  737TMC3    C410943   2.236   3.604  11.749  0.0176 -0.0208 -1.1604
  737TMC3    C510944   2.268   3.668  11.636  0.3920 -0.3616 -0.2779
  737TMC3    C610945   2.277   3.804  11.638 -0.2011 -0.0562  0.2960
  737TMC3     C10946   2.191   3.614  11.984  0.0223 -0.7401  0.0929
  737TMC3     O10947   2.156   3.692  12.072 -0.4499  0.1398 -0.3693
  737TMC3     H10948   2.236   3.866  11.965  0.3383  0.7868 -1.0423
  737TMC3    H110949   2.216   3.498  11.749 -1.3571  0.2288  0.7466
  737TMC3    H210950   2.305   3.861  11.551  1.1655 -2.6697 -0.9619
  737TMC3    C710951   2.255   3.586  11.518  0.0609 -0.4742 -0.5759
  737TMC3    C810952   2.207   4.011  11.748  0.0665 -0.0335 -0.6692
  737TMC3    O110953   2.187   3.487  11.521 -0.1167 -0.2927  0.4029
  737TMC3    O210954   2.230   4.092  11.838 -0.2813  0.5618 -0.3012
  738MPD2     C10955   1.953   2.468  15.400  0.1579  0.5604  0.6724
  738MPD2    C110956   1.942   2.445  15.261  0.2948 -0.0981  0.3217
  738MPD2    C210957   2.053   2.482  15.186  0.4138 -0.2306  0.4367
  738MPD2    C310958   2.162   2.548  15.244  0.0263  0.0010  0.4556
  738MPD2    C410959   2.170   2.576  15.381 -0.8133  0.5826  0.2120
  738MPD2    C510960   2.063   2.532  15.463  0.0318  0.1785  0.6602
  738MPD2     H10961   2.043   2.471  15.079 -0.9165 -0.8326  0.6252
  738MPD2    H110962   2.250   2.633  15.427 -0.1977 -1.1734  1.3105
  738MPD2    H210963   1.864   2.447  15.457  0.9311 -0.5299  1.4874
  738MPD2    H310964   2.062   2.558  15.568  1.5101  3.2783 -0.0977
  738MPD2     N10965   2.269   2.607  15.167 -0.4339  0.5953 -0.0467
  738MPD2    H510966   2.358   2.610  15.216  0.7386 -2.9966 -2.0097
  738MPD2    N110967   1.833   2.389  15.191  0.4425 -0.0273 -0.4884
  738MPD2    H710968   1.840   2.406  15.091  1.4839 -1.1704 -0.6154
  739TMC3    C110969   2.387   2.659  14.976  0.0905  0.8011 -0.5856
  739TMC3    C210970   2.391   2.643  14.844 -0.1715  0.0150 -0.2816
  739TMC3    C310971   2.510   2.657  14.777  0.4293  0.3760  0.0282
  739TMC3    C410972   2.500   2.680  15.050 -0.6338 -1.0228  0.7568
  739TMC3    C510973   2.619   2.696  14.975 -0.5787 -0.0923 -0.0178
  739TMC3    C610974   2.622   2.687  14.840 -0.6561 -0.0329 -0.4143
  739TMC3     C10975   2.261   2.631  15.036  0.1453 -0.0354 -0.4391
  739TMC3     O10976   2.159   2.632  14.971 -0.0301 -0.3416  0.4698
  739TMC3     H10977   2.302   2.605  14.796 -0.3225 -2.0877  1.6577
  739TMC3    H110978   2.499   2.698  15.156  0.4041 -3.0139  1.1083
  739TMC3    H210979   2.704   2.726  14.781  1.8280 -0.8054  2.4729
  739TMC3    C710980   2.738   2.721  15.051  0.3893  0.2810 -0.6269
  739TMC3    C810981   2.504   2.638  14.629  0.1667 -0.3499  0.2380
  739TMC3    O110982   2.729   2.783  15.155 -0.0431  0.3647  0.2382
  739TMC3    O210983   2.400   2.675  14.571 -0.4337  0.0375  0.0217
  740TMC3    C110984   3.150   4.116  14.070 -0.2043  0.5641 -0.3559
  740TMC3    C210985   3.214   4.067  14.182 -0.3487 -0.0651 -0.1850
  740TMC3    C310986   3.347   4.104  14.191  0.3039  0.5725  0.1409
  740TMC3    C410987   3.202   4.193  13.970  0.3956  0.8969  0.2580
  740TMC3    C510988   3.332   4.235  13.989  0.3618 -0.7475  0.2669
  740TMC3    C610989   3.402   4.195  14.101  0.4117  0.2193  0.1501
  740TMC3     C10990   3.013   4.171  14.095 -0.1420 -0.2838 -0.0852
  740TMC3     O10991   2.987   4.288  14.073 -0.0197 -0.8812  0.4830
  740TMC3     H10992   3.167   3.999  14.251  0.6225  0.2734  0.8049
  740TMC3    H110993   3.135   4.242  13.900  1.8079  2.3715 -0.0623
  740TMC3    H210994   3.500   4.238  14.123  0.1955  0.9173 -0.2799
  740TMC3    C710995   3.378   4.346  13.903  0.5165 -0.4683 -0.2936
  740TMC3    C810996   3.406   4.102  14.323  0.3064 -0.2914 -0.5054
  740TMC3    O110997   3.462   4.425  13.948 -0.5066  0.3751 -0.0636
  740TMC3    O210998   3.329   4.107  14.416  0.6107 -1.0454  0.0995
  741TMC3    C110999   2.626   3.572  13.648  0.3153 -0.0007 -0.8162
  741TMC3    C211000   2.524   3.531  13.726 -0.8023 -0.6165 -0.1769
  741TMC3    C311001   2.544   3.444  13.831  0.0387  0.5470 -0.1048
  741TMC3    C411002   2.750   3.519  13.662 -0.0871  0.1306  0.1678
  741TMC3    C511003   2.766   3.420  13.758 -0.3994 -0.0515 -0.0320
  741TMC3    C611004   2.662   3.376  13.838 -0.3377  0.0986  0.6460
  741TMC3     C11005   2.609   3.675  13.537 -0.6762 -0.9139 -0.2031
  741TMC3     O11006   2.711   3.712  13.478  0.4434  0.3785  0.7263
  741TMC3     H11007   2.421   3.561  13.706 -1.0712 -2.0453 -0.9488
  741TMC3    H111008   2.821   3.531  13.581 -0.4629  0.6474 -0.0878
  741TMC3    H211009   2.673   3.292  13.905 -1.1864 -2.9942 -3.1067
  741TMC3    C711010   2.909   3.384  13.764  0.4399 -0.1801  0.0401
  741TMC3    C811011   2.435   3.377  13.898  1.2339  0.1969  0.0616
  741TMC3    O111012   2.980   3.434  13.685  0.7375 -0.1387 -0.0252
  741TMC3    O211013   2.327   3.425  13.866  0.4816  0.3619 -0.0315
  742TMC3    C111014   1.981   2.183  15.581 -0.3603  0.0797  0.5776
  742TMC3    C211015   1.933   2.088  15.497 -0.1178 -0.6572  0.2104
  742TMC3    C311016   2.023   2.041  15.409 -0.2453 -0.2081  0.2665
  742TMC3    C411017   2.116   2.215  15.591  0.0821  0.0409 -0.5191
  742TMC3    C511018   2.201   2.175  15.489 -0.6090 -0.6115 -0.3700
  742TMC3    C611019   2.155   2.077  15.406 -0.4822  0.2390  0.3551
  742TMC3     C11020   1.898   2.231  15.689  0.5241  0.2207 -0.0990
  742TMC3     O11021   1.947   2.264  15.795 -0.1390  0.2346  0.0220
  742TMC3     H11022   1.845   2.032  15.529 -1.4297  1.6048  0.5134
  742TMC3    H111023   2.152   2.291  15.660 -1.2157 -0.8433  1.1250
  742TMC3    H211024   2.228   2.040  15.335  0.1932  0.3030  1.0203
  742TMC3    C711025   2.329   2.243  15.459 -0.4689  0.0164  0.4062
  742TMC3    C811026   1.983   1.965  15.289  0.9645 -0.5485 -0.3495
  742TMC3    O111027   2.377   2.204  15.355  0.0280 -0.1592 -0.0825
  742TMC3    O211028   2.073   1.902  15.238 -0.6136  0.4265  0.1255
  743MPD2     C11029   4.179   3.041   1.196  0.5774 -0.1133  0.0407
  743MPD2    C111030   4.252   2.999   1.083  0.1680  0.4497  0.2942
  743MPD2    C211031   4.382   2.949   1.102 -0.0655  0.8137 -0.4125
  743MPD2    C311032   4.419   2.920   1.230  0.2431  0.6691  0.0438
  743MPD2    C411033   4.354   2.965   1.338 -0.6832 -0.0385 -0.2674
  743MPD2    C511034   4.240   3.035   1.318 -0.1499 -0.2225 -0.4188
  743MPD2     H11035   4.441   2.917   1.016 -0.7380  0.4086 -0.7152
  743MPD2    H111036   4.401   2.974   1.435 -0.1734 -0.1091 -0.5049
  743MPD2    H211037   4.086   3.096   1.191  0.3965 -0.2002  2.2873
  743MPD2    H311038   4.186   3.079   1.401  1.9015 -0.0842  0.8439
  743MPD2     N11039   4.538   2.836   1.238  0.7247  0.6500 -0.3557
  743MPD2    H511040   4.590   2.811   1.154  0.0494  1.8724 -1.1260
  743MPD2    N111041   4.193   3.022   0.954  0.9392 -0.0104  0.4763
  743MPD2    H711042   4.103   3.070   0.952  0.1898 -1.4550 -0.1418
  744TMC3    C111043   4.150   2.975   0.722  0.4716 -1.1723  0.0803
  744TMC3    C211044   4.081   3.094   0.720  0.0645  0.9925  0.0302
  744TMC3    C311045   3.996   3.110   0.614  0.0079  0.6585  0.5009
  744TMC3    C411046   4.122   2.880   0.639 -0.9602  0.0915 -0.3213
  744TMC3    C511047   4.039   2.900   0.539  0.5307  1.4078 -0.9054
  744TMC3    C611048   3.977   3.021   0.518 -0.1274  0.3752  0.1439
  744TMC3     C11049   4.224   2.952   0.841 -0.1705 -0.1100 -0.1441
  744TMC3     O11050   4.301   2.857   0.829 -0.1771 -0.3940 -0.1429
  744TMC3     H11051   4.108   3.172   0.791  0.5649  0.8806 -0.0419
  744TMC3    H111052   4.167   2.782   0.650  1.0176  0.8494 -1.6124
  744TMC3    H211053   3.894   3.038   0.450  0.0628  0.6186 -0.0269
  744TMC3    C711054   4.001   2.787   0.444 -0.6638 -0.3700 -0.1709
  744TMC3    C811055   3.967   3.250   0.581  0.0452  0.2282  0.5719
  744TMC3    O111056   3.904   2.819   0.371  0.2220 -0.4489 -0.0197
  744TMC3    O211057   3.946   3.276   0.465 -0.6017 -0.2142 -0.2593
  745TMC3    C111058   2.084   1.815  13.423 -0.4060 -0.3636  0.1584
  745TMC3    C211059   2.034   1.859  13.539  0.4233  0.1315 -0.7348
  745TMC3    C311060   1.941   1.964  13.523  0.2495  0.4802 -0.2514
  745TMC3    C411061   2.093   1.881  13.306  0.2452 -0.2223 -0.6924
  745TMC3    C511062   2.013   1.990  13.305  0.1842  0.6044  1.1077
  745TMC3    C611063   1.934   2.030  13.409  0.7762  0.5937  0.3364
  745TMC3     C11064   2.195   1.722  13.448 -0.1296 -0.3311  0.0752
  745TMC3     O11065   2.181   1.604  13.422  0.0860  0.2037  0.3199
  745TMC3     H11066   2.022   1.795  13.626  0.4835  2.1551  0.7645
  745TMC3    H111067   2.158   1.841  13.229  0.9722  0.1787 -0.2899
  745TMC3    H211068   1.867   2.114  13.390 -0.3947 -0.2549  0.6853
  745TMC3    C711069   2.036   2.096  13.201 -0.7282 -0.3905  1.0181
  745TMC3    C811070   1.916   2.058  13.629 -0.3505 -0.1552 -0.4702
  745TMC3    O111071   1.975   2.201  13.196  0.2476  0.4152 -0.1494
  745TMC3    O211072   1.810   2.123  13.631 -0.0351 -0.5184 -0.0877
  746TMC3    C111073   4.172   3.775  11.459 -0.9417 -0.5438  0.3526
  746TMC3    C211074   4.137   3.887  11.397 -0.3936  0.3029  0.0595
  746TMC3    C311075   4.047   3.887  11.295  0.5185 -0.2577 -0.4022
  746TMC3    C411076   4.120   3.653  11.431  0.2850 -0.1796 -0.1183
  746TMC3    C511077   4.034   3.652  11.324  0.9934  0.7989 -0.2138
  746TMC3    C611078   3.986   3.773  11.260 -0.2682 -0.0589 -0.4161
  746TMC3     C11079   4.273   3.793  11.561  0.3096  0.3113  0.4284
  746TMC3     O11080   4.276   3.900  11.617 -0.1340 -0.1764  0.2610
  746TMC3     H11081   4.193   3.980  11.398 -0.1673  0.1330  2.1423
  746TMC3    H111082   4.156   3.561  11.474 -0.1000  0.0414  0.6713
  746TMC3    H211083   3.912   3.774  11.181  0.0646  0.0720 -0.7225
  746TMC3    C711084   4.071   3.548  11.225  1.2168  0.0602 -0.0009
  746TMC3    C811085   4.080   3.978  11.187  0.6318 -0.3011 -0.3971
  746TMC3    O111086   4.115   3.445  11.271  0.1053 -0.4702  0.1709
  746TMC3    O211087   3.988   4.007  11.109 -0.1398 -0.5758 -0.3548
  747TMC3    C111088   2.582   3.984  10.570 -0.1756  0.2495 -0.6108
  747TMC3    C211089   2.482   3.910  10.629 -0.7910 -0.7411 -0.4090
  747TMC3    C311090   2.501   3.883  10.764 -0.0568  0.1197 -0.1694
  747TMC3    C411091   2.686   4.044  10.637 -0.2357 -0.1324  0.7082
  747TMC3    C511092   2.698   4.014  10.769 -0.3524  0.3375  0.0544
  747TMC3    C611093   2.608   3.938  10.839  0.2657 -0.0177 -0.5744
  747TMC3     C11094   2.585   4.000  10.425 -0.6348  0.0015 -0.1517
  747TMC3     O11095   2.669   4.082  10.390 -0.2087  0.2679  0.3801
  747TMC3     H11096   2.396   3.868  10.578  0.8937 -3.4864 -0.9431
  747TMC3    H111097   2.775   4.086  10.592 -0.7296 -1.4141 -1.5174
  747TMC3    H211098   2.615   3.924  10.947  1.7733 -0.2560 -0.7001
  747TMC3    C711099   2.804   4.081  10.833 -0.1311  0.3741  0.6133
  747TMC3    C811100   2.406   3.792  10.828  0.1888  0.2348  0.3273
  747TMC3    O111101   2.816   4.203  10.813  0.2821 -0.6364  0.8525
  747TMC3    O211102   2.328   3.741  10.754 -0.0193  0.1037  0.7519
  748MPD2     C11103   3.703   3.818   1.724 -0.0443 -0.0202  0.2808
  748MPD2    C111104   3.805   3.905   1.695 -0.3419  0.1842  0.1250
  748MPD2    C211105   3.922   3.853   1.633  0.1014 -0.3546 -0.3038
  748MPD2    C311106   3.935   3.716   1.622 -0.1615  0.6153 -0.0988
  748MPD2    C411107   3.827   3.637   1.650 -0.4064  0.7470 -0.6129
  748MPD2    C511108   3.714   3.685   1.712  0.9702 -0.1235  0.5287
  748MPD2     H11109   4.004   3.923   1.628 -2.0172  1.9618 -2.2942
  748MPD2    H111110   3.841   3.529   1.651 -1.1348  0.6539 -0.3900
  748MPD2    H211111   3.614   3.845   1.780 -1.3418  0.1894 -1.8883
  748MPD2    H311112   3.639   3.615   1.749  0.1623  1.0700  1.1516
  748MPD2     N11113   4.058   3.671   1.579  0.5019  0.6090  0.0769
  748MPD2    H511114   4.126   3.742   1.556 -0.3491  1.2332 -0.5130
  748MPD2    N111115   3.787   4.046   1.713 -0.5145 -0.0393  0.2433
  748MPD2    H711116   3.693   4.063   1.749 -0.6278 -1.3573  0.5516
  749TMC3    C111117   4.230   3.508   1.523 -0.3487  1.0663  0.1424
  749TMC3    C211118   4.303   3.406   1.572  0.1501  0.4872 -0.2234
  749TMC3    C311119   4.419   3.362   1.510  0.5145 -0.3718  0.1719
  749TMC3    C411120   4.271   3.570   1.412  0.0276  0.7401 -0.4056
  749TMC3    C511121   4.388   3.532   1.356 -0.8572  0.3787 -0.2373
  749TMC3    C611122   4.464   3.426   1.401 -0.0446 -0.5717 -0.5758
  749TMC3     C11123   4.099   3.537   1.580 -0.1999 -0.3019  0.2270
  749TMC3     O11124   4.047   3.437   1.623  0.4705 -0.6727  0.1071
  749TMC3     H11125   4.254   3.345   1.646  0.7169 -0.7540 -0.8773
  749TMC3    H111126   4.202   3.644   1.372  0.2618  0.1991 -1.7978
  749TMC3    H211127   4.568   3.415   1.371 -0.2532  1.1195 -1.9272
  749TMC3    C711128   4.449   3.616   1.250 -0.1050  0.2506 -0.6481
  749TMC3    C811129   4.491   3.253   1.558  0.4115  0.1353  0.0937
  749TMC3    O111130   4.393   3.728   1.244 -0.1780  0.2687 -0.1601
  749TMC3    O211131   4.470   3.231   1.678  0.1250 -0.3386 -0.3390
  750MPD2     C11132   0.130   0.799  11.473  0.2809 -0.0323 -0.3706
  750MPD2    C111133   0.044   0.735  11.564  0.3148 -0.2695 -0.0009
  750MPD2    C211134   0.023   0.598  11.549 -0.1122  0.9228 -0.4702
  750MPD2    C311135   0.093   0.525  11.451  0.2992 -0.0773 -0.7399
  750MPD2    C411136   0.170   0.593  11.359  0.0055 -0.2754 -0.0051
  750MPD2    C511137   0.180   0.732  11.367  0.0532 -0.0711 -0.6294
  750MPD2     H11138   4.687   0.553  11.617  1.6675 -2.9347 -1.1589
  750MPD2    H111139   0.217   0.548  11.272 -1.8657 -2.5148  0.1452
  750MPD2    H211140   0.156   0.904  11.484 -0.3207  0.0179  0.5932
  750MPD2    H311141   0.230   0.784  11.286  0.1168 -2.3821 -2.0844
  750MPD2     N11142   0.089   0.385  11.434 -0.2304  0.1897  0.2827
  750MPD2    H511143   0.146   0.349  11.357 -1.5177 -1.9992  0.3648
  750MPD2    N111144   0.000   0.816  11.672  0.4205  0.3707  0.1578
  750MPD2    H711145   0.026   0.914  11.672 -0.5485  0.6217  2.0742
  751TMC3    C111146   0.010   0.162  11.478  0.2914  0.1347  0.4227
  751TMC3    C211147   4.626   0.102  11.515 -0.0852 -0.0614 -0.2069
  751TMC3    C311148   4.592   4.726  11.434 -0.4026  0.8460  0.8675
  751TMC3    C411149   0.089   0.117  11.371 -0.3021  0.1012  0.1889
  751TMC3    C511150   0.043   0.010  11.300  0.7571  0.3871  0.0043
  751TMC3    C611151   4.668   4.675  11.332 -0.1268 -0.4573  0.3410
  751TMC3     C11152   0.019   0.301  11.521 -0.7922 -0.3577  0.2613
  751TMC3     O11153   4.681   0.331  11.614  0.3256  0.5659 -0.1232
  751TMC3     H11154   4.561   0.154  11.584  0.3116  2.3359 -1.6177
  751TMC3    H111155   0.188   0.155  11.350  0.2060 -1.6533 -0.6545
  751TMC3    H211156   4.648   4.587  11.271  0.8375 -1.4261  1.4295
  751TMC3    C711157   0.124   4.698  11.199 -0.3757  1.0405  0.4578
  751TMC3    C811158   4.466   4.652  11.454 -0.3965  0.0547  0.9848
  751TMC3    O111159   0.160   0.049  11.119  0.0274  0.0729  1.5088
  751TMC3    O211160   4.457   4.558  11.377 -0.0517 -0.0765 -0.6637
  752TMC3    C111161   3.814   0.442  17.209  0.1350  0.4719 -0.0667
  752TMC3    C211162   3.852   0.420  17.335  0.5226  0.0833 -0.0311
  752TMC3    C311163   3.780   0.479  17.439 -0.1651  0.3268 -0.0511
  752TMC3    C411164   3.709   0.537  17.187  0.5573  0.1247 -0.7067
  752TMC3    C511165   3.644   0.599  17.289  0.2984 -0.6064  0.7816
  752TMC3    C611166   3.684   0.576  17.415 -0.7195  0.2327  0.0767
  752TMC3     C11167   3.905   0.422  17.103 -0.0832 -0.1567  0.3957
  752TMC3     O11168   4.025   0.428  17.136 -0.0932  0.2350 -0.1591
  752TMC3     H11169   3.933   0.351  17.356  0.8529  1.1694  2.2919
  752TMC3    H111170   3.670   0.549  17.087 -3.2447  3.3374  1.1720
  752TMC3    H211171   3.625   0.615  17.497 -2.5534  2.7151 -2.4170
  752TMC3    C711172   3.561   0.709  17.245  0.3088 -0.4413 -1.0229
  752TMC3    C811173   3.852   0.487  17.561 -0.1568 -0.7588  0.4178
  752TMC3    O111174   3.570   0.746  17.128 -0.3376  0.7058  0.3876
  752TMC3    O211175   3.858   0.598  17.607  0.5684  0.6570 -0.4947
  753TMC3    C111176   1.004   1.631  13.143 -0.0956  0.1123 -0.3566
  753TMC3    C211177   1.077   1.621  13.254 -0.1579  0.1158 -0.0458
  753TMC3    C311178   1.054   1.508  13.335  0.0607 -0.4181  0.5910
  753TMC3    C411179   0.902   1.543  13.109  0.1270 -0.1465 -0.6156
  753TMC3    C511180   0.887   1.439  13.194  0.5411 -0.2229  0.9091
  753TMC3    C611181   0.961   1.415  13.302  0.3541 -0.5421  0.4421
  753TMC3     C11182   1.002   1.754  13.062  0.4079 -0.3978  1.1238
  753TMC3     O11183   0.923   1.766  12.968  0.0914  0.0537  0.0663
  753TMC3     H11184   1.148   1.692  13.294  0.3392 -0.7513  0.6024
  753TMC3    H111185   0.834   1.556  13.025  1.1392 -2.5652 -1.8278
  753TMC3    H211186   0.939   1.329  13.365 -1.7436 -0.3323  0.0069
  753TMC3    C711187   0.815   1.333  13.135  0.1628  0.2183  0.5063
  753TMC3    C811188   1.142   1.483  13.445  0.4953  0.1203  0.2393
  753TMC3    O111189   0.711   1.364  13.072  0.2281  0.1382  0.4755
  753TMC3    O211190   1.162   1.368  13.472  0.0389 -0.5649  0.4475
  754MPD2     C11191   0.228   0.557  13.296 -0.3542 -0.5095  0.2040
  754MPD2    C111192   0.188   0.431  13.259  0.6924 -0.7694  0.7433
  754MPD2    C211193   0.054   0.408  13.228  0.9374 -0.8933  0.0344
  754MPD2    C311194   4.691   0.503  13.245 -0.1170  0.5694  0.6549
  754MPD2    C411195   0.007   0.630  13.283  0.0739  0.2983 -0.8090
  754MPD2    C511196   0.138   0.653  13.305  0.1373 -0.0122 -0.3911
  754MPD2     H11197   0.016   0.316  13.186  0.5572 -0.3961 -0.7008
  754MPD2    H111198   4.682   0.719  13.299 -0.7570 -0.7253  1.6212
  754MPD2    H211199   0.332   0.570  13.326 -0.8020  1.3994  0.8723
  754MPD2    H311200   0.169   0.753  13.335  1.0141 -0.2522 -0.4996
  754MPD2     N11201   4.555   0.490  13.227 -0.4123 -0.1367  1.0536
  754MPD2    H511202   4.503   0.576  13.236 -1.2554 -0.3497 -1.7408
  754MPD2    N111203   0.291   0.332  13.246  0.4126 -0.4186  0.2458
  754MPD2    H711204   0.385   0.369  13.237 -0.4997  2.1108  1.0406
  755MPD2     C11205   3.882   0.983  13.449 -0.6993  1.1742 -0.2091
  755MPD2    C111206   3.812   0.878  13.385  0.2533  0.3566 -0.3104
  755MPD2    C211207   3.879   0.792  13.303  0.0849 -0.0803  1.1857
  755MPD2    C311208   4.017   0.809  13.285 -0.0555 -0.8913 -0.0781
  755MPD2    C411209   4.079   0.917  13.346 -0.3439 -0.4168  0.0909
  755MPD2    C511210   4.015   1.005  13.429 -0.6537  0.1029  0.1076
  755MPD2     H11211   3.829   0.702  13.266 -1.3540  1.8206 -1.5358
  755MPD2    H111212   4.187   0.927  13.355 -0.1903  0.3699 -2.7350
  755MPD2    H211213   3.833   1.041  13.527 -1.6841  0.1519 -0.0615
  755MPD2    H311214   4.064   1.081  13.489 -1.5270  0.3720  0.4734
  755MPD2     N11215   4.102   0.711  13.220  0.2467  0.3086 -0.5004
  755MPD2    H511216   4.203   0.724  13.224  0.2398 -0.6383  2.5635
  755MPD2    N111217   3.671   0.845  13.415  0.4600 -0.0019 -0.0325
  755MPD2    H711218   3.630   0.760  13.377  0.9786 -0.2910  0.0531
  756MPD2     C11219   4.609   0.914   9.760 -0.2853  0.1475  0.6431
  756MPD2    C111220   4.550   1.026   9.829 -0.2738 -0.5460 -0.9407
  756MPD2    C211221   4.457   1.103   9.753 -0.2946  0.0856  0.1222
  756MPD2    C311222   4.424   1.071   9.620 -0.2731 -0.0043  0.1077
  756MPD2    C411223   4.481   0.958   9.560  0.4001  0.1130 -0.2145
  756MPD2    C511224   4.572   0.880   9.633  0.5853 -0.6691  0.4613
  756MPD2     H11225   4.419   1.197   9.791  0.1815 -0.1966  1.2983
  756MPD2    H111226   4.443   0.917   9.467 -0.9730 -2.3286  1.4223
  756MPD2    H211227   4.679   0.847   9.808  1.3500 -0.7102 -2.9643
  756MPD2    H311228   4.611   0.786   9.597  1.1212 -0.0180 -0.6488
  756MPD2     N11229   4.337   1.155   9.553 -0.0254  0.1360  0.2352
  756MPD2    H511230   4.295   1.232   9.603  0.5563 -0.1124  1.0983
  756MPD2    N111231   4.575   1.059   9.965  0.0092  0.1987 -0.1557
  756MPD2    H711232   4.520   1.134  10.004 -0.7772 -1.0708  1.1930
  757MPD2     C11233   3.619   1.607   9.796  0.1648  0.4619  0.3871
  757MPD2    C111234   3.669   1.483   9.821  0.5767  0.1602 -0.1468
  757MPD2    C211235   3.789   1.447   9.765 -0.0812  0.2089 -0.3875
  757MPD2    C311236   3.849   1.532   9.677  1.0759  0.0778  0.2432
  757MPD2    C411237   3.813   1.669   9.673 -0.3618  0.5427  0.4950
  757MPD2    C511238   3.696   1.701   9.735  0.1137 -0.0885 -0.2116
  757MPD2     H11239   3.823   1.344   9.770 -0.2427  0.1253 -0.9841
  757MPD2    H111240   3.871   1.744   9.620 -1.7713  0.5059 -1.0922
  757MPD2    H211241   3.525   1.633   9.844 -0.6588 -1.2053 -0.3517
  757MPD2    H311242   3.657   1.802   9.736  0.8244  0.1818  0.4968
  757MPD2     N11243   3.962   1.479   9.599  0.2334  0.3021 -0.7028
  757MPD2    H511244   3.983   1.380   9.602 -0.9860  0.0217 -1.4566
  757MPD2    N111245   3.586   1.393   9.895  0.4538 -0.1387 -0.1383
  757MPD2    H711246   3.492   1.416   9.925  0.9117 -1.5498  2.3276
  758MPD2     C11247   0.258   0.281  15.981  0.0388  0.3275  0.0858
  758MPD2    C111248   0.324   0.183  16.052 -0.1719  0.4264 -0.6056
  758MPD2    C211249   0.323   0.183  16.192  0.3185  0.8857 -0.3246
  758MPD2    C311250   0.245   0.278  16.261 -0.2860  0.4203 -0.3209
  758MPD2    C411251   0.182   0.376  16.185  0.6171  0.1030  0.6325
  758MPD2    C511252   0.183   0.370  16.049 -0.4502 -0.2252 -0.2263
  758MPD2     H11253   0.377   0.111  16.254 -0.7443 -0.2477 -0.7141
  758MPD2    H111254   0.116   0.447  16.235 -0.5053 -1.7374  1.7566
  758MPD2    H211255   0.242   0.273  15.874 -1.0900 -0.8313  0.3264
  758MPD2    H311256   0.139   0.452  15.993 -0.6763  1.0711  1.8343
  758MPD2     N11257   0.215   0.284  16.397 -0.3454  0.3878  0.4610
  758MPD2    H511258   0.145   0.354  16.421 -1.2165  0.1878 -1.5335
  758MPD2    N111259   0.385   0.077  15.978 -0.0537  0.0486 -0.7173
  758MPD2    H711260   0.360   0.075  15.879 -3.4482 -2.4422  0.2050
  759MPD2     C11261   2.913   3.725  10.771  0.1804  0.5162  1.1572
  759MPD2    C111262   2.803   3.646  10.749 -0.1418 -0.8998  0.2058
  759MPD2    C211263   2.755   3.640  10.621 -0.2387 -0.2099 -0.2231
  759MPD2    C311264   2.810   3.698  10.514 -0.3228 -0.5025  0.4200
  759MPD2    C411265   2.920   3.788  10.538  0.7904  0.0812 -0.2916
  759MPD2    C511266   2.961   3.797  10.671  0.2991 -0.4242  0.0037
  759MPD2     H11267   2.662   3.590  10.599  0.6479 -2.0128  0.1493
  759MPD2    H111268   2.972   3.841  10.460 -0.9705  1.3493 -0.6101
  759MPD2    H211269   2.968   3.727  10.865  0.4147  1.8462  0.9955
  759MPD2    H311270   3.043   3.863  10.698 -0.1459  0.7461 -1.4540
  759MPD2     N11271   2.751   3.687  10.389 -0.1651  0.3273 -0.4001
  759MPD2    H511272   2.666   3.632  10.388 -0.0174  0.1054 -0.6663
  759MPD2    N111273   2.734   3.568  10.847 -0.1681 -0.6843  0.4158
  759MPD2    H711274   2.676   3.494  10.809 -0.4199 -0.5988  0.6293
  760MPD2     C11275   3.410   0.860  12.311  0.6148 -0.5523  0.6872
  760MPD2    C111276   3.486   0.938  12.231 -0.0313 -0.8146 -0.6767
  760MPD2    C211277   3.564   0.876  12.136  0.3074  0.2467  0.3020
  760MPD2    C311278   3.553   0.751  12.097  0.1900 -0.2600  1.2905
  760MPD2    C411279   3.480   0.668  12.175 -0.2220 -0.6339 -0.0341
  760MPD2    C511280   3.400   0.728  12.279  0.3895 -0.2667  0.0317
  760MPD2     H11281   3.614   0.947  12.071 -0.0385  1.0003  0.8607
  760MPD2    H111282   3.478   0.562  12.155 -0.4763 -0.7247  0.4818
  760MPD2    H211283   3.351   0.892  12.397  1.2825  0.4540  0.7624
  760MPD2    H311284   3.334   0.669  12.341  0.4056 -0.9295 -0.5810
  760MPD2     N11285   3.621   0.695  11.987 -0.0741  0.3085  0.0685
  760MPD2    H511286   3.601   0.599  11.961 -1.8065  1.7943 -4.0497
  760MPD2    N111287   3.495   1.082  12.245  0.2523 -0.4414  0.4626
  760MPD2    H711288   3.539   1.132  12.169 -1.4855  0.3113 -0.0382
  761MPD2     C11289   3.966   4.636  11.548 -0.7873 -0.4123  0.3792
  761MPD2    C111290   4.053   4.550  11.492 -0.2363 -1.3999  0.3166
  761MPD2    C211291   4.187   4.586  11.484 -0.0829 -0.2239  0.5089
  761MPD2    C311292   4.238   4.703  11.536  0.4978 -0.0634 -0.3790
  761MPD2    C411293   4.148   0.044  11.610  0.4209  0.2493 -0.0759
  761MPD2    C511294   4.013   0.000  11.626 -0.4326  0.2083 -0.2623
  761MPD2     H11295   4.241   4.523  11.414  0.5649  0.2809  0.5552
  761MPD2    H111296   4.180   0.136  11.656 -1.2359 -1.1186  3.8106
  761MPD2    H211297   3.860   4.619  11.567 -0.3257 -3.6391  0.1112
  761MPD2    H311298   3.943   0.066  11.676  2.1318  2.8429 -0.1199
  761MPD2     N11299   4.374   4.726  11.528  0.6564  0.0454  0.6297
  761MPD2    H511300   4.397   0.087  11.551 -1.0715  0.0136  2.5240
  761MPD2    N111301   3.989   4.442  11.422  0.1284  0.1048 -0.5285
  761MPD2    H711302   3.888   4.442  11.409  0.0241  1.7419  0.2720
  762MPD2     C11303   0.081   4.062  11.574 -0.4818 -0.0075  0.1656
  762MPD2    C111304   4.720   4.078  11.471  0.4811 -0.1845 -0.1935
  762MPD2    C211305   0.035   4.096  11.343  0.2382 -0.1232  0.0398
  762MPD2    C311306   0.167   4.079  11.315  0.2485 -0.5835 -0.6657
  762MPD2    C411307   0.257   4.056  11.416 -0.3837  0.0149 -0.3380
  762MPD2    C511308   0.213   4.035  11.543  0.2803  0.7432 -0.6355
  762MPD2     H11309   4.707   4.121  11.259  0.5244  2.4268  0.5955
  762MPD2    H111310   0.358   4.033  11.387  0.6301  2.5039  1.2280
  762MPD2    H211311   0.057   4.055  11.680  1.0494  1.5166  0.6193
  762MPD2    H311312   0.287   4.025  11.621 -0.0666  4.8640  0.2026
  762MPD2     N11313   0.204   4.066  11.179  0.5465 -0.0086  0.3159
  762MPD2    H511314   0.135   4.101  11.113 -2.5772  0.1702  3.6318
  762MPD2    N111315   4.584   4.084  11.502 -0.7518 -0.7429 -0.7559
  762MPD2    H711316   4.564   4.075  11.601  2.3391 -1.4551 -0.1880
  763MPD2     C11317   2.535   4.447  15.939 -0.3330 -0.4442  0.6578
  763MPD2    C111318   2.395   4.479  15.949 -0.5064 -0.5427 -0.6010
  763MPD2    C211319   2.357   4.572  16.043  0.8445  0.3542  0.5813
  763MPD2    C311320   2.457   4.631  16.124 -0.1357  0.1034  0.3848
  763MPD2    C411321   2.588   4.590  16.115  0.0514  0.3825 -0.2296
  763MPD2    C511322   2.630   4.499  16.022  0.4143 -0.3069  0.3743
  763MPD2     H11323   2.254   4.606  16.049  0.7945 -0.0081  1.8120
  763MPD2    H111324   2.669   4.645  16.161 -0.4892  0.1815  0.9439
  763MPD2    H211325   2.575   4.391  15.856  2.1481 -0.5356  1.9182
  763MPD2    H311326   2.736   4.490  16.000  0.4745 -0.1447  0.5991
  763MPD2     N11327   2.428   4.723  16.229  0.4345  0.0479  0.0261
  763MPD2    H511328   2.506   0.019  16.286 -0.0583 -0.3548  0.9249
  763MPD2    N111329   2.301   4.416  15.863 -0.4911 -0.4806  0.3787
  763MPD2    H711330   2.206   4.452  15.857 -0.9598 -1.5629  1.3780
  764MPD2     C11331   4.414   1.736   0.375  0.0672 -0.7787 -0.7708
  764MPD2    C111332   4.402   1.636   0.279  0.3979  0.2872 -0.5134
  764MPD2    C211333   4.416   1.502   0.314 -0.3198  0.3589  0.2915
  764MPD2    C311334   4.453   1.467   0.446  0.4763  0.7681 -0.2630
  764MPD2    C411335   4.479   1.568   0.529  0.1067  0.3395  0.4147
  764MPD2    C511336   4.466   1.701   0.491  0.0928 -0.2420 -0.3749
  764MPD2     H11337   4.396   1.433   0.233  0.6579  0.1642  0.2205
  764MPD2    H111338   4.530   1.555   0.624  0.7457 -1.4802 -0.1759
  764MPD2    H211339   4.388   1.840   0.361  1.8257 -0.3673 -0.9326
  764MPD2    H311340   4.503   1.784   0.550  2.6576 -1.7581  0.1784
  764MPD2     N11341   4.442   1.331   0.491 -0.2380 -0.2939 -0.0111
  764MPD2    H511342   4.418   1.259   0.423  0.8983  2.5904 -3.4880
  764MPD2    N111343   4.358   1.664   0.145  0.7011 -0.2534 -0.9178
  764MPD2    H711344   4.369   1.592   0.074 -0.7843 -0.8376 -0.5727
  765MPD2     C11345   0.045   4.364  15.122 -0.0743 -0.2098  0.3242
  765MPD2    C111346   0.090   4.411  15.244 -0.1157  0.0871 -0.1672
  765MPD2    C211347   0.207   4.370  15.291  0.0103  0.3898  0.2232
  765MPD2    C311348   0.280   4.275  15.228  0.4027  0.5917 -0.1361
  765MPD2    C411349   0.236   4.227  15.108  0.9278 -0.6916  0.0653
  765MPD2    C511350   0.126   4.280  15.051 -0.5009  0.7344 -0.2289
  765MPD2     H11351   0.244   4.415  15.383  0.7456  0.2425 -0.0049
  765MPD2    H111352   0.295   4.167  15.040  0.9199 -2.3702  1.5451
  765MPD2    H211353   4.690   4.398  15.074  0.5400 -0.0633 -0.7285
  765MPD2    H311354   0.090   4.248  14.954 -0.9934  2.4406 -0.6027
  765MPD2     N11355   0.403   4.244  15.286  0.3206  0.1259 -0.3206
  765MPD2    H511356   0.421   4.294  15.373 -0.3438 -0.2832  0.0524
  765MPD2    N111357   0.011   4.505  15.319 -0.0359  0.2098 -0.3452
  765MPD2    H711358   4.659   4.531  15.274 -0.1752 -0.3413 -0.3934
  766MPD2     C11359   4.080   0.129  15.112 -0.5080 -0.2074  0.3642
  766MPD2    C111360   4.198   0.060  15.104 -0.2012 -0.4888  1.1603
  766MPD2    C211361   4.243   0.021  14.977 -0.5825 -0.1604 -0.1087
  766MPD2    C311362   4.167   0.041  14.864 -0.8004  0.3708  0.4680
  766MPD2    C411363   4.044   0.109  14.871  0.1910 -0.9623  0.2010
  766MPD2    C511364   4.009   0.155  14.998  0.6960 -0.3289 -0.2033
  766MPD2     H11365   4.339   4.707  14.961 -1.6031 -2.2211  0.1478
  766MPD2    H111366   3.984   0.108  14.780  0.0573  2.8724  0.2628
  766MPD2    H211367   4.038   0.167  15.204 -0.5550 -2.4656  1.2693
  766MPD2    H311368   3.917   0.211  15.008 -0.1256 -2.1271  2.2882
  766MPD2     N11369   4.209   4.734  14.734 -0.1738  0.4527  0.1249
  766MPD2    H511370   4.162   0.028  14.649 -0.9934  2.9369  1.4196
  766MPD2    N111371   4.280   0.052  15.220  0.0832 -0.0225  0.0752
  766MPD2    H711372   4.250   0.109  15.298  0.9400 -1.1392  1.2127
  767MPD2     C11373   3.802   0.410  14.613 -0.4933  0.0066 -0.0943
  767MPD2    C111374   3.928   0.354  14.597  0.2888 -0.3930 -0.4526
  767MPD2    C211375   3.938   0.239  14.518  0.4677  0.1122 -0.1748
  767MPD2    C311376   3.829   0.187  14.449 -0.1108  0.4210 -0.6515
  767MPD2    C411377   3.712   0.250  14.461  0.1905 -0.4837 -0.7705
  767MPD2    C511378   3.698   0.354  14.548 -0.0946  0.5259 -1.1897
  767MPD2     H11379   4.035   0.196  14.493 -0.2921 -1.5181 -0.3640
  767MPD2    H111380   3.623   0.215  14.410 -0.2200 -0.2184 -0.2221
  767MPD2    H211381   3.792   0.499  14.673  2.1690  0.6067 -0.5218
  767MPD2    H311382   3.603   0.405  14.547 -0.2424  0.2578 -0.6611
  767MPD2     N11383   3.834   0.069  14.367  0.2502  0.1631  0.5254
  767MPD2    H511384   3.760   0.055  14.299  0.8131 -1.4358  0.2429
  767MPD2    N111385   4.035   0.398  14.667 -0.3377 -0.4726 -0.5552
  767MPD2    H711386   4.006   0.465  14.737  1.0121  0.6252 -1.0356
  768MPD2     C11387   0.345   3.798  10.647 -0.1813 -0.1332  0.2775
  768MPD2    C111388   0.232   3.732  10.694  0.1312 -0.4797  0.9246
  768MPD2    C211389   0.234   3.646  10.804  0.9992 -0.0358 -0.3350
  768MPD2    C311390   0.354   3.620  10.871  0.4450 -0.1267 -0.2914
  768MPD2    C411391   0.469   3.680  10.817  0.1862 -0.1646 -0.0038
  768MPD2    C511392   0.468   3.762  10.709  0.5037  0.1901 -0.0209
  768MPD2     H11393   0.142   3.599  10.838  2.0336  0.5317  3.2574
  768MPD2    H111394   0.565   3.668  10.867  0.0768  0.5089  0.3659
  768MPD2    H211395   0.342   3.872  10.567 -0.4179 -0.7018 -0.2428
  768MPD2    H311396   0.559   3.803  10.667  1.6861 -1.4570  0.9196
  768MPD2     N11397   0.363   3.548  10.991 -0.1769  0.0080 -0.0082
  768MPD2    H511398   0.439   3.578  11.052  1.0153 -2.0438 -0.4686
  768MPD2    N111399   0.108   3.749  10.629  0.4090 -0.7162  0.3707
  768MPD2    H711400   0.025   3.701  10.662  0.5956 -0.1836  1.6199
  769MPD2     C11401   0.995   0.557  14.832 -0.9957  0.0933 -0.0106
  769MPD2    C111402   0.908   0.665  14.821  0.0798 -0.2113 -0.3630
  769MPD2    C211403   0.929   0.778  14.902  0.0368  0.3110  0.0105
  769MPD2    C311404   1.045   0.791  14.975 -1.1499 -0.1322  0.2198
  769MPD2    C411405   1.141   0.698  14.957 -0.2513  0.0641 -0.9108
  769MPD2    C511406   1.111   0.583  14.891  0.1308 -0.8827 -0.7492
  769MPD2     H11407   0.862   0.863  14.907 -2.7302 -1.7899 -1.2102
  769MPD2    H111408   1.237   0.701  15.006 -1.0342 -0.0207  0.6417
  769MPD2    H211409   0.977   0.477  14.761  0.6464  0.5128 -0.9012
  769MPD2    H311410   1.182   0.501  14.889  1.6917  0.4830 -0.9419
  769MPD2     N11411   1.052   0.891  15.068  0.4576  0.3132  0.3387
  769MPD2    H511412   0.970   0.950  15.082  0.5920  0.3726  0.8630
  769MPD2    N111413   0.784   0.638  14.756 -0.1725  0.3686 -0.3301
  769MPD2    H711414   0.758   0.544  14.729  0.2055 -0.2497  1.4375
  770MPD2     C11415   0.741   0.073  14.386  0.3007 -0.2231 -0.0382
  770MPD2    C111416   0.618   0.078  14.449 -0.3848 -0.0919  0.8003
  770MPD2    C211417   0.552   0.195  14.441  0.0065 -0.1944 -0.4526
  770MPD2    C311418   0.607   0.303  14.367 -0.3167  0.3141  0.2618
  770MPD2    C411419   0.731   0.290  14.307 -0.1987 -0.6848 -0.0781
  770MPD2    C511420   0.797   0.174  14.314  0.7400  0.3719 -0.0424
  770MPD2     H11421   0.458   0.207  14.495 -0.0671  0.0533 -0.6365
  770MPD2    H111422   0.778   0.374  14.257  0.3971  0.0080  1.6610
  770MPD2    H211423   0.797   4.718  14.407  1.5660  0.5939  0.1385
  770MPD2    H311424   0.894   0.165  14.266  1.4193  0.7422  1.2626
  770MPD2     N11425   0.548   0.428  14.368  0.0339  0.0361  0.4830
  770MPD2    H511426   0.616   0.502  14.349  1.0380 -1.4425 -1.6746
  770MPD2    N111427   0.576   4.704  14.531  0.2328  0.7268 -0.3478
  770MPD2    H711428   0.634   4.624  14.551 -0.2881  0.4002 -0.1290
  771MPD2     C11429   2.122   3.643  13.711 -0.0555  0.4866 -0.2744
  771MPD2    C111430   2.076   3.769  13.731  0.5872  0.2280  0.8484
  771MPD2    C211431   1.947   3.787  13.713 -0.8452 -0.0702 -0.8458
  771MPD2    C311432   1.855   3.687  13.678  0.6051 -0.6149 -0.0563
  771MPD2    C411433   1.911   3.564  13.675  0.3899 -0.5022 -0.1591
  771MPD2    C511434   2.042   3.538  13.688  0.7101  0.2175  0.2284
  771MPD2     H11435   1.904   3.884  13.734 -0.6628 -0.1655 -0.0374
  771MPD2    H111436   1.848   3.479  13.650 -1.4085  0.9498 -0.5223
  771MPD2    H211437   2.226   3.620  13.726 -0.4045 -1.2208 -0.4798
  771MPD2    H311438   2.088   3.442  13.670  0.2724  0.1651 -0.6340
  771MPD2     N11439   1.724   3.725  13.654 -0.3363 -1.3403 -0.5378
  771MPD2    H511440   1.708   3.825  13.647  0.7050 -1.2055 -0.8852
  771MPD2    N111441   2.163   3.873  13.751  0.3542  0.3738 -0.2006
  771MPD2    H711442   2.120   3.965  13.749 -0.5052 -0.0641 -2.3111
  772MPD2     C11443   2.073   4.473  14.118  0.2259  0.1636 -0.9541
  772MPD2    C111444   2.041   4.390  14.011  0.3122  0.2037  0.4697
  772MPD2    C211445   1.905   4.380  13.971  0.5731 -0.3827  0.5948
  772MPD2    C311446   1.814   4.455  14.044  0.7263  0.1069 -0.7984
  772MPD2    C411447   1.848   4.534  14.153 -0.4314 -0.5879  1.3828
  772MPD2    C511448   1.976   4.534  14.189  0.0744  0.0770  0.3512
  772MPD2     H11449   1.890   4.336  13.874  0.9923  0.9138 -0.0579
  772MPD2    H111450   1.776   4.577  14.222 -0.5245  2.0624 -0.3687
  772MPD2    H211451   2.170   4.491  14.164 -0.7421  0.1010  1.1327
  772MPD2    H311452   2.003   4.590  14.277  0.2348 -1.3472  1.2122
  772MPD2     N11453   1.675   4.446  14.025 -0.7091 -0.4423 -0.1433
  772MPD2    H511454   1.617   4.488  14.097 -1.0233 -1.6250  0.2820
  772MPD2    N111455   2.131   4.311  13.934  0.3687 -0.1939 -0.0372
  772MPD2    H711456   2.093   4.244  13.868  0.5857  0.0491 -0.4047
  773MPD2     C11457   0.615   0.098   0.069 -0.0192 -0.7561  0.4887
  773MPD2    C111458   0.572   4.720  17.740  0.4004  0.6458 -1.1710
  773MPD2    C211459   0.655   4.605  17.739 -0.3110 -0.0096 -0.4968
  773MPD2    C311460   0.767   4.597   0.071 -0.1706 -0.1048  0.2352
  773MPD2    C411461   0.805   4.712   0.139  0.5495  0.3778 -0.8489
  773MPD2    C511462   0.737   0.096   0.129  0.3088 -0.8821 -0.5161
  773MPD2     H11463   0.625   4.517  17.684 -0.3055 -0.3689  0.0767
  773MPD2    H111464   0.906   4.716   0.179  0.0606  1.8551  0.2167
  773MPD2    H211465   0.559   0.189   0.083 -1.6397 -1.2985 -2.5888
  773MPD2    H311466   0.771   0.180   0.188 -0.2340 -1.3230  0.4155
  773MPD2     N11467   0.836   4.476   0.073 -0.5741 -0.2973  0.9201
  773MPD2    H511468   0.807   4.399   0.015  1.9651 -0.5704  0.0249
  773MPD2    N111469   0.447   4.723  17.669 -0.5892  0.1458  0.5585
  773MPD2    H711470   0.434   4.642  17.608 -2.2720  0.6879  0.2007
  774MPD2     C11471   0.014   4.040  13.229  1.1354 -0.7302  0.4384
  774MPD2    C111472   0.122   4.081  13.305  0.2275  0.3339  0.3635
  774MPD2    C211473   0.133   4.217  13.318 -0.3735  0.1355  0.4010
  774MPD2    C311474   0.044   4.312  13.269  0.1941 -0.1093 -0.8104
  774MPD2    C411475   4.683   4.260  13.185  1.0449 -0.7332 -0.2021
  774MPD2    C511476   4.666   4.123  13.168 -0.4472  1.8254  0.7431
  774MPD2     H11477   0.213   4.257  13.379 -0.1135 -0.5014  0.4789
  774MPD2    H111478   4.616   4.324  13.128  0.6785 -2.4190 -1.6609
  774MPD2    H211479   4.731   3.935  13.209 -0.4662 -0.3431 -0.1452
  774MPD2    H311480   4.589   4.089  13.100 -1.1097  0.9591  1.9149
  774MPD2     N11481   0.073   4.447  13.293 -0.1192 -0.4314 -0.3211
  774MPD2    H511482   0.162   4.469  13.338 -0.1499  0.7175 -0.8196
  774MPD2    N111483   0.219   3.983  13.341 -0.3213 -0.0011 -0.0946
  774MPD2    H711484   0.202   3.888  13.310 -0.9861  0.5728 -1.5028
  775MPD2     C11485   1.419   0.609  15.832  0.2364  0.3678  0.0433
  775MPD2    C111486   1.415   0.740  15.888  0.1964  0.2884  0.8845
  775MPD2    C211487   1.432   0.849  15.808 -0.1528  0.1879 -0.1604
  775MPD2    C311488   1.452   0.831  15.670  0.7584  0.4019 -0.0494
  775MPD2    C411489   1.442   0.704  15.615 -1.3108  0.3307  0.0198
  775MPD2    C511490   1.424   0.597  15.700 -0.5687  0.3775 -0.6232
  775MPD2     H11491   1.423   0.946  15.857 -2.1859 -2.4965  4.7322
  775MPD2    H111492   1.442   0.693  15.507  0.6556 -0.8935  0.1554
  775MPD2    H211493   1.404   0.530  15.903 -0.8926  1.5496  1.1173
  775MPD2    H311494   1.413   0.495  15.665  2.8433 -0.4053  0.5379
  775MPD2     N11495   1.464   0.940  15.583 -0.3440  0.0940  0.3485
  775MPD2    H511496   1.467   0.921  15.483  1.4744 -0.4449  0.5079
  775MPD2    N111497   1.387   0.755  16.028 -0.8365 -0.0427 -0.1605
  775MPD2    H711498   1.366   0.668  16.076  0.1685 -1.1166 -1.6391
  776MPD2     C11499   4.120   1.303  11.619  0.1153  0.2271  0.7832
  776MPD2    C111500   4.248   1.321  11.671  0.7847  0.4113  0.5028
  776MPD2    C211501   4.320   1.434  11.628 -0.4929 -0.3820  0.4300
  776MPD2    C311502   4.262   1.530  11.546  0.3243 -0.7054 -0.3974
  776MPD2    C411503   4.131   1.512  11.505 -0.0489  0.2326  0.0645
  776MPD2    C511504   4.062   1.399  11.540 -0.6555 -0.2479  0.6726
  776MPD2     H11505   4.424   1.448  11.656 -0.9925  3.0937  0.6171
  776MPD2    H111506   4.082   1.583  11.438 -2.4357 -0.2216  1.3165
  776MPD2    H211507   4.058   1.220  11.652 -0.9325  0.0452 -1.6587
  776MPD2    H311508   3.957   1.386  11.516 -0.0265 -2.1088 -1.0756
  776MPD2     N11509   4.321   1.644  11.486 -0.5333  0.5645  0.0776
  776MPD2    H511510   4.254   1.709  11.447  0.1277  1.4866  0.4633
  776MPD2    N111511   4.302   1.223  11.759 -0.0948 -0.1280 -0.0241
  776MPD2    H711512   4.234   1.157  11.796 -1.1072  0.6846 -0.4484
  777MPD2     C11513   0.546   2.887   0.528 -0.2578 -0.7182  0.3086
  777MPD2    C111514   0.446   2.820   0.598  0.7424 -1.0134 -0.5838
  777MPD2    C211515   0.347   2.761   0.521 -0.3376 -0.2116 -0.2635
  777MPD2    C311516   0.367   2.751   0.380  0.1113  0.6021  0.9467
  777MPD2    C411517   0.468   2.820   0.315 -0.2308  0.6815 -0.3686
  777MPD2    C511518   0.552   2.901   0.391  0.5988 -0.1122 -0.1493
  777MPD2     H11519   0.262   2.707   0.560 -1.3488  1.9383  0.5398
  777MPD2    H111520   0.488   2.822   0.209  2.4637  0.1306  0.1228
  777MPD2    H211521   0.619   2.938   0.589 -1.5042  0.7089  0.6198
  777MPD2    H311522   0.620   2.969   0.341 -1.0371  1.6898  0.0916
  777MPD2     N11523   0.267   2.682   0.306  0.5048  0.1345  0.2849
  777MPD2    H511524   0.209   2.622   0.364  1.1269  0.8590  1.6393
  777MPD2    N111525   0.454   2.821   0.736 -0.0813  0.7151  0.2315
  777MPD2    H711526   0.539   2.864   0.770  0.2634  0.6747 -0.6004
  778MPD2     C11527   2.142   3.325  14.841 -0.2233  0.1481 -0.3272
  778MPD2    C111528   2.057   3.308  14.735  0.2132  0.2325  0.4670
  778MPD2    C211529   2.104   3.327  14.609  0.5685 -0.5570 -0.4539
  778MPD2    C311530   2.233   3.374  14.583 -0.0785  0.1110  0.3826
  778MPD2    C411531   2.321   3.385  14.689  0.1635 -0.4373 -0.4768
  778MPD2    C511532   2.278   3.359  14.819  0.2319  0.0314  0.4594
  778MPD2     H11533   2.041   3.305  14.524 -0.4505 -0.1273  0.1924
  778MPD2    H111534   2.424   3.416  14.682  0.1395 -0.2226  0.0824
  778MPD2    H211535   2.119   3.317  14.946  1.7758 -0.2649  0.0824
  778MPD2    H311536   2.339   3.378  14.907  1.2857  0.3742 -0.3517
  778MPD2     N11537   2.254   3.415  14.453  0.0253  0.0481 -0.1783
  778MPD2    H511538   2.174   3.420  14.391 -1.7388  0.1417  2.0728
  778MPD2    N111539   1.916   3.279  14.752  1.2719  0.1991  0.0375
  778MPD2    H711540   1.862   3.257  14.669 -1.1794 -0.6858  1.8825
  779MPD2     C11541   1.073   2.683  13.937  0.5627 -0.8514 -0.1303
  779MPD2    C111542   1.196   2.644  13.988  0.7986 -0.1254 -0.1091
  779MPD2    C211543   1.305   2.729  13.981  0.4701 -0.0892 -0.6199
  779MPD2    C311544   1.284   2.863  13.937 -0.3179 -1.2337  0.3421
  779MPD2    C411545   1.163   2.903  13.899  0.4990  0.1701  0.1594
  779MPD2    C511546   1.065   2.817  13.890  0.2064  0.2735 -0.5315
  779MPD2     H11547   1.404   2.697  14.011  0.0569 -0.9516 -0.1720
  779MPD2    H111548   1.147   3.007  13.876 -0.7840 -0.6807 -2.8293
  779MPD2    H211549   0.977   2.634  13.943  0.6415 -1.0063 -0.1371
  779MPD2    H311550   0.968   2.855  13.861  1.3631  3.3235 -0.4121
  779MPD2     N11551   1.384   2.958  13.919  0.0068 -0.3715  0.6998
  779MPD2    H511552   1.369   3.043  13.866  0.0009 -0.1982  0.9793
  779MPD2    N111553   1.212   2.507  14.031 -0.0038 -0.5252 -0.4440
  779MPD2    H711554   1.299   2.499  14.084 -0.4757  1.5302  0.6207
  780MPD2     C11555   0.546   2.052   0.487 -0.0383 -0.1008 -0.2785
  780MPD2    C111556   0.503   2.003   0.368  0.1284 -0.6386  0.2456
  780MPD2    C211557   0.569   2.040   0.255  0.0499 -0.0949 -0.3086
  780MPD2    C311558   0.676   2.126   0.266 -0.5975 -0.0823  0.1086
  780MPD2    C411559   0.723   2.174   0.386  0.0123 -0.3663 -0.0912
  780MPD2    C511560   0.652   2.137   0.497 -0.3316 -0.5618  0.4351
  780MPD2     H11561   0.540   1.995   0.160  2.7067  2.1421 -2.1926
  780MPD2    H111562   0.800   2.248   0.401  0.3422 -0.1900 -2.7168
  780MPD2    H211563   0.493   2.033   0.580  0.4097  0.0115 -0.0054
  780MPD2    H311564   0.688   2.179   0.590 -0.7581  0.3141  0.2085
  780MPD2     N11565   0.747   2.150   0.151 -0.3459 -0.3755  0.0636
  780MPD2    H511566   0.700   2.120   0.066  0.2551 -1.7710  0.2288
  780MPD2    N111567   0.383   1.922   0.367  0.3625  0.0825  0.1954
  780MPD2    H711568   0.338   1.904   0.457  1.7015  0.0151  0.8484
  781MPD2     C11569   3.033   0.536  11.816 -0.1702 -0.3090  0.7256
  781MPD2    C111570   2.993   0.403  11.831  0.6344 -0.1091  0.1978
  781MPD2    C211571   3.004   0.327  11.721 -0.0329 -0.3413 -0.5747
  781MPD2    C311572   3.062   0.365  11.604 -0.1280  0.6627  0.3942
  781MPD2    C411573   3.109   0.499  11.591  0.4914  0.6388  0.4958
  781MPD2    C511574   3.081   0.581  11.694 -0.1326 -0.1609  0.5906
  781MPD2     H11575   2.967   0.227  11.738  0.7740 -0.7960 -1.5273
  781MPD2    H111576   3.135   0.535  11.492  1.6449 -2.2680 -0.2440
  781MPD2    H211577   3.019   0.614  11.891  0.9844  2.1063 -1.5811
  781MPD2    H311578   3.105   0.686  11.680  0.4529 -0.4752 -0.7259
  781MPD2     N11579   3.085   0.276  11.492 -0.3047 -0.7574  0.7332
  781MPD2    H511580   3.102   0.318  11.401 -2.8355 -0.0845  0.5750
  781MPD2    N111581   2.920   0.347  11.940  0.2932  0.3323 -0.7185
  781MPD2    H711582   2.879   0.255  11.925  2.6936 -1.1741  1.8866
  782MPD2     C11583   0.450   0.174  10.102  0.5165  0.6688 -0.5949
  782MPD2    C111584   0.431   0.179  10.239 -0.0609 -0.5918 -0.5996
  782MPD2    C211585   0.345   0.279  10.292  0.0683  0.0685 -0.2563
  782MPD2    C311586   0.272   0.363  10.206  0.2599 -0.6400  0.1878
  782MPD2    C411587   0.296   0.360  10.068 -0.1516 -0.3115  0.2000
  782MPD2    C511588   0.387   0.269  10.018  0.1002 -0.8200  0.4505
  782MPD2     H11589   0.344   0.293  10.400 -1.1788 -1.4634 -0.0634
  782MPD2    H111590   0.259   0.439  10.003  2.5112 -0.5274 -1.5683
  782MPD2    H211591   0.520   0.108  10.052 -1.1701 -0.4829 -1.4401
  782MPD2    H311592   0.421   0.274   9.915  0.4229  2.9208  0.7396
  782MPD2     N11593   0.186   0.460  10.266 -0.3386 -0.3315  0.3200
  782MPD2    H511594   0.190   0.555  10.229  2.3557 -0.4514  0.3618
  782MPD2    N111595   0.504   0.081  10.314 -0.0112  0.2009  0.6624
  782MPD2    H711596   0.574   0.019  10.276  1.3612  2.1395  0.0113
  783MPD2     C11597   0.331   4.393  11.216 -0.2614 -0.1605 -0.0209
  783MPD2    C111598   0.279   4.508  11.164 -0.5001  0.1415 -0.1815
  783MPD2    C211599   0.343   4.562  11.054 -0.1614 -0.4777  0.5516
  783MPD2    C311600   0.445   4.495  10.992  0.3861 -0.5127 -0.8300
  783MPD2    C411601   0.496   4.375  11.040  0.5648  0.2762  0.4989
  783MPD2    C511602   0.436   4.325  11.154 -0.6916  0.5756  0.2766
  783MPD2     H11603   0.304   4.654  11.011 -1.4574 -0.6222  1.4226
  783MPD2    H111604   0.582   4.324  10.999 -0.7254 -2.0530  0.6741
  783MPD2    H211605   0.295   4.361  11.313 -1.6786 -2.4930 -1.3149
  783MPD2    H311606   0.478   4.249  11.219 -0.2683 -0.0507 -0.7308
  783MPD2     N11607   0.500   4.561  10.877  0.1569  0.3034 -0.2458
  783MPD2    H511608   0.456   4.649  10.852 -2.2898 -0.2028  2.2745
  783MPD2    N111609   0.171   4.574  11.234 -0.0109 -0.1802  0.2869
  783MPD2    H711610   0.129   4.532  11.316  1.1761 -0.5890  0.6906
  784MPD2     C11611   3.055   0.275   0.385 -0.4092  0.2797 -0.6269
  784MPD2    C111612   3.051   0.410   0.418  0.5502 -0.4286  0.6351
  784MPD2    C211613   2.954   0.489   0.360  0.2514  0.8350 -0.4021
  784MPD2    C311614   2.850   0.431   0.284 -0.0718  0.4506 -0.1539
  784MPD2    C411615   2.859   0.296   0.250 -0.0060 -0.2016 -0.2722
  784MPD2    C511616   2.964   0.221   0.301  0.3917  0.2696 -0.5888
  784MPD2     H11617   2.945   0.594   0.387  0.2209  0.9386 -0.8208
  784MPD2    H111618   2.789   0.247   0.183  0.6587 -2.0045  0.3535
  784MPD2    H211619   3.129   0.211   0.432 -2.3784 -2.2857 -1.0349
  784MPD2    H311620   2.972   0.118   0.268 -0.7501  0.0211 -0.0826
  784MPD2     N11621   2.749   0.521   0.227  0.9334  0.1654  0.5955
  784MPD2    H511622   2.765   0.621   0.235  2.8865 -0.1144  0.1812
  784MPD2    N111623   3.128   0.470   0.513  0.0359 -0.2582 -0.0686
  784MPD2    H711624   3.124   0.571   0.522 -0.7123 -0.0972 -2.2080
  785MPD2     C11625   2.587   4.670   8.826 -0.2867 -0.7511 -1.0933
  785MPD2    C111626   2.602   4.593   8.945  0.3520  0.6499  0.0662
  785MPD2    C211627   2.492   4.557   9.021  0.0772 -0.2318  0.0727
  785MPD2    C311628   2.365   4.595   8.975  0.5017  0.1861  0.0153
  785MPD2    C411629   2.356   4.680   8.869 -0.4217  0.4756  0.7899
  785MPD2    C511630   2.465   4.711   8.790  0.1569 -0.3576 -0.3595
  785MPD2     H11631   2.498   4.496   9.111 -2.3580  0.8246  0.9564
  785MPD2    H111632   2.258   4.707   8.832 -0.4709 -1.0566 -0.2378
  785MPD2    H211633   2.670   4.697   8.761  1.5310 -1.4003  0.9352
  785MPD2    H311634   2.467   0.030   8.696  1.4151  1.0681  0.4758
  785MPD2     N11635   2.252   4.559   9.050 -0.1337 -0.1431  0.2502
  785MPD2    H511636   2.266   4.481   9.113  1.9929 -0.7455 -0.9600
  785MPD2    N111637   2.727   4.566   9.002  0.2959 -0.5464 -0.0601
  785MPD2    H711638   2.726   4.527   9.095  0.7573 -1.5013 -0.4571
  786MPD2     C11639   1.653   1.801  14.943 -1.2503  0.0771 -0.4134
  786MPD2    C111640   1.793   1.784  14.950  0.0791  0.8427 -0.6905
  786MPD2    C211641   1.853   1.838  15.055  0.3730  0.9124 -0.5617
  786MPD2    C311642   1.784   1.916  15.148 -0.0006  1.0353 -0.7930
  786MPD2    C411643   1.649   1.942  15.135  0.3045 -0.4856 -0.4542
  786MPD2    C511644   1.584   1.880  15.031  0.2023  0.3214 -0.6910
  786MPD2     H11645   1.958   1.821  15.075 -0.0071 -0.4135  0.3485
  786MPD2    H111646   1.592   2.004  15.204  2.2936  0.0012  0.7619
  786MPD2    H211647   1.592   1.767  14.860  0.5297 -1.1288 -1.2334
  786MPD2    H311648   1.479   1.898  15.014 -0.0890 -0.3752  0.3432
  786MPD2     N11649   1.850   1.981  15.255  0.4909  0.1835  0.4780
  786MPD2    H511650   1.793   2.038  15.317 -0.7434 -0.4234 -0.1025
  786MPD2    N111651   1.857   1.703  14.852  0.4516  0.4006  0.0201
  786MPD2    H711652   1.955   1.692  14.873  0.8522  4.1522  0.1470
  787MPD2     C11653   2.311   1.296  14.904  0.3094  0.0346 -0.1188
  787MPD2    C111654   2.301   1.298  14.768 -0.3111 -0.2286  0.0442
  787MPD2    C211655   2.377   1.212  14.693  0.8036  0.6652  0.6212
  787MPD2    C311656   2.456   1.111  14.748  0.4344  0.5694 -0.0368
  787MPD2    C411657   2.454   1.098  14.887  0.0699 -0.1242 -0.6767
  787MPD2    C511658   2.384   1.191  14.961 -0.5480  0.6717  0.3576
  787MPD2     H11659   2.361   1.210  14.586 -1.1312  0.3142  0.9044
  787MPD2    H111660   2.509   1.020  14.939  2.2085  1.1853 -0.9508
  787MPD2    H211661   2.264   1.365  14.972  1.0365  0.9969 -0.5895
  787MPD2    H311662   2.397   1.188  15.069 -1.1872 -2.4678  0.3336
  787MPD2     N11663   2.533   1.029  14.667  0.0471 -0.3737 -0.3721
  787MPD2    H511664   2.514   1.045  14.569  2.2011 -0.8641 -0.8813
  787MPD2    N111665   2.199   1.378  14.715  0.0550  0.0856  0.0728
  787MPD2    H711666   2.147   1.440  14.775 -0.8909  1.5549 -2.2546
  788MPD2     C11667   3.692   4.362   1.328 -0.4917  0.1248 -0.2784
  788MPD2    C111668   3.648   4.286   1.222 -0.3071 -0.2005 -0.8013
  788MPD2    C211669   3.679   4.322   1.092  0.1637 -0.3130 -0.1828
  788MPD2    C311670   3.749   4.430   1.060 -0.0512 -0.2892 -0.1848
  788MPD2    C411671   3.798   4.507   1.167  1.0682 -0.2583 -0.2902
  788MPD2    C511672   3.761   4.475   1.300 -0.0208  0.2364 -0.8197
  788MPD2     H11673   3.644   4.249   1.020 -3.0607  1.8432 -0.7847
  788MPD2    H111674   3.853   4.598   1.149  0.4555  0.2961  0.5899
  788MPD2    H211675   3.666   4.336   1.430 -2.3286  0.4741 -0.6457
  788MPD2    H311676   3.788   4.546   1.377 -0.2893  0.2509 -0.7402
  788MPD2     N11677   3.781   4.460   0.929  0.0047 -0.0194  0.3636
  788MPD2    H511678   3.861   4.519   0.909 -0.5247  0.8522  0.7970
  788MPD2    N111679   3.578   4.165   1.242 -0.4446  0.2363  0.1290
  788MPD2    H711680   3.523   4.136   1.162 -3.1660 -1.3870  2.5575
  789MPD2     C11681   4.714   4.683  16.085  0.1842 -0.4581  0.0840
  789MPD2    C111682   4.593   4.643  16.052 -0.4040 -0.3619 -0.5870
  789MPD2    C211683   4.487   4.679  16.122 -0.0248 -0.0200  0.2889
  789MPD2    C311684   4.492   0.035  16.217 -0.5404  0.0575 -0.2528
  789MPD2    C411685   4.615   0.084  16.248  0.6684  0.2162  0.7812
  789MPD2    C511686   4.726   0.037  16.191 -0.6670 -0.5773 -0.8221
  789MPD2     H11687   4.392   4.642  16.084  0.3850  0.5820 -1.3221
  789MPD2    H111688   4.641   0.153  16.328 -1.0557  0.3499  1.2268
  789MPD2    H211689   0.064   4.645  16.031  0.9724 -1.0295  1.7177
  789MPD2    H311690   0.094   0.057  16.217 -0.5012 -1.8421 -0.5061
  789MPD2     N11691   4.377   0.072  16.292  0.7210 -0.7492 -0.8140
  789MPD2    H511692   4.291   0.019  16.280 -0.1517  0.4789  0.0269
  789MPD2    N111693   4.567   4.553  15.946 -0.5326 -0.3597 -0.3714
  789MPD2    H711694   4.473   4.517  15.937 -0.5553  0.2162 -2.4931
  790MPD2     C11695   0.677   1.291  13.556  0.2221  0.0666  0.1225
  790MPD2    C111696   0.697   1.175  13.479  0.2436  0.0651  0.0767
  790MPD2    C211697   0.609   1.149  13.378 -0.0068 -0.3394  1.1643
  790MPD2    C311698   0.500   1.232  13.351  0.0591 -0.0613 -0.1035
  790MPD2    C411699   0.483   1.344  13.428 -0.7554  0.2491  0.1699
  790MPD2    C511700   0.569   1.377  13.527 -0.1255 -0.1222 -0.1246
  790MPD2     H11701   0.629   1.066  13.312 -1.9122  0.8632 -0.9282
  790MPD2    H111702   0.410   1.417  13.395  0.7647  1.0108 -1.5504
  790MPD2    H211703   0.744   1.305  13.640 -1.1336  1.5685  0.9583
  790MPD2    H311704   0.560   1.466  13.588 -0.3258  0.5972 -1.2014
  790MPD2     N11705   0.412   1.220  13.240  0.2384  0.4816 -0.7420
  790MPD2    H511706   0.350   1.299  13.225  1.0757  1.5825  1.6499
  790MPD2    N111707   0.799   1.087  13.507 -0.2298  0.0731 -0.9993
  790MPD2    H711708   0.874   1.127  13.561 -2.3176  1.2663  1.0052
  791MPD2     C11709   4.587   0.797  12.945  0.1715 -0.4780 -0.0655
  791MPD2    C111710   4.582   0.927  12.910  1.0858 -0.2866  0.7329
  791MPD2    C211711   4.461   0.982  12.873 -0.4529  0.4198  0.0521
  791MPD2    C311712   4.347   0.900  12.864 -0.1513  0.2804 -0.1300
  791MPD2    C411713   4.352   0.768  12.904  0.2528 -0.3401  0.0038
  791MPD2    C511714   4.472   0.721  12.949 -0.1843 -0.5027 -0.1880
  791MPD2     H11715   4.453   1.090  12.875 -0.4533  0.4215 -0.0502
  791MPD2    H111716   4.272   0.697  12.892  1.6564 -1.7466 -1.1305
  791MPD2    H211717   4.682   0.755  12.977  0.4225  0.4527  0.4326
  791MPD2    H311718   4.487   0.615  12.967  4.2059  0.0523 -0.5581
  791MPD2     N11719   4.228   0.965  12.833 -0.6347  0.0818 -0.2718
  791MPD2    H511720   4.230   1.064  12.810 -2.5499  0.7180  2.3261
  791MPD2    N111721   4.706   0.996  12.923 -0.2122 -0.4363  0.4704
  791MPD2    H711722   0.055   0.941  12.940 -0.7689 -2.3043 -2.7496
  792MPD2     C11723   0.531   1.529  11.424 -0.5391 -0.0782 -0.1923
  792MPD2    C111724   0.469   1.568  11.310  0.1661 -0.1557 -0.3252
  792MPD2    C211725   0.327   1.553  11.298 -0.8797  0.7831 -0.0912
  792MPD2    C311726   0.257   1.502  11.407 -0.2524 -0.0188  0.0478
  792MPD2    C411727   0.322   1.475  11.524 -0.4422 -0.3400  0.2110
  792MPD2    C511728   0.457   1.485  11.529  0.4107  0.6570  0.4381
  792MPD2     H11729   0.276   1.570  11.203  1.4284  1.8734 -1.1425
  792MPD2    H111730   0.269   1.441  11.613 -0.6942  0.7880  0.4925
  792MPD2    H211731   0.637   1.520  11.443 -0.7435  0.6419  1.2786
  792MPD2    H311732   0.503   1.452  11.622  0.4846  0.3014  0.2737
  792MPD2     N11733   0.123   1.467  11.395 -0.3675 -0.3275 -0.4074
  792MPD2    H511734   0.087   1.414  11.473  0.3699 -0.2221  0.0017
  792MPD2    N111735   0.553   1.626  11.218  0.1576 -0.7426 -0.3301
  792MPD2    H711736   0.653   1.624  11.237  0.1948  0.9425 -0.3156
  793MPD2     C11737   4.267   1.274  10.648 -0.3762  0.3928 -0.0759
  793MPD2    C111738   4.403   1.263  10.679  0.1034 -0.2516 -0.4503
  793MPD2    C211739   4.447   1.314  10.799 -0.2477  0.2776 -0.6037
  793MPD2    C311740   4.355   1.349  10.896 -0.1874  0.1286 -0.7092
  793MPD2    C411741   4.224   1.353  10.867  0.1744  0.0179 -0.6746
  793MPD2    C511742   4.179   1.321  10.744  0.4077  0.0609  0.2036
  793MPD2     H11743   4.552   1.322  10.824 -0.4995  0.3508  0.4351
  793MPD2    H111744   4.149   1.386  10.938 -0.5023  0.9968 -1.8415
  793MPD2    H211745   4.229   1.245  10.550  0.0607 -0.9159  0.1429
  793MPD2    H311746   4.074   1.331  10.719  0.0075 -1.4931  1.2500
  793MPD2     N11747   4.418   1.395  11.017 -0.1271 -0.0398 -0.2674
  793MPD2    H511748   4.516   1.382  11.041 -0.0619  1.3874  0.2459
  793MPD2    N111749   4.496   1.212  10.584  0.4639 -0.6008 -0.4728
  793MPD2    H711750   4.592   1.206  10.616  0.4966 -0.9677 -0.6347
  794MPD2     C11751   4.582   0.564  17.628  0.3151  0.3083 -0.3460
  794MPD2    C111752   4.669   0.513  17.534  0.6804  0.8126  0.5952
  794MPD2    C211753   4.696   0.581  17.422  0.3537  0.5634 -0.1447
  794MPD2    C311754   4.629   0.694  17.397  0.4101  0.2138  0.9344
  794MPD2    C411755   4.556   0.753  17.493 -0.1001  0.0857 -0.0039
  794MPD2    C511756   4.537   0.694  17.608  0.6591  0.4486 -0.1868
  794MPD2     H11757   0.027   0.538  17.348 -0.8101  0.1883 -0.9652
  794MPD2    H111758   4.516   0.852  17.479 -1.7694 -0.4989  0.5983
  794MPD2    H211759   4.567   0.519  17.726 -3.0601 -2.1065 -1.9822
  794MPD2    H311760   4.477   0.747  17.681  1.7563  0.5291  0.6551
  794MPD2     N11761   4.647   0.771  17.284 -0.3300 -0.0946 -0.4172
  794MPD2    H511762   4.601   0.861  17.281 -0.6773 -0.2321  1.2210
  794MPD2    N111763   4.734   0.386  17.546 -0.1195 -0.0484 -0.0926
  794MPD2    H711764   0.072   0.358  17.482  0.6760  1.6943  0.0400
  795MPD2     C11765   2.841   2.880  13.425 -0.9179  0.0137 -0.3027
  795MPD2    C111766   2.733   2.796  13.421 -0.5719  0.6220  0.5445
  795MPD2    C211767   2.757   2.657  13.422  0.4311  0.2559  0.1047
  795MPD2    C311768   2.885   2.607  13.452  0.6146  0.1489  0.5406
  795MPD2    C411769   2.989   2.701  13.465  0.3182 -0.4232 -0.1083
  795MPD2    C511770   2.964   2.829  13.449  0.2226 -0.2862  0.8882
  795MPD2     H11771   2.673   2.591  13.403  0.0885  1.6467 -3.2134
  795MPD2    H111772   3.088   2.681  13.503 -0.0566 -2.0990  0.0190
  795MPD2    H211773   2.837   2.988  13.410 -0.7747  0.3335  1.8456
  795MPD2    H311774   3.047   2.898  13.455  0.0900 -0.0392 -0.0822
  795MPD2     N11775   2.900   2.467  13.457  0.0660  0.0861  1.0302
  795MPD2    H511776   2.817   2.408  13.467 -2.5672  3.3138 -1.7832
  795MPD2    N111777   2.608   2.841  13.377 -0.1020 -0.2790  0.2245
  795MPD2    H711778   2.536   2.771  13.364 -0.8589 -0.1474  3.9420
  796MPD2     C11779   2.617   4.456  15.511 -0.3836 -0.1340  1.1489
  796MPD2    C111780   2.692   4.477  15.623 -0.4692  0.2253  0.9022
  796MPD2    C211781   2.686   4.604  15.686  0.2911  0.2550 -0.3116
  796MPD2    C311782   2.606   4.701  15.632  0.2780 -0.1578  0.1461
  796MPD2    C411783   2.536   4.677  15.515 -0.0096 -0.0683  0.0324
  796MPD2    C511784   2.536   4.550  15.463  0.3504 -0.5662  0.1542
  796MPD2     H11785   2.740   4.616  15.779  1.5849  0.5636 -1.1009
  796MPD2    H111786   2.461   0.007  15.473  0.0218  1.1338  1.8399
  796MPD2    H211787   2.617   4.354  15.474 -1.1532 -0.6580  2.5728
  796MPD2    H311788   2.482   4.532  15.371  2.3372  2.6873 -1.6450
  796MPD2     N11789   2.600   0.084  15.700 -0.1082  0.7292  0.2923
  796MPD2    H511790   2.657   0.091  15.784 -0.8157  0.1138  0.8164
  796MPD2    N111791   2.779   4.370  15.652 -0.0759  0.3687  0.1040
  796MPD2    H711792   2.776   4.287  15.593 -4.5858  0.8695 -0.3317
  797MPD2     C11793   3.439   3.770  17.100  0.2378 -0.5130  0.1921
  797MPD2    C111794   3.448   3.900  17.138  0.8664  0.3044 -0.5600
  797MPD2    C211795   3.444   3.999  17.043 -0.0856 -0.1374  0.8585
  797MPD2    C311796   3.429   3.966  16.908 -0.7807 -0.0663  0.0380
  797MPD2    C411797   3.424   3.835  16.869 -0.6017  0.1464 -0.4602
  797MPD2    C511798   3.440   3.739  16.966  0.5929 -0.2919 -0.5621
  797MPD2     H11799   3.464   4.097  17.085  1.9614  0.0926 -0.6963
  797MPD2    H111800   3.418   3.798  16.768  0.7810  2.3440 -1.3366
  797MPD2    H211801   3.436   3.682  17.164 -2.1002 -1.6127 -1.4363
  797MPD2    H311802   3.434   3.635  16.936  0.5902 -0.0143 -1.5005
  797MPD2     N11803   3.440   4.063  16.806  0.5259  0.4380  0.1349
  797MPD2    H511804   3.432   4.027  16.711 -2.0137  0.2249  0.4081
  797MPD2    N111805   3.493   3.939  17.267  0.3164 -0.8384 -0.4214
  797MPD2    H711806   3.510   4.039  17.272 -0.0993 -0.8016  0.2892
  798MPD2     C11807   3.904   4.486  17.024 -0.9997 -0.0033  0.2679
  798MPD2    C111808   3.790   4.413  17.013  0.0795 -0.1849  0.3932
  798MPD2    C211809   3.744   4.341  17.126 -0.1760 -0.4648 -0.1439
  798MPD2    C311810   3.822   4.330  17.239 -0.0955  0.2998 -1.6327
  798MPD2    C411811   3.947   4.396  17.237  0.4616  0.2599 -0.4728
  798MPD2    C511812   3.990   4.474  17.134  0.1615  0.2364 -0.0006
  798MPD2     H11813   3.652   4.284  17.119 -1.8280  1.9631  1.3747
  798MPD2    H111814   4.011   4.396  17.324  0.8923 -0.7081 -0.7936
  798MPD2    H211815   3.930   4.556  16.945  2.0417 -0.2612  1.0174
  798MPD2    H311816   4.089   4.516  17.141 -0.6336  1.6975  2.6847
  798MPD2     N11817   3.769   4.253  17.344 -0.0220  0.1040 -0.6331
  798MPD2    H511818   3.670   4.231  17.345  0.4112 -1.9185 -1.4413
  798MPD2    N111819   3.697   4.430  16.904 -0.6271 -0.1746 -0.4273
  798MPD2    H711820   3.616   4.369  16.904 -0.3971 -0.4828 -0.4366
  799MPD2     C11821   2.155   0.810  14.726 -0.3333  0.8503  0.6309
  799MPD2    C111822   2.169   0.740  14.608  0.5253  0.1639 -0.6872
  799MPD2    C211823   2.159   0.804  14.483  0.3368  0.3676  0.7590
  799MPD2    C311824   2.128   0.941  14.487 -0.7002 -0.2713  0.8808
  799MPD2    C411825   2.102   1.009  14.603  0.5526  0.0701 -0.0159
  799MPD2    C511826   2.117   0.945  14.723  0.1321 -0.5587 -0.4705
  799MPD2     H11827   2.193   0.746  14.398  1.8303  3.3050 -0.6612
  799MPD2    H111828   2.078   1.115  14.604  1.5300  0.2673  1.2314
  799MPD2    H211829   2.159   0.756  14.820  3.2500 -0.7476 -0.4299
  799MPD2    H311830   2.118   1.000  14.817  1.2942  0.6417 -1.1849
  799MPD2     N11831   2.135   1.018  14.370 -0.8178 -0.1297  0.1459
  799MPD2    H511832   2.135   1.119  14.382  0.0281 -0.2378  1.0707
  799MPD2    N111833   2.213   0.606  14.609  0.0961  0.0937 -0.2951
  799MPD2    H711834   2.189   0.555  14.524 -0.1985 -0.4942  0.1446
  800MPD2     C11835   2.081   2.335  14.011  0.6873 -0.2293  0.0505
  800MPD2    C111836   2.195   2.273  13.965 -0.3020  0.5870  0.2839
  800MPD2    C211837   2.179   2.189  13.853 -0.8698  0.7605  0.0003
  800MPD2    C311838   2.050   2.155  13.814 -0.1163  0.5126  0.7182
  800MPD2    C411839   1.944   2.203  13.884  0.5021 -0.0789  0.0023
  800MPD2    C511840   1.958   2.300  13.978 -0.6509 -0.1994  0.2247
  800MPD2     H11841   2.263   2.146  13.801 -0.9700  0.4837  0.0704
  800MPD2    H111842   1.838   2.189  13.865 -0.2577  1.4899  2.9618
  800MPD2    H211843   2.097   2.401  14.096  2.1699  0.8805 -1.0955
  800MPD2    H311844   1.872   2.344  14.028 -0.0523 -0.0103  1.0861
  800MPD2     N11845   2.033   2.071  13.704 -0.1848  0.1282  0.4130
  800MPD2    H511846   2.116   2.031  13.663  0.2501  2.2041 -0.7597
  800MPD2    N111847   2.311   2.307  14.039 -0.0229  0.3181  0.1732
  800MPD2    H711848   2.296   2.368  14.119  3.0385 -1.4573  2.1242
  801MPD2     C11849   2.294   2.273  14.720 -0.0448  0.5304  0.4420
  801MPD2    C111850   2.285   2.333  14.594 -0.0168  0.9098 -0.1480
  801MPD2    C211851   2.190   2.433  14.566 -0.0760 -0.1015 -0.4373
  801MPD2    C311852   2.077   2.448  14.647  0.6914 -0.1669  0.1708
  801MPD2    C411853   2.081   2.377  14.770 -0.8031  1.3871  0.1578
  801MPD2    C511854   2.187   2.297  14.805  0.3754  0.6638  0.1511
  801MPD2     H11855   2.192   2.469  14.464  1.5244 -0.0792 -0.3920
  801MPD2    H111856   2.000   2.379  14.842  0.2925  0.9390  1.3987
  801MPD2    H211857   2.379   2.209  14.743 -0.1013  0.0343 -0.7127
  801MPD2    H311858   2.185   2.242  14.899  1.2349  0.0416 -0.2010
  801MPD2     N11859   1.969   2.529  14.606 -0.0010  0.4491 -0.1381
  801MPD2    H511860   1.888   2.537  14.666  0.1672  2.5053 -0.1737
  801MPD2    N111861   2.366   2.298  14.487 -0.4787  0.8767 -0.0197
  801MPD2    H711862   2.370   2.355  14.403 -0.3527  1.0424  0.1001
  802MPD2     C11863   2.215   2.757   0.003 -0.1058 -0.4444  0.2222
  802MPD2    C111864   2.094   2.701  17.736 -0.0470  0.1038  0.3502
  802MPD2    C211865   2.086   2.563  17.715  0.1145  0.4840  0.3247
  802MPD2    C311866   2.200   2.498  17.677 -0.7904 -0.4576 -0.0674
  802MPD2    C411867   2.319   2.559  17.676 -0.2604  0.6469  0.1254
  802MPD2    C511868   2.326   2.690  17.714  0.2746  0.2583 -0.1405
  802MPD2     H11869   1.990   2.514  17.724  1.0204 -1.5715 -1.2826
  802MPD2    H111870   2.410   2.514  17.639 -1.7530 -1.6659 -0.7597
  802MPD2    H211871   2.231   2.857   0.041 -1.9850  0.0152 -0.2099
  802MPD2    H311872   2.427   2.724  17.731  0.3423  0.2922 -0.6193
  802MPD2     N11873   2.180   2.365  17.644  0.1550 -0.3808 -1.0632
  802MPD2    H511874   2.083   2.336  17.640  0.3204 -1.3701  1.8121
  802MPD2    N111875   1.975   2.760   0.048 -0.4760 -0.4354 -0.2490
  802MPD2    H711876   1.912   2.686   0.076  0.2329  0.8114  4.5222
  803MPD2     C11877   2.761   0.953  12.017 -1.0037  0.6173  0.2207
  803MPD2    C111878   2.730   1.076  12.059 -0.2589  0.0127 -0.6338
  803MPD2    C211879   2.731   1.108  12.198  0.1864  0.0960 -0.1053
  803MPD2    C311880   2.763   1.008  12.288  0.2570  0.0042 -0.3326
  803MPD2    C411881   2.790   0.875  12.240 -0.1331 -0.3973 -0.6342
  803MPD2    C511882   2.788   0.848  12.106  0.3166  0.0042 -0.0206
  803MPD2     H11883   2.702   1.205  12.239  0.1507 -0.9023  2.1966
  803MPD2    H111884   2.803   0.790  12.306  0.3636 -0.2908 -0.5973
  803MPD2    H211885   2.760   0.912  11.917 -0.1727 -0.3107  0.5983
  803MPD2    H311886   2.816   0.753  12.064 -0.3843 -0.8393  1.4067
  803MPD2     N11887   2.757   1.039  12.423 -0.0341 -0.3450 -0.3630
  803MPD2    H511888   2.748   1.138  12.441 -2.2107 -0.2859 -1.8996
  803MPD2    N111889   2.718   1.178  11.964  0.5661  0.1910 -0.2408
  803MPD2    H711890   2.736   1.274  11.992 -3.0977  0.4818  1.1663
  804MPD2     C11891   2.442   2.358  16.991 -0.6240 -0.2052 -0.0511
  804MPD2    C111892   2.533   2.268  16.948  0.8822 -0.3629  0.5589
  804MPD2    C211893   2.664   2.306  16.941  0.1180 -0.0489  0.3063
  804MPD2    C311894   2.705   2.438  16.976 -0.2845  0.0646 -0.3331
  804MPD2    C411895   2.605   2.529  17.018  0.6066 -0.4336  0.3090
  804MPD2    C511896   2.477   2.489  17.012 -0.8166 -0.0452  0.1266
  804MPD2     H11897   2.747   2.244  16.909 -0.2812 -0.4099 -0.0287
  804MPD2    H111898   2.624   2.631  17.047  0.8743 -0.8061  1.4288
  804MPD2    H211899   2.338   2.331  17.009 -0.2017 -0.7961  1.5330
  804MPD2    H311900   2.394   2.552  17.043  1.3274  1.2100  3.3629
  804MPD2     N11901   2.841   2.467  16.980  0.1422 -0.0127 -0.1568
  804MPD2    H511902   2.908   2.393  16.964 -0.6377 -1.0768  1.5749
  804MPD2    N111903   2.486   2.141  16.913 -0.4184 -0.0381 -0.5436
  804MPD2    H711904   2.386   2.128  16.924  0.3132 -2.4926  3.4326
  805MPD2     C11905   2.061   0.936  15.629 -0.3268  0.4410  0.1555
  805MPD2    C111906   2.132   0.917  15.510  0.2319  1.0945  0.1080
  805MPD2    C211907   2.266   0.929  15.511  0.1864 -0.0485 -0.2775
  805MPD2    C311908   2.338   0.945  15.625 -0.2674  0.2588  0.1442
  805MPD2    C411909   2.265   0.974  15.742 -0.5286 -0.7147 -0.9456
  805MPD2    C511910   2.131   0.977  15.743  0.1493 -0.4178  0.3793
  805MPD2     H11911   2.318   0.905  15.419 -1.8519  2.0010 -1.9782
  805MPD2    H111912   2.312   0.998  15.837 -2.4961 -0.5169 -0.0197
  805MPD2    H211913   1.953   0.922  15.633 -0.8285  3.3904 -2.3125
  805MPD2    H311914   2.075   1.009  15.829 -1.0743 -0.0972 -0.5336
  805MPD2     N11915   2.479   0.929  15.627  0.0075 -0.4425 -1.1295
  805MPD2    H511916   2.528   0.899  15.543  1.0238  0.2283 -0.7766
  805MPD2    N111917   2.069   0.864  15.397 -0.8694  0.6562  0.2225
  805MPD2    H711918   2.124   0.857  15.312 -1.1423 -0.5931  0.1437
  806MPD2     C11919   2.329   0.077   0.577  0.0214  0.1303 -0.2042
  806MPD2    C111920   2.404   0.179   0.534  0.5361  0.5942 -0.4343
  806MPD2    C211921   2.424   0.191   0.398 -0.2192 -0.1218  0.4583
  806MPD2    C311922   2.384   0.096   0.312  0.5233  0.1989  0.3167
  806MPD2    C411923   2.319   4.717   0.356  0.1928 -0.4293  0.0868
  806MPD2    C511924   2.286   4.711   0.489  0.4192 -0.4586  0.2104
  806MPD2     H11925   2.494   0.269   0.368 -1.9924  0.8822 -1.0432
  806MPD2    H111926   2.284   4.645   0.283  2.9446 -0.5740 -1.0900
  806MPD2    H211927   2.290   0.083   0.678  0.3114 -0.0097 -0.0841
  806MPD2    H311928   2.215   4.639   0.528  0.0529  0.1594  0.6796
  806MPD2     N11929   2.430   0.103   0.173  0.1632 -0.2187 -0.1621
  806MPD2    H511930   2.471   0.189   0.138  0.7012  0.3269  1.8217
  806MPD2    N111931   2.441   0.272   0.635 -0.5876 -0.3057  0.1831
  806MPD2    H711932   2.413   0.249   0.730 -0.8987  1.0765  0.4207
  807MPD2     C11933   2.185   0.399   1.251 -0.3373  0.4390 -0.0174
  807MPD2    C111934   2.224   0.323   1.140  0.1870 -0.1800 -0.0869
  807MPD2    C211935   2.146   0.211   1.107 -0.1935  0.0468 -0.7437
  807MPD2    C311936   2.039   0.175   1.178 -0.2329  0.5770 -0.1616
  807MPD2    C411937   2.005   0.248   1.285  0.0885 -1.1059  0.1173
  807MPD2    C511938   2.079   0.358   1.325  0.0802 -0.5797  0.1692
  807MPD2     H11939   2.183   0.145   1.030  0.1152 -3.6301  2.5818
  807MPD2    H111940   1.916   0.225   1.343 -0.0318 -2.4921 -0.6277
  807MPD2    H211941   2.227   0.496   1.276  0.5027 -0.1761  0.8894
  807MPD2    H311942   2.047   0.415   1.411  4.0763  0.6446  0.8586
  807MPD2     N11943   1.974   0.064   1.127 -0.0192 -0.0654  0.5571
  807MPD2    H511944   2.023   4.734   1.066  1.1395  1.9236 -0.6321
  807MPD2    N111945   2.334   0.347   1.061 -0.6559 -0.2103 -0.4520
  807MPD2    H711946   2.350   0.290   0.978 -0.0355  1.8792 -1.7685
  808MPD2     C11947   1.867   2.441   9.813 -0.4984  0.3415 -0.3119
  808MPD2    C111948   1.940   2.396   9.924 -0.2733  0.3656 -0.2402
  808MPD2    C211949   1.980   2.479  10.026 -1.0903 -0.2559 -0.2847
  808MPD2    C311950   1.969   2.615  10.010 -0.1717 -0.2416  0.0750
  808MPD2    C411951   1.906   2.658   9.893  0.2384  0.4089  0.2890
  808MPD2    C511952   1.855   2.576   9.798 -0.1194  0.2113 -0.5435
  808MPD2     H11953   2.049   2.438  10.099 -1.3008  0.7173  0.4634
  808MPD2    H111954   1.890   2.764   9.881  0.6457  0.6484  1.8764
  808MPD2    H211955   1.828   2.384   9.729  3.3909 -1.1555 -1.0984
  808MPD2    H311956   1.798   2.617   9.716 -1.1148 -1.9162 -0.9116
  808MPD2     N11957   2.027   2.716  10.096  0.0795  0.0435  0.0638
  808MPD2    H511958   2.032   2.812  10.063  1.3547  0.1922  0.7106
  808MPD2    N111959   1.973   2.261   9.939 -0.2512 -0.1649  0.2273
  808MPD2    H711960   2.037   2.250  10.017 -0.3071  3.6651  0.7743
  809MPD2     C11961   2.500   3.361   9.731 -0.8533  0.5414  0.5152
  809MPD2    C111962   2.587   3.308   9.824 -0.5927  0.0875  0.2038
  809MPD2    C211963   2.542   3.211   9.912 -0.1155  0.5987 -0.6850
  809MPD2    C311964   2.407   3.178   9.911 -0.4289  0.3298 -0.4689
  809MPD2    C411965   2.322   3.225   9.812  0.0983 -0.5231 -0.5539
  809MPD2    C511966   2.372   3.316   9.720  0.2085 -0.6235  0.0729
  809MPD2     H11967   2.606   3.160   9.984  1.2249  3.8820  0.4402
  809MPD2    H111968   2.217   3.198   9.800 -0.5141  1.0060  1.3389
  809MPD2    H211969   2.538   3.430   9.657 -0.5828  1.4356  1.4890
  809MPD2    H311970   2.313   3.353   9.637 -0.4684 -0.3078  0.6890
  809MPD2     N11971   2.352   3.086  10.007 -0.5819  0.2082 -0.0459
  809MPD2    H511972   2.255   3.058  10.007 -0.9917  1.6314  0.8551
  809MPD2    N111973   2.722   3.329   9.830 -0.1919  0.3890 -0.9515
  809MPD2    H711974   2.773   3.300   9.913 -0.2236  1.5038 -0.5449
  810MPD2     C11975   1.841   1.453  10.856  0.5469  1.2991  0.3531
  810MPD2    C111976   1.784   1.417  10.734 -0.5775  0.1122 -0.3564
  810MPD2    C211977   1.740   1.524  10.655 -0.0269  0.4353 -0.4293
  810MPD2    C311978   1.753   1.655  10.689 -0.4549  0.2663  0.5010
  810MPD2    C411979   1.807   1.688  10.813  0.2237  0.2554  0.4695
  810MPD2    C511980   1.852   1.587  10.893  0.0084 -0.3697  0.0523
  810MPD2     H11981   1.707   1.504  10.554  0.0739 -1.3924 -0.0851
  810MPD2    H111982   1.822   1.788  10.853  1.6997 -0.7481  2.4012
  810MPD2    H211983   1.867   1.385  10.937  1.6382 -0.0544 -1.1351
  810MPD2    H311984   1.894   1.618  10.987 -0.1312  1.2361 -0.4124
  810MPD2     N11985   1.728   1.772  10.611 -0.0135  0.1234 -0.2990
  810MPD2    H511986   1.762   1.859  10.651 -1.7317  0.7136 -0.1135
  810MPD2    N111987   1.775   1.281  10.693 -0.2199  0.6429 -0.0992
  810MPD2    H711988   1.719   1.253  10.613 -1.3394 -0.1901  0.9696
  811MPD2     C11989   1.321   0.747  10.230 -0.3261  0.4446 -0.6047
  811MPD2    C111990   1.391   0.852  10.275 -0.2692  0.1846  0.5698
  811MPD2    C211991   1.363   0.973  10.211 -0.0257 -0.8963 -0.0186
  811MPD2    C311992   1.297   0.986  10.093 -0.1164  0.4598  0.2478
  811MPD2    C411993   1.250   0.874  10.035 -0.2146 -0.1865  0.4037
  811MPD2    C511994   1.258   0.757  10.106  0.3422 -0.0691 -0.7585
  811MPD2     H11995   1.418   1.063  10.236  2.1193 -1.7880 -1.4447
  811MPD2    H111996   1.193   0.883   9.943  1.4323  1.1592 -0.4834
  811MPD2    H211997   1.322   0.655  10.287 -3.8809  0.1615 -1.0490
  811MPD2    H311998   1.214   0.670  10.059 -0.2989 -0.1939  0.0898
  811MPD2     N11999   1.302   1.113  10.033  0.3019  0.3990 -0.0581
  811MPD2    H512000   1.352   1.183  10.087  2.7047 -1.8873  0.6848
  811MPD2    N112001   1.470   0.847  10.388 -0.2236  0.6567  0.2711
  811MPD2    H712002   1.500   0.753  10.413  1.0232  1.2866  1.1100
  812MPD2     C12003   0.676   1.170  12.139 -0.4912 -0.3864 -0.1500
  812MPD2    C112004   0.739   1.283  12.182  0.3952 -0.6661  0.1076
  812MPD2    C212005   0.799   1.281  12.304 -0.0008  0.3658 -0.2232
  812MPD2    C312006   0.796   1.169  12.385 -0.6460  0.3266 -0.0393
  812MPD2    C412007   0.718   1.057  12.347  0.4136 -0.6662  0.1993
  812MPD2    C512008   0.662   1.063  12.220 -0.6127  0.0974  0.5910
  812MPD2     H12009   0.848   1.364  12.354 -0.0690  0.9804 -1.1802
  812MPD2    H112010   0.718   0.966  12.405  0.6260 -0.2086  0.9162
  812MPD2    H212011   0.643   1.171  12.036  1.7991  0.4567 -0.8868
  812MPD2    H312012   0.607   0.975  12.191  2.4741 -1.4527 -0.5187
  812MPD2     N12013   0.861   1.175  12.507 -0.1640  0.1746 -0.6502
  812MPD2    H512014   0.920   1.257  12.519  1.2456 -0.9224  0.0043
  812MPD2    N112015   0.735   1.396  12.103 -0.3043 -1.1087 -0.3313
  812MPD2    H712016   0.674   1.392  12.022  0.0699 -2.8437 -0.5351
  813MPD2     C12017   0.908   2.952  13.003  0.8382 -0.6984  0.6469
  813MPD2    C112018   0.831   3.062  12.998 -0.2219 -0.2187  0.7534
  813MPD2    C212019   0.699   3.058  13.015  0.5156  0.0853 -0.2032
  813MPD2    C312020   0.646   2.939  13.071  0.3047 -0.2712  0.3673
  813MPD2    C412021   0.726   2.826  13.079  0.1795  0.2555 -0.0094
  813MPD2    C512022   0.857   2.829  13.041  0.0854 -0.5716 -0.7435
  813MPD2     H12023   0.650   3.154  13.014 -1.5218 -0.9746 -1.5998
  813MPD2    H112024   0.683   2.734  13.117 -0.0696 -0.0351 -0.9999
  813MPD2    H212025   1.015   2.955  12.982  0.5314  2.1179 -0.5450
  813MPD2    H312026   0.926   2.748  13.061 -1.5102 -1.4879  1.0627
  813MPD2     N12027   0.518   2.948  13.125  0.0856  0.0221 -0.2101
  813MPD2    H512028   0.473   3.037  13.106 -2.0756 -1.4422 -2.0053
  813MPD2    N112029   0.884   3.190  12.990  0.2316  0.9644  0.4912
  813MPD2    H712030   0.815   3.265  12.986  1.4294  2.0720  0.6372
  814MPD2     C12031   1.199   4.033  13.048 -0.4302 -0.4954  0.1486
  814MPD2    C112032   1.142   4.141  12.976  0.0307 -0.6235 -0.2945
  814MPD2    C212033   1.169   4.273  13.017  0.0501  0.7080 -0.1596
  814MPD2    C312034   1.256   4.305  13.125 -0.3644  0.0809  0.0510
  814MPD2    C412035   1.315   4.199  13.190 -0.0894 -0.5947 -0.1412
  814MPD2    C512036   1.281   4.069  13.158 -0.0875 -0.0025 -0.1703
  814MPD2     H12037   1.123   4.352  12.958 -1.1146  0.1932  0.0685
  814MPD2    H112038   1.384   4.216  13.271 -2.1843  2.4449  0.9921
  814MPD2    H212039   1.180   3.927  13.041  0.5094 -0.6166 -0.5403
  814MPD2    H312040   1.336   3.994  13.214  0.9377  1.8082  1.2421
  814MPD2     N12041   1.287   4.437  13.164 -0.3666  0.4396  1.0968
  814MPD2    H512042   1.316   4.452  13.260 -0.1974 -2.2147  1.4594
  814MPD2    N112043   1.051   4.126  12.872  0.0444  0.4432 -0.2055
  814MPD2    H712044   0.994   4.201  12.836 -1.0035  0.5366  1.6371
  815MPD2     C12045   1.111   2.549  11.776  0.0481  0.5007  0.3621
  815MPD2    C112046   1.110   2.686  11.749 -0.4970 -0.3529  0.6329
  815MPD2    C212047   1.033   2.773  11.829 -0.0142 -0.4158 -0.1740
  815MPD2    C312048   0.968   2.727  11.943 -0.8917 -0.4469 -0.4842
  815MPD2    C412049   0.963   2.590  11.962 -0.3159  0.4193 -1.3189
  815MPD2    C512050   1.040   2.509  11.886 -0.3420 -0.0610  0.2085
  815MPD2     H12051   1.043   2.879  11.808  1.9676 -1.1794 -3.0788
  815MPD2    H112052   0.898   2.543  12.035  2.2731 -0.1872  0.5806
  815MPD2    H212053   1.146   2.469  11.712  0.6916  2.0444 -1.2183
  815MPD2    H312054   1.036   2.402  11.902  1.9735  0.0059  1.3075
  815MPD2     N12055   0.888   2.820  12.022  0.0685  0.3651 -0.3916
  815MPD2    H512056   0.895   2.919  11.999 -3.1514  0.5352 -0.7095
  815MPD2    N112057   1.185   2.725  11.636 -0.5808 -0.6668  0.4884
  815MPD2    H712058   1.234   2.654  11.582  0.2286  0.6668 -0.5641
  816MPD2     C12059   1.452   1.554  17.065 -0.2906 -0.2047 -0.2319
  816MPD2    C112060   1.418   1.644  16.973  0.1740  0.5140 -0.7845
  816MPD2    C212061   1.477   1.646  16.847 -0.6027 -0.5882 -0.1303
  816MPD2    C312062   1.580   1.556  16.816 -0.3949  0.4763  0.5751
  816MPD2    C412063   1.610   1.457  16.911 -0.0074 -0.5155 -0.6326
  816MPD2    C512064   1.550   1.462  17.030 -0.2632 -0.6347  0.5141
  816MPD2     H12065   1.447   1.716  16.770  0.1393  0.6287  0.6755
  816MPD2    H112066   1.697   1.393  16.901 -0.6887 -1.5580  0.1531
  816MPD2    H212067   1.392   1.544  17.155  1.2107 -3.1452  0.4816
  816MPD2    H312068   1.588   1.395  17.106 -0.0507 -0.6975  0.3502
  816MPD2     N12069   1.642   1.567  16.685  0.2013  0.0757  0.7392
  816MPD2    H512070   1.630   1.656  16.637  0.5595  0.1227  0.7375
  816MPD2    N112071   1.311   1.729  17.017  0.8999 -0.3802  0.2905
  816MPD2    H712072   1.269   1.706  17.106 -1.0120  1.4066 -0.1604
  817MPD2     C12073   0.559   4.334   9.976  0.2002 -0.4602 -1.4905
  817MPD2    C112074   0.455   4.266  10.021 -0.9053  0.1421  0.1798
  817MPD2    C212075   0.326   4.316  10.005  0.2950  0.1363  0.0375
  817MPD2    C312076   0.304   4.439   9.944 -0.3079 -0.3016  0.6228
  817MPD2    C412077   0.414   4.509   9.896 -0.2776  0.4041 -0.0495
  817MPD2    C512078   0.534   4.455   9.911 -0.6148 -0.1432 -0.1557
  817MPD2     H12079   0.241   4.254  10.033  1.6495 -0.6259  2.4440
  817MPD2    H112080   0.410   4.601   9.840 -0.9846  0.1941 -0.3476
  817MPD2    H212081   0.660   4.298   9.986  0.1142  0.4370  2.4145
  817MPD2    H312082   0.617   4.506   9.863  0.0990 -1.0353  0.1193
  817MPD2     N12083   0.175   4.482   9.917  0.4241  0.0521 -0.5671
  817MPD2    H512084   0.101   4.416   9.940 -0.8727  1.7248  0.0913
  817MPD2    N112085   0.470   4.135  10.078  0.6914  0.0372 -0.3042
  817MPD2    H712086   0.390   4.097  10.128  0.8985 -0.8485 -0.6489
  818MPD2     C12087   3.555   4.528   9.884 -0.8949 -0.4446 -0.7348
  818MPD2    C112088   3.657   4.469   9.960  0.0289 -0.1722 -0.8517
  818MPD2    C212089   3.668   4.332   9.956  0.2249 -0.2720 -0.0859
  818MPD2    C312090   3.586   4.262   9.869 -0.3295  0.2149 -0.7565
  818MPD2    C412091   3.487   4.317   9.794 -0.1803 -0.5691  0.4286
  818MPD2    C512092   3.468   4.450   9.809 -0.5511 -0.2410  0.7390
  818MPD2     H12093   3.746   4.281  10.012 -0.1846  1.1552  1.7840
  818MPD2    H112094   3.430   4.261   9.721  0.1681  0.2603 -0.4853
  818MPD2    H212095   3.526   4.632   9.874  0.7339 -0.0838 -1.6268
  818MPD2    H312096   3.400   4.497   9.740  1.8549 -0.3616 -1.7353
  818MPD2     N12097   3.595   4.118   9.866  0.1777 -0.0717  0.2852
  818MPD2    H512098   3.533   4.063   9.808 -0.6997  0.2244  0.9408
  818MPD2    N112099   3.752   4.534  10.038 -0.0902  0.0723 -0.4842
  818MPD2    H712100   3.818   4.476  10.089  1.5340  1.1766 -1.3147
  819MPD2     C12101   2.817   0.447  15.262  0.1878  0.3785 -0.0304
  819MPD2    C112102   2.869   0.321  15.233  0.4533 -0.4565  0.6248
  819MPD2    C212103   2.995   0.292  15.290 -0.3968  0.1952 -0.3362
  819MPD2    C312104   3.064   0.378  15.368 -0.1360  0.2425 -0.0467
  819MPD2    C412105   3.007   0.499  15.390  0.0283 -0.1727  0.5737
  819MPD2    C512106   2.887   0.537  15.334 -0.1881  0.1470 -0.6214
  819MPD2     H12107   3.033   0.191  15.279 -0.7341  0.2502 -2.0730
  819MPD2    H112108   3.059   0.570  15.454 -2.2304  2.4376 -0.4741
  819MPD2    H212109   2.725   0.489  15.223  1.6487  1.8071 -1.9300
  819MPD2    H312110   2.838   0.630  15.359 -0.5373 -0.0124 -0.7100
  819MPD2     N12111   3.182   0.334  15.427  0.3164 -0.5515  0.3776
  819MPD2    H512112   3.216   0.245  15.392  0.6201 -1.0549  1.9851
  819MPD2    N112113   2.795   0.237  15.143  0.2021 -0.2694 -0.0120
  819MPD2    H712114   2.718   0.282  15.094 -1.1077 -1.1377  1.2540
  820MPD2     C12115   1.870   0.241  14.922  0.5028  0.0665  0.2993
  820MPD2    C112116   1.977   0.316  14.955 -0.0501  0.1428 -1.0268
  820MPD2    C212117   2.110   0.276  14.953  0.1683  0.4535 -0.2728
  820MPD2    C312118   2.135   0.142  14.926  0.0639 -0.0701 -0.4635
  820MPD2    C412119   2.020   0.061  14.900 -0.7784 -0.7063 -0.0863
  820MPD2    C512120   1.895   0.112  14.890 -0.6207  0.1927 -0.2283
  820MPD2     H12121   2.195   0.343  14.956  0.8287 -0.4569  1.4475
  820MPD2    H112122   2.033   4.693  14.868  1.1811 -0.2847 -0.7117
  820MPD2    H212123   1.770   0.284  14.914  1.2026  2.0277  2.2636
  820MPD2    H312124   1.810   0.050  14.864 -0.0488 -0.9628  0.6509
  820MPD2     N12125   2.263   0.079  14.926 -0.0261 -0.2790  0.2914
  820MPD2    H512126   2.259   4.716  14.900 -0.9620  0.6294 -2.9353
  820MPD2    N112127   1.954   0.459  14.972  0.0301  0.2490  0.9402
  820MPD2    H712128   1.864   0.491  14.937  0.9613  0.0120 -1.6893
  821MPD2     C12129   2.171   2.295  13.018  0.0793  0.1462 -0.3867
  821MPD2    C112130   2.213   2.167  13.039 -0.3556 -0.7370 -0.4828
  821MPD2    C212131   2.325   2.125  12.967 -0.8222 -0.7331  0.3391
  821MPD2    C312132   2.397   2.215  12.891 -0.7005 -0.0302  0.4964
  821MPD2    C412133   2.351   2.343  12.875 -0.3315  0.2497 -0.9069
  821MPD2    C512134   2.233   2.378  12.931  0.5295  0.1365 -0.0814
  821MPD2     H12135   2.367   2.027  12.984  0.0095  0.3333  4.6171
  821MPD2    H112136   2.413   2.415  12.823 -1.8955  1.9824 -0.3689
  821MPD2    H212137   2.086   2.344  13.065  0.0593  1.3611 -1.6629
  821MPD2    H312138   2.199   2.481  12.923 -1.1100 -0.6135 -2.7163
  821MPD2     N12139   2.521   2.183  12.834  0.0926 -0.7018 -0.3051
  821MPD2    H512140   2.580   2.261  12.809 -0.1682  0.6335  3.1940
  821MPD2    N112141   2.146   2.067  13.119 -0.2723  0.8930 -0.2480
  821MPD2    H712142   2.182   1.972  13.122  1.9782  1.7221 -0.6914
  822MPD2     C12143   3.672   2.006  15.746 -0.0243  0.1282 -0.1804
  822MPD2    C112144   3.606   1.996  15.870  0.6494  1.1773 -0.1405
  822MPD2    C212145   3.492   2.069  15.891  0.0936 -0.4859 -0.1906
  822MPD2    C312146   3.454   2.159  15.795  0.1781  0.5410 -0.6257
  822MPD2    C412147   3.521   2.171  15.671  0.2672  0.1623  0.0772
  822MPD2    C512148   3.627   2.088  15.645  0.2626 -0.0116 -0.6413
  822MPD2     H12149   3.427   2.051  15.975  0.0275  1.1298  0.1031
  822MPD2    H112150   3.487   2.227  15.584  0.7379  2.6505  1.4783
  822MPD2    H212151   3.755   1.946  15.711 -0.4078 -0.2960 -0.3675
  822MPD2    H312152   3.673   2.071  15.548  1.1954  0.7741 -0.3371
  822MPD2     N12153   3.348   2.247  15.830 -0.0022  0.2497 -0.1159
  822MPD2    H512154   3.315   2.241  15.925 -0.9660  2.1906 -0.3485
  822MPD2    N112155   3.648   1.909  15.975 -0.4025  0.7254 -0.0550
  822MPD2    H712156   3.598   1.912  16.064  1.1119  0.0023  0.8229
  823MPD2     C12157   2.879   2.420  16.464  0.0070  0.1850  0.1208
  823MPD2    C112158   2.950   2.331  16.387 -0.1366  0.0269 -0.1737
  823MPD2    C212159   2.966   2.197  16.414 -0.5794  0.0693 -0.3416
  823MPD2    C312160   2.897   2.144  16.521 -0.0280 -0.0205  0.3450
  823MPD2    C412161   2.822   2.226  16.597 -0.0611 -0.2781 -0.5028
  823MPD2    C512162   2.819   2.365  16.572 -0.8606  0.1156 -0.9257
  823MPD2     H12163   3.020   2.137  16.342 -0.7794 -0.7976  0.2299
  823MPD2    H112164   2.770   2.183  16.682  1.3652 -0.6910  0.1577
  823MPD2    H212165   2.870   2.527  16.447 -0.2863  0.1456  0.0257
  823MPD2    H312166   2.757   2.429  16.633 -0.0598  0.6194 -0.6472
  823MPD2     N12167   2.914   2.007  16.570 -0.4120 -0.0999  0.4444
  823MPD2    H512168   2.882   1.985  16.664  0.1532 -1.0575  0.4128
  823MPD2    N112169   3.025   2.390  16.281 -0.4499  0.2384 -0.4734
  823MPD2    H712170   3.023   2.492  16.278 -1.3248  0.2212 -0.4437
  824MPD2     C12171   4.098   1.204  16.131 -0.4314  0.5991  0.2020
  824MPD2    C112172   4.122   1.312  16.050 -0.0088  0.3538 -0.4299
  824MPD2    C212173   4.212   1.299  15.943  0.1726 -0.7299 -0.4701
  824MPD2    C312174   4.283   1.179  15.925  0.0632  0.3088 -0.0321
  824MPD2    C412175   4.256   1.074  16.014 -0.7343 -0.0859  0.5564
  824MPD2    C512176   4.165   1.087  16.111  0.0723 -0.3339  0.2795
  824MPD2     H12177   4.236   1.385  15.882 -1.9750  0.1562 -0.0732
  824MPD2    H112178   4.313   0.982  16.013 -1.7161 -0.7071  1.6566
  824MPD2    H212179   4.034   1.203  16.218 -1.1266 -0.5488 -0.3314
  824MPD2    H312180   4.150   1.013  16.188 -1.4818 -1.3668 -1.0118
  824MPD2     N12181   4.369   1.161  15.812 -0.4215  0.3891 -0.2686
  824MPD2    H512182   4.382   1.244  15.755  0.2454 -0.4942 -1.4041
  824MPD2    N112183   4.064   1.436  16.077 -0.1241  0.2087  0.6587
  824MPD2    H712184   4.083   1.515  16.016  1.2384 -1.6209 -1.2743
  825MPD2     C12185   4.549   1.269  14.999 -0.5122  0.4126  0.2067
  825MPD2    C112186   4.549   1.321  15.126  0.1713 -0.1345  0.5852
  825MPD2    C212187   4.513   1.458  15.140 -0.2819 -0.1325 -0.2516
  825MPD2    C312188   4.474   1.541  15.030  0.0966  0.1483  0.0141
  825MPD2    C412189   4.469   1.480  14.905 -0.8992 -0.0955  0.8232
  825MPD2    C512190   4.513   1.351  14.897 -0.5717  0.2765 -0.1645
  825MPD2     H12191   4.522   1.496  15.242  2.8758 -0.0538 -0.5740
  825MPD2    H112192   4.439   1.536  14.818 -0.7298 -0.5166  0.4958
  825MPD2    H212193   4.569   1.163  14.987  0.8785  0.8279 -1.1510
  825MPD2    H312194   4.504   1.303  14.800 -0.9504  1.1755 -0.5653
  825MPD2     N12195   4.452   1.682  15.047 -0.0662 -0.0739 -0.0256
  825MPD2    H512196   4.429   1.735  14.964 -0.3388  0.4639  0.3958
  825MPD2    N112197   4.579   1.235  15.236 -0.2739 -0.1225  0.4822
  825MPD2    H712198   4.604   1.141  15.208 -0.0350 -0.1866  0.9126
  826MPD2     C12199   4.098   1.089  13.860  0.5939  0.3800 -0.1715
  826MPD2    C112200   4.146   1.161  13.749 -0.1700  0.0643  0.6217
  826MPD2    C212201   4.064   1.250  13.688 -0.0754  0.0395 -0.7713
  826MPD2    C312202   3.934   1.263  13.723 -0.7512 -0.0395  0.1142
  826MPD2    C412203   3.884   1.190  13.828 -0.5357 -0.1734 -0.0027
  826MPD2    C512204   3.965   1.102  13.892  0.9896  0.8433  0.5600
  826MPD2     H12205   4.089   1.300  13.595  3.4466 -0.7129 -0.2209
  826MPD2    H112206   3.785   1.203  13.870 -0.4323  0.5801  0.0143
  826MPD2    H212207   4.158   1.025  13.924 -1.8133 -2.1747 -0.4565
  826MPD2    H312208   3.927   1.040  13.972  0.9177  1.5602  1.0773
  826MPD2     N12209   3.849   1.370  13.662  0.5286  0.0927 -0.9763
  826MPD2    H512210   3.752   1.376  13.692  0.6674  3.4237 -1.2406
  826MPD2    N112211   4.284   1.132  13.713  0.2323 -0.2139 -0.5526
  826MPD2    H712212   4.342   1.080  13.777  1.1134  1.4462  0.0032
  827MPD2     C12213   4.486   2.963  10.218  0.1922  0.5726  0.0128
  827MPD2    C112214   4.484   2.841  10.278  0.5830  0.2077  0.0199
  827MPD2    C212215   4.367   2.770  10.291  0.3687 -0.2082 -0.0677
  827MPD2    C312216   4.247   2.813  10.241  0.7123 -0.1180 -0.5791
  827MPD2    C412217   4.252   2.938  10.186 -0.1548 -0.6708  0.4819
  827MPD2    C512218   4.370   3.014  10.174  0.3672  0.3756  1.2190
  827MPD2     H12219   4.367   2.669  10.331 -0.8580 -0.2018 -0.0672
  827MPD2    H112220   4.172   2.987  10.132 -0.5006 -0.4748  1.1782
  827MPD2    H212221   4.578   3.019  10.209  1.2090 -0.7543  2.0066
  827MPD2    H312222   4.354   3.111  10.127 -0.9329 -0.1294  0.6022
  827MPD2     N12223   4.127   2.737  10.255 -0.4904 -0.0074 -0.2083
  827MPD2    H512224   4.142   2.639  10.273  0.4428  0.2936  0.6254
  827MPD2    N112225   4.608   2.794  10.313  0.5366  0.3925 -0.5360
  827MPD2    H712226   4.692   2.844  10.285  1.8737 -1.3406  0.3849
  828MPD2     C12227   3.047   2.917  11.966  0.6573 -0.4070  0.3698
  828MPD2    C112228   3.056   2.813  11.875 -0.0510  0.0681  0.1197
  828MPD2    C212229   3.164   2.812  11.783  0.1721  0.6401  0.4555
  828MPD2    C312230   3.270   2.897  11.792 -0.5710 -0.4247  0.3184
  828MPD2    C412231   3.256   2.999  11.879  0.3045  0.5167  0.0014
  828MPD2    C512232   3.149   3.011  11.962  0.3695  0.0104  0.3975
  828MPD2     H12233   3.169   2.722  11.723  0.0737  0.2796  0.9873
  828MPD2    H112234   3.331   3.075  11.893 -2.2153  3.2805 -1.5039
  828MPD2    H212235   2.978   2.922  12.050  1.5942  0.9012  1.0535
  828MPD2    H312236   3.153   3.099  12.024 -2.5402  0.4823 -0.0970
  828MPD2     N12237   3.383   2.884  11.709 -0.1182  0.5504  0.1779
  828MPD2    H512238   3.436   2.966  11.681  0.5312 -0.0151 -0.2550
  828MPD2    N112239   2.972   2.703  11.869 -0.0085  0.6791  0.1375
  828MPD2    H712240   3.004   2.631  11.805  0.7354  2.2197 -1.2466
  829MPD2     C12241   2.945   2.310  11.147 -0.6579  0.1789 -0.2742
  829MPD2    C112242   2.821   2.278  11.201 -0.0461 -0.1435  0.2927
  829MPD2    C212243   2.803   2.294  11.338 -0.3089  0.0982 -0.1465
  829MPD2    C312244   2.905   2.333  11.421  0.3796 -0.5822  0.4989
  829MPD2    C412245   3.031   2.351  11.367  0.5458  0.0113  0.1475
  829MPD2    C512246   3.044   2.347  11.233  0.1270  0.3471  0.4725
  829MPD2     H12247   2.702   2.285  11.376 -0.9610 -1.4339 -2.2091
  829MPD2    H112248   3.109   2.376  11.439  1.3488 -1.4846 -0.2135
  829MPD2    H212249   2.967   2.298  11.042  1.4948 -0.0515  0.2157
  829MPD2    H312250   3.145   2.351  11.194  0.4269  1.9318  1.4319
  829MPD2     N12251   2.895   2.352  11.561  0.0814 -0.2402  0.2404
  829MPD2    H512252   2.973   2.404  11.600  2.0405 -3.8488  1.1026
  829MPD2    N112253   2.716   2.248  11.107 -0.3385  0.7103  0.3216
  829MPD2    H712254   2.727   2.272  11.009  1.9564  1.4582  0.7551
  830MPD2     C12255   3.994   0.524  15.555 -0.0854 -1.0728 -0.0573
  830MPD2    C112256   3.866   0.536  15.509 -0.5150  0.4767  0.4131
  830MPD2    C212257   3.829   0.660  15.451 -0.0733 -0.2108 -0.7756
  830MPD2    C312258   3.918   0.763  15.432 -0.4605 -0.1314 -0.4981
  830MPD2    C412259   4.049   0.749  15.474  0.5403  0.4835 -0.4921
  830MPD2    C512260   4.083   0.626  15.533 -0.1682  0.1997  0.0592
  830MPD2     H12261   3.726   0.667  15.417 -1.0257 -1.2850  1.9070
  830MPD2    H112262   4.131   0.819  15.463  0.7696  0.5021  1.3916
  830MPD2    H212263   4.033   0.441  15.613 -0.1960  0.3885  2.1117
  830MPD2    H312264   4.179   0.602  15.578 -0.1541 -2.0901 -1.1801
  830MPD2     N12265   3.887   0.890  15.383 -0.2323  0.1090  0.1545
  830MPD2    H512266   3.956   0.964  15.389 -0.2978  0.1910 -0.0698
  830MPD2    N112267   3.784   0.422  15.522  0.1154  0.0619 -0.0390
  830MPD2    H712268   3.826   0.338  15.559  1.4757  1.1882  0.9635
  831MPD2     C12269   3.436   2.340  16.298 -0.4206  0.0108 -0.2626
  831MPD2    C112270   3.511   2.248  16.223 -0.2591 -0.0466  0.2230
  831MPD2    C212271   3.478   2.111  16.238  0.7103 -0.2097  0.0860
  831MPD2    C312272   3.367   2.076  16.317  0.8042 -0.3656  0.5781
  831MPD2    C412273   3.307   2.161  16.408 -0.1949  0.8937  0.0897
  831MPD2    C512274   3.346   2.300  16.400  0.4576 -0.5953  0.0047
  831MPD2     H12275   3.523   2.040  16.170  1.0292  0.2462 -0.1770
  831MPD2    H112276   3.221   2.130  16.466 -0.9123  1.4925 -0.6539
  831MPD2    H212277   3.443   2.446  16.273 -0.0698 -0.2769 -1.3806
  831MPD2    H312278   3.277   2.364  16.454  0.1856 -1.0446  0.1905
  831MPD2     N12279   3.292   1.957  16.289  0.6267  0.1918  0.0379
  831MPD2    H512280   3.196   1.965  16.321  0.7530  0.1030  0.4311
  831MPD2    N112281   3.614   2.288  16.138 -0.5571 -0.2039 -0.3424
  831MPD2    H712282   3.619   2.379  16.094 -0.4842 -0.3553 -0.6464
  832MPD2     C12283   1.713   2.465  17.073  0.3034 -0.1755  0.0870
  832MPD2    C112284   1.765   2.526  16.963  0.3947 -0.2011  0.4298
  832MPD2    C212285   1.684   2.605  16.880 -0.2784  0.1895 -0.4975
  832MPD2    C312286   1.554   2.632  16.917  0.3329  0.4197 -0.3947
  832MPD2    C412287   1.512   2.579  17.035  0.0486 -0.2007  0.1370
  832MPD2    C512288   1.588   2.498  17.117  0.3109 -0.0257 -0.1041
  832MPD2     H12289   1.731   2.681  16.819 -1.2713  0.5959 -0.7649
  832MPD2    H112290   1.412   2.604  17.069 -0.4169 -2.0255  0.0993
  832MPD2    H212291   1.768   2.385  17.120  2.7809  1.6215  0.2070
  832MPD2    H312292   1.540   2.446  17.198 -0.2616 -0.1868 -0.5473
  832MPD2     N12293   1.463   2.720  16.853 -0.0698  0.7147 -0.1126
  832MPD2    H512294   1.377   2.734  16.904 -0.2848 -1.0673  0.0280
  832MPD2    N112295   1.899   2.497  16.936 -0.0780 -0.0470  0.1567
  832MPD2    H712296   1.946   2.426  16.991 -0.9708 -1.3744 -0.7913
  833MPD2     C12297   4.344   0.460  12.567 -0.3824  0.0847  0.3903
  833MPD2    C112298   4.217   0.398  12.565  0.1364  0.1638  0.7905
  833MPD2    C212299   4.213   0.261  12.534  0.1952 -0.4221 -0.2465
  833MPD2    C312300   4.321   0.200  12.466  0.2746  0.2669  0.1727
  833MPD2    C412301   4.440   0.266  12.468  0.1927 -0.0732  0.8142
  833MPD2    C512302   4.455   0.389  12.525  0.0018 -0.0336  0.1902
  833MPD2     H12303   4.121   0.205  12.534  1.3802 -2.3850 -1.8663
  833MPD2    H112304   4.519   0.215  12.415 -0.7803 -0.9670  0.2328
  833MPD2    H212305   4.355   0.562  12.602  1.7035 -0.4129  1.1625
  833MPD2    H312306   4.558   0.424  12.526 -0.3137  0.8706  1.6043
  833MPD2     N12307   4.322   0.087  12.384  0.0681  0.2740  0.3866
  833MPD2    H512308   4.405   0.061  12.331  0.5096 -1.3963  1.9035
  833MPD2    N112309   4.103   0.473  12.578 -0.1953  0.0709  0.3334
  833MPD2    H712310   4.012   0.427  12.569 -0.1643  0.3397 -1.3485
  834MPD2     C12311   3.668   4.145  11.831  0.6422  0.2631  0.0740
  834MPD2    C112312   3.715   4.228  11.727 -0.3388 -0.3306  0.2587
  834MPD2    C212313   3.803   4.334  11.761 -0.3618 -0.1287 -0.7864
  834MPD2    C312314   3.831   4.355  11.892  0.7102  0.0292  0.2461
  834MPD2    C412315   3.780   4.275  11.990 -0.3056  0.3893  0.7538
  834MPD2    C512316   3.699   4.177  11.958  0.4611 -0.2926 -0.5004
  834MPD2     H12317   3.846   4.400  11.687 -0.3844 -1.9836 -2.4368
  834MPD2    H112318   3.800   4.287  12.096  4.8872 -1.3327 -0.0371
  834MPD2    H212319   3.601   4.061  11.819  0.4296  0.3634  0.5771
  834MPD2    H312320   3.661   4.114  12.038 -0.5049  0.5730 -0.2775
  834MPD2     N12321   3.921   4.457  11.933 -0.7506 -0.0777  0.1366
  834MPD2    H512322   3.951   4.521  11.861 -0.8524 -1.3504 -1.0335
  834MPD2    N112323   3.687   4.198  11.593 -0.6136  0.3031  0.8267
  834MPD2    H712324   3.638   4.111  11.575  0.6744 -0.1802 -0.2859
  835MPD2     C12325   4.156   2.406  10.952 -0.0148  0.1970 -0.2182
  835MPD2    C112326   4.066   2.481  11.030  0.1956  0.0475  0.0287
  835MPD2    C212327   4.113   2.536  11.147  0.1062 -0.4992 -0.0546
  835MPD2    C312328   4.248   2.525  11.184  0.1886  0.3145  0.1160
  835MPD2    C412329   4.332   2.453  11.101  0.4076 -0.1626  0.4391
  835MPD2    C512330   4.285   2.393  10.988 -0.5451 -0.5484 -0.1328
  835MPD2     H12331   4.036   2.595  11.196  2.3967  2.6486 -0.2827
  835MPD2    H112332   4.437   2.434  11.124  0.1072  0.1756  2.0823
  835MPD2    H212333   4.131   2.353  10.861 -0.6256  1.6592 -0.9130
  835MPD2    H312334   4.353   2.328  10.934  0.3161 -0.9125  1.3848
  835MPD2     N12335   4.300   2.580  11.303 -0.6675 -0.8035 -0.5090
  835MPD2    H512336   4.400   2.570  11.315 -0.3353  0.6556 -1.9904
  835MPD2    N112337   3.934   2.501  10.995  0.1442 -0.6021  0.2685
  835MPD2    H712338   3.882   2.571  11.047 -3.2334 -0.6946 -2.9636
  836MPD2     C12339   3.938   2.247  11.997 -0.2083 -0.9563 -0.3960
  836MPD2    C112340   3.979   2.378  11.982 -1.3637 -0.1450  0.3585
  836MPD2    C212341   3.918   2.471  12.072 -0.5563 -0.3062  0.2959
  836MPD2    C312342   3.827   2.425  12.173 -1.0284 -0.4511  0.1779
  836MPD2    C412343   3.793   2.288  12.186 -0.5546 -0.0654 -0.9609
  836MPD2    C512344   3.846   2.202  12.095  0.4613 -0.3438  0.2293
  836MPD2     H12345   3.946   2.575  12.074  1.8992 -0.9434 -0.6025
  836MPD2    H112346   3.739   2.252  12.272  1.9430  0.8689  0.9963
  836MPD2    H212347   3.978   2.171  11.930 -0.0090 -1.4616  0.3009
  836MPD2    H312348   3.834   2.094  12.105  1.6871 -0.3586  1.5351
  836MPD2     N12349   3.773   2.521  12.263 -0.0663 -0.3505 -0.7552
  836MPD2    H512350   3.708   2.484  12.331  1.5167  0.5651  1.2552
  836MPD2    N112351   4.062   2.414  11.873 -0.4129 -0.3806 -0.1000
  836MPD2    H712352   4.104   2.335  11.825  0.0641 -0.5608  0.6202
  837MPD2     C12353   1.696   1.770  10.075 -0.6277 -0.1267 -0.1993
  837MPD2    C112354   1.620   1.776   9.955 -0.0177  0.0466  0.2722
  837MPD2    C212355   1.604   1.899   9.895  0.2615  0.2042  0.0555
  837MPD2    C312356   1.642   2.015   9.965  0.0043 -0.9862  0.8751
  837MPD2    C412357   1.722   2.003  10.080  0.3212  0.0937 -0.7258
  837MPD2    C512358   1.752   1.883  10.136 -0.3732 -0.0173 -0.3324
  837MPD2     H12359   1.547   1.909   9.804 -0.2376 -0.0969  0.3371
  837MPD2    H112360   1.754   2.092  10.133 -2.9991 -0.9848  3.0866
  837MPD2    H212361   1.677   1.681  10.135 -1.5492 -0.6525 -1.2779
  837MPD2    H312362   1.806   1.884  10.230 -0.0754 -1.4509 -0.4791
  837MPD2     N12363   1.595   2.139   9.914  0.1761 -0.1649  0.9096
  837MPD2    H512364   1.541   2.126   9.829 -0.9250  2.2837  1.2072
  837MPD2    N112365   1.545   1.670   9.899  0.1089 -0.1635 -0.0007
  837MPD2    H712366   1.521   1.688   9.802 -4.8725 -0.3076  1.1757
  838MPD2     C12367   0.842   0.490  11.808  0.7390 -0.2955  0.0815
  838MPD2    C112368   0.754   0.390  11.836 -0.1165  0.7875 -0.5011
  838MPD2    C212369   0.714   0.386  11.967  0.3580  0.3012 -0.4523
  838MPD2    C312370   0.734   0.481  12.058  0.0879 -0.0655  0.5326
  838MPD2    C412371   0.803   0.593  12.028 -0.1445  0.1888  0.2558
  838MPD2    C512372   0.861   0.595  11.902  0.0412 -0.7559  0.6603
  838MPD2     H12373   0.643   0.309  11.993 -0.2980 -0.4512 -4.3678
  838MPD2    H112374   0.817   0.672  12.100 -2.0074  1.2504 -0.5480
  838MPD2    H212375   0.875   0.514  11.708  1.2901  0.9468  0.5472
  838MPD2    H312376   0.927   0.676  11.874  1.2256 -2.5971 -1.8801
  838MPD2     N12377   0.658   0.472  12.176 -0.6042  0.8071 -0.4203
  838MPD2    H512378   0.611   0.383  12.188 -0.6457  0.7808 -0.8042
  838MPD2    N112379   0.693   0.287  11.750 -0.0592 -0.0727 -0.0075
  838MPD2    H712380   0.650   0.207  11.794 -0.3203  0.0604 -0.0228
  839MPD2     C12381   0.032   0.000  11.996  0.0020 -0.1949 -0.6979
  839MPD2    C112382   0.067   4.621  11.923 -0.5255  0.2298 -0.3725
  839MPD2    C212383   0.138   4.639  11.809  0.0545 -0.2780  0.1248
  839MPD2    C312384   0.174   0.028  11.768  0.3333  0.1532  1.0256
  839MPD2    C412385   0.125   0.144  11.834 -0.4913  0.4393  0.5221
  839MPD2    C512386   0.056   0.120  11.949  0.5436  0.9071 -0.4333
  839MPD2     H12387   0.161   4.557  11.743 -0.4086  0.1701 -0.5851
  839MPD2    H112388   0.143   0.248  11.812 -3.5441  1.3494  2.2167
  839MPD2    H212389   4.708   4.725  12.086  0.6605  2.1912  0.0164
  839MPD2    H312390   0.020   0.206  12.004 -0.2854 -0.0331  0.4906
  839MPD2     N12391   0.251   0.063  11.650 -0.0097 -0.6129 -0.3863
  839MPD2    H512392   0.269   0.162  11.638 -4.1832 -0.1060 -2.6269
  839MPD2    N112393   0.025   4.490  11.955 -0.1856  0.4880 -0.6420
  839MPD2    H712394   0.038   4.420  11.883 -0.1868  0.2199 -0.3841
  840MPD2     C12395   0.364   3.160  10.261  0.3103 -0.4703 -0.5260
  840MPD2    C112396   0.353   3.131  10.395 -0.1802  0.2782  0.0021
  840MPD2    C212397   0.436   3.193  10.483 -0.6049  0.8485  0.4522
  840MPD2    C312398   0.529   3.295  10.446 -0.1687 -0.0238  0.3823
  840MPD2    C412399   0.535   3.321  10.312 -0.2562  0.8358  0.3760
  840MPD2    C512400   0.454   3.255  10.223  1.1702  0.4673  0.2633
  840MPD2     H12401   0.434   3.157  10.586  0.2844  0.3959  0.3096
  840MPD2    H112402   0.612   3.390  10.279 -1.0442  1.0469 -0.9719
  840MPD2    H212403   0.304   3.125  10.178 -3.0303 -0.9722  2.1214
  840MPD2    H312404   0.468   3.285  10.120  1.0826 -0.4270 -0.0098
  840MPD2     N12405   0.620   3.360  10.539  0.9517 -0.3226  0.3150
  840MPD2    H512406   0.691   3.424  10.506  1.1698  0.0266  1.4694
  840MPD2    N112407   0.273   3.019  10.425 -0.1645  0.4788 -0.1137
  840MPD2    H712408   0.208   2.996  10.350  0.2186  0.5525 -0.4664
  841MPD2     C12409   4.715   2.481  14.665 -0.0720 -0.8131 -0.0775
  841MPD2    C112410   0.037   2.412  14.562 -0.4956 -0.3515 -0.2160
  841MPD2    C212411   0.145   2.465  14.490  0.1914  0.4712  0.4061
  841MPD2    C312412   0.204   2.580  14.536 -0.0850  0.1588 -0.3430
  841MPD2    C412413   0.136   2.659  14.624 -0.7585  0.1214  0.4028
  841MPD2    C512414   0.028   2.607  14.685 -0.3245  0.3544  0.5591
  841MPD2     H12415   0.200   2.401  14.421  0.1311 -0.5207  1.2740
  841MPD2    H112416   0.177   2.759  14.635 -0.4046  0.1689 -1.3796
  841MPD2    H212417   4.631   2.443  14.721 -0.4662  1.5996  0.9776
  841MPD2    H312418   4.709   2.674  14.750  0.2242  0.9654  0.3936
  841MPD2     N12419   0.330   2.614  14.489  0.5878  0.1554 -0.7414
  841MPD2    H512420   0.360   2.551  14.416 -2.1146  1.1122 -2.6726
  841MPD2    N112421   0.002   2.279  14.530  0.0529  0.0046 -0.3625
  841MPD2    H712422   0.043   2.238  14.446  3.3932 -1.0220  1.7458
  842MPD2     C12423   1.004   3.649  16.892  0.2700  0.4936 -0.3564
  842MPD2    C112424   0.890   3.611  16.828  0.2374  0.3737 -0.1423
  842MPD2    C212425   0.828   3.498  16.859 -0.1381  0.8875 -0.0849
  842MPD2    C312426   0.882   3.423  16.968  0.3159  0.2319  0.6047
  842MPD2    C412427   0.988   3.469  17.045 -0.3781  0.5920 -0.7686
  842MPD2    C512428   1.055   3.587  17.004 -0.6761 -0.2108  0.1778
  842MPD2     H12429   0.751   3.450  16.800  1.0240  1.1584 -1.8063
  842MPD2    H112430   1.019   3.433  17.142 -0.4498 -1.3087 -1.4547
  842MPD2    H212431   1.054   3.744  16.874  2.1550 -0.4083  0.1848
  842MPD2    H312432   1.132   3.636  17.063 -3.1324  0.6103  2.7189
  842MPD2     N12433   0.815   3.313  17.025  0.1998  0.0472 -0.3119
  842MPD2    H512434   0.850   3.282  17.115  0.1741 -0.0406 -0.3321
  842MPD2    N112435   0.848   3.701  16.727 -0.0057  0.0832  0.6061
  842MPD2    H712436   0.903   3.786  16.723 -1.2930  0.9287  0.7799
  843MPD2     C12437   3.243   3.121  17.463  0.1496  1.0417 -0.0524
  843MPD2    C112438   3.191   3.082  17.580  0.0462 -0.2584 -0.2859
  843MPD2    C212439   3.202   3.176  17.693 -0.5270 -0.3149 -0.5135
  843MPD2    C312440   3.237   3.308  17.670  0.2063  0.2844 -0.1616
  843MPD2    C412441   3.256   3.345  17.542  0.4914  1.0050 -0.3633
  843MPD2    C512442   3.273   3.255  17.442 -0.2157 -0.2508  0.3360
  843MPD2     H12443   3.175   3.138   0.051  1.3306  0.9499  0.4882
  843MPD2    H112444   3.275   3.450  17.524 -2.1696  1.0455 -3.0278
  843MPD2    H212445   3.249   3.052  17.379  1.3490  0.4219  0.5497
  843MPD2    H312446   3.304   3.284  17.342  0.1630  4.1384  1.7266
  843MPD2     N12447   3.242   3.407   0.027  0.4944 -0.0983 -0.6949
  843MPD2    H512448   3.266   3.500  17.731  0.5472 -0.0253 -0.4704
  843MPD2    N112449   3.149   2.951  17.596 -0.1724  0.3190 -0.1889
  843MPD2    H712450   3.167   2.886  17.519  2.1641 -0.9253  1.4019
  844MPD2     C12451   1.211   2.528  16.171  0.0848  0.2869 -0.5625
  844MPD2    C112452   1.223   2.388  16.177 -0.2059  0.5150  0.5757
  844MPD2    C212453   1.306   2.325  16.270 -0.1054 -0.3730  0.5213
  844MPD2    C312454   1.357   2.399  16.366  0.5316  0.7089 -0.3391
  844MPD2    C412455   1.330   2.537  16.377 -0.2559  0.1810  0.0954
  844MPD2    C512456   1.260   2.602  16.272  0.7688  0.3246 -0.4333
  844MPD2     H12457   1.338   2.222  16.274 -4.0800 -1.6026  0.7973
  844MPD2    H112458   1.377   2.601  16.450  0.1144  0.4588 -0.3850
  844MPD2    H212459   1.158   2.589  16.098  0.7227  0.0410 -1.2300
  844MPD2    H312460   1.239   2.708  16.268 -1.8556 -0.0854  2.3014
  844MPD2     N12461   1.454   2.339  16.455  0.0421 -0.3215  0.7547
  844MPD2    H512462   1.505   2.256  16.428  0.0086 -0.8829  2.4642
  844MPD2    N112463   1.167   2.300  16.080  0.0410 -0.4504 -0.0944
  844MPD2    H712464   1.161   2.201  16.098 -0.4683 -0.5481 -0.8345
  845MPD2     C12465   2.291   2.605  16.365  0.0797  0.4106  0.6646
  845MPD2    C112466   2.184   2.668  16.430  1.5770  0.1091 -0.1757
  845MPD2    C212467   2.073   2.594  16.464 -0.1131  0.0241 -0.3081
  845MPD2    C312468   2.062   2.461  16.433  0.0115  0.0375  0.0990
  845MPD2    C412469   2.158   2.398  16.356 -0.1117 -0.0622  0.0287
  845MPD2    C512470   2.270   2.477  16.325 -1.2051 -1.3700  0.3638
  845MPD2     H12471   1.983   2.643  16.498 -0.2710  0.5175 -1.4531
  845MPD2    H112472   2.142   2.301  16.310 -0.4327 -0.1656  0.3582
  845MPD2    H212473   2.382   2.661  16.345  1.3545 -1.8325  0.2844
  845MPD2    H312474   2.350   2.424  16.275  0.4461  2.4061 -0.9880
  845MPD2     N12475   1.947   2.395  16.466  0.2144  0.0636  0.4792
  845MPD2    H512476   1.871   2.445  16.511  2.2636  1.4526  2.4001
  845MPD2    N112477   2.193   2.802  16.469  0.7597 -0.0796  0.1017
  845MPD2    H712478   2.278   2.852  16.445  0.0137  1.7828  1.3527
  846MPD2     C12479   3.411   4.589  13.466  0.5395  0.1293 -0.0194
  846MPD2    C112480   3.368   4.457  13.441 -0.7111  0.5340  0.5448
  846MPD2    C212481   3.348   4.372  13.545 -0.4928 -0.0834 -0.0210
  846MPD2    C312482   3.369   4.409  13.675  0.3131  0.4392 -0.2457
  846MPD2    C412483   3.407   4.543  13.697  0.1269  0.1829  0.0039
  846MPD2    C512484   3.438   4.631  13.594 -0.2668  0.2410 -0.3637
  846MPD2     H12485   3.323   4.271  13.517 -1.4511 -0.3487  1.7833
  846MPD2    H112486   3.408   4.582  13.799 -0.4313 -1.7883  0.7553
  846MPD2    H212487   3.425   4.664  13.389 -2.4306  0.4879 -0.2124
  846MPD2    H312488   3.469   4.733  13.612 -0.5390  0.4266 -0.9633
  846MPD2     N12489   3.341   4.321  13.775  0.0969  0.6639 -0.3882
  846MPD2    H512490   3.306   4.228  13.753  1.2158  0.9500 -3.3661
  846MPD2    N112491   3.350   4.398  13.316  0.6070  0.3468 -0.1817
  846MPD2    H712492   3.356   4.297  13.312  2.6502  0.4680 -0.1981
  847MPD2     C12493   3.120   0.672  15.062 -0.1341  0.9977 -0.3579
  847MPD2    C112494   3.149   0.774  14.973 -0.3209  0.1836  0.1582
  847MPD2    C212495   3.271   0.768  14.910 -0.5107  0.3503  0.1918
  847MPD2    C312496   3.373   0.688  14.965 -0.6592  0.6567  0.0142
  847MPD2    C412497   3.347   0.585  15.050  0.8881 -0.9112 -0.3155
  847MPD2    C512498   3.217   0.579  15.093 -0.3217 -0.1539 -0.0285
  847MPD2     H12499   3.288   0.854  14.846 -0.7899  0.3718  0.1463
  847MPD2    H112500   3.421   0.516  15.089 -1.0809 -0.3576  4.4321
  847MPD2    H212501   3.029   0.683  15.120  0.5791 -0.0160  0.9507
  847MPD2    H312502   3.198   0.497  15.161  1.2340  0.8921  1.6659
  847MPD2     N12503   3.516   0.703  14.935 -0.1554 -0.0034  0.2360
  847MPD2    H512504   3.582   0.639  14.978 -2.2564 -0.9415  2.0806
  847MPD2    N112505   3.068   0.891  14.952 -0.4060  0.1921  0.4224
  847MPD2    H712506   3.108   0.951  14.880  1.0176  0.3688  1.3548
  848MPD2     C12507   1.225   3.158  16.158 -0.4910  0.2567  0.5565
  848MPD2    C112508   1.301   3.172  16.276  1.1406 -0.3440 -0.0392
  848MPD2    C212509   1.381   3.283  16.297  0.3360 -0.1495  0.2125
  848MPD2    C312510   1.385   3.377  16.198  0.1548  0.3502 -0.7322
  848MPD2    C412511   1.311   3.363  16.084  0.3457  1.0084  0.7041
  848MPD2    C512512   1.225   3.260  16.067  0.3105  0.6894 -0.1265
  848MPD2     H12513   1.446   3.287  16.383  0.7053 -0.8422 -0.0359
  848MPD2    H112514   1.319   3.433  16.001  1.6523 -0.1526 -0.1455
  848MPD2    H212515   1.151   3.082  16.135 -0.9890  1.0273 -0.4078
  848MPD2    H312516   1.182   3.248  15.969  2.8964  0.4903 -1.2348
  848MPD2     N12517   1.477   3.489  16.195  0.4327  0.8893  0.1663
  848MPD2    H512518   1.482   3.547  16.112 -1.7040  2.5254  1.1617
  848MPD2    N112519   1.297   3.071  16.372 -0.0669  0.0448 -0.0695
  848MPD2    H712520   1.370   3.071  16.442 -1.5019 -0.0023  1.4274
  849MPD2     C12521   0.465   3.176  14.590 -0.3463  0.7155 -0.1619
  849MPD2    C112522   0.518   3.295  14.548  0.2340 -0.2607  0.6749
  849MPD2    C212523   0.634   3.341  14.607  0.2441  0.2490  0.4005
  849MPD2    C312524   0.703   3.276  14.704  0.2562  0.3369  0.3198
  849MPD2    C412525   0.648   3.160  14.751 -0.3749 -0.1455  0.1396
  849MPD2    C512526   0.538   3.111  14.685  0.5008  0.1932  0.1951
  849MPD2     H12527   0.681   3.431  14.571 -2.0478  1.4703  0.4835
  849MPD2    H112528   0.690   3.112  14.839  0.6417 -2.7946 -1.8072
  849MPD2    H212529   0.375   3.127  14.555  0.8626 -0.8853 -1.0187
  849MPD2    H312530   0.513   3.011  14.718  0.9437  0.4155  1.2240
  849MPD2     N12531   0.836   3.302  14.746  0.2630  0.0406  0.2515
  849MPD2    H512532   0.869   3.232  14.812 -0.4020 -1.1042 -0.6136
  849MPD2    N112533   0.453   3.374  14.446 -0.2287  0.2463 -0.1987
  849MPD2    H712534   0.507   3.454  14.416 -1.0020  0.3993 -1.2085
  850MPD2     C12535   3.098   1.705  14.874  0.3181  0.8146 -0.2647
  850MPD2    C112536   3.164   1.767  14.977 -0.6046  0.6140  0.1470
  850MPD2    C212537   3.303   1.751  14.986  0.0052 -0.4623 -0.0209
  850MPD2    C312538   3.374   1.670  14.910  0.0025  0.2678  0.4114
  850MPD2    C412539   3.307   1.594  14.813 -0.2457 -0.0343 -0.3480
  850MPD2    C512540   3.171   1.613  14.796  0.4870  0.1372  0.5413
  850MPD2     H12541   3.356   1.808  15.062 -2.9649  1.3645  0.7021
  850MPD2    H112542   3.372   1.538  14.747 -0.6163 -2.0582  0.9951
  850MPD2    H212543   2.996   1.725  14.846 -0.6445 -0.6427  2.1496
  850MPD2    H312544   3.129   1.562  14.711  0.2515 -0.1241  0.8149
  850MPD2     N12545   3.519   1.668  14.914  0.5700  0.2628 -0.4899
  850MPD2    H512546   3.576   1.612  14.851  0.2829 -1.1465  0.4935
  850MPD2    N112547   3.105   1.851  15.070 -0.4181 -0.7115  0.0459
  850MPD2    H712548   3.167   1.879  15.145 -0.6309 -0.7591  0.2362
  851MPD2     C12549   3.596   1.814  15.430 -0.5393 -0.0282 -0.2072
  851MPD2    C112550   3.485   1.738  15.443 -0.4178 -0.2170 -0.0596
  851MPD2    C212551   3.501   1.603  15.466 -0.5569 -0.2962  0.1210
  851MPD2    C312552   3.629   1.552  15.481 -0.3149 -0.1727  0.0089
  851MPD2    C412553   3.735   1.632  15.476  0.0573 -0.5084 -0.6255
  851MPD2    C512554   3.723   1.760  15.444 -0.1414  0.4449  0.4291
  851MPD2     H12555   3.417   1.535  15.476  0.7623 -1.6629  1.8836
  851MPD2    H112556   3.837   1.600  15.491  0.8789  2.0235 -0.7106
  851MPD2    H212557   3.587   1.921  15.413  0.2574  0.0113 -0.3895
  851MPD2    H312558   3.802   1.834  15.441  0.4545 -0.2422 -1.1683
  851MPD2     N12559   3.644   1.414  15.508 -0.1895 -0.3328 -0.0390
  851MPD2    H512560   3.557   1.362  15.509  0.7757 -1.8833  2.8527
  851MPD2    N112561   3.359   1.810  15.430  0.1042 -0.0207  0.2087
  851MPD2    H712562   3.357   1.902  15.388 -1.1656 -1.2627 -2.4436
  852MPD2     C12563   1.832   0.248   9.598  0.2571 -0.0910 -0.6177
  852MPD2    C112564   1.938   0.238   9.512 -0.8270 -0.0912 -0.0284
  852MPD2    C212565   2.031   0.336   9.520  0.4775  0.5281 -0.2563
  852MPD2    C312566   2.026   0.440   9.613 -0.5150  0.1753  0.0970
  852MPD2    C412567   1.918   0.452   9.692  0.4874 -0.6281  0.6078
  852MPD2    C512568   1.820   0.356   9.678 -0.1711 -0.4064  0.3869
  852MPD2     H12569   2.120   0.319   9.460  0.7099  0.4322  0.1191
  852MPD2    H112570   1.902   0.545   9.745 -0.8139 -0.9411  0.7524
  852MPD2    H212571   1.752   0.175   9.601  0.3305 -0.1881 -0.9885
  852MPD2    H312572   1.726   0.374   9.729 -0.4428  1.5950 -0.8145
  852MPD2     N12573   2.140   0.528   9.616  0.1039  0.1535 -0.3020
  852MPD2    H512574   2.218   0.502   9.557 -0.0714 -0.2836 -0.3381
  852MPD2    N112575   1.958   0.131   9.419  0.2831  0.6038  0.8330
  852MPD2    H712576   2.046   0.147   9.371 -0.4180  0.8528 -0.3730
  853MPD2     C12577   4.611   3.226  12.695  0.1573  0.3029 -0.9251
  853MPD2    C112578   4.565   3.347  12.646 -0.4822  0.4595  0.0057
  853MPD2    C212579   4.497   3.350  12.527 -0.4650 -0.2335  0.0428
  853MPD2    C312580   4.453   3.241  12.460 -0.1993  0.3907  0.1860
  853MPD2    C412581   4.482   3.115  12.518 -0.8803 -0.1024  0.0493
  853MPD2    C512582   4.566   3.115  12.627 -0.4528 -0.3463  0.2743
  853MPD2     H12583   4.474   3.449  12.488 -3.9538 -1.5155 -1.2314
  853MPD2    H112584   4.452   3.018  12.480  0.5840 -0.1721 -0.9483
  853MPD2    H212585   4.662   3.217  12.790 -1.1594 -1.5898 -0.3956
  853MPD2    H312586   4.609   3.021  12.660  0.4519  0.4477  1.3479
  853MPD2     N12587   4.388   3.237  12.338 -0.5554  0.8357 -0.5642
  853MPD2    H512588   4.387   3.152  12.283 -1.9771  0.1420  0.5420
  853MPD2    N112589   4.599   3.457  12.727 -0.0921 -0.0626 -0.0112
  853MPD2    H712590   4.638   3.440  12.819  0.9659  0.6574 -0.3194
  854MPD2     C12591   1.584   3.938  12.991 -0.6926 -0.3965 -0.3707
  854MPD2    C112592   1.695   4.014  12.975 -0.0544  0.5075 -0.4075
  854MPD2    C212593   1.819   3.971  13.006 -0.4299 -0.7586  0.0536
  854MPD2    C312594   1.836   3.840  13.039  0.1397 -0.0672 -0.4397
  854MPD2    C412595   1.725   3.763  13.068 -0.1568 -0.3278  0.9495
  854MPD2    C512596   1.599   3.812  13.036  0.5795 -0.5098 -0.3200
  854MPD2     H12597   1.904   4.039  13.011 -1.1485  0.2193 -0.8921
  854MPD2    H112598   1.735   3.660  13.099 -0.0049 -0.3476  0.8343
  854MPD2    H212599   1.483   3.975  12.977 -0.0883  1.2657 -0.4151
  854MPD2    H312600   1.506   3.762  13.057 -0.4843  1.6083  0.0248
  854MPD2     N12601   1.966   3.787  13.074  0.2668 -0.2590 -0.3347
  854MPD2    H512602   1.964   3.704  13.132  0.6672 -0.4114 -0.5423
  854MPD2    N112603   1.678   4.145  12.949  0.2995 -0.3102 -0.1404
  854MPD2    H712604   1.753   4.214  12.947 -2.5300  2.8515  2.1297
  855MPD2     C12605   2.056   3.150  13.598  0.1607 -0.0680  0.1267
  855MPD2    C112606   2.192   3.158  13.573 -0.0774 -0.7482  0.0527
  855MPD2    C212607   2.231   3.266  13.494  0.2828 -0.3921  0.1389
  855MPD2    C312608   2.145   3.337  13.417  0.4709 -0.6363 -0.2176
  855MPD2    C412609   2.011   3.306  13.414 -0.0928  0.7351 -0.4063
  855MPD2    C512610   1.974   3.221  13.513  0.7227 -0.7068  0.0312
  855MPD2     H12611   2.337   3.287  13.481  0.6107 -1.9630  0.3783
  855MPD2    H112612   1.936   3.361  13.358 -2.0239 -0.1673  1.2847
  855MPD2    H212613   2.013   3.082  13.670  2.3042 -0.2768  1.2061
  855MPD2    H312614   1.869   3.194  13.524  0.2060  0.5826 -1.7034
  855MPD2     N12615   2.185   3.450  13.331 -0.6666 -0.6528 -0.6911
  855MPD2    H512616   2.114   3.493  13.272 -0.1148  0.2901 -0.6727
  855MPD2    N112617   2.283   3.089  13.651  0.4483  0.7395  0.4359
  855MPD2    H712618   2.380   3.120  13.646 -0.2645  2.8484 -0.3398
  856MPD2     C12619   0.161   3.982  13.736 -0.0271 -0.3381  0.2620
  856MPD2    C112620   0.167   4.112  13.691 -0.5239 -0.1943 -0.5452
  856MPD2    C212621   0.057   4.169  13.640 -0.1761 -0.5424 -0.3942
  856MPD2    C312622   4.671   4.113  13.630 -0.6232 -0.0625  0.1652
  856MPD2    C412623   4.662   3.986  13.672 -0.9539 -0.5270  0.3115
  856MPD2    C512624   0.044   3.921  13.721  0.3912  0.5191  1.9707
  856MPD2     H12625   0.070   4.271  13.604  2.1199 -1.1238 -1.2035
  856MPD2    H112626   4.571   3.929  13.652  0.2143 -1.7062 -1.6640
  856MPD2    H212627   0.234   3.932  13.799 -2.2704 -2.7900  0.9231
  856MPD2    H312628   0.032   3.818  13.751  1.6229  0.0022  0.7133
  856MPD2     N12629   4.565   4.169  13.558  0.8524 -0.2307 -0.7495
  856MPD2    H512630   4.485   4.108  13.545 -0.5776  1.0748  1.8133
  856MPD2    N112631   0.273   4.197  13.691 -0.1810 -0.5778 -0.0256
  856MPD2    H712632   0.257   4.289  13.651  2.8402  0.2917  0.7449
  857MPD2     C12633   1.047   2.336  12.385  0.4165  0.6773 -0.4505
  857MPD2    C112634   1.138   2.298  12.483 -0.1705  0.1047  0.4126
  857MPD2    C212635   1.206   2.396  12.560 -0.3931 -1.2356  0.4782
  857MPD2    C312636   1.189   2.532  12.534 -0.6110  0.3826 -0.3574
  857MPD2    C412637   1.089   2.568  12.446 -0.3779  0.4454 -0.4743
  857MPD2    C512638   1.024   2.472  12.378  0.3718 -1.1030  0.3585
  857MPD2     H12639   1.267   2.362  12.643 -1.0851  2.9611  2.6746
  857MPD2    H112640   1.073   2.674  12.429  1.3339  0.6801 -0.6755
  857MPD2    H212641   0.991   2.266  12.323  1.4580 -0.8156  0.2956
  857MPD2    H312642   0.946   2.497  12.307 -0.4873  1.4066  2.1838
  857MPD2     N12643   1.243   2.626  12.627  0.2694 -0.5608 -0.7287
  857MPD2    H512644   1.285   2.588  12.711  0.3943  2.7820  0.7472
  857MPD2    N112645   1.156   2.160  12.505 -0.3043  0.6294  0.3286
  857MPD2    H712646   1.093   2.094  12.460  1.3979  0.2577 -1.4829
  858MPD2     C12647   2.059   0.698  16.578 -0.1289 -0.0353 -0.4160
  858MPD2    C112648   2.056   0.577  16.646  0.5438 -0.3255 -0.3415
  858MPD2    C212649   2.021   0.578  16.785  0.3715  0.1660 -0.4093
  858MPD2    C312650   2.003   0.700  16.847  0.0337  0.0706  0.2513
  858MPD2    C412651   2.001   0.815  16.777 -0.2053 -0.0015  0.1411
  858MPD2    C512652   2.027   0.809  16.645 -0.0875  0.2692 -0.2765
  858MPD2     H12653   2.031   0.490  16.848 -2.5543  1.0091  1.2244
  858MPD2    H112654   1.975   0.911  16.820  0.4408  0.3774 -0.3118
  858MPD2    H212655   2.084   0.704  16.473 -0.7856 -2.8112 -0.7326
  858MPD2    H312656   2.026   0.903  16.591 -1.6588  0.6414  0.4123
  858MPD2     N12657   1.975   0.710  16.991 -0.1218  0.2282 -0.3263
  858MPD2    H512658   1.962   0.803  17.031 -1.2527 -0.1150  0.1319
  858MPD2    N112659   2.104   0.457  16.604  0.2668 -0.2909  0.5354
  858MPD2    H712660   2.102   0.379  16.670  1.8663  0.4459  1.4488
  859MPD2     C12661   0.684   3.322  15.442  0.3690  0.0669 -0.6535
  859MPD2    C112662   0.668   3.313  15.303 -0.3125  0.3474  0.2206
  859MPD2    C212663   0.583   3.217  15.239  0.8235 -0.2542  0.7519
  859MPD2    C312664   0.513   3.123  15.318 -0.5578  0.0706  0.4922
  859MPD2    C412665   0.526   3.137  15.455 -0.0932  0.6988 -0.2601
  859MPD2    C512666   0.611   3.230  15.510  0.5403 -0.2262  0.2458
  859MPD2     H12667   0.567   3.222  15.131  1.3261 -0.5679  0.6665
  859MPD2    H112668   0.485   3.065  15.525  1.6507 -0.0644  0.0064
  859MPD2    H212669   0.752   3.386  15.497 -0.6772  1.7535 -1.3410
  859MPD2    H312670   0.617   3.239  15.618  2.3666 -0.6238  0.1766
  859MPD2     N12671   0.432   3.017  15.259  0.1304 -0.1812  0.1787
  859MPD2    H512672   0.407   2.948  15.329 -1.8128 -0.2848 -0.6254
  859MPD2    N112673   0.741   3.407  15.234  0.2975 -0.2603  0.0781
  859MPD2    H712674   0.811   3.448  15.294 -0.0213  2.3480 -1.3397
  860MPD2     C12675   3.088   3.616  11.550 -0.1297 -0.5681 -0.4471
  860MPD2    C112676   3.098   3.612  11.685  0.4912 -0.4788  0.7817
  860MPD2    C212677   2.991   3.646  11.760 -0.0164  0.4044 -0.1605
  860MPD2    C312678   2.885   3.709  11.709  0.3489  0.5868 -0.1783
  860MPD2    C412679   2.869   3.718  11.572  0.0196  0.5902 -0.0163
  860MPD2    C512680   2.975   3.675  11.495  0.1277 -0.0605  0.7312
  860MPD2     H12681   2.997   3.628  11.866 -0.5070  1.2397  0.0079
  860MPD2    H112682   2.776   3.746  11.526 -0.6451  0.1970  1.0897
  860MPD2    H212683   3.159   3.561  11.489 -0.3360 -0.8373 -0.4462
  860MPD2    H312684   2.961   3.664  11.388  1.2172 -1.5068  0.7307
  860MPD2     N12685   2.792   3.757  11.800  0.1769 -0.0718 -0.3451
  860MPD2    H512686   2.815   3.740  11.897  1.9102  1.7322 -0.4315
  860MPD2    N112687   3.214   3.567  11.753 -0.5258 -0.0433  0.6189
  860MPD2    H712688   3.213   3.569  11.855 -0.4891 -1.2395  0.6402
  861MPD2     C12689   1.534   1.652  11.088  0.6201  0.0179 -0.9334
  861MPD2    C112690   1.595   1.780  11.080 -0.6331  0.1800  0.6403
  861MPD2    C212691   1.538   1.872  10.999 -0.3575  0.3435  0.8741
  861MPD2    C312692   1.431   1.837  10.922  0.2488 -0.7291  0.2539
  861MPD2    C412693   1.376   1.712  10.924  0.6261  0.3213  0.0791
  861MPD2    C512694   1.425   1.620  11.008  1.1208 -0.6365 -0.2185
  861MPD2     H12695   1.576   1.973  10.988 -0.0319 -0.0626 -1.9128
  861MPD2    H112696   1.295   1.680  10.859  0.7937  0.1935 -0.0691
  861MPD2    H212697   1.547   1.580  11.168  2.9687  2.2060  0.6339
  861MPD2    H312698   1.372   1.525  11.008  1.0192 -0.5867  1.9262
  861MPD2     N12699   1.363   1.923  10.832  0.2941  0.0163  0.1545
  861MPD2    H512700   1.281   1.877  10.792  0.0448  0.0070  0.6700
  861MPD2    N112701   1.693   1.818  11.174  0.1035  0.3717  0.2606
  861MPD2    H712702   1.725   1.914  11.187  1.1995  0.2287 -1.3828
  862MPD2     C12703   0.837   1.791  10.357  0.1495 -0.0693  0.2755
  862MPD2    C112704   0.961   1.763  10.409  0.3676  0.0401 -0.1680
  862MPD2    C212705   0.997   1.628  10.429 -0.3034  0.1585 -0.7154
  862MPD2    C312706   0.906   1.524  10.413  0.5654 -0.9481  0.2294
  862MPD2    C412707   0.786   1.555  10.363  0.8706 -0.1470 -0.4020
  862MPD2    C512708   0.749   1.686  10.336  0.0877  0.2312  0.2810
  862MPD2     H12709   1.092   1.616  10.479 -0.4296  0.6243 -0.3529
  862MPD2    H112710   0.712   1.478  10.343  0.1785  0.4703 -0.2415
  862MPD2    H212711   0.785   1.885  10.349  0.0631 -0.1932 -0.6561
  862MPD2    H312712   0.649   1.706  10.301  1.0104  3.2582 -0.7039
  862MPD2     N12713   0.927   1.397  10.456 -0.0025 -0.4323 -0.0237
  862MPD2    H512714   0.841   1.344  10.469 -0.5575  0.4331 -0.1929
  862MPD2    N112715   1.053   1.863  10.443  0.5955  0.5220  0.6236
  862MPD2    H712716   1.146   1.830  10.467  0.3570 -1.0199 -0.6352
  863MPD2     C12717   0.037   4.462  17.011 -0.0779 -0.2975 -0.5734
  863MPD2    C112718   0.159   4.517  16.972 -0.2563 -0.0680 -0.8265
  863MPD2    C212719   0.274   4.435  16.985 -0.8816  0.3997  0.6319
  863MPD2    C312720   0.281   4.314  17.042  0.0427 -0.4154 -0.8696
  863MPD2    C412721   0.158   4.264  17.077 -0.7335 -0.9546  0.5185
  863MPD2    C512722   0.043   4.339  17.071  0.1235  0.1809 -0.2872
  863MPD2     H12723   0.369   4.481  16.959 -0.0862 -0.1374  2.6171
  863MPD2    H112724   0.149   4.162  17.113 -0.6729 -1.0329  0.3139
  863MPD2    H212725   4.678   4.516  17.014 -1.3549 -2.5212 -0.9331
  863MPD2    H312726   4.684   4.295  17.103  0.9319 -2.4046 -1.4176
  863MPD2     N12727   0.401   4.251  17.074  0.4360 -0.7716  0.7169
  863MPD2    H512728   0.387   4.168  17.130 -2.7724  0.0585  1.1596
  863MPD2    N112729   0.168   4.641  16.908 -0.1242  0.0246 -0.3353
  863MPD2    H712730   0.260   4.668  16.874  0.0110  0.1084  0.1080
  864MPD2     C12731   0.379   0.992  17.165 -0.2232  0.5201  0.3797
  864MPD2    C112732   0.421   0.919  17.056 -0.0341 -0.0339 -0.4580
  864MPD2    C212733   0.512   0.993  16.981  0.5029  0.2379 -0.1285
  864MPD2    C312734   0.563   1.117  17.009  0.3797 -0.7894  0.0239
  864MPD2    C412735   0.509   1.185  17.114 -0.3693  0.0998  0.2383
  864MPD2    C512736   0.411   1.125  17.187  0.5327 -0.1889  0.2579
  864MPD2     H12737   0.541   0.955  16.884 -1.8404  0.6944 -1.0058
  864MPD2    H112738   0.540   1.286  17.138 -1.0117  0.2012  0.6734
  864MPD2    H212739   0.303   0.948  17.228  0.2420 -1.6107 -0.5539
  864MPD2    H312740   0.376   1.174  17.277 -0.1056  0.8558 -0.5552
  864MPD2     N12741   0.673   1.173  16.943  0.1493 -0.5444 -0.5253
  864MPD2    H512742   0.697   1.270  16.960  0.2394 -0.3393 -1.8554
  864MPD2    N112743   0.376   0.787  17.033 -0.4535  0.4589 -0.5843
  864MPD2    H712744   0.341   0.739  17.116  1.8598 -0.8889 -0.3819
  865MPD2     C12745   1.339   1.427  16.440  0.1879  0.5454 -0.0742
  865MPD2    C112746   1.251   1.335  16.493  0.3516  1.2237  0.1445
  865MPD2    C212747   1.135   1.386  16.561 -0.5148  0.3706  0.8175
  865MPD2    C312748   1.125   1.523  16.599 -0.2382 -0.0677  0.1674
  865MPD2    C412749   1.214   1.607  16.534  0.0670  0.2466 -0.1698
  865MPD2    C512750   1.316   1.560  16.453  0.3582 -0.0810  0.0578
  865MPD2     H12751   1.064   1.309  16.588 -1.2161  0.3994 -0.9526
  865MPD2    H112752   1.216   1.713  16.555  0.0868  0.1475  0.3305
  865MPD2    H212753   1.420   1.399  16.373 -1.2108 -0.5043 -1.3403
  865MPD2    H312754   1.378   1.637  16.409 -1.2972  0.2655 -1.6587
  865MPD2     N12755   1.035   1.591  16.689 -0.1801  0.3077 -0.1824
  865MPD2    H512756   1.041   1.692  16.684 -1.4195  0.2969 -1.9935
  865MPD2    N112757   1.278   1.202  16.458 -0.5154  0.0473 -0.0308
  865MPD2    H712758   1.350   1.187  16.389 -0.7839  0.4477 -0.3964
  866MPD2     C12759   2.283   1.846  10.593 -0.1250  0.3341 -0.0799
  866MPD2    C112760   2.238   1.813  10.719 -0.8744  0.2447  0.9735
  866MPD2    C212761   2.160   1.907  10.786  1.2310  0.8039 -0.0342
  866MPD2    C312762   2.116   2.022  10.723  0.2801 -0.3506 -0.2645
  866MPD2    C412763   2.171   2.046  10.599 -0.2386  0.7971  0.0944
  866MPD2    C512764   2.256   1.968  10.537 -0.1014  0.4321 -0.7136
  866MPD2     H12765   2.120   1.886  10.885 -2.2430  3.2495 -0.9071
  866MPD2    H112766   2.149   2.140  10.549  2.6063  1.2476 -0.3113
  866MPD2    H212767   2.341   1.781  10.528 -0.7913 -0.1476 -0.1970
  866MPD2    H312768   2.289   1.988  10.436  4.1463 -2.8578  0.0179
  866MPD2     N12769   2.031   2.120  10.770  0.0434 -0.3211  0.4091
  866MPD2    H512770   2.026   2.202  10.710  1.1484 -0.5260  0.0319
  866MPD2    N112771   2.272   1.685  10.769  0.8627 -0.0109 -0.2758
  866MPD2    H712772   2.335   1.630  10.712  1.6425  0.3336  0.2454
  867MPD2     C12773   0.089   1.547  17.047 -0.3992  0.4782  0.3504
  867MPD2    C112774   0.008   1.455  17.105 -0.2185  0.9993  0.1187
  867MPD2    C212775   4.659   1.506  17.209 -0.2139 -0.6516  0.0095
  867MPD2    C312776   4.649   1.634  17.237  0.0812  0.3643 -0.0154
  867MPD2    C412777   4.727   1.722  17.171  0.1264 -0.1866  0.5661
  867MPD2    C512778   0.089   1.676  17.087 -0.1206  0.4351  0.1410
  867MPD2     H12779   4.586   1.443  17.258 -0.0464 -0.9803 -0.1650
  867MPD2    H112780   4.724   1.829  17.191 -0.5244 -0.3073  1.1296
  867MPD2    H212781   0.157   1.535  16.964 -0.6529  2.3818 -0.1389
  867MPD2    H312782   0.161   1.739  17.038 -0.1017 -0.7189 -1.3293
  867MPD2     N12783   4.545   1.689  17.320  0.5512  0.0921 -0.6024
  867MPD2    H512784   4.543   1.791  17.319  0.8895  0.0856 -1.6708
  867MPD2    N112785   0.031   1.317  17.067  0.4538  1.0280  0.7665
  867MPD2    H712786   0.103   1.298  16.998 -0.7911  1.2400 -0.5910
  868MPD2     C12787   1.719   0.597  13.317  0.1743 -0.5123  0.0487
  868MPD2    C112788   1.783   0.505  13.400 -0.0880  0.2139  0.5077
  868MPD2    C212789   1.747   0.495  13.532  0.2335 -0.3998  0.2515
  868MPD2    C312790   1.635   0.563  13.578  0.6701 -0.0581  0.0526
  868MPD2    C412791   1.579   0.653  13.496 -0.4798  0.6163 -0.0548
  868MPD2    C512792   1.626   0.673  13.375 -0.3424  0.1535 -1.2520
  868MPD2     H12793   1.783   0.411  13.592  0.3473  0.7276  1.7562
  868MPD2    H112794   1.506   0.727  13.525 -2.4230 -1.1326 -0.5254
  868MPD2    H212795   1.749   0.609  13.213  0.6040  1.4063  0.4088
  868MPD2    H312796   1.579   0.747  13.312 -0.1996  3.7253  2.8218
  868MPD2     N12797   1.596   0.558  13.715  0.4092  0.1528 -0.3814
  868MPD2    H512798   1.660   0.517  13.782 -0.5450  1.6671  1.4531
  868MPD2    N112799   1.877   0.419  13.338 -0.3373 -0.5024 -0.6575
  868MPD2    H712800   1.897   0.434  13.240  3.3770  1.7822  0.4437
  869MPD2     C12801   1.359   2.157   0.491 -0.0286 -0.8672  0.3140
  869MPD2    C112802   1.446   2.162   0.378  0.0356 -0.4446 -0.1231
  869MPD2    C212803   1.567   2.227   0.386 -0.3733  0.4588  0.2453
  869MPD2    C312804   1.604   2.285   0.506  0.3353  0.7907  0.4026
  869MPD2    C412805   1.526   2.261   0.615 -0.5344  0.0137  0.1504
  869MPD2    C512806   1.400   2.209   0.611 -0.2245  0.4131 -0.3521
  869MPD2     H12807   1.621   2.248   0.294 -1.1975  1.0397 -0.1123
  869MPD2    H112808   1.562   2.299   0.710  0.0521  1.5507 -0.6811
  869MPD2    H212809   1.261   2.112   0.488 -0.6251  0.3163  2.0454
  869MPD2    H312810   1.335   2.211   0.697  1.0134  2.9258  0.5249
  869MPD2     N12811   1.729   2.352   0.525  0.0681 -0.2128  0.4293
  869MPD2    H512812   1.737   2.395   0.616  0.4409  3.0242 -1.1246
  869MPD2    N112813   1.407   2.096   0.261 -0.5546 -0.2033  0.2408
  869MPD2    H712814   1.311   2.061   0.268 -0.1738 -1.1788  0.7286
  870MPD2     C12815   0.877   1.682   1.179  0.8501  0.1216  0.3779
  870MPD2    C112816   1.003   1.655   1.130  0.0363 -0.4182  0.1104
  870MPD2    C212817   1.008   1.576   1.010  0.1599  0.0409 -0.8907
  870MPD2    C312818   0.895   1.525   0.950  0.0187  0.4112 -0.4193
  870MPD2    C412819   0.776   1.551   1.008 -0.1478  0.9010  0.0847
  870MPD2    C512820   0.765   1.635   1.115 -0.2282  0.4762 -0.1094
  870MPD2     H12821   1.103   1.542   0.970 -0.4130 -0.9512 -1.3954
  870MPD2    H112822   0.683   1.536   0.955 -0.1967  0.6308  0.2496
  870MPD2    H212823   0.864   1.745   1.265  0.6600 -0.7767  1.0108
  870MPD2    H312824   0.665   1.661   1.148 -1.1283 -4.5039  1.0941
  870MPD2     N12825   0.905   1.451   0.829 -0.1218 -0.0175  0.5155
  870MPD2    H512826   1.002   1.426   0.813  0.2720  1.7290  0.1985
  870MPD2    N112827   1.105   1.705   1.213  0.1861  0.3481 -0.0126
  870MPD2    H712828   1.077   1.750   1.299 -0.1937  1.1780 -0.5675
  871MPD2     C12829   3.497   1.551  16.321 -0.0137 -0.3989  0.1405
  871MPD2    C112830   3.414   1.489  16.407 -0.4229 -0.0041  0.1481
  871MPD2    C212831   3.421   1.348  16.412  0.3204 -0.3716  0.0569
  871MPD2    C312832   3.513   1.279  16.330 -0.4270 -0.8794  0.0517
  871MPD2    C412833   3.595   1.354  16.249 -0.3382 -0.8350 -0.3554
  871MPD2    C512834   3.583   1.491  16.237 -0.0445 -0.0161 -0.2169
  871MPD2     H12835   3.355   1.292  16.477 -2.3396  0.3081 -2.0508
  871MPD2    H112836   3.666   1.305  16.184  0.2833  3.9698 -3.2856
  871MPD2    H212837   3.490   1.659  16.308 -1.3802 -0.7237 -1.9114
  871MPD2    H312838   3.647   1.546  16.169 -0.7692 -0.5831 -1.3518
  871MPD2     N12839   3.520   1.141  16.342 -0.0782 -0.0667 -0.5621
  871MPD2    H512840   3.458   1.105  16.415  1.8369 -2.4953 -0.1242
  871MPD2    N112841   3.324   1.565  16.488  0.0896  0.3899  0.2248
  871MPD2    H712842   3.328   1.665  16.471 -1.1442  0.1584 -1.4614
  872MPD2     C12843   0.154   3.418  13.798 -0.3633 -0.3470 -0.5472
  872MPD2    C112844   0.110   3.520  13.710 -0.0585  0.5895  0.3111
  872MPD2    C212845   4.714   3.545  13.703  0.0179  0.2228 -0.1296
  872MPD2    C312846   4.622   3.467  13.772 -0.6565 -0.2559  0.0017
  872MPD2    C412847   4.667   3.367  13.844  0.3625  0.1485 -0.6507
  872MPD2    C512848   0.065   3.339  13.860 -0.7683  0.2043 -0.0340
  872MPD2     H12849   4.684   3.620  13.631 -1.5834  0.0668  0.3897
  872MPD2    H112850   4.594   3.313  13.904 -0.2552 -1.4076 -2.7945
  872MPD2    H212851   0.258   3.387  13.805 -0.4724 -0.5369  0.2377
  872MPD2    H312852   0.106   3.268  13.931 -1.8025 -0.4701 -0.1222
  872MPD2     N12853   4.481   3.496  13.784 -0.5183 -0.0553 -0.8248
  872MPD2    H512854   4.423   3.424  13.826 -1.3666 -0.1150 -2.0757
  872MPD2    N112855   0.207   3.591  13.631 -0.0403  0.3315  0.5832
  872MPD2    H712856   0.173   3.656  13.561 -0.4898 -0.5912 -0.0532
  873MPD2     C12857   1.137   2.945   0.672  0.3063 -0.1500 -0.9657
  873MPD2    C112858   1.003   2.950   0.700 -0.0140  0.0754 -0.2728
  873MPD2    C212859   0.919   2.856   0.642  0.1087 -0.2372  0.2801
  873MPD2    C312860   0.976   2.757   0.568 -0.2911  0.1676 -0.0837
  873MPD2    C412861   1.108   2.758   0.537 -0.3202 -0.6869 -0.3844
  873MPD2    C512862   1.186   2.854   0.588 -0.5664 -0.3902  0.3431
  873MPD2     H12863   0.813   2.861   0.666  0.0070 -0.1677 -0.1820
  873MPD2    H112864   1.157   2.674   0.490  3.2588  1.3822 -0.3696
  873MPD2    H212865   1.195   3.018   0.726 -0.6131 -1.8081  2.2229
  873MPD2    H312866   1.292   2.852   0.563 -0.5046  1.4263  0.4212
  873MPD2     N12867   0.891   2.645   0.530  0.5811 -0.1685  0.8656
  873MPD2    H512868   0.928   2.581   0.461  0.8307  0.7635  0.1392
  873MPD2    N112869   0.960   3.057   0.777 -0.3093  0.1558 -0.0969
  873MPD2    H712870   1.024   3.126   0.815  1.7155  0.5722 -4.3583
  874MPD2     C12871   1.010   4.057  15.987  0.3358 -0.0583 -0.2599
  874MPD2    C112872   1.020   4.033  16.118  0.2898  0.4850 -0.2810
  874MPD2    C212873   1.145   4.007  16.170 -0.3448 -0.0373 -0.7101
  874MPD2    C312874   1.261   4.014  16.091 -0.7850  0.4033 -0.6229
  874MPD2    C412875   1.249   4.031  15.957 -0.0105  0.3198  0.5449
  874MPD2    C512876   1.124   4.048  15.909 -0.9241 -0.3360 -0.2168
  874MPD2     H12877   1.162   3.971  16.271  2.4900  0.0441 -1.1583
  874MPD2    H112878   1.337   4.041  15.894  0.6737 -0.0437  1.4418
  874MPD2    H212879   0.915   4.076  15.938 -0.5337 -2.5227  0.4626
  874MPD2    H312880   1.113   4.064  15.802 -1.8334 -0.2882 -0.1175
  874MPD2     N12881   1.377   3.976  16.153 -0.6011  0.1335 -0.9265
  874MPD2    H512882   1.375   3.968  16.254 -2.1910  0.8036 -0.9102
  874MPD2    N112883   0.898   4.022  16.192  0.2078  0.2851 -0.3780
  874MPD2    H712884   0.822   4.020  16.125 -0.3186  2.0471  0.1565
  875MPD2     C12885   1.756   2.259  14.377  0.3635 -0.7011 -0.4490
  875MPD2    C112886   1.620   2.268  14.407  0.4600  0.6891  1.0222
  875MPD2    C212887   1.578   2.273  14.540 -0.1588  0.1251 -0.1417
  875MPD2    C312888   1.670   2.249  14.640  0.0506  0.2994  0.2282
  875MPD2    C412889   1.796   2.218  14.604  0.5661 -0.1470 -0.4298
  875MPD2    C512890   1.844   2.247  14.480  0.8767 -0.2245 -0.9060
  875MPD2     H12891   1.473   2.291  14.561  0.1611 -0.0254  1.6205
  875MPD2    H112892   1.870   2.197  14.681 -0.4872  1.3208  1.0084
  875MPD2    H212893   1.796   2.250  14.276 -0.6554  2.2789 -1.1362
  875MPD2    H312894   1.946   2.221  14.457  1.1657 -0.1290  0.2800
  875MPD2     N12895   1.631   2.243  14.774 -0.1494 -0.2233  0.1242
  875MPD2    H512896   1.710   2.240  14.837  0.1141  1.5462 -0.1263
  875MPD2    N112897   1.517   2.257  14.310  0.3474  0.6725 -1.0194
  875MPD2    H712898   1.423   2.265  14.348  0.5225 -0.5711 -0.3024
  876MPD2     C12899   0.788   3.428  15.869  0.6977  0.3323 -0.3514
  876MPD2    C112900   0.906   3.396  15.815 -0.3074 -0.3052  0.4536
  876MPD2    C212901   0.951   3.268  15.829  0.2806 -0.1702  0.5135
  876MPD2    C312902   0.886   3.170  15.905 -0.1817 -0.3878 -0.4451
  876MPD2    C412903   0.754   3.199  15.949  1.1792  0.4292  0.3334
  876MPD2    C512904   0.708   3.332  15.929 -0.1416 -0.3445  0.0157
  876MPD2     H12905   1.050   3.242  15.794 -0.4772 -1.3626 -0.7587
  876MPD2    H112906   0.697   3.132  16.012 -0.9581  0.7872 -1.2118
  876MPD2    H212907   0.752   3.530  15.858  3.6678  1.4922  0.5708
  876MPD2    H312908   0.616   3.363  15.977 -1.5904 -1.5037 -2.0409
  876MPD2     N12909   0.939   3.034  15.913  0.2636  0.0264 -0.1610
  876MPD2    H512910   1.015   3.003  15.854 -0.1073 -0.3649 -0.4358
  876MPD2    N112911   0.968   3.504  15.746  0.2287 -0.5010 -0.5672
  876MPD2    H712912   0.922   3.595  15.746  1.9480  0.3782  1.6223
  877MPD2     C12913   0.860   4.009  15.233 -0.0331  0.1386 -0.4099
  877MPD2    C112914   0.989   4.049  15.274  0.5890  0.2148  0.1061
  877MPD2    C212915   1.062   4.125  15.178 -0.2343  0.8753 -0.4113
  877MPD2    C312916   1.004   4.149  15.053 -0.6544 -0.3565  0.3963
  877MPD2    C412917   0.875   4.118  15.024 -0.3635  0.2725 -0.8787
  877MPD2    C512918   0.811   4.032  15.106  0.4560  0.2299 -0.0521
  877MPD2     H12919   1.167   4.139  15.198 -0.7906  0.5649  2.8011
  877MPD2    H112920   0.837   4.153  14.929 -0.4009 -1.3989 -1.4816
  877MPD2    H212921   0.801   3.947  15.300 -0.0034 -0.4700 -0.9441
  877MPD2    H312922   0.712   3.992  15.088  0.7516 -0.5012 -0.0539
  877MPD2     N12923   1.077   4.212  14.953  0.4429  0.2469  0.1480
  877MPD2    H512924   1.022   4.209  14.867  1.2162 -1.5047 -0.2895
  877MPD2    N112925   1.054   4.000  15.387  0.0826  0.0132  0.1728
  877MPD2    H712926   1.142   4.043  15.413  0.3067  0.9271 -2.0994
  878MPD2     C12927   0.909   3.173  13.710 -0.2739  0.2412  0.1886
  878MPD2    C112928   0.846   3.272  13.644 -0.1812 -0.3317 -0.9383
  878MPD2    C212929   0.726   3.317  13.695  0.1141  0.0904 -0.6156
  878MPD2    C312930   0.667   3.278  13.813  0.4586  0.3720 -0.1227
  878MPD2    C412931   0.739   3.181  13.880  0.0314 -0.5368  0.1986
  878MPD2    C512932   0.857   3.130  13.831 -0.1025 -0.1732 -0.6077
  878MPD2     H12933   0.674   3.389  13.634  0.1000  0.3066 -0.3495
  878MPD2    H112934   0.689   3.133  13.963  0.2249 -2.5085 -0.8345
  878MPD2    H212935   1.005   3.149  13.665 -0.2007 -1.4398  1.2276
  878MPD2    H312936   0.915   3.055  13.885  1.3251  0.5297 -1.1868
  878MPD2     N12937   0.550   3.335  13.866 -0.0638  0.4189  0.0592
  878MPD2    H512938   0.509   3.407  13.807  3.3890  2.3013 -0.0192
  878MPD2    N112939   0.907   3.312  13.520 -0.7193 -0.0242 -0.2183
  878MPD2    H712940   0.994   3.269  13.493  0.3487  1.1049  1.4192
  879MPD2     C12941   0.832   4.357  16.623 -0.7513  0.5757  1.0888
  879MPD2    C112942   0.843   4.236  16.690  0.3588  0.4611  0.8384
  879MPD2    C212943   0.726   4.152  16.691 -0.8589 -0.8279  0.5698
  879MPD2    C312944   0.614   4.191  16.628  0.0339 -0.4722 -0.2552
  879MPD2    C412945   0.605   4.310  16.569  0.3439  0.7923 -0.0338
  879MPD2    C512946   0.718   4.394  16.558 -0.6941  0.3909  0.2776
  879MPD2     H12947   0.733   4.059  16.747  2.2308 -1.3594 -0.7221
  879MPD2    H112948   0.509   4.341  16.529 -1.0238 -0.6160  2.1325
  879MPD2    H212949   0.920   4.420  16.618 -1.3698  1.2830 -0.7273
  879MPD2    H312950   0.716   4.480  16.492  3.3012 -0.2010 -0.6085
  879MPD2     N12951   0.495   4.122  16.652 -0.2078 -1.2976  0.1511
  879MPD2    H512952   0.412   4.140  16.598 -0.1726  0.7947  0.8093
  879MPD2    N112953   0.971   4.196  16.737  0.0301  0.2766  0.2678
  879MPD2    H712954   1.045   4.265  16.732 -0.5736  0.9459  0.5660
  880MPD2     C12955   1.808   0.987   0.288  1.0102  0.3640  0.1479
  880MPD2    C112956   1.875   1.046   0.178  0.0435  0.2898 -0.5112
  880MPD2    C212957   1.995   0.989   0.138 -0.6966 -0.6075  0.1119
  880MPD2    C312958   2.057   0.890   0.214  0.3599 -0.0777  0.4510
  880MPD2    C412959   1.990   0.826   0.313 -0.5780 -0.5462  0.2179
  880MPD2    C512960   1.867   0.882   0.350  0.3047 -0.5312 -0.4444
  880MPD2     H12961   2.057   1.023   0.056 -0.1656 -3.4378 -0.6314
  880MPD2    H112962   2.038   0.743   0.363 -0.6680 -0.4840  0.4077
  880MPD2    H212963   1.713   1.019   0.328 -0.3113 -1.7949 -1.2138
  880MPD2    H312964   1.817   0.825   0.428 -1.5965  1.4323 -0.2405
  880MPD2     N12965   2.185   0.853   0.175  0.0929 -0.0317  0.1170
  880MPD2    H512966   2.235   0.907   0.105  1.2296 -1.1013  0.1025
  880MPD2    N112967   1.821   1.162   0.112  0.5470  0.1303  0.0332
  880MPD2    H712968   1.742   1.198   0.164 -0.0024 -1.6571  0.4457
  881MPD2     C12969   1.905   1.826  16.993 -0.5026 -0.4328 -0.1633
  881MPD2    C112970   2.001   1.766  17.059  0.5694 -0.4180  0.4511
  881MPD2    C212971   1.981   1.734  17.189 -0.0625 -0.3779  1.3317
  881MPD2    C312972   1.856   1.733  17.249 -1.0190 -0.4743  0.1749
  881MPD2    C412973   1.755   1.793  17.183 -0.5808  0.8885 -0.7862
  881MPD2    C512974   1.781   1.836  17.053  0.5637 -0.4385  0.0841
  881MPD2     H12975   2.065   1.704  17.251  0.5965 -1.8782 -0.2853
  881MPD2    H112976   1.655   1.812  17.219 -0.6918 -1.7249  0.2669
  881MPD2    H212977   1.927   1.867  16.895 -0.6059  1.4974  0.6272
  881MPD2    H312978   1.702   1.889  17.001  0.5975  0.1885  0.6785
  881MPD2     N12979   1.831   1.687  17.382 -0.4617  0.4288  0.6672
  881MPD2    H512980   1.740   1.706  17.422 -2.3454 -0.1039 -3.3717
  881MPD2    N112981   2.126   1.773  17.008 -0.3335  0.0248 -1.1568
  881MPD2    H712982   2.143   1.828  16.924  1.1284 -1.5459 -1.9011
  882MPD2     C12983   1.172   3.866  14.435 -0.2156 -0.9040  0.3981
  882MPD2    C112984   1.090   3.974  14.461 -0.6850  0.6183 -0.5395
  882MPD2    C212985   0.949   3.958  14.459 -0.1323 -0.0127  1.0139
  882MPD2    C312986   0.894   3.839  14.419 -0.4076 -0.0692 -0.1636
  882MPD2    C412987   0.978   3.733  14.394  0.1481  0.0545  0.2154
  882MPD2    C512988   1.114   3.752  14.398  1.0546  0.0438 -0.5770
  882MPD2     H12989   0.896   4.043  14.501  0.1355  1.1236 -0.9631
  882MPD2    H112990   0.933   3.639  14.365  2.0573 -0.5521 -0.7609
  882MPD2    H212991   1.280   3.866  14.427 -0.1627  1.2968  1.0360
  882MPD2    H312992   1.172   3.665  14.368 -1.8409 -1.5579 -1.5546
  882MPD2     N12993   0.757   3.815  14.432  0.2615 -0.5934  0.2577
  882MPD2    H512994   0.735   3.716  14.424  0.0756 -0.5822  0.6206
  882MPD2    N112995   1.154   4.093  14.497  0.5957 -0.7061  0.0181
  882MPD2    H712996   1.253   4.076  14.512  0.5269 -2.6279 -1.7020
  883MPD2     C12997   2.996   3.669  15.936 -0.3307  0.0098 -0.1273
  883MPD2    C112998   3.051   3.727  15.821 -0.3610 -0.7038 -0.0718
  883MPD2    C212999   3.187   3.759  15.828  0.4223 -0.3783 -0.4962
  883MPD2    C313000   3.259   3.731  15.944  0.5732 -0.4471 -0.0499
  883MPD2    C413001   3.196   3.669  16.048 -0.0609  0.7140 -0.6109
  883MPD2    C513002   3.059   3.636  16.046  0.6822  0.1089  0.0183
  883MPD2     H13003   3.233   3.799  15.738 -1.2360 -0.8391 -1.5364
  883MPD2    H113004   3.246   3.640  16.139  0.8582 -0.6461 -1.5515
  883MPD2    H213005   2.900   3.620  15.941 -0.1136 -0.5467 -1.2858
  883MPD2    H313006   3.012   3.588  16.132  0.1518 -0.9536 -0.8727
  883MPD2     N13007   3.402   3.756  15.945 -0.1001 -0.0812  0.0188
  883MPD2    H513008   3.448   3.794  15.863  2.2675 -2.0681  0.4280
  883MPD2    N113009   2.977   3.748  15.701 -0.0736  0.3567  0.6214
  883MPD2    H713010   3.021   3.805  15.630 -0.1218 -1.2317 -0.6866
  884MPD2     C13011   0.123   0.026  15.118  0.8394  0.3069  0.1167
  884MPD2    C113012   0.077   4.732  14.991  0.7676 -0.2690 -0.7909
  884MPD2    C213013   4.727   0.078  14.920 -0.6264  0.5930  0.0160
  884MPD2    C313014   4.679   0.199  14.977 -0.4133 -0.5321 -0.0818
  884MPD2    C413015   4.725   0.231  15.107  0.1083 -0.1320 -0.1145
  884MPD2    C513016   0.078   0.145  15.169  0.4127  0.5223  0.6248
  884MPD2     H13017   4.701   0.047  14.819  0.6905 -1.7222  0.4032
  884MPD2    H113018   4.694   0.321  15.159 -0.5884  0.5896 -1.7899
  884MPD2    H213019   0.191   4.702  15.178  0.7283  0.1037  0.0409
  884MPD2    H313020   0.124   0.180  15.261  2.1449  0.5614 -0.2637
  884MPD2     N13021   4.590   0.275  14.902 -0.3152 -0.0869 -0.7125
  884MPD2    H513022   4.540   0.237  14.822 -2.8789  1.7430  0.0184
  884MPD2    N113023   0.139   4.628  14.916  0.0173  0.2365 -0.7242
  884MPD2    H713024   0.112   4.617  14.819  0.1474 -1.1354 -0.5998
  885MPD2     C13025   2.915   4.297  17.675 -0.1457 -0.4291 -0.2875
  885MPD2    C113026   2.987   4.398  17.732 -0.2378  0.4021 -0.2444
  885MPD2    C213027   3.053   4.488  17.649 -0.3036 -0.6131  0.6198
  885MPD2    C313028   3.038   4.482  17.514  0.1115  0.1707 -0.2932
  885MPD2    C413029   2.960   4.378  17.458 -0.9722  0.2885  0.5604
  885MPD2    C513030   2.898   4.283  17.537 -0.0007  0.4698  1.1324
  885MPD2     H13031   3.116   4.565  17.691 -3.0064  0.3801  2.8642
  885MPD2    H113032   2.948   4.372  17.350  0.6251  1.2581  0.3400
  885MPD2    H213033   2.870   4.230   0.007  0.3641 -1.6810 -1.1351
  885MPD2    H313034   2.825   4.214  17.497 -1.2939  1.3876  1.9013
  885MPD2     N13035   3.101   4.581  17.431 -0.7213 -0.5455  0.0423
  885MPD2    H513036   3.175   4.636  17.473 -0.5940 -0.8402  0.2071
  885MPD2    N113037   3.007   4.381   0.133  0.1562 -0.2101 -0.4925
  885MPD2    H713038   2.949   4.309   0.174  0.0218 -0.5056 -1.2111
  886MPD2     C13039   4.544   3.544  15.054  0.3675  0.5840  0.4070
  886MPD2    C113040   4.607   3.562  15.175  0.0507  0.7132  1.1422
  886MPD2    C213041   4.599   3.681  15.244 -0.4689 -0.6705 -0.2429
  886MPD2    C313042   4.539   3.791  15.187 -0.7101  0.1199  0.9438
  886MPD2    C413043   4.467   3.773  15.070 -0.1235 -0.0506  0.3526
  886MPD2    C513044   4.462   3.650  15.012  0.0161  0.1620  0.6348
  886MPD2     H13045   4.641   3.696  15.343 -0.2576 -1.0493 -0.2764
  886MPD2    H113046   4.410   3.855  15.028  1.0832 -0.0692 -1.3533
  886MPD2    H213047   4.558   3.451  15.001  1.9124  1.8735 -1.4532
  886MPD2    H313048   4.410   3.632  14.919  0.5370 -4.0658  1.1341
  886MPD2     N13049   4.545   3.915  15.255  0.0505 -0.5825  0.2586
  886MPD2    H513050   4.575   3.909  15.352  0.2075 -1.8864  0.1199
  886MPD2    N113051   4.672   3.453  15.241 -0.2282 -0.0407 -0.5169
  886MPD2    H713052   4.717   3.475  15.329  1.5667  0.6186 -1.5846
  887MPD2     C13053   0.398   3.462  15.753  0.1541 -0.2210 -0.3397
  887MPD2    C113054   0.395   3.478  15.621 -0.6770  0.2944  0.6477
  887MPD2    C213055   0.458   3.587  15.562 -0.1970  0.0910  0.3995
  887MPD2    C313056   0.519   3.682  15.640 -1.1561  0.6935  0.3345
  887MPD2    C413057   0.530   3.659  15.773 -0.4347 -0.2538  0.5332
  887MPD2    C513058   0.467   3.554  15.827  0.2680  0.0065  0.4066
  887MPD2     H13059   0.448   3.593  15.454  0.2037  1.9868  0.4752
  887MPD2    H113060   0.596   3.713  15.840  1.9810 -0.6601 -1.5326
  887MPD2    H213061   0.356   3.382  15.813 -0.9101  1.6375  1.3737
  887MPD2    H313062   0.474   3.524  15.931  0.8934 -1.1786  0.0265
  887MPD2     N13063   0.577   3.800  15.576  1.0532  0.2195  0.1257
  887MPD2    H513064   0.568   3.817  15.476  2.2306 -1.3454 -0.2460
  887MPD2    N113065   0.325   3.390  15.530 -0.5064 -0.2760  0.5647
  887MPD2    H713066   0.328   3.409  15.431  0.3367  0.1761  0.6835
  888MPD2     C13067   2.593   3.088  15.136  0.1331  0.1212 -0.4301
  888MPD2    C113068   2.504   3.187  15.172 -0.2921  0.3280  0.1279
  888MPD2    C213069   2.508   3.309  15.104 -0.2610 -0.0118  0.4839
  888MPD2    C313070   2.613   3.335  15.012 -0.0481 -0.2999  0.8644
  888MPD2    C413071   2.706   3.241  14.987 -0.0697 -0.0672 -0.1988
  888MPD2    C513072   2.703   3.119  15.051 -0.2535 -0.1001 -0.2884
  888MPD2     H13073   2.424   3.377  15.104  2.4352  3.2853 -0.9264
  888MPD2    H113074   2.787   3.250  14.915  0.8191 -0.0938  0.8152
  888MPD2    H213075   2.587   2.990  15.182 -1.3225 -1.1859 -3.4038
  888MPD2    H313076   2.779   3.046  15.024  1.2155  1.0519  0.7263
  888MPD2     N13077   2.607   3.457  14.940  0.1114  0.1916 -0.1513
  888MPD2    H513078   2.535   3.524  14.965 -0.6882 -1.7430  2.6552
  888MPD2    N113079   2.388   3.167  15.245  0.0785  0.1731  0.0559
  888MPD2    H713080   2.331   3.250  15.260 -0.2446  0.4084 -2.4738
  889MPD2     C13081   1.253   3.481  12.842  0.2182  0.2003 -0.8123
  889MPD2    C113082   1.312   3.403  12.939 -0.3403 -0.0573 -1.1928
  889MPD2    C213083   1.358   3.457  13.056  0.7467 -0.0179  0.4168
  889MPD2    C313084   1.293   3.569  13.100 -1.4870  1.0814 -0.0527
  889MPD2    C413085   1.210   3.635  13.015 -0.1213 -0.0129  0.3514
  889MPD2    C513086   1.199   3.597  12.886 -0.6640  0.4097  0.3425
  889MPD2     H13087   1.403   3.390  13.128  0.7652 -0.0128  0.4099
  889MPD2    H113088   1.155   3.726  13.034  0.4243  0.2283  0.7645
  889MPD2    H213089   1.225   3.448  12.742 -0.9383  0.7353 -0.6673
  889MPD2    H313090   1.149   3.661  12.815 -1.4196  1.1136  1.5058
  889MPD2     N13091   1.313   3.606  13.241 -0.0757  0.1880  0.0980
  889MPD2    H513092   1.383   3.555  13.294 -1.3111 -1.6297 -0.0377
  889MPD2    N113093   1.356   3.270  12.907  0.4304  0.0513 -0.2804
  889MPD2    H713094   1.427   3.224  12.963 -0.0808  1.8995  1.8637
  890MPD2     C13095   1.162   0.160  14.323  0.0023 -0.3099  0.1175
  890MPD2    C113096   1.171   0.239  14.432 -0.4272  0.5208 -0.2877
  890MPD2    C213097   1.235   0.180  14.546 -0.6756  0.3411 -0.4218
  890MPD2    C313098   1.283   0.047  14.546  0.1732  0.6202  0.2546
  890MPD2    C413099   1.265   4.712  14.434 -0.0849 -0.2807  0.6652
  890MPD2    C513100   1.209   0.025  14.323  0.1304 -0.1238 -0.1347
  890MPD2     H13101   1.252   0.235  14.638  1.4285 -1.1786  0.0996
  890MPD2    H113102   1.295   4.608  14.432 -0.0335 -0.1716 -4.0272
  890MPD2    H213103   1.117   0.204  14.234 -1.1955 -0.6956  0.5236
  890MPD2    H313104   1.193   4.698  14.235 -0.0897  1.0279 -0.9052
  890MPD2     N13105   1.340   4.726  14.664  0.1040  0.5934 -0.2404
  890MPD2    H513106   1.321   0.044  14.749 -1.1462  0.5378 -0.4805
  890MPD2    N113107   1.120   0.372  14.431 -0.1104 -0.1408 -0.1065
  890MPD2    H713108   1.086   0.407  14.342 -1.2582  0.5161  0.5832
  891MPD2     C13109   3.793   3.459  15.970 -0.4106  0.6857 -0.2402
  891MPD2    C113110   3.694   3.401  16.049 -0.3563  0.0869 -0.0641
  891MPD2    C213111   3.726   3.348  16.172 -0.1501  0.7593 -0.2700
  891MPD2    C313112   3.849   3.374  16.230 -0.9509 -0.3724 -0.0543
  891MPD2    C413113   3.944   3.449  16.159  0.0341 -0.5829 -0.2548
  891MPD2    C513114   3.913   3.479  16.027 -0.6858  0.0723 -0.1671
  891MPD2     H13115   3.651   3.286  16.218 -1.1081  1.5967 -0.7104
  891MPD2    H113116   4.042   3.473  16.199 -0.4737 -0.4513  0.9096
  891MPD2    H213117   3.764   3.484  15.869 -1.0635 -2.7280 -0.8773
  891MPD2    H313118   3.997   3.525  15.975 -1.6761  1.8031 -0.2061
  891MPD2     N13119   3.865   3.326  16.357  0.1395  0.1333 -0.3779
  891MPD2    H513120   3.788   3.264  16.379 -1.4505  2.3897  0.3179
  891MPD2    N113121   3.560   3.399  15.997 -0.0603  0.6074 -0.4397
  891MPD2    H713122   3.552   3.416  15.898  1.9886  1.7417 -0.3976
  892MPD2     C13123   4.622   4.189  14.073 -0.5833 -0.0104  1.2304
  892MPD2    C113124   4.632   4.210  14.212 -0.0587 -0.2400  0.0697
  892MPD2    C213125   4.730   4.140  14.289 -0.2067  0.0780  0.3925
  892MPD2    C313126   0.090   4.054  14.225  0.1222 -0.4859  0.3072
  892MPD2    C413127   0.088   4.054  14.083  0.2142  0.1979  0.4589
  892MPD2    C513128   4.718   4.114  14.016 -0.0593 -0.3419 -0.2209
  892MPD2     H13129   4.729   4.139  14.397 -2.3823 -2.4548  0.3657
  892MPD2    H113130   0.172   4.014  14.027  0.2937  1.8643 -0.5936
  892MPD2    H213131   4.552   4.242  14.010 -1.1659 -2.5091 -0.2195
  892MPD2    H313132   4.703   4.109  13.909  1.7441  0.1040 -0.4965
  892MPD2     N13133   0.187   3.980  14.295 -0.1201 -0.7108  0.2690
  892MPD2    H513134   0.265   3.943  14.241 -0.7272 -0.2870 -0.8799
  892MPD2    N113135   4.548   4.306  14.271 -0.1414  0.3368 -0.1029
  892MPD2    H713136   4.491   4.362  14.208  2.6766 -0.7301 -3.5911
  893MPD2     C13137   0.194   2.026   1.004 -0.0078 -0.0999  0.5063
  893MPD2    C113138   0.245   1.991   0.877  0.6124 -0.3722  0.2830
  893MPD2    C213139   0.170   2.016   0.763  0.5233 -0.1315 -0.0292
  893MPD2    C313140   0.038   2.056   0.772 -0.1419  0.2271 -0.2566
  893MPD2    C413141   4.723   2.087   0.896  0.2795 -0.3991  0.0143
  893MPD2    C513142   0.066   2.073   1.013  0.3298  0.3863  0.0575
  893MPD2     H13143   0.210   2.017   0.663  0.7905  1.3349  0.0963
  893MPD2    H113144   4.621   2.120   0.914  0.8667  0.1240  2.4927
  893MPD2    H213145   0.247   2.001   1.095  0.2947  1.2391  0.6939
  893MPD2    H313146   0.021   2.092   1.110  1.2236  0.1426  0.5134
  893MPD2     N13147   4.686   2.064   0.660  0.7398  0.3969 -0.1565
  893MPD2    H513148   4.593   2.097   0.682  0.3523 -0.1769 -0.9157
  893MPD2    N113149   0.379   1.945   0.873  0.0171  0.6903 -0.2611
  893MPD2    H713150   0.425   1.940   0.963 -0.4605 -0.0612 -0.0605
  894MPD2     C13151   0.068   0.011   1.094 -0.2149 -0.2332  0.5262
  894MPD2    C113152   4.719   0.119   1.107 -0.2752  0.2425  1.0068
  894MPD2    C213153   0.020   0.227   1.185 -0.0446 -0.1442  0.9394
  894MPD2    C313154   0.137   0.232   1.248 -0.7891 -0.0634  0.1268
  894MPD2    C413155   0.227   0.125   1.236 -0.0153  0.4098  0.1831
  894MPD2    C513156   0.189   0.018   1.161  0.2358 -0.0901 -1.1309
  894MPD2     H13157   4.695   0.318   1.188 -0.6291 -0.4793 -0.7407
  894MPD2    H113158   0.320   0.107   1.288  1.0393  0.3106 -1.7503
  894MPD2    H213159   0.052   4.653   1.040  2.1279  1.6897 -3.4783
  894MPD2    H313160   0.260   4.673   1.144 -0.2157 -0.6604 -0.3119
  894MPD2     N13161   0.172   0.338   1.334  0.5442  0.2586 -0.1331
  894MPD2    H513162   0.101   0.411   1.334 -0.3346 -0.6034 -0.6546
  894MPD2    N113163   4.597   0.132   1.034  0.4093 -0.0991 -0.0814
  894MPD2    H713164   4.549   0.221   1.036 -0.3870 -0.5905  2.5639
  895MPD2     C13165   4.340   2.929  13.659  0.3736 -0.8018 -0.6471
  895MPD2    C113166   4.208   2.889  13.683  1.1878  0.2957  0.1084
  895MPD2    C213167   4.179   2.765  13.734  0.0035  0.9331  0.5544
  895MPD2    C313168   4.277   2.667  13.731  0.5638  0.1592  0.5726
  895MPD2    C413169   4.402   2.699  13.689  0.2339 -0.0553  0.2674
  895MPD2    C513170   4.434   2.828  13.657  0.2852  0.6034 -0.6188
  895MPD2     H13171   4.074   2.749  13.757  0.1630 -1.0995 -0.2082
  895MPD2    H113172   4.474   2.621  13.670 -1.4854 -1.2279 -1.4335
  895MPD2    H213173   4.366   3.030  13.629  0.1164  0.1476  2.3663
  895MPD2    H313174   4.534   2.853  13.623  0.7642 -0.9790 -0.3911
  895MPD2     N13175   4.249   2.529  13.740  0.1482  0.2321 -0.3866
  895MPD2    H513176   4.315   2.464  13.699 -0.4023 -0.2449 -0.5242
  895MPD2    N113177   4.095   2.969  13.669  1.0667  0.0746 -0.4264
  895MPD2    H713178   4.005   2.927  13.687 -0.7718  4.2997  0.3362
  896MPD2     C13179   0.977   0.930   1.219 -0.5081 -0.1366 -0.1794
  896MPD2    C113180   1.010   0.837   1.123 -0.1143  0.1285 -0.0017
  896MPD2    C213181   0.914   0.736   1.096  0.8977  0.0375 -0.1745
  896MPD2    C313182   0.796   0.728   1.171  0.3934 -0.1582 -0.0412
  896MPD2    C413183   0.767   0.820   1.272  0.1077 -0.2661  0.3695
  896MPD2    C513184   0.859   0.918   1.295 -0.0975  0.8247 -0.0083
  896MPD2     H13185   0.930   0.666   1.014  0.2910 -0.7043  0.3531
  896MPD2    H113186   0.672   0.829   1.324 -0.7353 -1.2938 -0.9817
  896MPD2    H213187   1.045   1.013   1.235  0.6906 -1.6144  2.4161
  896MPD2    H313188   0.837   1.001   1.361  0.7121  0.9417  0.1107
  896MPD2     N13189   0.702   0.632   1.135  0.4219 -0.0187 -0.1522
  896MPD2    H513190   0.724   0.564   1.063 -0.1175  0.5480 -0.8522
  896MPD2    N113191   1.137   0.850   1.047  1.0341  0.1672 -0.4642
  896MPD2    H713192   1.193   0.926   1.085  1.0951  0.1571 -0.5343
  897MPD2     C13193   2.195   3.270  10.278 -0.6719 -0.0906 -0.4078
  897MPD2    C113194   2.093   3.236  10.194  0.2892  0.4008 -0.0176
  897MPD2    C213195   1.981   3.160  10.229  0.4920  0.2402  0.7203
  897MPD2    C313196   1.983   3.103  10.353  0.4358 -0.0654 -0.0589
  897MPD2    C413197   2.090   3.126  10.438 -0.1391  0.3417  0.0327
  897MPD2    C513198   2.193   3.215  10.402  0.1487 -0.4300  0.2403
  897MPD2     H13199   1.887   3.162  10.176  0.5445  0.0124  0.6163
  897MPD2    H113200   2.083   3.091  10.540 -0.2692  0.7042  0.1516
  897MPD2    H213201   2.265   3.350  10.253  2.4737 -2.0257  2.1820
  897MPD2    H313202   2.269   3.234  10.478 -1.8902  0.6412  1.9966
  897MPD2     N13203   1.869   3.024  10.399 -0.0404 -0.1221 -0.1841
  897MPD2    H513204   1.787   3.029  10.338 -0.2666  3.0497  0.3869
  897MPD2    N113205   2.095   3.319  10.077 -0.1740  0.0230  0.3589
  897MPD2    H713206   2.166   3.390  10.067 -2.2173  1.8353 -1.2797
  898MPD2     C13207   4.338   3.511  17.472 -0.0229 -0.6315 -0.2786
  898MPD2    C113208   4.370   3.551  17.345  0.1967  0.4392 -0.0317
  898MPD2    C213209   4.385   3.688  17.306 -1.4185 -0.4510  0.2570
  898MPD2    C313210   4.329   3.777  17.395  0.8589  0.7059 -0.0808
  898MPD2    C413211   4.280   3.738  17.509 -0.6433 -0.0705  0.6372
  898MPD2    C513212   4.284   3.611  17.553 -0.4246  0.2413 -0.7277
  898MPD2     H13213   4.433   3.718  17.214 -1.4070  0.6156  0.6112
  898MPD2    H113214   4.244   3.808  17.584  1.1151  2.1346 -0.5900
  898MPD2    H213215   4.327   3.411  17.510 -0.6854  0.6013  2.7460
  898MPD2    H313216   4.249   3.580  17.650 -0.0527  0.2250 -0.6004
  898MPD2     N13217   4.336   3.915  17.356  0.9539  0.0341  0.4724
  898MPD2    H513218   4.342   3.926  17.256 -0.4891  1.4747  0.5480
  898MPD2    N113219   4.431   3.464  17.250 -0.4036 -0.8757  0.2994
  898MPD2    H713220   4.476   3.496  17.166  0.3537 -2.0363  0.2544
  899MPD2     C13221   0.532   3.729  17.432  0.2925  0.1433 -0.5450
  899MPD2    C113222   0.595   3.846  17.474 -0.2008  0.6172 -0.4734
  899MPD2    C213223   0.584   3.880  17.607  0.6148 -0.6929  0.1297
  899MPD2    C313224   0.521   3.799  17.699 -0.5335  0.1885  0.4326
  899MPD2    C413225   0.454   3.687  17.661 -0.7935 -0.3359  0.6549
  899MPD2    C513226   0.466   3.654  17.528  0.1293 -0.4955  0.3302
  899MPD2     H13227   0.611   3.980  17.639  1.5812  0.0642 -3.0045
  899MPD2    H113228   0.400   3.628  17.734  0.8794 -1.0198  1.3256
  899MPD2    H213229   0.534   3.694  17.329  1.0941 -1.5781  0.0529
  899MPD2    H313230   0.424   3.557  17.501 -2.2734  0.2799  1.2244
  899MPD2     N13231   0.507   3.837   0.093 -0.6622 -0.3797 -0.3306
  899MPD2    H513232   0.444   3.779   0.146  1.4494 -0.8220  1.7043
  899MPD2    N113233   0.652   3.925  17.369 -0.1599  0.4916  0.1526
  899MPD2    H713234   0.633   3.905  17.271  0.0742 -1.1985  0.4456
  900MPD2     C13235   0.440   1.046  12.549  0.2645  0.2523  0.4014
  900MPD2    C113236   0.344   0.982  12.626 -0.2659  0.7328 -0.1776
  900MPD2    C213237   0.215   1.024  12.627 -0.1482 -0.7362  0.1436
  900MPD2    C313238   0.174   1.126  12.545  0.5064 -0.2377 -0.3774
  900MPD2    C413239   0.268   1.192  12.479 -0.2500 -0.0771 -0.5887
  900MPD2    C513240   0.400   1.152  12.475  0.4407  0.4938  0.2225
  900MPD2     H13241   0.136   0.981  12.688 -0.0079  0.5685  1.2413
  900MPD2    H113242   0.254   1.275  12.411  0.8058  0.3058 -0.3390
  900MPD2    H213243   0.545   1.020  12.547 -0.0349 -0.9842  0.4603
  900MPD2    H313244   0.472   1.203  12.412  1.0381 -0.9153 -0.2290
  900MPD2     N13245   0.036   1.149  12.527 -0.1104 -0.1188  0.2148
  900MPD2    H513246   4.701   1.106  12.587  1.2327 -0.0709  1.8526
  900MPD2    N113247   0.377   0.867  12.703  0.2237 -0.5988  0.4000
  900MPD2    H713248   0.468   0.826  12.683 -0.2359 -0.8127 -1.2658
  901MPD2     C13249   4.591   4.713  12.739  0.2819 -0.8007  0.1969
  901MPD2    C113250   4.714   4.676  12.789 -0.7607  0.6895  0.2687
  901MPD2    C213251   0.078   0.041  12.814  0.0512  0.1533 -0.9458
  901MPD2    C313252   0.051   0.171  12.784  0.4579 -0.3429 -0.3359
  901MPD2    C413253   4.662   0.213  12.741 -1.1390 -0.0996 -0.0451
  901MPD2    C513254   4.568   0.115  12.724 -0.2636  0.0799 -0.4639
  901MPD2     H13255   0.178   0.016  12.846 -0.0915 -0.6367 -1.1110
  901MPD2    H113256   4.640   0.317  12.721 -3.2158  0.0115  2.7961
  901MPD2    H213257   4.517   4.641  12.706 -0.2012 -1.7809  3.3598
  901MPD2    H313258   4.469   0.140  12.689 -0.7813 -1.3798 -0.0194
  901MPD2     N13259   0.159   0.265  12.800  0.4077 -0.2975  0.3694
  901MPD2    H513260   0.241   0.216  12.837 -0.8429 -1.5030  1.5962
  901MPD2    N113261   0.001   4.538  12.816  0.2111  0.1133  0.2362
  901MPD2    H713262   4.668   4.479  12.769 -0.2036  0.1296  0.8226
  902MPD2     C13263   3.289   4.045  12.493 -0.1179 -0.0885  0.1716
  902MPD2    C113264   3.427   4.064  12.513 -0.1363 -0.3564 -0.2532
  902MPD2    C213265   3.495   3.950  12.538  0.0666  0.0423  0.7629
  902MPD2    C313266   3.430   3.829  12.584 -0.2647  0.2748 -0.1369
  902MPD2    C413267   3.295   3.817  12.573  0.5064 -0.0899 -0.0447
  902MPD2    C513268   3.228   3.923  12.517  0.4762 -0.5644 -0.8308
  902MPD2     H13269   3.603   3.949  12.528  0.0183 -0.0183  0.2553
  902MPD2    H113270   3.243   3.725  12.597 -1.1209  0.9637  0.4928
  902MPD2    H213271   3.231   4.123  12.445 -1.8510 -1.2893  0.3217
  902MPD2    H313272   3.122   3.905  12.498 -0.4336  0.8623  2.7940
  902MPD2     N13273   3.500   3.718  12.644  0.0325  0.2194  0.0745
  902MPD2    H513274   3.439   3.641  12.670 -1.5438  2.1029  1.9646
  902MPD2    N113275   3.493   4.186  12.475 -0.0045  0.0968 -0.2128
  902MPD2    H713276   3.432   4.257  12.437 -1.2537 -0.8534  0.0186
  903MPD2     C13277   3.852   3.867  12.379  0.1841 -0.1018 -0.0036
  903MPD2    C113278   3.884   3.732  12.388  0.8318 -0.0100 -0.6239
  903MPD2    C213279   3.882   3.656  12.272 -0.5785 -0.1175  0.8094
  903MPD2    C313280   3.844   3.708  12.152  0.7444  0.3489 -0.1569
  903MPD2    C413281   3.810   3.839  12.143 -0.4561 -0.4506  0.1002
  903MPD2    C513282   3.816   3.917  12.252 -0.1749  0.3731 -0.3002
  903MPD2     H13283   3.900   3.549  12.271 -0.2062 -0.0330 -1.8175
  903MPD2    H113284   3.783   3.891  12.051 -0.6510 -0.3067  0.2359
  903MPD2    H213285   3.855   3.935  12.463  1.5886 -1.8784  1.3585
  903MPD2    H313286   3.801   4.024  12.245  1.2121  0.5697 -0.3443
  903MPD2     N13287   3.812   3.611  12.052 -0.1820  0.0912 -0.4473
  903MPD2    H513288   3.826   3.511  12.064  0.5818  0.1180 -1.1469
  903MPD2    N113289   3.907   3.676  12.515 -0.0370 -0.1911  0.3652
  903MPD2    H713290   3.912   3.734  12.598 -2.8623 -3.0842  2.5666
  904MPD2     C13291   3.884   2.252  14.172 -0.7959 -0.0994  0.2550
  904MPD2    C113292   3.918   2.382  14.170  0.0672  0.1457 -0.1274
  904MPD2    C213293   4.043   2.430  14.199 -0.3674 -0.1719 -0.2099
  904MPD2    C313294   4.140   2.339  14.236  0.2414 -0.2360 -0.0325
  904MPD2    C413295   4.110   2.202  14.231 -0.8414  0.8882 -0.2766
  904MPD2    C513296   3.985   2.163  14.196 -0.2602  0.6796  0.6151
  904MPD2     H13297   4.054   2.538  14.191  1.1200 -0.2412  0.7364
  904MPD2    H113298   4.180   2.123  14.255 -4.3077 -2.2590 -0.5690
  904MPD2    H213299   3.784   2.212  14.157 -1.0874  1.2091 -1.2125
  904MPD2    H313300   3.951   2.060  14.195  1.6909  0.0545 -1.4755
  904MPD2     N13301   4.264   2.382  14.278  0.0388  0.0207  1.0412
  904MPD2    H513302   4.264   2.483  14.292 -0.9262  0.3445 -1.2811
  904MPD2    N113303   3.825   2.478  14.130  0.3191 -0.3484 -0.1851
  904MPD2    H713304   3.863   2.566  14.096 -3.3624  1.2409 -0.2266
  905MPD2     C13305   3.501   2.370  13.485 -0.0080 -0.0787  0.0658
  905MPD2    C113306   3.610   2.436  13.538 -0.6499 -0.1014  0.2111
  905MPD2    C213307   3.739   2.410  13.488 -0.1323 -0.0535 -0.0031
  905MPD2    C313308   3.752   2.323  13.379  0.6659  0.5374  0.1620
  905MPD2    C413309   3.644   2.277  13.316 -0.2217  0.7619 -0.1113
  905MPD2    C513310   3.523   2.300  13.369 -0.4756 -0.1707  0.0167
  905MPD2     H13311   3.828   2.453  13.534  1.0412 -1.1076 -1.2949
  905MPD2    H113312   3.651   2.221  13.223 -0.9218 -1.0220  0.9059
  905MPD2    H213313   3.401   2.378  13.526  0.2358  1.2336  0.4108
  905MPD2    H313314   3.442   2.276  13.301 -1.0592  0.5641  0.4554
  905MPD2     N13315   3.877   2.291  13.322  0.1649 -0.1523 -0.3597
  905MPD2    H513316   3.884   2.272  13.222  1.0528  1.4454 -0.5881
  905MPD2    N113317   3.590   2.511  13.655  0.5222  0.4241 -0.1553
  905MPD2    H713318   3.498   2.510  13.697  0.7407 -2.4213  0.2340
  906MPD2     C13319   0.851   3.247  11.335 -0.3175 -0.5705  0.0034
  906MPD2    C113320   0.846   3.197  11.210 -0.3622  0.1727  0.1104
  906MPD2    C213321   0.873   3.061  11.190 -0.5704  0.5817  0.3247
  906MPD2    C313322   0.901   2.976  11.297 -0.0241  0.4674 -0.0042
  906MPD2    C413323   0.913   3.033  11.424 -0.1726  0.1920 -0.0145
  906MPD2    C513324   0.884   3.166  11.440 -0.9605 -0.1155 -0.3646
  906MPD2     H13325   0.876   3.027  11.087 -2.7277 -0.8239  0.7226
  906MPD2    H113326   0.915   2.976  11.516  0.4598 -2.9319 -1.9682
  906MPD2    H213327   0.813   3.343  11.367  0.7969  0.3279 -1.4242
  906MPD2    H313328   0.885   3.211  11.538 -0.6120 -0.2605 -0.3002
  906MPD2     N13329   0.933   2.839  11.285 -0.8223  0.5247 -0.1770
  906MPD2    H513330   0.950   2.782  11.367 -1.6490  1.7290  0.8150
  906MPD2    N113331   0.808   3.276  11.097 -0.3915  0.0781 -0.6378
  906MPD2    H713332   0.785   3.232  11.008 -0.4035 -0.5943 -0.3014
  907MPD2     C13333   4.708   2.312  15.561 -0.1319 -0.0457  0.1406
  907MPD2    C113334   0.001   2.190  15.507  0.0363 -0.0104 -0.1723
  907MPD2    C213335   0.086   2.103  15.582  0.4908  0.4823  0.1467
  907MPD2    C313336   0.140   2.135  15.708  0.4006 -0.0605  0.6626
  907MPD2    C413337   0.121   2.259  15.750  1.0257  0.4409 -0.9207
  907MPD2    C513338   0.038   2.347  15.677  0.8201 -0.6582 -0.3817
  907MPD2     H13339   0.112   2.011  15.531 -0.6191 -0.8992  2.0676
  907MPD2    H113340   0.167   2.301  15.839  0.9126 -0.1045 -0.6077
  907MPD2    H213341   4.638   2.382  15.518  0.1087  0.5200  0.6561
  907MPD2    H313342   0.025   2.451  15.706  0.5193 -0.6744 -0.4647
  907MPD2     N13343   0.237   2.048  15.765  0.7303 -0.2261  0.7689
  907MPD2    H513344   0.253   1.956  15.725  0.7327  0.4566 -0.7771
  907MPD2    N113345   4.665   2.136  15.392  0.9971  0.3209 -0.2367
  907MPD2    H713346   4.691   2.044  15.358 -1.7789 -1.7109  3.0031
  908MPD2     C13347   1.401   3.456   9.363 -0.5771 -0.3238  0.3143
  908MPD2    C113348   1.446   3.346   9.435 -0.0305  0.0105  0.3130
  908MPD2    C213349   1.564   3.362   9.511  0.6787 -0.0023  0.0371
  908MPD2    C313350   1.642   3.475   9.507 -1.3694  0.1731  0.0886
  908MPD2    C413351   1.589   3.579   9.433  0.5434 -0.3506  0.0809
  908MPD2    C513352   1.477   3.572   9.355  0.2462 -0.3687  0.0960
  908MPD2     H13353   1.593   3.285   9.582 -0.6278  1.0691  1.7270
  908MPD2    H113354   1.653   3.665   9.419 -1.3285  0.9552 -0.5715
  908MPD2    H213355   1.309   3.455   9.305  0.5130 -0.6272 -1.4195
  908MPD2    H313356   1.460   3.651   9.283  0.8431 -0.0924  0.2598
  908MPD2     N13357   1.750   3.480   9.590  0.2574 -0.0135  0.2599
  908MPD2    H513358   1.776   3.395   9.640  0.3619 -0.8927 -1.3123
  908MPD2    N113359   1.363   3.234   9.438 -0.3646 -0.2679 -0.1922
  908MPD2    H713360   1.275   3.224   9.389 -0.5422 -0.5218  0.1744
  909MPD2     C13361   2.697   0.503  11.684  0.1670  0.4995 -0.0413
  909MPD2    C113362   2.708   0.632  11.643 -0.5209  0.4383 -0.5149
  909MPD2    C213363   2.633   0.731  11.707  0.0135  0.0924 -0.6005
  909MPD2    C313364   2.555   0.708  11.818 -0.2737 -0.2341 -0.0991
  909MPD2    C413365   2.546   0.572  11.857 -0.9408  0.2651 -0.4953
  909MPD2    C513366   2.620   0.478  11.795  0.3120  0.2044  0.1294
  909MPD2     H13367   2.639   0.830  11.663  1.2918  0.9624  1.5538
  909MPD2    H113368   2.490   0.541  11.945 -1.5575 -1.9146 -1.6543
  909MPD2    H213369   2.760   0.424  11.645  0.3441  1.5620 -1.9328
  909MPD2    H313370   2.621   0.377  11.834 -3.4771  0.0880 -0.0689
  909MPD2     N13371   2.485   0.813  11.887 -0.0537  0.0786  0.5415
  909MPD2    H513372   2.512   0.909  11.867  0.6583 -0.2361 -0.0230
  909MPD2    N113373   2.768   0.669  11.517 -0.3286 -0.3364 -0.8547
  909MPD2    H713374   2.790   0.768  11.503  1.0773 -0.6057 -0.5594
  910MPD2     C13375   4.028   3.018  16.230 -0.5209 -0.4815  0.2786
  910MPD2    C113376   3.984   2.887  16.210 -0.6317  0.5938 -0.0807
  910MPD2    C213377   3.936   2.845  16.091  0.1863  0.2502  0.3307
  910MPD2    C313378   3.915   2.944  16.001  0.3406  0.6328  0.6082
  910MPD2    C413379   3.966   3.066  16.011  0.0570  0.3592  0.5859
  910MPD2    C513380   4.020   3.109  16.130 -0.3765 -0.1905  0.6430
  910MPD2     H13381   3.896   2.745  16.076 -0.4488  0.5439  0.0658
  910MPD2    H113382   3.962   3.135  15.928 -0.0378 -2.0691 -1.3968
  910MPD2    H213383   4.069   3.057  16.323 -0.6767 -1.2938  0.6945
  910MPD2    H313384   4.064   3.208  16.142 -0.2295 -0.3461  1.3780
  910MPD2     N13385   3.857   2.909  15.876  0.3578 -0.4805 -0.3855
  910MPD2    H513386   3.890   2.966  15.799  1.0861 -1.6668 -0.9450
  910MPD2    N113387   3.986   2.789  16.311 -0.8435 -0.1700  0.2360
  910MPD2    H713388   3.948   2.700  16.279 -1.6781  0.6513 -1.0476
  911MPD2     C13389   1.771   2.729  16.264 -0.7051  0.1614 -0.2241
  911MPD2    C113390   1.814   2.805  16.154 -0.7659 -0.0445 -0.2186
  911MPD2    C213391   1.728   2.884  16.090  0.1442  0.3294  0.6148
  911MPD2    C313392   1.598   2.890  16.124  0.5192 -0.5008  0.0700
  911MPD2    C413393   1.547   2.800  16.215 -0.2396 -1.0569  0.0819
  911MPD2    C513394   1.634   2.714  16.276 -0.4347 -0.9883 -0.2067
  911MPD2     H13395   1.763   2.953  16.013  3.0509 -0.6118  1.0779
  911MPD2    H113396   1.441   2.798  16.233 -0.2015  2.1232  0.7639
  911MPD2    H213397   1.840   2.664  16.316 -0.0330  2.4280  1.7336
  911MPD2    H313398   1.588   2.642  16.342 -0.2989 -1.2077 -0.3545
  911MPD2     N13399   1.497   2.960  16.044 -0.7864 -0.4684 -0.2188
  911MPD2    H513400   1.399   2.960  16.070 -0.9707 -3.4792 -0.9272
  911MPD2    N113401   1.954   2.798  16.125 -0.0333  0.8045  0.3190
  911MPD2    H713402   2.019   2.744  16.181  0.3913  1.2115  0.2316
  912MPD2     C13403   1.127   2.767  15.337  0.4315  0.3018 -0.5733
  912MPD2    C113404   1.147   2.773  15.474  0.2551 -0.0408 -0.0109
  912MPD2    C213405   1.127   2.661  15.556 -0.4810  0.3752 -0.1170
  912MPD2    C313406   1.085   2.542  15.495 -0.5709 -0.3104 -0.0597
  912MPD2    C413407   1.058   2.538  15.359  0.1681 -0.5978  0.4382
  912MPD2    C513408   1.076   2.652  15.282 -0.0404  0.3298 -0.6884
  912MPD2     H13409   1.146   2.659  15.663 -0.5973  1.1904 -0.0798
  912MPD2    H113410   1.031   2.451  15.301 -0.2734 -0.4254  0.3819
  912MPD2    H213411   1.144   2.846  15.266  0.7856  0.5921 -0.1652
  912MPD2    H313412   1.054   2.650  15.177  3.3655  0.4449 -1.4204
  912MPD2     N13413   1.072   2.430  15.572 -0.3049 -0.1562  0.3005
  912MPD2    H513414   1.081   2.455  15.670 -0.5632  2.4005 -0.3339
  912MPD2    N113415   1.204   2.891  15.532  0.3132 -0.1626  0.2261
  912MPD2    H713416   1.259   2.955  15.474  0.5718 -1.2797 -0.7626
  913MPD2     C13417   1.397   3.695  10.837 -0.2684 -0.6884 -0.2759
  913MPD2    C113418   1.516   3.769  10.837  0.5887 -0.2350  0.0212
  913MPD2    C213419   1.532   3.871  10.742 -0.3780  0.5078 -0.2990
  913MPD2    C313420   1.444   3.885  10.635 -0.9153  0.2830  0.1013
  913MPD2    C413421   1.323   3.818  10.645  0.6037 -0.3582 -0.3388
  913MPD2    C513422   1.302   3.727  10.741  0.0802  0.0438 -0.0378
  913MPD2     H13423   1.631   3.917  10.741 -0.9678  1.7820 -0.0204
  913MPD2    H113424   1.238   3.843  10.582  0.8049 -0.9341 -0.8401
  913MPD2    H213425   1.379   3.607  10.898  0.9473  0.1200  1.2329
  913MPD2    H313426   1.213   3.664  10.737 -0.4108  0.5852  2.2318
  913MPD2     N13427   1.455   3.985  10.529 -0.5405  0.2843 -0.3672
  913MPD2    H513428   1.372   4.009  10.477  0.5116 -0.1735 -2.2446
  913MPD2    N113429   1.620   3.728  10.929 -0.2381 -0.1549 -0.4117
  913MPD2    H713430   1.599   3.651  10.991  0.3877  1.5855  1.9695
  914MPD2     C13431   0.643   4.703  12.562 -0.5971 -0.2521  0.5377
  914MPD2    C113432   0.511   0.015  12.541  0.4253 -0.3402  0.1642
  914MPD2    C213433   0.412   4.659  12.546  0.5505 -0.9191  0.2573
  914MPD2    C313434   0.444   4.524  12.568  0.5727 -0.7626 -0.1233
  914MPD2    C413435   0.572   4.486  12.584  0.2745 -0.0764 -0.1169
  914MPD2    C513436   0.674   4.571  12.588  0.3475 -0.7781  0.4505
  914MPD2     H13437   0.310   4.691  12.528  1.1855  0.9723  0.0179
  914MPD2    H113438   0.607   4.386  12.610 -0.7456 -0.9905 -2.2535
  914MPD2    H213439   0.728   0.033  12.543 -2.4368  2.3998  1.3670
  914MPD2    H313440   0.777   4.541  12.602  1.1130  1.9808  0.8817
  914MPD2     N13441   0.338   4.430  12.583 -0.1331 -0.6425  0.0859
  914MPD2    H513442   0.243   4.464  12.592 -1.1196 -3.7083  1.1674
  914MPD2    N113443   0.504   0.156  12.517  0.0757  0.4400  0.4648
  914MPD2    H713444   0.596   0.198  12.512  0.4341 -0.6305 -1.9095
  915MPD2     C13445   3.580   4.473  15.314 -0.2509 -0.2079 -0.0837
  915MPD2    C113446   3.452   4.515  15.298  0.6115 -0.2834 -0.5739
  915MPD2    C213447   3.382   4.551  15.413 -0.1352 -0.3063  0.3550
  915MPD2    C313448   3.442   4.552  15.539  0.4110 -0.7308 -0.4683
  915MPD2    C413449   3.575   4.515  15.555 -0.1702  0.2178  0.0230
  915MPD2    C513450   3.637   4.469  15.437 -0.4147 -0.0281 -0.8527
  915MPD2     H13451   3.274   4.566  15.411 -0.1067  0.0905  1.9966
  915MPD2    H113452   3.632   4.518  15.647 -0.9078  0.9011  0.4488
  915MPD2    H213453   3.634   4.434  15.228 -2.8517 -2.6002 -0.6205
  915MPD2    H313454   3.742   4.443  15.435 -0.1811  0.9520 -1.3197
  915MPD2     N13455   3.353   4.582  15.644 -0.1690 -0.1479 -0.7131
  915MPD2    H513456   3.260   4.620  15.628 -0.5107 -0.6490  0.0868
  915MPD2    N113457   3.396   4.506  15.169 -0.6548 -0.1237 -0.3795
  915MPD2    H713458   3.454   4.461  15.100 -2.1959 -1.1756 -1.0018
  916MPD2     C13459   0.697   2.788  15.437 -0.4483 -0.0286 -0.2588
  916MPD2    C113460   0.706   2.680  15.516  0.1407 -0.0940  0.5832
  916MPD2    C213461   0.720   2.561  15.452  0.1939  1.1589 -0.4112
  916MPD2    C313462   0.720   2.547  15.315 -0.4719 -0.9033 -0.4669
  916MPD2    C413463   0.690   2.654  15.237  0.0871 -0.2086  0.2536
  916MPD2    C513464   0.674   2.777  15.301 -0.2189 -0.3489  0.0471
  916MPD2     H13465   0.742   2.469  15.504  0.3051  0.4756 -1.6733
  916MPD2    H113466   0.696   2.640  15.130 -0.5417  1.1944  0.0357
  916MPD2    H213467   0.687   2.886  15.483 -3.9698 -0.6641  0.3688
  916MPD2    H313468   0.655   2.863  15.237  0.0926 -0.9493 -0.8624
  916MPD2     N13469   0.742   2.416  15.264  0.7028  0.7782  0.4283
  916MPD2    H513470   0.755   2.329  15.315  0.7512  1.7048  1.9817
  916MPD2    N113471   0.735   2.701  15.650 -0.3364  0.0954  0.2411
  916MPD2    H713472   0.712   2.793  15.685  2.4031  1.9001 -2.6608
  917MPD2     C13473   1.041   0.193  11.527 -0.0315  0.5247 -0.9923
  917MPD2    C113474   1.127   0.254  11.620 -0.4256  0.1286  0.4051
  917MPD2    C213475   1.235   0.321  11.574 -0.6590 -0.1593 -0.1931
  917MPD2    C313476   1.270   0.316  11.437  0.1795 -0.3669  0.1581
  917MPD2    C413477   1.182   0.254  11.344  0.1460  0.2975 -0.5957
  917MPD2    C513478   1.066   0.200  11.390 -0.2242 -0.0207 -0.9272
  917MPD2     H13479   1.294   0.378  11.645 -0.9805 -1.4250  1.0875
  917MPD2    H113480   1.201   0.254  11.237 -1.0487 -0.4689 -0.8253
  917MPD2    H213481   0.953   0.151  11.575 -0.9755  0.5056 -2.7534
  917MPD2    H313482   0.998   0.164  11.314 -0.0320 -0.7314 -0.7595
  917MPD2     N13483   1.391   0.369  11.381 -0.6118  0.1726 -0.0661
  917MPD2    H513484   1.401   0.360  11.280  1.4692  1.2576  0.0451
  917MPD2    N113485   1.094   0.230  11.760  0.1515  0.6804 -0.3583
  917MPD2    H713486   1.016   0.170  11.782  0.5862 -0.4517 -1.8372
  918MPD2     C13487   1.256   0.884  12.437  0.3179  0.3138  0.0499
  918MPD2    C113488   1.354   0.793  12.416 -0.6130  0.1759  0.3896
  918MPD2    C213489   1.311   0.668  12.370  0.2859  0.1288  0.3372
  918MPD2    C313490   1.175   0.633  12.360 -0.2986  0.2558  0.0835
  918MPD2    C413491   1.078   0.731  12.376 -0.1815 -0.3757 -0.8003
  918MPD2    C513492   1.120   0.857  12.418  0.1115  0.4870  0.0320
  918MPD2     H13493   1.390   0.599  12.344  0.3995  0.0849  0.7949
  918MPD2    H113494   0.973   0.725  12.349 -0.1977  0.8231 -0.9957
  918MPD2    H213495   1.289   0.983  12.466  1.0629 -0.2464  1.1563
  918MPD2    H313496   1.050   0.940  12.414 -1.6081 -0.9672 -0.0542
  918MPD2     N13497   1.138   0.507  12.312 -0.2587  0.0853  0.7718
  918MPD2    H513498   1.214   0.452  12.272 -0.8594  1.6282 -2.5281
  918MPD2    N113499   1.495   0.818  12.434  0.6065 -0.6290 -0.7018
  918MPD2    H713500   1.556   0.739  12.420  2.1373  0.4315  0.0043
  919MPD2     C13501   2.018   4.250  11.669 -0.0575 -0.5237  0.2370
  919MPD2    C113502   2.022   4.115  11.618  0.1133  0.3529 -0.0955
  919MPD2    C213503   1.921   4.080  11.529 -0.6587  0.2836  0.5569
  919MPD2    C313504   1.848   4.177  11.465 -0.0246  0.0393  0.6643
  919MPD2    C413505   1.868   4.309  11.498 -0.2655  0.4710 -0.5027
  919MPD2    C513506   1.940   4.346  11.611  0.1626  0.2929  0.3435
  919MPD2     H13507   1.910   3.976  11.502  1.1918 -0.0093  0.9318
  919MPD2    H113508   1.795   4.381  11.464 -1.7952 -0.7389  0.1873
  919MPD2    H213509   2.086   4.281  11.748 -2.5749  1.0643  1.7761
  919MPD2    H313510   1.918   4.441  11.657  0.8866 -0.4523  2.2740
  919MPD2     N13511   1.746   4.144  11.367 -0.6860  0.1405  0.0799
  919MPD2    H513512   1.713   4.222  11.311  2.2831  1.0251 -0.4501
  919MPD2    N113513   2.110   4.015  11.657 -0.2858  0.1199 -0.2428
  919MPD2    H713514   2.100   3.931  11.601  1.8860 -0.2078 -0.1280
  920MPD2     C13515   1.490   4.477  10.479 -0.2571 -1.0427  0.1508
  920MPD2    C113516   1.381   4.395  10.513  0.1979 -0.7292  0.7424
  920MPD2    C213517   1.391   4.318  10.627 -0.1261  0.6996  0.0342
  920MPD2    C313518   1.493   4.336  10.716 -0.8008  0.3519 -0.6514
  920MPD2    C413519   1.605   4.412  10.683  0.3254 -0.3646  0.6017
  920MPD2    C513520   1.605   4.472  10.556 -0.2272  0.5183 -0.4454
  920MPD2     H13521   1.323   4.236  10.645  0.5164  0.1227 -0.1722
  920MPD2    H113522   1.683   4.437  10.754  0.1023  0.6043  0.5124
  920MPD2    H213523   1.505   4.517  10.379  1.6135 -1.2890  0.3221
  920MPD2    H313524   1.693   4.531  10.531 -0.1729  1.0816  1.0322
  920MPD2     N13525   1.488   4.245  10.829  0.1403  0.0836  0.0915
  920MPD2    H513526   1.405   4.187  10.835 -1.2638  1.7478 -3.6161
  920MPD2    N113527   1.270   4.383  10.425  0.1886  0.0193  0.1478
  920MPD2    H713528   1.197   4.318  10.454  1.0517 -0.6617  0.8188
  921MPD2     C13529   2.912   3.039  16.349  0.0561 -0.4529 -0.1626
  921MPD2    C113530   2.896   3.088  16.220 -0.4690  0.1812 -0.2169
  921MPD2    C213531   2.772   3.078  16.161  0.1540  0.1800  0.0554
  921MPD2    C313532   2.667   3.025  16.230  0.3328  0.0364  0.0254
  921MPD2    C413533   2.683   2.981  16.364 -0.1041  0.6194 -0.4079
  921MPD2    C513534   2.806   3.000  16.425  0.3319  0.6782 -0.2667
  921MPD2     H13535   2.755   3.120  16.063  2.5147 -2.9678 -1.6901
  921MPD2    H113536   2.608   2.939  16.430 -0.4062  3.2993  0.9227
  921MPD2    H213537   3.007   3.034  16.402  0.0288  0.6985  0.0006
  921MPD2    H313538   2.813   2.968  16.529  1.0438  0.3802 -0.4071
  921MPD2     N13539   2.546   3.023  16.161  0.3588  0.3629  0.2063
  921MPD2    H513540   2.547   3.068  16.071 -0.7263 -0.7967 -0.3785
  921MPD2    N113541   3.010   3.130  16.145  0.2512 -0.5317 -0.2184
  921MPD2    H713542   3.085   3.144  16.212 -1.1342  0.7642  1.0690
  922MPD2     C13543   3.451   0.388  17.530 -0.1008 -0.0110  0.3543
  922MPD2    C113544   3.389   0.499  17.588 -0.4906 -0.1508  0.1083
  922MPD2    C213545   3.303   0.579  17.509  0.3333 -0.0143  0.3580
  922MPD2    C313546   3.254   0.527  17.388 -0.4188 -0.4816 -0.2199
  922MPD2    C413547   3.310   0.412  17.336 -0.5174  0.1892 -0.0888
  922MPD2    C513548   3.408   0.350  17.405  0.5513  0.1652  0.3017
  922MPD2     H13549   3.257   0.669  17.549 -1.3661 -0.9765  0.5520
  922MPD2    H113550   3.288   0.384  17.234  0.2666 -0.2455 -0.1422
  922MPD2    H213551   3.529   0.331  17.578  0.8765  0.6037 -0.5155
  922MPD2    H313552   3.456   0.260  17.369 -2.3048 -1.2211 -0.0730
  922MPD2     N13553   3.153   0.600  17.319  0.2067 -0.2876  0.8083
  922MPD2    H513554   3.120   0.688  17.356  0.1776 -0.0943  0.3243
  922MPD2    N113555   3.421   0.540  17.727 -0.6379  0.2012 -0.1454
  922MPD2    H713556   3.386   0.630   0.017  3.0747  2.0193 -1.2750
  923MPD2     C13557   3.418   3.333   9.297 -0.0647  0.3984  0.3792
  923MPD2    C113558   3.498   3.445   9.257 -0.5682 -0.8063  0.1297
  923MPD2    C213559   3.634   3.441   9.279 -0.2103 -0.3060  0.2059
  923MPD2    C313560   3.700   3.335   9.336 -0.3498  0.2436 -0.2925
  923MPD2    C413561   3.619   3.223   9.355  0.6467  0.6559 -0.0093
  923MPD2    C513562   3.485   3.215   9.333 -0.6200 -0.4760  0.2975
  923MPD2     H13563   3.688   3.530   9.247 -0.4212 -0.5571 -0.8567
  923MPD2    H113564   3.667   3.132   9.389 -0.4581 -0.4504 -1.4415
  923MPD2    H213565   3.310   3.331   9.301 -0.0250  1.7376  1.9904
  923MPD2    H313566   3.432   3.121   9.338  1.9623 -1.9970 -0.8395
  923MPD2     N13567   3.837   3.334   9.359  0.4833  0.0488 -0.7138
  923MPD2    H513568   3.873   3.252   9.408 -0.6668 -0.4693 -0.7442
  923MPD2    N113569   3.427   3.566   9.225  0.0758  0.1837  0.1091
  923MPD2    H713570   3.329   3.564   9.251  0.2776  0.3597  0.8824
  924MPD2     C13571   4.714   1.317  16.049  0.5989  0.1954 -0.1187
  924MPD2    C113572   0.037   1.376  16.154 -0.8235  0.0489 -0.2208
  924MPD2    C213573   0.150   1.455  16.120 -0.3237  1.1110 -0.4385
  924MPD2    C313574   0.195   1.470  15.990  0.0141 -0.1798  0.0763
  924MPD2    C413575   0.146   1.391  15.887  0.0103 -0.7143  0.5327
  924MPD2    C513576   0.033   1.321  15.924 -0.7500 -0.1905  0.0929
  924MPD2     H13577   0.205   1.504  16.200 -0.6187 -0.1507  0.5253
  924MPD2    H113578   0.187   1.388  15.787 -0.7056 -2.8516  0.2965
  924MPD2    H213579   4.619   1.265  16.055 -0.2425  1.9117  1.4843
  924MPD2    H313580   4.726   1.250  15.854 -2.5591 -0.1327  1.1277
  924MPD2     N13581   0.304   1.559  15.983  0.1775 -0.1781 -0.4019
  924MPD2    H513582   0.322   1.616  16.065  2.7364  0.8844 -1.6875
  924MPD2    N113583   4.710   1.374  16.279 -0.0698 -0.1711  0.2205
  924MPD2    H713584   4.636   1.306  16.292  0.0963  0.1696  3.0316
  925MPD2     C13585   3.985   3.749  14.326 -0.1037 -0.0387  0.3979
  925MPD2    C113586   3.912   3.693  14.227 -0.6377 -0.1930 -0.4301
  925MPD2    C213587   3.775   3.683  14.250 -0.3819 -0.3454 -0.3292
  925MPD2    C313588   3.707   3.731  14.368 -0.1734  0.8060  0.7403
  925MPD2    C413589   3.789   3.785  14.461 -0.0145  0.1692 -0.2032
  925MPD2    C513590   3.924   3.799  14.443  0.0662  0.0610 -0.1560
  925MPD2     H13591   3.711   3.641  14.174 -2.6340 -1.3818  2.1469
  925MPD2    H113592   3.756   3.819  14.559  3.0146 -0.4813  1.0579
  925MPD2    H213593   4.092   3.765  14.315  0.0863  0.0877  2.3006
  925MPD2    H313594   3.977   3.855  14.520 -1.2353 -0.4105  1.0806
  925MPD2     N13595   3.570   3.720  14.408 -0.1093  0.1057  0.3321
  925MPD2    H513596   3.536   3.760  14.495 -0.5560 -1.0244  0.6752
  925MPD2    N113597   3.967   3.655  14.100  0.3339  0.7003 -0.3320
  925MPD2    H713598   3.898   3.628  14.030  0.4492  1.3052 -0.6778
  926MPD2     C13599   2.580   2.067  13.273  0.2181 -0.4959  0.1249
  926MPD2    C113600   2.558   2.195  13.287 -0.1723 -0.5636  0.0101
  926MPD2    C213601   2.658   2.273  13.237  0.0486 -0.0126  0.5188
  926MPD2    C313602   2.778   2.232  13.175 -0.3414 -0.2977 -0.1380
  926MPD2    C413603   2.795   2.094  13.179 -0.2417 -0.2965  0.1329
  926MPD2    C513604   2.698   2.014  13.228 -0.1162 -0.3448  0.3162
  926MPD2     H13605   2.649   2.380  13.254  2.7933  0.0565  1.4553
  926MPD2    H113606   2.883   2.044  13.139  1.5625  2.9627  0.0530
  926MPD2    H213607   2.509   1.998  13.316  1.6070 -0.9247  1.7527
  926MPD2    H313608   2.704   1.906  13.226  1.4787 -0.2780  1.5901
  926MPD2     N13609   2.879   2.315  13.120 -0.4045  0.2009  0.7459
  926MPD2    H513610   2.969   2.274  13.098 -0.5280  0.5704 -0.4138
  926MPD2    N113611   2.447   2.250  13.355 -0.7885 -0.6760  0.0511
  926MPD2    H713612   2.439   2.351  13.345 -1.3485 -0.7219  0.0182
  927MPD2     C13613   1.761   3.414  17.697  0.5343  0.1722 -0.3488
  927MPD2    C113614   1.843   3.532  17.687 -0.1890  0.4377  0.0074
  927MPD2    C213615   1.970   3.522  17.635 -0.0485 -0.0941  0.1045
  927MPD2    C313616   2.027   3.399  17.593  0.3327 -0.1482  0.0810
  927MPD2    C413617   1.943   3.286  17.615  0.0150  0.0704  0.2353
  927MPD2    C513618   1.814   3.291  17.665 -0.9051 -0.7434  0.4536
  927MPD2     H13619   2.040   3.605  17.631 -0.5841  0.3355 -0.3981
  927MPD2    H113620   1.972   3.186  17.587 -0.2199  0.5440 -1.7248
  927MPD2    H213621   1.661   3.434  17.734 -0.7460 -2.2237 -2.5739
  927MPD2    H313622   1.767   3.193  17.664 -1.9323 -0.2342 -1.7512
  927MPD2     N13623   2.166   3.393  17.562  0.6919 -0.1367  0.5858
  927MPD2    H513624   2.224   3.475  17.561  1.5060 -0.7121  1.2332
  927MPD2    N113625   1.798   3.651   0.013  0.2258 -0.8478  0.1506
  927MPD2    H713626   1.707   3.643   0.056  0.5320 -0.5159  0.8628
  928MPD2     C13627   4.032   2.583   0.224 -0.4415 -0.0106 -0.0405
  928MPD2    C113628   4.128   2.617   0.316  0.1069  0.2855  0.5575
  928MPD2    C213629   4.255   2.567   0.293  0.7171 -0.3271 -0.1155
  928MPD2    C313630   4.292   2.486   0.189  0.0540  0.3937  0.1779
  928MPD2    C413631   4.189   2.450   0.105 -0.4473  0.4082 -0.5657
  928MPD2    C513632   4.065   2.497   0.118 -0.4562 -0.5496  0.2671
  928MPD2     H13633   4.322   2.604   0.370  1.6622  0.7410 -1.4608
  928MPD2    H113634   4.201   2.380   0.023  0.1214 -1.8761  1.4661
  928MPD2    H213635   3.935   2.633   0.226 -1.4129 -1.9178  1.6676
  928MPD2    H313636   3.990   2.466   0.047  0.2113 -0.8408 -0.3077
  928MPD2     N13637   4.429   2.445   0.160  0.2563  0.3785 -0.4039
  928MPD2    H513638   4.433   2.384   0.079 -2.1669 -0.9884  0.5089
  928MPD2    N113639   4.108   2.711   0.422 -0.3508  0.2256  0.2167
  928MPD2    H713640   4.193   2.745   0.466 -0.8409  2.4475 -0.5578
  929MPD2     C13641   4.381   3.638  10.188  0.0693  0.2699 -0.1200
  929MPD2    C113642   4.275   3.556  10.226 -1.0340  0.8248 -0.7980
  929MPD2    C213643   4.151   3.592  10.172 -0.0230 -0.1671 -0.2691
  929MPD2    C313644   4.130   3.692  10.077  0.3645  0.2735  0.1359
  929MPD2    C413645   4.233   3.776  10.046  0.3545 -0.0651  0.8295
  929MPD2    C513646   4.354   3.747  10.102 -0.1390  0.2197 -0.1962
  929MPD2     H13647   4.071   3.520  10.171 -1.0684  0.9760  2.0555
  929MPD2    H113648   4.213   3.860   9.979  0.0708 -0.8755 -0.1055
  929MPD2    H213649   4.477   3.624  10.235 -0.6785 -0.8054  1.0791
  929MPD2    H313650   4.432   3.819  10.078  0.6801 -0.6563 -0.1604
  929MPD2     N13651   4.001   3.722  10.026 -0.6326 -0.2251 -0.6391
  929MPD2    H513652   3.999   3.809   9.975 -1.5010  0.6845  0.9452
  929MPD2    N113653   4.294   3.442  10.297 -0.2227  0.8408  0.1709
  929MPD2    H713654   4.389   3.421  10.326  0.1291  1.7013 -0.3805
  930MPD2     C13655   2.600   0.064  13.827  0.0073 -0.2664  0.0863
  930MPD2    C113656   2.523   0.176  13.848  0.2984 -0.1426 -0.7550
  930MPD2    C213657   2.476   0.240  13.736  0.2823 -0.2649  0.0342
  930MPD2    C313658   2.503   0.195  13.609 -0.3214 -0.0052  1.1006
  930MPD2    C413659   2.573   0.082  13.591 -0.7360  0.3204  0.4305
  930MPD2    C513660   2.628   0.020  13.700  0.4071 -0.0259 -0.0419
  930MPD2     H13661   2.413   0.328  13.739 -0.7663 -1.0902  2.6449
  930MPD2    H113662   2.594   0.047  13.490 -1.4418 -0.6384  0.6132
  930MPD2    H213663   2.653   0.015  13.908  0.0651  1.0911  0.8693
  930MPD2    H313664   2.685   4.663  13.696  3.2536  1.7816 -1.3989
  930MPD2     N13665   2.461   0.261  13.487  0.4826  0.1011  0.3814
  930MPD2    H513666   2.505   0.216  13.407 -0.4379  0.5228 -0.3503
  930MPD2    N113667   2.500   0.218  13.984 -0.0987 -0.3079  0.2854
  930MPD2    H713668   2.559   0.171  14.052 -0.8821 -0.1634  1.0694
  931MPD2     C13669   2.326   3.818   0.402  1.0197  0.1285  0.2886
  931MPD2    C113670   2.210   3.873   0.452  0.7315  0.0640 -0.4523
  931MPD2    C213671   2.168   3.817   0.576  0.1130 -0.4425  0.3613
  931MPD2    C313672   2.231   3.709   0.637  0.1956  0.4287 -0.2384
  931MPD2    C413673   2.345   3.654   0.576 -0.1906 -0.3574 -0.2241
  931MPD2    C513674   2.391   3.717   0.467  0.3946  0.0166 -0.4075
  931MPD2     H13675   2.072   3.851   0.614  0.6575  0.4747  0.9184
  931MPD2    H113676   2.389   3.570   0.627 -0.8642 -0.3080  0.4564
  931MPD2    H213677   2.364   3.870   0.314  2.4854 -0.1273  0.7674
  931MPD2    H313678   2.493   3.695   0.436 -0.3113  0.0391 -2.7105
  931MPD2     N13679   2.180   3.632   0.748  0.3065  0.8338  0.2609
  931MPD2    H513680   2.213   3.537   0.752 -0.7532  0.5654  2.4591
  931MPD2    N113681   2.118   3.942   0.368 -0.2060  0.4402 -0.0972
  931MPD2    H713682   2.151   3.955   0.273 -1.3531  2.4600 -0.2294
  932MPD2     C13683   3.599   3.626  11.134  0.1450  0.5552  0.4746
  932MPD2    C113684   3.636   3.688  11.254  0.0856  0.3587  0.2853
  932MPD2    C213685   3.705   3.607  11.349 -0.1159  0.6718  1.0446
  932MPD2    C313686   3.733   3.469  11.328 -0.6507 -0.4094  0.4726
  932MPD2    C413687   3.690   3.415  11.208 -0.1683  0.0386  0.4398
  932MPD2    C513688   3.629   3.495  11.115 -0.1354 -0.1548 -0.8874
  932MPD2     H13689   3.748   3.653  11.437  3.2266 -1.1625  0.3646
  932MPD2    H113690   3.700   3.307  11.199  0.8913  0.2986 -1.4689
  932MPD2    H213691   3.543   3.671  11.053  0.2457  2.0228  1.2150
  932MPD2    H313692   3.603   3.445  11.022 -1.4540 -0.2995 -0.4368
  932MPD2     N13693   3.804   3.386  11.428 -0.2641 -0.4448  0.2574
  932MPD2    H513694   3.824   3.290  11.399 -1.7805 -0.9223  0.7771
  932MPD2    N113695   3.631   3.832  11.277  0.5035 -0.3494 -0.4450
  932MPD2    H713696   3.656   3.871  11.368  0.5831  0.5798 -0.8698
  933MPD2     C13697   3.909   3.538   0.812  0.6350 -0.1669 -0.3182
  933MPD2    C113698   3.951   3.472   0.694  0.3352 -0.2267  0.2141
  933MPD2    C213699   3.988   3.547   0.581 -0.2452 -0.1349  0.3124
  933MPD2    C313700   4.000   3.687   0.588 -0.3930 -0.1855 -0.3016
  933MPD2    C413701   3.969   3.746   0.706 -0.7190 -0.3192 -0.7586
  933MPD2    C513702   3.922   3.675   0.820  0.6175  0.4655  0.0508
  933MPD2     H13703   4.020   3.498   0.490  2.4918  2.7742 -0.2895
  933MPD2    H113704   3.968   3.853   0.719  1.8232 -0.4393  0.4245
  933MPD2    H213705   3.886   3.473   0.896 -0.4897 -0.5701 -0.9447
  933MPD2    H313706   3.891   3.729   0.909 -0.9924  1.4247 -1.1037
  933MPD2     N13707   4.022   3.762   0.464  0.6585 -0.3681  0.5292
  933MPD2    H513708   4.048   3.701   0.387  0.4449  0.2864 -0.0555
  933MPD2    N113709   3.950   3.331   0.688  0.2044  0.0952  0.3109
  933MPD2    H713710   3.941   3.284   0.778  0.5078 -0.3694  0.0953
  934MPD2     C13711   1.799   1.075   1.319  0.1734 -0.1649  0.7270
  934MPD2    C113712   1.796   1.025   1.184  0.6673 -0.0772 -0.2026
  934MPD2    C213713   1.698   0.935   1.158 -0.6775 -0.6013  0.0191
  934MPD2    C313714   1.607   0.880   1.254  0.0049  0.0754 -0.7603
  934MPD2    C413715   1.616   0.925   1.382  0.2958  0.3403  0.4771
  934MPD2    C513716   1.717   1.008   1.416  0.7958 -0.6416 -0.0667
  934MPD2     H13717   1.685   0.917   1.052 -1.0906 -0.8279  0.1098
  934MPD2    H113718   1.563   0.865   1.456  1.1792 -0.0097  0.8351
  934MPD2    H213719   1.873   1.146   1.354 -0.5468  1.0985 -0.3028
  934MPD2    H313720   1.738   1.040   1.518 -1.0954 -1.9829  0.7639
  934MPD2     N13721   1.517   0.774   1.230  0.1044  0.4531  0.4054
  934MPD2    H513722   1.461   0.742   1.309  0.7450 -3.2174 -0.6532
  934MPD2    N113723   1.894   1.049   1.085 -0.3405  0.3675 -0.0921
  934MPD2    H713724   1.893   0.983   1.007 -0.3535  0.2951 -0.0303
  935MPD2     C13725   1.742   4.677   0.799  0.5035  0.5385  0.8422
  935MPD2    C113726   1.615   4.644   0.847 -0.1958  0.1545 -0.2441
  935MPD2    C213727   1.540   0.005   0.913 -0.8885  0.4563  0.0714
  935MPD2    C313728   1.587   0.136   0.923  0.0598 -0.3405  0.1329
  935MPD2    C413729   1.718   0.166   0.885  0.2979  0.1221  0.0916
  935MPD2    C513730   1.788   0.071   0.810 -0.3881  0.7651  0.3276
  935MPD2     H13731   1.438   4.717   0.940 -1.4729  2.1259 -0.7241
  935MPD2    H113732   1.759   0.266   0.872 -0.7741  0.5412 -0.0058
  935MPD2    H213733   1.806   4.602   0.754 -0.4872  0.0830  0.2133
  935MPD2    H313734   1.886   0.091   0.767 -0.1558 -0.0635  0.4797
  935MPD2     N13735   1.523   0.250   0.978 -0.6118 -0.7902 -0.0206
  935MPD2    H513736   1.573   0.337   0.991 -0.1030 -0.8869 -1.2990
  935MPD2    N113737   1.561   4.514   0.830  0.0678  0.1418 -0.2839
  935MPD2    H713738   1.466   4.505   0.864  0.8891 -0.0745  1.9170
  936MPD2     C13739   4.145   1.990  12.170 -0.1560 -1.4703  0.4593
  936MPD2    C113740   4.184   1.987  12.307  0.0846 -0.3939 -0.5888
  936MPD2    C213741   4.311   2.033  12.346  0.1966 -0.0579 -0.1265
  936MPD2    C313742   4.409   2.073  12.260 -0.3693  0.8070  0.8344
  936MPD2    C413743   4.359   2.097  12.132 -0.4295 -0.5544 -0.2440
  936MPD2    C513744   4.232   2.050  12.084 -0.2204  0.3484  0.0313
  936MPD2     H13745   4.340   2.024  12.450 -0.4885  1.7992  0.2300
  936MPD2    H113746   4.417   2.154  12.060  0.7673  0.1608  1.2964
  936MPD2    H213747   4.043   1.968  12.140 -0.6251 -0.1969  1.1425
  936MPD2    H313748   4.198   2.065  11.983  1.7693  1.0959 -0.5209
  936MPD2     N13749   4.551   2.103  12.290 -0.1812  0.1882  0.3413
  936MPD2    H513750   4.611   2.148  12.222  1.7660 -2.2232  0.4602
  936MPD2    N113751   4.103   1.939  12.412  0.2360  0.1038  0.3946
  936MPD2    H713752   4.146   1.948  12.504  0.0524 -0.4855  0.5337
  937MPD2     C13753   2.207   3.512  11.220 -0.3270  0.0875  0.0764
  937MPD2    C113754   2.302   3.600  11.269  0.1904  0.3429  0.4019
  937MPD2    C213755   2.360   3.684  11.176 -1.0873 -0.4107  0.1359
  937MPD2    C313756   2.349   3.672  11.043  0.1405  0.2855 -0.4915
  937MPD2    C413757   2.275   3.570  10.988  0.2812 -0.6998 -0.4560
  937MPD2    C513758   2.200   3.494  11.080 -0.1527  0.3174 -0.0639
  937MPD2     H13759   2.426   3.761  11.216 -1.1830  1.1432 -2.7035
  937MPD2    H113760   2.264   3.542  10.883  1.4503 -1.2039 -0.4435
  937MPD2    H213761   2.139   3.459  11.286  0.2736 -3.6129 -2.2469
  937MPD2    H313762   2.130   3.420  11.043 -0.2188  0.5513 -0.4103
  937MPD2     N13763   2.418   3.773  10.967 -0.0885  0.2186  0.3636
  937MPD2    H513764   2.469   3.842  11.021 -0.2484  0.0150  0.7777
  937MPD2    N113765   2.318   3.642  11.407  0.0519 -0.4680 -0.3927
  937MPD2    H713766   2.381   3.718  11.432 -2.4413  1.8467 -1.1426
  938MPD2     C13767   4.725   3.698   0.817 -0.0224  0.1007 -0.8038
  938MPD2    C113768   4.666   3.784   0.905 -0.1683 -0.5149 -0.6164
  938MPD2    C213769   4.599   3.739   1.015  0.4038  0.6128  0.2724
  938MPD2    C313770   4.613   3.605   1.054 -0.2207 -0.6929 -0.1336
  938MPD2    C413771   4.678   3.518   0.966 -0.5754 -0.5656 -0.1069
  938MPD2    C513772   0.001   3.573   0.855  0.4136 -0.5381  0.0649
  938MPD2     H13773   4.544   3.805   1.081  0.9309  0.4604  0.8646
  938MPD2    H113774   4.664   3.411   0.972  0.8362 -0.6927  0.6998
  938MPD2    H213775   0.028   3.736   0.723  1.5094  1.8798  0.5442
  938MPD2    H313776   0.049   3.501   0.789  0.4731 -0.7890  0.3782
  938MPD2     N13777   4.541   3.554   1.163 -0.1074 -0.2846 -0.0615
  938MPD2    H513778   4.545   3.453   1.175 -0.2013  0.1080  3.2631
  938MPD2    N113779   4.643   3.917   0.870  0.1819 -0.1040 -0.4442
  938MPD2    H713780   4.593   3.974   0.936  1.7938 -1.1156  1.6679
  939MPD2     C13781   0.874   1.035   0.826 -0.6572  0.5199 -0.5507
  939MPD2    C113782   0.776   0.939   0.813 -0.4342  0.1007  0.2904
  939MPD2    C213783   0.806   0.839   0.718 -0.0078 -0.1792  0.2575
  939MPD2    C313784   0.927   0.831   0.649  0.3377  0.7919 -0.2470
  939MPD2    C413785   1.019   0.930   0.672 -0.6336  0.3759  0.6441
  939MPD2    C513786   0.990   1.031   0.762  0.6404 -0.4484  0.1131
  939MPD2     H13787   0.723   0.771   0.700 -0.9251  0.6135  1.5455
  939MPD2    H113788   1.109   0.932   0.612 -0.1192  1.3454  1.4483
  939MPD2    H213789   0.866   1.111   0.903  0.4540  1.8088 -1.7083
  939MPD2    H313790   1.070   1.098   0.793 -1.2185  1.8048  0.0038
  939MPD2     N13791   0.941   0.732   0.547  0.1931 -0.5118  0.2429
  939MPD2    H513792   0.863   0.673   0.519  0.6305 -1.3821  0.8560
  939MPD2    N113793   0.662   0.963   0.887 -0.1289  0.3534  0.3664
  939MPD2    H713794   0.669   1.040   0.952 -1.2593  0.4166  0.4074
  940MPD2     C13795   0.342   2.288  12.962  0.0910  0.4635 -0.0279
  940MPD2    C113796   0.343   2.149  12.985  0.0454  0.6672  0.8415
  940MPD2    C213797   0.385   2.066  12.890  0.4235  0.4474  0.6809
  940MPD2    C313798   0.447   2.118  12.772  0.2075 -0.5720  0.0443
  940MPD2    C413799   0.437   2.251  12.750  0.0319  0.0783  0.2079
  940MPD2    C513800   0.393   2.334  12.843 -0.0393  0.1304  0.3568
  940MPD2     H13801   0.380   1.961  12.913  0.4364  0.1696 -0.5824
  940MPD2    H113802   0.472   2.298  12.658  0.8167 -3.4660 -1.2971
  940MPD2    H213803   0.289   2.357  13.027 -0.0563  2.0573 -1.8657
  940MPD2    H313804   0.391   2.442  12.828  0.7613  0.1019  0.0289
  940MPD2     N13805   0.475   2.045  12.654  0.3381  0.0944 -0.2915
  940MPD2    H513806   0.480   2.090  12.563 -3.1208  1.9072  0.4117
  940MPD2    N113807   0.292   2.088  13.098 -0.0601  0.3735  0.3586
  940MPD2    H713808   0.306   1.988  13.109  1.8815  0.5280 -0.6024
  941MPD2     C13809   3.347   1.619  10.302  0.2784  0.3608  0.6272
  941MPD2    C113810   3.450   1.530  10.265  0.2453 -0.3097 -0.0356
  941MPD2    C213811   3.434   1.396  10.284  0.1618  0.3353 -0.7112
  941MPD2    C313812   3.314   1.351  10.340 -0.7761  0.4477  0.6621
  941MPD2    C413813   3.214   1.434  10.354  0.3921 -0.3737  0.4819
  941MPD2    C513814   3.231   1.568  10.340 -0.3871  0.0044  0.0293
  941MPD2     H13815   3.515   1.327  10.267 -0.3907 -0.3070 -0.7555
  941MPD2    H113816   3.120   1.406  10.400 -0.2056  1.2139  0.2304
  941MPD2    H213817   3.340   1.727  10.308  0.4191  0.3444  1.1243
  941MPD2    H313818   3.147   1.627  10.375 -0.3473  0.6656 -1.0049
  941MPD2     N13819   3.281   1.220  10.372  0.1236 -0.0827  0.0473
  941MPD2    H513820   3.182   1.204  10.392 -0.2691  1.3243 -0.7699
  941MPD2    N113821   3.567   1.574  10.208  0.5879  0.1498 -0.4196
  941MPD2    H713822   3.625   1.499  10.171  1.1446  0.7322 -0.7328
  942MPD2     C13823   3.259   3.018   9.634  0.2531  0.1861 -0.5929
  942MPD2    C113824   3.201   3.139   9.601  0.7698  0.1496  0.1404
  942MPD2    C213825   3.267   3.259   9.620  0.1036  0.4805  0.4877
  942MPD2    C313826   3.395   3.245   9.669 -0.0138  0.8501  0.0558
  942MPD2    C413827   3.448   3.126   9.713  0.2734  0.4990  0.1960
  942MPD2    C513828   3.383   3.013   9.687 -0.0335  0.3838  0.0705
  942MPD2     H13829   3.214   3.351   9.599  0.6040  1.2506  2.6504
  942MPD2    H113830   3.550   3.112   9.749  0.1590  0.5849  0.5559
  942MPD2    H213831   3.208   2.926   9.607  0.4208 -0.0258 -0.1783
  942MPD2    H313832   3.426   2.917   9.713  0.0299  0.3700 -0.0816
  942MPD2     N13833   3.482   3.354   9.681 -0.1204 -0.3253 -0.0267
  942MPD2    H513834   3.574   3.330   9.716  0.2941  2.1994  0.6161
  942MPD2    N113835   3.063   3.148   9.558 -0.4299  0.0169  0.2372
  942MPD2    H713836   3.027   3.238   9.528  1.7781  1.4697  1.9470
  943MPD2     C13837   2.713   0.429   9.935 -0.5866  0.2498  0.5259
  943MPD2    C113838   2.591   0.449   9.990  0.1674 -0.1927  0.1116
  943MPD2    C213839   2.575   0.560  10.078 -0.9527 -0.1680 -0.5109
  943MPD2    C313840   2.691   0.627  10.118  0.5914 -0.2002  0.2682
  943MPD2    C413841   2.810   0.594  10.063 -0.0449  0.2537 -0.1615
  943MPD2    C513842   2.820   0.502   9.966 -0.1247  0.3968  0.3815
  943MPD2     H13843   2.477   0.591  10.110 -0.4641  0.8589 -0.0140
  943MPD2    H113844   2.894   0.656  10.093 -1.6886  1.9458  0.9565
  943MPD2    H213845   2.731   0.355   9.858  0.2240  1.6094 -0.6010
  943MPD2    H313846   2.911   0.481   9.912 -0.9741  0.8831 -1.2300
  943MPD2     N13847   2.695   0.741  10.197  0.0589  0.2323 -0.0695
  943MPD2    H513848   2.788   0.775  10.218  0.8167 -3.4952  2.4574
  943MPD2    N113849   2.486   0.374   9.937  0.1408 -0.0859 -0.2133
  943MPD2    H713850   2.509   0.293   9.880 -1.0608 -0.3687 -0.2853
  944MPD2     C13851   2.568   4.553  11.612 -0.2291 -0.5072 -0.3278
  944MPD2    C113852   2.542   4.604  11.486  0.3674 -0.3322 -0.1034
  944MPD2    C213853   2.494   4.731  11.466 -0.6384 -1.1579 -0.5636
  944MPD2    C313854   2.466   0.072  11.577  0.3822 -0.1264 -0.3192
  944MPD2    C413855   2.486   0.017  11.703  0.1677 -0.4880  0.0684
  944MPD2    C513856   2.528   4.624  11.719 -1.2074  0.1501 -0.3634
  944MPD2     H13857   2.474   0.043  11.370 -1.1197 -0.9961 -0.3860
  944MPD2    H113858   2.471   0.074  11.794  1.1935  1.0767 -0.7549
  944MPD2    H213859   2.626   4.464  11.632  2.6004  1.5525  0.6848
  944MPD2    H313860   2.536   4.582  11.819 -2.0246 -2.4590 -1.4145
  944MPD2     N13861   2.419   0.206  11.556  0.0742 -0.8328 -0.0530
  944MPD2    H513862   2.422   0.244  11.462  1.8105  0.2679  0.4439
  944MPD2    N113863   2.568   4.519  11.375 -0.0251  0.5826 -0.1940
  944MPD2    H713864   2.574   4.420  11.396  0.6530  0.2566 -1.9266
    1TMC1    C113865   1.469   0.827  14.297 -0.2997 -0.2217 -0.1324
    1TMC1    C213866   1.532   0.888  14.190 -0.3530  0.4964  0.7592
    1TMC1    C313867   1.614   0.817  14.114 -0.2460  0.0168 -0.7328
    1TMC1    C413868   1.518   0.699  14.341 -0.2456 -0.4250  0.0555
    1TMC1    C513869   1.616   0.636  14.268  0.0528 -0.1105 -0.1162
    1TMC1    C613870   1.660   0.686  14.148 -0.1686  0.0793  0.3141
    1TMC1     C13871   1.426   0.911  14.405  0.5875  0.2969  0.7304
    1TMC1     O13872   1.450   0.874  14.518 -0.3541  0.3245 -0.2237
    1TMC1     H13873   1.518   0.993  14.167 -0.3193  0.5582  1.0190
    1TMC1    H113874   1.480   0.652  14.431 -0.3004 -0.3938  0.0485
    1TMC1    H213875   1.723   0.635  14.075 -0.9285 -1.0774  0.4656
    1TMC1    C713876   1.636   0.504  14.306 -0.6148 -0.4039  0.0626
    1TMC1    C813877   1.685   0.871  14.001  0.2233  0.8103 -0.0423
    1TMC1    O113878   1.569   0.437  14.383  0.6313  0.3178 -0.1298
    1TMC1    O213879   1.724   0.810  13.903  0.5115  0.0107  0.4417
    1TMC1    O313880   1.753   0.464  14.246  0.2108  0.3743 -0.1869
    1TMC1    H313881   1.793   0.542  14.200  1.2309 -0.5137 -0.7982
    1TMC1    O513882   1.770   0.954  14.067  0.5713  0.0679  0.2337
    1TMC1    H513883   1.739   0.975  14.158  0.5124  0.4434  0.1276
    2MPD2     C13884   1.223   1.376  14.499 -0.0419  0.8340 -0.0904
    2MPD2    C113885   1.228   1.353  14.364  0.0586 -0.1553  0.3163
    2MPD2    C213886   1.272   1.229  14.320  0.1338  0.3607  0.4068
    2MPD2    C313887   1.313   1.135  14.415 -0.3569  0.3919  0.7243
    2MPD2    C413888   1.327   1.166  14.546  0.0089  0.0119  0.1246
    2MPD2    C513889   1.266   1.278  14.593 -0.6192 -0.2670  0.1277
    2MPD2     H13890   1.255   1.200  14.217 -2.1385 -0.1103  0.9243
    2MPD2    H113891   1.357   1.092  14.619 -0.5791  1.5114  1.9004
    2MPD2    H213892   1.182   1.467  14.544 -1.5911 -0.2004  0.6134
    2MPD2    H313893   1.268   1.301  14.699 -0.5214  0.3180 -0.0011
    2MPD2     N13894   1.356   1.018  14.355 -0.1152 -0.5088  0.2581
    2MPD2    H513895   1.334   1.010  14.256  0.2096 -1.1972  0.2417
    2MPD2    N113896   1.187   1.454  14.276 -0.2599 -0.8196  0.2229
    2MPD2    H713897   1.153   1.539  14.319 -0.6353 -0.7340 -0.2356
    3TMC2    C113898   1.116   1.560  14.074  0.3699  0.5607 -0.5049
    3TMC2    C213899   1.068   1.659  14.155 -0.1550  0.0298 -0.1114
    3TMC2    C313900   0.985   1.742  14.094  0.1751 -0.2951 -0.6749
    3TMC2    C413901   1.073   1.550  13.941 -0.2734 -0.5214 -0.1229
    3TMC2    C513902   0.996   1.649  13.885 -0.7908 -0.1978  0.4521
    3TMC2    C613903   0.941   1.736  13.967  0.1351  0.3065 -1.2419
    3TMC2     C13904   1.172   1.445  14.138 -1.2212 -0.2141  0.0213
    3TMC2     O13905   1.221   1.365  14.055 -0.4295  0.6705 -0.6116
    3TMC2     H13906   1.075   1.661  14.263 -0.4729  1.5129 -0.1216
    3TMC2    H113907   1.094   1.460  13.885 -0.5557 -1.9109  2.0114
    3TMC2    H213908   0.866   1.804  13.929 -0.3921 -0.2516 -1.1895
    3TMC2    C713909   0.936   1.635  13.752 -0.1191 -0.7590  0.1777
    3TMC2    C813910   0.921   1.838  14.183 -0.4568  0.4377 -0.0360
    3TMC2    O113911   0.930   1.520  13.709 -0.4750 -0.2885  0.4262
    3TMC2    O213912   0.978   1.936  14.232  1.0775 -0.6643  0.1432
    3TMC2    O513913   0.786   1.831  14.174  0.5571 -0.5009  0.9859
    3TMC2    H513914   0.767   1.737  14.151 -1.8746  0.0665  0.6922
    4TMC2    C113915   0.692   2.368  13.250 -0.1454 -0.0735 -0.3014
    4TMC2    C213916   0.763   2.484  13.273 -0.0156 -0.9756 -0.1648
    4TMC2    C313917   0.897   2.482  13.286  0.1400 -0.5429  0.4213
    4TMC2    C413918   0.766   2.256  13.237  0.7707 -0.4065 -0.1671
    4TMC2    C513919   0.900   2.251  13.248 -0.3204  0.7827  0.7159
    4TMC2    C613920   0.971   2.365  13.273 -0.1875  0.4005 -0.2846
    4TMC2     C13921   0.572   2.347  13.328 -0.6583 -0.1090 -0.3312
    4TMC2     O13922   0.554   2.236  13.375  0.0132 -0.2742  0.1674
    4TMC2     H13923   0.705   2.573  13.291 -0.1815 -0.9341 -0.9163
    4TMC2    H113924   0.710   2.164  13.247 -0.5902  0.3821 -0.6580
    4TMC2    H213925   1.077   2.361  13.294 -0.6588 -1.5005  1.8047
    4TMC2    C713926   0.949   2.134  13.322  0.4016 -0.0644  0.2524
    4TMC2    C813927   0.933   2.598  13.358  0.0837  0.5407  0.1209
    4TMC2    O113928   1.027   2.145  13.412 -0.7549 -0.3832  0.7102
    4TMC2    O213929   0.856   2.668  13.422 -0.0540 -0.7460  0.6894
    4TMC2    O513930   1.041   2.645  13.299  0.9160  0.3908 -0.6655
    4TMC2    H513931   1.107   2.581  13.265 -0.1495 -2.9132  3.4466
    5MPD2     C13932   0.120   2.468  13.516 -0.5153 -0.3980  0.3669
    5MPD2    C113933   0.144   2.546  13.406 -0.0865 -0.0690 -0.0144
    5MPD2    C213934   0.268   2.537  13.343  0.4270  0.0149 -0.2393
    5MPD2    C313935   0.369   2.451  13.392 -0.1187  0.8853 -0.1034
    5MPD2    C413936   0.346   2.383  13.509  0.3373 -0.5092  0.8267
    5MPD2    C513937   0.223   2.394  13.565  0.2465 -0.0027 -0.0317
    5MPD2     H13938   0.296   2.585  13.250  0.9119 -1.1376 -0.6883
    5MPD2    H113939   0.428   2.322  13.545 -1.2531 -2.1303  1.7147
    5MPD2    H213940   0.029   2.475  13.575 -0.4594 -3.4817  0.8325
    5MPD2    H313941   0.195   2.332  13.649 -1.4910  0.9558  0.0993
    5MPD2     N13942   0.495   2.451  13.329 -0.6434  0.1511  0.0240
    5MPD2    H513943   0.516   2.525  13.262 -0.0861  0.7093  0.8133
    5MPD2    N113944   0.042   2.630  13.354  0.0678 -0.4153 -0.1101
    5MPD2    H713945   4.680   2.608  13.374  0.1679  0.2954  1.1455
    6MPD1     C13946   3.959   4.257  13.481 -0.2531 -0.0722  1.2821
    6MPD1    C113947   4.066   4.223  13.558  0.2432  0.3294 -0.0865
    6MPD1    C213948   4.147   4.120  13.511 -0.3483  0.7571 -0.0523
    6MPD1    C313949   4.121   4.058  13.391 -0.4854 -0.4483  0.7262
    6MPD1    C413950   4.003   4.082  13.324 -0.3445 -0.0220  0.1821
    6MPD1    C513951   3.925   4.185  13.373  0.0911  0.3383 -0.0386
    6MPD1     H13952   4.224   4.084  13.579  0.3075 -0.0949 -1.2572
    6MPD1    H113953   3.966   4.020  13.243 -0.3870  1.2765 -0.7896
    6MPD1    H213954   3.885   4.323  13.525 -0.4934  2.1787 -2.4783
    6MPD1    H313955   3.832   4.203  13.321  0.0049 -0.9349 -0.3133
    6MPD1     N13956   4.205   3.964  13.336 -0.1237 -0.2455  0.1601
    6MPD1    H513957   4.175   3.926  13.247 -2.6925  2.5677 -0.2160
    6MPD1    N113958   4.098   4.303  13.670  0.1873 -0.0004 -0.4101
    6MPD1    H613959   4.033   4.380  13.680 -0.8332 -0.9939  0.5846
    6MPD1    H713960   4.102   4.249  13.756 -1.0841  1.7226  0.7371
    7MPD2     C13961   4.394   3.464  13.401 -0.6712  0.5675 -0.0569
    7MPD2    C113962   4.511   3.395  13.371 -0.0712  1.2350 -0.3166
    7MPD2    C213963   4.512   3.261  13.343  0.4658  0.2474  0.0176
    7MPD2    C313964   4.387   3.198  13.329  0.3764 -0.0110  0.4093
    7MPD2    C413965   4.273   3.271  13.332  0.9257  0.3524  0.0429
    7MPD2    C513966   4.280   3.399  13.377 -0.5746  0.0957 -0.0858
    7MPD2     H13967   4.610   3.216  13.339  0.3944  0.1164 -0.2372
    7MPD2    H113968   4.179   3.222  13.311  0.8869  0.2225  0.5266
    7MPD2    H213969   4.384   3.560  13.450 -1.3550  0.8173 -0.7028
    7MPD2    H313970   4.189   3.451  13.403  0.8868  1.8089  1.5985
    7MPD2     N13971   4.376   3.059  13.296  0.2049  0.5408 -0.6834
    7MPD2    H513972   4.289   3.020  13.260  0.0362  0.2683  0.0124
    7MPD2    N113973   4.637   3.468  13.375 -0.2029 -1.0601 -0.3453
    7MPD2    H713974   4.719   3.412  13.395  0.0795 -0.7262 -0.5601
    8TMC3    C113975   4.460   2.840  13.267  0.5144 -0.5570 -0.7088
    8TMC3    C213976   4.574   2.781  13.314  0.4967 -0.3628  0.4106
    8TMC3    C313977   4.675   2.778  13.216 -0.8573 -0.3474 -0.1656
    8TMC3    C413978   4.429   2.855  13.139 -0.6771 -0.3733  0.1853
    8TMC3    C513979   4.527   2.851  13.051 -0.9178 -0.8932  0.1644
    8TMC3    C613980   4.652   2.810  13.085 -0.1269 -0.3990  0.6687
    8TMC3     C13981   4.470   2.968  13.327 -0.7988  0.0681 -0.2257
    8TMC3     O13982   4.560   2.995  13.408 -0.0179  0.0175  0.0476
    8TMC3     H13983   4.600   2.776  13.419 -1.1289 -0.0111  0.8373
    8TMC3    H113984   4.330   2.880  13.106 -0.1638 -1.0663 -1.8784
    8TMC3    H213985   4.733   2.810  13.013 -1.0493 -0.4743 -0.3783
    8TMC3    C713986   4.525   2.971  12.964  0.1524  0.3128 -0.7367
    8TMC3    C813987   0.060   2.715  13.249 -0.0296 -0.4407 -0.4948
    8TMC3    O113988   4.627   3.037  12.977  0.1981  0.3248  0.7520
    8TMC3    O213989   0.162   2.740  13.184  0.1482  0.1740 -0.1838
    9TMC3    C113990   4.387   3.823  13.303 -0.5752  0.2895 -0.2573
    9TMC3    C213991   4.330   3.772  13.185 -0.4811  0.2564 -0.8594
    9TMC3    C313992   4.407   3.674  13.117 -0.1136 -0.7160 -0.5347
    9TMC3    C413993   4.516   3.792  13.348 -0.2407  0.9540  0.2692
    9TMC3    C513994   4.567   3.681  13.282 -0.5267  1.0861  0.4182
    9TMC3    C613995   4.526   3.631  13.164 -0.1470 -0.1952  0.1753
    9TMC3     C13996   4.322   3.919  13.390 -0.2694 -0.6139 -0.0775
    9TMC3     O13997   4.385   3.951  13.489 -0.3570  0.4951 -0.1279
    9TMC3     H13998   4.226   3.792  13.160 -1.4006 -0.5604  2.2181
    9TMC3    H113999   4.550   3.814  13.448 -1.4919 -0.2777  0.9590
    9TMC3    H214000   4.586   3.558  13.112 -1.2263 -0.2409 -0.9977
    9TMC3    C714001   4.655   3.611  13.373 -0.3949  0.4937  0.4529
    9TMC3    C814002   4.329   3.586  13.029 -0.2065 -0.0196 -0.7698
    9TMC3    O114003   0.026   3.670  13.398 -0.1588 -0.4763  0.3700
    9TMC3    O214004   4.225   3.629  12.979 -0.2195  0.6934  0.5617
   10MPD2     C14005   4.226   3.132  12.816  0.0842  0.5418 -0.2901
   10MPD2    C114006   4.345   3.120  12.887 -0.4490 -0.0916 -0.3596
   10MPD2    C214007   4.395   3.229  12.951  0.4143 -0.4488 -0.6477
   10MPD2    C314008   4.337   3.354  12.939  0.5949 -0.2007 -0.1453
   10MPD2    C414009   4.231   3.369  12.846  0.5478  0.4834 -0.3331
   10MPD2    C514010   4.174   3.256  12.792  0.1452  0.3451 -0.3704
   10MPD2     H14011   4.482   3.212  13.013 -1.0785 -0.5167  1.4195
   10MPD2    H114012   4.171   3.457  12.832 -1.7099 -0.5294  2.8385
   10MPD2    H214013   4.187   3.054  12.752  1.3611  0.5481 -1.0655
   10MPD2    H314014   4.096   3.265  12.717  0.2994  2.5872 -0.2449
   10MPD2     N14015   4.389   3.462  13.021 -0.4174  0.2877 -0.4781
   10MPD2    H514016   4.466   3.438  13.083  0.0287 -2.0063 -1.9185
   10MPD2    N114017   4.403   2.992  12.900  0.6192 -0.1393 -0.1880
   10MPD2    H714018   4.350   2.907  12.886 -0.5137  0.6300 -0.5789
   11MPD2     C14019   0.802   1.674  13.489  0.2782  0.3661 -0.4233
   11MPD2    C114020   0.883   1.772  13.552 -0.2022 -0.1413 -1.3903
   11MPD2    C214021   0.911   1.887  13.483 -0.4220 -0.3084  1.0218
   11MPD2    C314022   0.863   1.905  13.357 -0.3003 -0.1073 -0.4501
   11MPD2    C414023   0.786   1.809  13.297 -0.3667  0.2956  0.1793
   11MPD2    C514024   0.761   1.695  13.361 -0.2287 -0.3508  1.0315
   11MPD2     H14025   0.981   1.952  13.534  0.0735 -0.6493  0.7825
   11MPD2    H114026   0.741   1.823  13.199  0.3758 -0.5438 -0.2871
   11MPD2    H214027   0.773   1.584  13.541  2.3193  0.5182  0.9719
   11MPD2    H314028   0.708   1.621  13.302 -0.7023  0.4551  0.4346
   11MPD2     N14029   0.878   2.024  13.282 -0.1804 -0.3841 -0.4722
   11MPD2    H514030   0.843   2.024  13.187 -0.1920 -0.2741 -0.4681
   11MPD2    N114031   0.941   1.757  13.682  0.0508  0.5059  0.5302
   11MPD2    H714032   0.982   1.835  13.732  1.2234 -0.2815  0.7830
    1MPD1     C14033   3.800   3.711  17.174  0.1990  0.5183 -0.1180
    1MPD1    C114034   3.926   3.756  17.230  0.3059 -0.1245  0.2410
    1MPD1    C214035   4.034   3.787  17.140 -0.0402 -0.1077  0.1003
    1MPD1    C314036   4.018   3.758  17.004  0.1072 -0.0063 -0.7321
    1MPD1    C414037   3.904   3.693  16.953 -0.0373  0.4045 -0.1518
    1MPD1    C514038   3.801   3.665  17.043  0.0703 -0.2289  0.8457
    1MPD1     H14039   4.125   3.831  17.178  1.2961 -3.0077  0.2219
    1MPD1    H114040   3.895   3.680  16.846 -0.2984  0.5031 -0.1408
    1MPD1    H214041   3.713   3.682  17.231  0.5122  0.3085  0.2509
    1MPD1    H314042   3.710   3.627  16.998 -1.0221  2.3938  0.8250
    1MPD1     N14043   4.115   3.789  16.908 -0.0721 -0.1696 -0.1719
    1MPD1    H514044   4.082   3.775  16.813 -0.1934 -0.4827 -0.0853
    1MPD1    N114045   3.924   3.812  17.360 -0.7625  0.2441 -0.1987
    1MPD1    H614046   3.852   3.770  17.418  0.4704  1.3946  2.1228
    1MPD1    H714047   4.016   3.812  17.404  0.0231  2.1230 -1.8480
    2MPD1     C14048   0.232   4.391  16.533 -0.6968  0.3801  0.2939
    2MPD1    C114049   0.136   4.362  16.441 -0.4262  0.0497  0.1727
    2MPD1    C214050   0.022   4.308  16.488  0.2377 -0.4959  0.0691
    2MPD1    C314051   4.732   4.277  16.612 -0.4412  0.1879 -0.6418
    2MPD1    C414052   0.097   4.295  16.706  0.1110  0.0277 -0.7779
    2MPD1    C514053   0.220   4.342  16.656  0.3929 -0.1706  0.2339
    2MPD1     H14054   4.682   4.304  16.410  0.2202 -1.4269  0.1316
    2MPD1    H114055   0.085   4.256  16.806  0.4217 -0.0979 -0.7901
    2MPD1    H214056   0.315   4.450  16.497  0.0245 -0.7498  0.1015
    2MPD1    H314057   0.305   4.349  16.722  1.1217 -0.7510 -0.6513
    2MPD1     N14058   4.611   4.205  16.637  0.1780  0.0877 -0.0894
    2MPD1    H514059   4.540   4.216  16.566 -0.8227  0.7856  1.0156
    2MPD1    N114060   0.140   4.408  16.307  0.4717  0.4156 -0.2384
    2MPD1    H614061   0.082   4.351  16.246  0.0705 -0.0835  0.6033
    2MPD1    H714062   0.234   4.422  16.271  0.6508 -0.6169 -0.1951
    3TMC3    C114063   4.478   4.036  16.733  0.5680  0.1697  0.1391
    3TMC3    C214064   4.445   3.994  16.606 -0.2317 -0.1569  0.3314
    3TMC3    C314065   4.350   3.898  16.590  0.6721 -0.4046  0.8254
    3TMC3    C414066   4.416   3.982  16.845  0.3220 -0.5055  0.1879
    3TMC3    C514067   4.326   3.882  16.822 -0.0613 -0.6833  0.6613
    3TMC3    C614068   4.291   3.841  16.697  0.5781  0.3420  0.3546
    3TMC3     C14069   4.587   4.135  16.754  0.3133  1.1939 -0.6508
    3TMC3     O14070   4.655   4.121  16.854 -0.2454 -0.3184 -0.2498
    3TMC3     H14071   4.507   4.027  16.524 -0.0581  0.3782  0.6812
    3TMC3    H114072   4.430   4.027  16.943  0.1213 -0.9112  0.4019
    3TMC3    H214073   4.204   3.778  16.683 -0.0064  1.1596  0.2420
    3TMC3    C714074   4.245   3.837  16.935  0.0753 -0.5848 -0.2547
    3TMC3    C814075   4.294   3.864  16.464 -0.2045  0.4628  0.4911
    3TMC3    O114076   4.306   3.837  17.040  0.5292 -0.0858  0.3801
    3TMC3    O214077   4.222   3.766  16.464 -0.1312 -0.3832  0.2316
    4MPD1     C14078   4.239   3.884  15.938 -0.5006 -0.4680 -0.3275
    4MPD1    C114079   4.289   3.994  15.985 -0.5164 -0.2038  0.0760
    4MPD1    C214080   4.310   4.016  16.121 -0.0554  0.2074  0.4359
    4MPD1    C314081   4.282   3.923  16.219 -0.4254 -0.6463  0.2063
    4MPD1    C414082   4.216   3.812  16.174 -0.0352  0.6201 -0.0655
    4MPD1    C514083   4.203   3.793  16.037  0.0262  0.1606  0.2034
    4MPD1     H14084   4.361   4.106  16.151  0.8623  0.2331 -1.2019
    4MPD1    H114085   4.180   3.727  16.230 -2.2571  0.9748 -0.9474
    4MPD1    H214086   4.221   3.873  15.831 -0.4689 -2.6403 -0.1080
    4MPD1    H314087   4.167   3.695  16.005 -0.1366  0.0036  0.8694
    4MPD1     N14088   4.315   3.949  16.360 -0.1676  0.5356 -0.2698
    4MPD1    H514089   4.368   4.035  16.363  2.0819 -0.8174 -1.2312
    4MPD1    N114090   4.345   4.087  15.901  0.7267 -0.4566 -0.1735
    4MPD1    H614091   4.295   4.104  15.814  3.3380  0.2117 -1.5404
    4MPD1    H714092   4.327   4.180  15.939  1.4999 -0.9663  1.4256
    1TCq1    O114093   4.341   2.715  12.078 -0.4873 -0.3704  0.4080
    1TCq1    C114094   4.407   2.811  12.012  0.0972  0.2732  0.2194
    1TCq1    O214095   4.359   2.923  11.990  0.1069  0.6179 -0.0771
    1TCq1    C214096   4.502   2.748  11.915  0.4453 -0.1720 -0.5290
    1TCq1    C314097   4.570   2.630  11.949 -0.0225  0.0150 -0.1909
    1TCq1    C414098   4.667   2.586  11.867  0.3353 -0.8169 -0.3126
    1TCq1    C514099   4.686   2.639  11.746  0.2324 -0.0392 -0.3776
    1TCq1    C614100   4.602   2.744  11.707 -0.1168  0.3016  0.1879
    1TCq1    C714101   4.517   2.804  11.793  0.5751  0.6363  0.3156
    1TCq1    C814102   4.616   2.797  11.573 -0.2213  0.5282 -1.0860
    1TCq1    O414103   4.518   2.860  11.536 -0.0310 -0.0191  0.1786
    1TCq1    C914104   0.050   2.523  11.921  0.4111  0.1118 -0.6869
    1TCq1    O514105   0.141   2.498  11.842 -0.4444  0.2209 -0.9307
    1TCq1    O614106   0.047   2.475  12.035 -0.0625 -0.3110  0.5476
    1TCq1    H114107   4.373   2.623  12.064  1.6162  0.5015 -0.5694
    1TCq1    H214108   4.572   2.590  12.050  2.2426  0.3524 -0.0971
    1TCq1    H314109   0.023   2.606  11.674  0.6768  2.2908 -0.9934
    1TCq1    H414110   4.474   2.900  11.766 -1.3634 -0.9208 -2.1646
    2MPD1     C14111   0.112   2.981  11.157 -0.5295 -0.0034 -0.1669
    2MPD1    C114112   0.194   2.899  11.225  0.1672 -0.1468  0.0965
    2MPD1    C214113   0.154   2.831  11.341  0.1410 -0.1780  0.4099
    2MPD1    C314114   0.027   2.855  11.396 -0.5466  0.2648  0.6728
    2MPD1    C414115   4.678   2.952  11.334 -0.1410 -0.0534  0.6950
    2MPD1    C514116   4.724   3.008  11.210 -0.2795 -0.2175  0.2315
    2MPD1     H14117   0.219   2.753  11.379  0.5461 -0.3879 -0.6930
    2MPD1    H114118   4.579   2.985  11.362  0.1687  0.6362  0.9825
    2MPD1    H214119   0.144   3.029  11.065 -0.0365  0.4168  0.2254
    2MPD1    H314120   4.674   3.093  11.164  0.3108 -0.3035 -0.5631
    2MPD1     N14121   0.002   2.790  11.514 -0.0394 -0.5994 -0.5948
    2MPD1    H514122   0.076   2.733  11.554  0.5420  0.6762  0.1778
    2MPD1    N114123   0.321   2.878  11.164 -0.1221  0.2003  0.2297
    2MPD1    H614124   0.343   2.955  11.101 -0.3985  2.8946  3.3845
    2MPD1    H714125   0.394   2.856  11.232  1.1475  0.3817 -1.0770
    1TMC1    C114126   1.910   3.770  17.349  1.1736 -0.4404  0.6343
    1TMC1    C214127   2.038   3.777  17.395  0.0424  0.4894 -0.2060
    1TMC1    C314128   2.125   3.694  17.326  0.0319  0.0699  1.1073
    1TMC1    C414129   1.862   3.691  17.247  0.0189  0.1956 -0.2018
    1TMC1    C514130   1.964   3.628  17.176  0.3898  0.1260 -0.4248
    1TMC1    C614131   2.092   3.629  17.215 -0.1821  0.2225 -0.3495
    1TMC1     C14132   1.832   3.890  17.373  0.1365 -0.2239  0.2460
    1TMC1     O14133   1.747   3.906  17.293 -0.3340 -0.2327 -0.1053
    1TMC1     H14134   2.072   3.830  17.484 -1.3891  1.1465 -0.0471
    1TMC1    H114135   1.761   3.699  17.210 -0.3923  0.0163  0.8900
    1TMC1    H214136   2.169   3.565  17.174  0.6151  1.0265 -0.0938
    1TMC1    C714137   1.940   3.583  17.047 -0.0542 -0.4660  0.1532
    1TMC1    C814138   2.248   3.674  17.397 -0.0932 -0.0458 -0.1416
    1TMC1    O114139   1.967   3.467  17.005 -0.0245 -0.3292  0.1307
    1TMC1    O214140   2.262   3.647  17.517  0.5959  0.4076 -0.2768
    1TMC1    O314141   1.962   3.691  16.973 -0.0756 -0.0169  0.3495
    1TMC1    H314142   1.964   3.773  17.026  2.8366 -0.2846  0.6665
    1TMC1    O514143   2.341   3.644  17.302  0.6365 -0.1596 -0.2885
    1TMC1    H514144   2.332   3.688  17.215 -1.2291 -0.5688 -0.2978
    2MPD1     C14145   1.645   4.263  17.680  0.2043 -0.0594  0.6768
    2MPD1    C114146   1.778   4.240  17.718  0.2388 -1.1054  0.5051
    2MPD1    C214147   1.838   4.138  17.653 -0.0927 -0.3381  0.3357
    2MPD1    C314148   1.788   4.073  17.538  0.0737 -0.0238 -0.4570
    2MPD1    C414149   1.662   4.109  17.497 -0.0947 -0.0519  0.5526
    2MPD1    C514150   1.593   4.195  17.572 -0.5476 -0.3307 -0.6534
    2MPD1     H14151   1.931   4.098  17.692 -0.1110  0.2241  0.9532
    2MPD1    H114152   1.605   4.071  17.414  0.6563 -0.1106  0.0647
    2MPD1    H214153   1.574   4.330  17.728  1.4007 -0.0330  2.4123
    2MPD1    H314154   1.500   4.237  17.535  0.2528  1.5655 -0.5146
    2MPD1     N14155   1.861   3.965  17.481  0.2194  0.2210 -0.1355
    2MPD1    H514156   1.935   3.940  17.546 -0.0423  1.9031  0.8048
    2MPD1    N114157   1.832   4.300   0.090 -0.2636 -0.5614  0.1468
    2MPD1    H614158   1.801   4.397   0.103 -0.7230 -0.6490 -0.3052
    2MPD1    H714159   1.930   4.280   0.106 -0.1078 -0.1754 -0.3350
    1MPD1     C14160   1.590   3.311  10.918 -0.4181  0.1496 -0.1074
    1MPD1    C114161   1.525   3.210  10.982 -0.1607  0.6749 -0.1203
    1MPD1    C214162   1.596   3.152  11.088  0.6472  0.5650  0.1353
    1MPD1    C314163   1.727   3.191  11.118  0.4305  0.3820 -0.7167
    1MPD1    C414164   1.786   3.289  11.043  0.1281 -0.0628  0.5342
    1MPD1    C514165   1.720   3.353  10.942 -0.2531 -0.0122  0.5892
    1MPD1     H14166   1.547   3.074  11.145  1.2921  0.5470  0.6760
    1MPD1    H114167   1.884   3.328  11.066 -0.5785  1.8860  0.2988
    1MPD1    H214168   1.541   3.354  10.832  2.1456  1.1618 -1.0482
    1MPD1    H314169   1.765   3.435  10.887 -0.8049  0.5337  0.9516
    1MPD1     N14170   1.777   3.135  11.245 -0.7227  0.8399  0.0968
    1MPD1    H514171   1.712   3.072  11.292 -0.9911  0.0785 -1.2800
    1MPD1    N114172   1.393   3.172  10.955  0.4096  0.2550 -0.1213
    1MPD1    H614173   1.364   3.161  10.858 -2.0817  2.0334  0.4234
    1MPD1    H714174   1.348   3.103  11.015 -1.2915  3.2860  2.0852
    2MPD1     C14175   0.155   3.086  12.357 -0.6086  0.6102 -0.3065
    2MPD1    C114176   0.203   3.056  12.229 -0.1394 -0.4154  0.4678
    2MPD1    C214177   0.247   3.167  12.152 -0.3940  0.0851 -0.1596
    2MPD1    C314178   0.260   3.300  12.209 -0.2325 -0.0094  0.4806
    2MPD1    C414179   0.251   3.311  12.346  0.3551 -0.2240 -0.5147
    2MPD1    C514180   0.186   3.211  12.416 -0.4010 -0.4379 -0.2162
    2MPD1     H14181   0.271   3.153  12.047 -2.0572  0.9382 -0.6604
    2MPD1    H114182   0.268   3.406  12.396  0.5496  0.0419 -1.0931
    2MPD1    H214183   0.133   3.005  12.426  1.2841  2.8012  2.8682
    2MPD1    H314184   0.175   3.227  12.523  0.8461  0.7148 -0.2525
    2MPD1     N14185   0.307   3.409  12.129  0.6755  0.4803 -0.2312
    2MPD1    H514186   0.346   3.497  12.163  0.7542  0.7187 -0.9502
    2MPD1    N114187   0.175   2.935  12.165 -0.2562 -0.0823  0.2430
    2MPD1    H614188   0.255   2.906  12.108 -1.6838 -0.2903 -1.6361
    2MPD1    H714189   0.160   2.860  12.232 -2.8148 -0.1934 -0.4758
    3MPD1     C14190   4.718   3.680  11.205 -0.4775 -0.0003  0.5016
    3MPD1    C114191   4.657   3.600  11.298  0.5998  0.6238 -0.1460
    3MPD1    C214192   4.721   3.600  11.420  0.3896 -0.5850 -0.7793
    3MPD1    C314193   0.121   3.645  11.438 -0.5377  0.0641 -0.1635
    3MPD1    C414194   0.191   3.695  11.332 -0.5541  0.3046 -0.7542
    3MPD1    C514195   0.113   3.730  11.219 -0.6234  0.1567 -0.0049
    3MPD1     H14196   4.678   3.548  11.505  1.6518 -0.5588 -0.1285
    3MPD1    H114197   0.294   3.727  11.334 -0.9399  1.6143 -1.3938
    3MPD1    H214198   4.665   3.701  11.113 -1.7029  0.0649  1.2276
    3MPD1    H314199   0.165   3.775  11.135 -0.8564 -0.8651 -0.7085
    3MPD1     N14200   0.190   3.624  11.562  0.0700 -0.1803  0.4662
    3MPD1    H514201   0.147   3.587  11.646  0.6265  0.9901  1.2646
    3MPD1    N114202   4.527   3.558  11.280 -0.0443  0.0996  0.3556
    3MPD1    H614203   4.493   3.497  11.354  1.1439 -1.6505 -0.5323
    3MPD1    H714204   4.501   3.524  11.187  0.1449 -1.0555  0.7263
    4MPD2     C14205   1.503   2.890  11.812  0.0102  0.3248  0.3144
    4MPD2    C114206   1.595   2.993  11.831  0.5717 -0.4141  0.6546
    4MPD2    C214207   1.569   3.090  11.924  0.1867 -0.4704 -0.1865
    4MPD2    C314208   1.447   3.091  11.990 -0.1299  0.5666 -1.1110
    4MPD2    C414209   1.359   2.987  11.968 -0.0395 -0.1804 -0.2996
    4MPD2    C514210   1.383   2.883  11.880 -0.1894  0.4341  0.2020
    4MPD2     H14211   1.644   3.166  11.944 -1.1965 -0.1001  3.5864
    4MPD2    H114212   1.265   2.982  12.023 -1.0396  2.2751 -1.7565
    4MPD2    H214213   1.532   2.805  11.751 -0.9125 -1.2510  2.0490
    4MPD2    H314214   1.326   2.791  11.875 -1.3255  1.1508 -0.0299
    4MPD2     N14215   1.413   3.197  12.083 -0.1511 -0.6594 -0.5582
    4MPD2    H514216   1.321   3.201  12.124 -0.2812 -1.4192 -0.7761
    4MPD2    N114217   1.717   3.003  11.765 -0.1808  0.1771  0.9431
    4MPD2    H714218   1.782   3.069  11.806  1.4107 -1.0079  0.3001
    5TMC3    C114219   1.884   2.979  11.600 -0.3089  0.5699  0.6443
    5TMC3    C214220   1.876   3.013  11.473  0.0954  0.1785 -0.3121
    5TMC3    C314221   1.917   3.135  11.435  0.2433 -0.4785  0.1358
    5TMC3    C414222   1.954   3.058  11.689 -0.6329  0.4693  0.4266
    5TMC3    C514223   1.975   3.188  11.646 -0.1070  0.1846 -0.2966
    5TMC3    C614224   1.976   3.228  11.515  0.6541 -0.5340 -0.3537
    5TMC3     C14225   1.754   2.936  11.647  0.2880  0.0229  0.6970
    5TMC3     O14226   1.679   2.874  11.576 -0.4866  0.5482  0.2590
    5TMC3     H14227   1.828   2.938  11.410  0.2134 -0.8083  0.7671
    5TMC3    H114228   1.969   3.027  11.792 -1.4859 -2.1683 -0.2345
    5TMC3    H214229   1.993   3.331  11.487 -0.1023 -0.5662 -0.9515
    5TMC3    C714230   1.943   3.287  11.750  0.0954 -0.3469  1.2687
    5TMC3    C814231   1.898   3.175  11.301 -0.1459  0.1927 -0.4332
    5TMC3    O114232   1.909   3.231  11.855 -0.0028 -0.2449 -0.4414
    5TMC3    O214233   1.993   3.236  11.258 -0.2878  0.6410 -0.3217
    6TMC3    C114234   0.346   3.515  11.922  1.0329 -0.1052  0.2316
    6TMC3    C214235   0.313   3.529  11.789 -0.7288  0.1928 -0.0650
    6TMC3    C314236   0.370   3.631  11.720 -0.5121  0.0364 -0.5636
    6TMC3    C414237   0.447   3.594  11.983 -0.5661  0.5878  0.3012
    6TMC3    C514238   0.506   3.691  11.901 -0.0028 -0.1010  0.0024
    6TMC3    C614239   0.465   3.721  11.771  0.6906 -0.5682 -0.4903
    6TMC3     C14240   0.280   3.410  11.993  0.4975 -0.6417  0.1025
    6TMC3     O14241   0.215   3.334  11.926  0.3039  0.3175  0.5909
    6TMC3     H14242   0.237   3.464  11.746 -1.0450  0.1563  0.5565
    6TMC3    H114243   0.499   3.561  12.073 -0.9295 -2.6355 -0.6556
    6TMC3    H214244   0.502   3.802  11.710  4.5627  0.3003  3.0079
    6TMC3    C714245   0.647   3.713  11.930  0.1295  0.2285 -0.2250
    6TMC3    C814246   0.318   3.671  11.590 -0.5118 -0.5776  0.4455
    6TMC3    O114247   0.702   3.664  12.029  0.4638 -0.4690  0.3481
    6TMC3    O214248   0.395   3.742  11.526  0.1217 -0.0453 -0.4266
    7MPD2     C14249   1.833   3.748  11.945 -0.0914  0.1902  0.2596
    7MPD2    C114250   1.786   3.621  11.980 -0.8988 -0.2710 -0.2540
    7MPD2    C214251   1.830   3.511  11.908  0.6812 -0.3452 -0.9927
    7MPD2    C314252   1.904   3.522  11.790  0.0795 -0.3196 -0.6350
    7MPD2    C414253   1.923   3.654  11.749  0.7224 -1.2576  0.0661
    7MPD2    C514254   1.900   3.759  11.828 -0.7017  0.8127  0.4562
    7MPD2     H14255   1.813   3.416  11.957 -3.5533  1.0063  0.1761
    7MPD2    H114256   1.965   3.678  11.651 -3.2143  2.3238 -0.7629
    7MPD2    H214257   1.797   3.837  11.996  0.8283  0.6215  0.1646
    7MPD2    H314258   1.904   3.853  11.774 -2.9331  0.1903 -0.8206
    7MPD2     N14259   1.946   3.413  11.718 -0.4110 -0.1132  0.4693
    7MPD2    H514260   1.976   3.442  11.625 -1.7546 -1.0676 -0.2564
    7MPD2    N114261   1.691   3.599  12.089 -0.7025  0.2469  0.0451
    7MPD2    H714262   1.664   3.503  12.108 -2.5287  0.8596  0.5508
    8TMC3    C114263   1.491   3.640  12.205 -0.5107  0.5456  0.2879
    8TMC3    C214264   1.383   3.685  12.144 -0.2778 -0.4812  0.1402
    8TMC3    C314265   1.306   3.587  12.088 -0.6922 -0.2806  0.2001
    8TMC3    C414266   1.520   3.510  12.228 -0.0815 -0.0262  0.0670
    8TMC3    C514267   1.437   3.418  12.175  0.8496  0.4692  0.0519
    8TMC3    C614268   1.320   3.450  12.103  0.1945 -0.5515 -0.1147
    8TMC3     C14269   1.613   3.700  12.149  0.6486  0.4669  0.3984
    8TMC3     O14270   1.596   3.815  12.113  0.5178 -0.8563  0.4725
    8TMC3     H14271   1.365   3.791  12.137 -4.2697 -1.1322  0.4025
    8TMC3    H114272   1.600   3.483  12.296 -0.6839  0.2022  0.8580
    8TMC3    H214273   1.263   3.379  12.044  0.8296 -0.7438 -0.5020
    8TMC3    C714274   1.501   3.294  12.129  0.2620  0.1793  0.3522
    8TMC3    C814275   1.172   3.628  12.049  0.1942  0.1271  0.4880
    8TMC3    O114276   1.623   3.300  12.116  0.5125  0.3514 -0.0555
    8TMC3    O214277   1.076   3.553  12.069 -0.4462  0.2328  0.4258
    9MPD2     C14278   1.099   3.955  11.879  0.3108  0.1359 -0.0944
    9MPD2    C114279   1.067   3.834  11.933  0.1675  0.2156 -0.7766
    9MPD2    C214280   0.937   3.796  11.935 -0.3717  0.4801  0.6831
    9MPD2    C314281   0.836   3.868  11.871  0.3836 -0.4388  0.4745
    9MPD2    C414282   0.863   3.989  11.815 -0.3200  0.2655 -0.8655
    9MPD2    C514283   0.992   4.032  11.832  0.6511  0.0214 -0.0284
    9MPD2     H14284   0.917   3.703  11.986 -1.2901  1.1193  1.4773
    9MPD2    H114285   0.782   4.056  11.787  0.0233  0.8799 -0.3664
    9MPD2    H214286   1.201   3.993  11.884  0.3908  0.1821 -2.2058
    9MPD2    H314287   1.017   4.125  11.782  2.2252 -0.9914 -1.1592
    9MPD2     N14288   0.696   3.828  11.868 -0.4354  0.0880  0.6644
    9MPD2    H514289   0.628   3.875  11.810 -0.3187 -0.7509 -0.1551
    9MPD2    N114290   1.176   3.760  11.995  0.1063  0.2849 -0.3215
    9MPD2    H714291   1.271   3.791  11.980  0.6605 -0.9061  0.7104
    1MPD1     C14292   0.754   2.062  16.159  0.0896 -0.0756 -1.0141
    1MPD1    C114293   0.660   2.158  16.193 -0.0426  0.0491  0.0946
    1MPD1    C214294   0.601   2.239  16.097  0.0459  0.4995 -1.1936
    1MPD1    C314295   0.642   2.226  15.968 -0.7338  0.1836  0.0910
    1MPD1    C414296   0.733   2.134  15.933 -0.4856 -0.2550  0.2535
    1MPD1    C514297   0.779   2.051  16.027 -0.6743 -0.1452  0.1033
    1MPD1     H14298   0.520   2.302  16.134 -1.1318  0.4174 -3.6529
    1MPD1    H114299   0.755   2.119  15.828  2.1154  0.1142  0.7574
    1MPD1    H214300   0.799   1.996  16.233  1.1068 -0.1253 -1.6821
    1MPD1    H314301   0.849   1.982  15.982 -0.6823 -1.2595  1.8236
    1MPD1     N14302   0.584   2.288  15.858 -0.6788 -1.0253 -0.1144
    1MPD1    H514303   0.612   2.269  15.762 -1.3496  1.7401 -0.8518
    1MPD1    N114304   0.614   2.169  16.328 -0.3120 -0.3218 -0.4065
    1MPD1    H614305   0.573   2.261  16.337  1.6619  0.5633 -0.5392
    1MPD1    H714306   0.688   2.159  16.397  1.3432 -0.0870 -2.1807
    2TMC2    C114307   0.398   2.400  15.535  0.4603  0.7273 -0.2444
    2TMC2    C214308   0.376   2.532  15.509  0.1900 -1.1697  0.2566
    2TMC2    C314309   0.381   2.616  15.616  0.4238 -0.3562 -0.2321
    2TMC2    C414310   0.431   2.344  15.653 -0.5584 -0.3575  0.3636
    2TMC2    C514311   0.433   2.433  15.758 -0.2864  0.2233 -0.0092
    2TMC2    C614312   0.417   2.568  15.741  0.5246  0.0703  0.2203
    2TMC2     C14313   0.400   2.308  15.421 -0.2276 -0.0634 -0.2892
    2TMC2     O14314   0.457   2.201  15.439  0.1200  0.1358 -1.0077
    2TMC2     H14315   0.366   2.570  15.408 -0.0182  0.6369  0.9583
    2TMC2    H114316   0.440   2.237  15.668  3.9454  0.5224  4.1161
    2TMC2    H214317   0.435   2.629  15.828 -1.1604  0.9990 -0.0910
    2TMC2    C714318   0.497   2.395  15.879  0.4912 -0.0929 -0.4536
    2TMC2    C814319   0.363   2.761  15.591 -0.1627 -0.1641  0.1257
    2TMC2    O114320   0.499   2.469  15.979  0.1398  0.5608  0.7089
    2TMC2    O214321   0.382   2.807  15.478 -0.5701 -0.1667 -0.1663
    2TMC2    O514322   0.277   2.802  15.682  0.5603 -0.1372 -0.1909
    2TMC2    H514323   0.272   2.746  15.762 -0.4901 -0.2277 -0.3129
    3MPD1     C14324   0.223   2.067  15.008 -0.0646  0.2560 -0.9224
    3MPD1    C114325   0.132   2.164  15.036  0.3312  0.4933 -0.9085
    3MPD1    C214326   0.160   2.239  15.149 -0.0730  0.2370 -0.1542
    3MPD1    C314327   0.282   2.241  15.211  0.7534  0.2544 -0.0321
    3MPD1    C414328   0.376   2.150  15.169  0.3748 -0.4881 -0.2285
    3MPD1    C514329   0.344   2.068  15.061 -0.0350 -0.6199 -0.0687
    3MPD1     H14330   0.088   2.308  15.190 -0.4369  0.1370 -0.6325
    3MPD1    H114331   0.471   2.123  15.211 -0.0386 -1.4127  0.1014
    3MPD1    H214332   0.202   2.001  14.924 -1.8468 -0.8277  0.3730
    3MPD1    H314333   0.412   1.999  15.014 -0.0574 -1.0166  0.4772
    3MPD1     N14334   0.303   2.331  15.328 -0.6729 -0.2911 -0.0660
    3MPD1    H514335   0.237   2.406  15.346 -0.0842  0.4010 -0.7998
    3MPD1    N114336   4.732   2.161  14.989  0.1395  0.0199 -0.2931
    3MPD1    H614337   4.712   2.163  14.889 -1.9560 -2.0593  0.0873
    3MPD1    H714338   4.675   2.239  15.021  0.2769  0.0614 -0.1511
    1TMC1    C114339   4.224   1.509  13.254 -0.0222  0.5823 -1.0201
    1TMC1    C214340   4.241   1.373  13.236  0.6079  0.0993  0.5400
    1TMC1    C314341   4.134   1.293  13.187 -0.1289 -0.1640 -0.0033
    1TMC1    C414342   4.107   1.573  13.222  0.6669  0.1557  0.4184
    1TMC1    C514343   4.004   1.491  13.181 -0.3757 -0.6116  0.1303
    1TMC1    C614344   4.011   1.357  13.166  0.5475 -0.5947 -0.6666
    1TMC1     C14345   4.334   1.586  13.308 -0.4693 -0.6125  0.1907
    1TMC1     O14346   4.342   1.705  13.296 -0.6319  0.4992 -0.5875
    1TMC1     H14347   4.335   1.326  13.263  1.6099  2.0191  0.4023
    1TMC1    H114348   4.103   1.679  13.245 -2.5575 -0.2375  1.6264
    1TMC1    H214349   3.924   1.303  13.132 -1.5329  2.7114 -0.5495
    1TMC1    C714350   3.869   1.534  13.183  0.4643  0.4798 -0.3779
    1TMC1    C814351   4.159   1.164  13.128 -0.6624 -0.4492  0.0478
    1TMC1    O114352   3.785   1.455  13.220  0.0308 -0.1318 -0.2326
    1TMC1    O214353   4.270   1.123  13.103 -0.3746  0.0502  0.6245
    1TMC1    O314354   3.860   1.619  13.074  0.3507  0.0894  0.1246
    1TMC1    H314355   3.952   1.645  13.053  0.0805  1.4935  0.6782
    1TMC1    O514356   4.050   1.121  13.067 -0.3907 -0.5809  0.1982
    1TMC1    H514357   3.963   1.148  13.103  1.2433 -0.3174  3.9426
    2MPD2     C14358   4.589   1.654  13.422  0.3875  0.1528 -0.4357
    2MPD2    C114359   4.511   1.545  13.467  0.5770 -0.8061 -0.7187
    2MPD2    C214360   4.546   1.473  13.581  0.3357 -0.0474  0.2166
    2MPD2    C314361   4.659   1.514  13.653  0.6832 -0.1616 -0.0249
    2MPD2    C414362   0.005   1.612  13.594  0.7537  0.0526 -0.1852
    2MPD2    C514363   4.711   1.675  13.486  0.3801 -0.2488  0.3075
    2MPD2     H14364   4.486   1.392  13.618 -0.4589  0.7623  0.6957
    2MPD2    H114365   0.100   1.643  13.636  0.2376  2.1354 -0.5826
    2MPD2    H214366   4.559   1.713  13.336  0.9939  0.4181 -0.4675
    2MPD2    H314367   0.046   1.745  13.442 -0.6216  0.0195 -0.8848
    2MPD2     N14368   4.674   1.472  13.789  0.6033 -0.6254  0.8456
    2MPD2    H514369   4.592   1.421  13.821  0.0058  0.2044  0.6577
    2MPD2    N114370   4.388   1.505  13.404  0.3585 -0.3966  0.1219
    2MPD2    H714371   4.366   1.407  13.414 -0.9870  0.0642  1.6526
    3TCq1    O114372   4.430   1.287  14.305  0.1397 -0.2486  0.1671
    3TCq1    C114373   4.496   1.275  14.188  0.3757 -0.3269  0.1382
    3TCq1    O214374   4.452   1.223  14.089 -0.2141  0.3815  0.0204
    3TCq1    C214375   4.596   1.381  14.170 -0.7758 -0.3446 -0.2409
    3TCq1    C314376   4.644   1.458  14.272  0.1343  0.4622  0.1723
    3TCq1    C414377   0.015   1.538  14.237  0.2286 -0.1083  0.6483
    3TCq1    C514378   0.057   1.552  14.109 -0.3748  0.5535  0.8302
    3TCq1    C614379   4.733   1.484  14.010 -0.1555 -0.6704  1.1563
    3TCq1    C714380   4.642   1.385  14.040 -0.1360  0.0424 -0.2015
    3TCq1    C814381   0.026   1.529  13.874 -0.4166 -0.1349  0.1793
    3TCq1    O414382   0.117   1.611  13.853  0.0218  0.3220  0.0905
    3TCq1    C914383   0.089   1.615  14.339  0.9830 -0.0587 -0.4950
    3TCq1    O514384   0.203   1.666  14.322 -0.9980  0.4951  0.5114
    3TCq1    O614385   0.025   1.626  14.445  0.5254  0.1749 -0.3212
    3TCq1    H114386   4.501   1.297  14.372  0.0627  0.4787  0.1457
    3TCq1    H214387   4.611   1.451  14.376 -1.0016  1.5958 -0.1018
    3TCq1    H314388   0.125   1.634  14.089  1.5524 -0.8958  1.3839
    3TCq1    H414389   4.638   1.295  13.980 -0.8590  0.5114 -0.8447
    1MPD2     C14390   3.851   2.805  14.796  0.5084  0.3383  0.0565
    1MPD2    C114391   3.724   2.761  14.774  0.1277  0.1459  0.0051
    1MPD2    C214392   3.693   2.632  14.799  0.0312 -0.5586  0.2012
    1MPD2    C314393   3.791   2.548  14.848 -0.4718 -0.0647  0.0572
    1MPD2    C414394   3.921   2.590  14.864 -0.3766 -0.2214  0.8926
    1MPD2    C514395   3.949   2.724  14.845 -0.0417  0.3957 -0.2760
    1MPD2     H14396   3.600   2.586  14.766  1.2212 -2.1866 -0.8538
    1MPD2    H114397   4.005   2.522  14.875 -0.0340  0.1407  0.5190
    1MPD2    H214398   3.873   2.911  14.789  0.7464  0.2232 -0.9113
    1MPD2    H314399   4.048   2.765  14.860  0.5662 -0.5141 -1.7144
    1MPD2     N14400   3.752   2.414  14.883  0.1589  0.6801 -0.3075
    1MPD2    H514401   3.823   2.349  14.915  0.6720  1.6906  0.6217
    1MPD2    N114402   3.628   2.857  14.729 -0.0701 -0.4347  0.2544
    1MPD2    H714403   3.671   2.941  14.693 -0.0792 -0.0790  1.0868
    2TMC3    C114404   3.419   2.930  14.648  0.4688 -0.3958 -0.0246
    2TMC3    C214405   3.290   2.883  14.644  0.0703 -0.0289 -0.0511
    2TMC3    C314406   3.224   2.887  14.519  0.3865  0.2187 -0.2720
    2TMC3    C414407   3.476   3.006  14.546 -0.1029 -0.6944  0.5174
    2TMC3    C514408   3.406   3.008  14.433 -0.1488  0.4991  0.1959
    2TMC3    C614409   3.286   2.946  14.416  0.0269 -0.3794  0.6651
    2TMC3     C14410   3.495   2.830  14.717 -0.0086  0.7081 -0.4267
    2TMC3     O14411   3.432   2.732  14.741  0.1291  0.2584  1.0472
    2TMC3     H14412   3.232   2.855  14.731  0.4365 -1.9213 -0.4260
    2TMC3    H114413   3.577   3.043  14.560  0.5272 -2.2260  0.0281
    2TMC3    H214414   3.231   2.968  14.325  2.6816 -0.8876 -1.0536
    2TMC3    C714415   3.474   3.050  14.315 -0.0398 -0.3889  0.8793
    2TMC3    C814416   3.165   2.764  14.491 -0.2173  0.3268  0.2540
    2TMC3    O114417   3.429   3.009  14.210  0.2815 -0.3710  0.4760
    2TMC3    O214418   3.058   2.749  14.429 -0.8900  0.1807 -0.5402
    3TCq1    O114419   4.673   3.376  14.408 -0.2771 -0.0242 -0.6814
    3TCq1    C114420   4.598   3.395  14.296  0.1743 -1.0261 -0.2878
    3TCq1    O214421   4.636   3.420  14.184  0.9385  0.1517  0.1622
    3TCq1    C214422   4.461   3.424  14.337  0.7983  0.4003 -0.4061
    3TCq1    C314423   4.428   3.490  14.458 -0.1084 -1.3510 -0.2600
    3TCq1    C414424   4.295   3.494  14.499 -0.6724 -0.2739 -0.2287
    3TCq1    C514425   4.193   3.442  14.420 -0.0252 -0.3412  0.0701
    3TCq1    C614426   4.229   3.380  14.300  0.9410 -0.4858 -0.2604
    3TCq1    C714427   4.360   3.378  14.253 -0.8787 -0.0603 -0.2009
    3TCq1    C814428   4.123   3.336  14.199  0.6945  0.8425  0.2607
    3TCq1    O414429   4.155   3.322  14.085  0.8907 -0.6502  0.0072
    3TCq1    C914430   4.261   3.540  14.635 -0.3026  0.0958 -0.3522
    3TCq1    O514431   4.330   3.625  14.697  0.0612 -0.7498 -0.0974
    3TCq1    O614432   4.157   3.490  14.689  0.5675  0.4243  0.0386
    3TCq1    H114433   4.619   3.355  14.487  0.4474  1.8651  0.3331
    3TCq1    H214434   4.510   3.536  14.513  0.1586  0.1124 -1.8627
    3TCq1    H314435   4.090   3.447  14.453  0.0031 -2.0350  0.4166
    3TCq1    H414436   4.385   3.332  14.158 -1.7027 -3.2047  1.0757
    4MPD2     C14437   3.880   3.250  14.064  0.0921  0.2852  0.1543
    4MPD2    C114438   3.883   3.290  14.197  0.0387 -0.0291 -0.2357
    4MPD2    C214439   3.772   3.271  14.273 -0.4069 -0.5919  0.0346
    4MPD2    C314440   3.669   3.186  14.236  0.2178 -0.6449  0.3779
    4MPD2    C414441   3.660   3.150  14.105 -0.1410  0.1969 -0.2178
    4MPD2    C514442   3.764   3.185  14.023 -0.2708  0.3734  0.7263
    4MPD2     H14443   3.779   3.302  14.377 -0.3745  1.0166 -0.4415
    4MPD2    H114444   3.575   3.093  14.068  0.9471 -0.1688 -2.1463
    4MPD2    H214445   3.957   3.273  13.992 -0.2935 -1.1453 -0.7105
    4MPD2    H314446   3.751   3.156  13.920 -0.5652  1.0036  0.5891
    4MPD2     N14447   3.576   3.144  14.336  0.2378  0.6237 -0.1397
    4MPD2    H514448   3.608   3.156  14.432  0.1096 -0.5412  0.0526
    4MPD2    N114449   3.999   3.340  14.256 -0.0966 -0.3438 -0.2483
    4MPD2    H714450   3.990   3.375  14.351 -1.6529  1.9642 -1.2357
    5TMC2    C114451   3.488   2.079  14.841  0.4535 -0.0399 -0.1108
    5TMC2    C214452   3.415   2.071  14.951  0.7372  0.1293 -0.1662
    5TMC2    C314453   3.455   2.130  15.063 -0.4594  0.6237 -0.4019
    5TMC2    C414454   3.598   2.158  14.836  0.0741 -0.2478 -0.0477
    5TMC2    C514455   3.633   2.230  14.944  0.3503 -0.1331  0.5063
    5TMC2    C614456   3.565   2.210  15.067  0.8729  0.0556  0.0447
    5TMC2     C14457   3.398   2.106  14.728 -0.0112  0.2185  0.4463
    5TMC2     O14458   3.337   2.022  14.666  0.2001 -0.1902  0.2428
    5TMC2     H14459   3.320   2.020  14.941 -0.1407  1.1829  2.9893
    5TMC2    H114460   3.625   2.181  14.734  1.6805  1.5853  0.7836
    5TMC2    H214461   3.584   2.273  15.154 -1.2819 -1.6381  1.7431
    5TMC2    C714462   3.626   2.373  14.910 -1.1605  0.9262  0.9873
    5TMC2    C814463   3.374   2.104  15.180 -0.2369  0.3354 -0.2880
    5TMC2    O114464   3.509   2.414  14.892  0.1484 -0.1237 -0.1600
    5TMC2    O214465   3.274   2.043  15.176  0.1262 -0.3589  0.1528
    5TMC2    O514466   3.463   2.096  15.290 -0.2512 -0.2253  0.0402
    5TMC2    H514467   3.552   2.132  15.269  0.3301 -2.3834 -1.1315
    6MPD2     C14468   3.104   2.470  14.488 -0.4446 -0.3900 -0.2204
    6MPD2    C114469   3.200   2.530  14.561 -0.2491 -1.0381 -0.0034
    6MPD2    C214470   3.292   2.452  14.638  0.6045 -0.3758  0.6474
    6MPD2    C314471   3.282   2.316  14.636  0.0640 -0.8141  0.0329
    6MPD2    C414472   3.184   2.253  14.560 -0.0928 -0.1628  0.0058
    6MPD2    C514473   3.104   2.336  14.493 -0.4420  0.7757  0.4916
    6MPD2     H14474   3.371   2.502  14.692  1.5146 -0.3352 -0.7364
    6MPD2    H114475   3.175   2.145  14.555  0.9099 -0.3127  1.6176
    6MPD2    H214476   3.035   2.523  14.424 -0.3916 -0.7487 -0.5755
    6MPD2    H314477   3.041   2.286  14.420  1.4199  2.4720 -2.2708
    6MPD2     N14478   3.378   2.241  14.712  0.2276 -0.4230  0.2157
    6MPD2    H514479   3.429   2.302  14.776 -1.8321  2.3684 -0.8088
    6MPD2    N114480   3.229   2.666  14.555  0.6436  0.2429 -0.8374
    6MPD2    H714481   3.310   2.696  14.608 -1.1402  1.7145  1.0651
  945NH3     N114482   1.616   4.526   9.180 -0.7607  0.0809 -0.5807
  945NH3     H214483   1.614   4.513   9.280  3.8750  1.3241 -0.3593
  945NH3     H314484   1.537   4.473   9.144  0.7832 -1.4635 -1.6890
  945NH3     H414485   1.585   4.622   9.162  1.8186  0.9932 -0.0820
  946SOD     NA14486   0.025   3.038  16.043 -0.5231  0.0470  0.0791
  947SOD     NA14487   0.261   2.381  11.990  0.0746  0.0658 -0.7593
  948SOD     NA14488   2.186   0.585  12.053 -0.2309 -0.4039  0.5661
  949SOD     NA14489   0.344   4.076   3.844 -0.7278 -0.4701  0.1481
  950SOD     NA14490   3.196   0.131   4.481 -0.3032 -0.2785 -0.3369
  951SOD     NA14491   3.262   0.008  10.200  0.1987  0.2356 -0.0906
  952SOD     NA14492   4.461   4.693  16.891  0.0377 -0.0233  0.3362
  953SOD     NA14493   4.396   4.569  13.936  0.3779  0.3049  0.5949
  954SOL     OW14494   4.190   2.047  11.058  0.0703 -0.3549 -0.0957
  954SOL    HW114495   4.131   1.974  11.043 -0.0071 -0.2565 -0.2690
  954SOL    HW214496   4.129   2.113  11.092 -0.9056 -1.0846 -0.4432
  955SOL     OW14497   2.112   2.194   1.169 -0.2541 -0.0255 -0.0596
  955SOL    HW114498   2.051   2.244   1.224  0.9140  0.1856  1.0545
  955SOL    HW214499   2.094   2.102   1.189 -1.1148  0.6077  2.1297
  956SOL     OW14500   2.432   2.444   5.635 -0.4671  0.0072 -0.5345
  956SOL    HW114501   2.394   2.372   5.686  2.1662 -1.0714 -0.0903
  956SOL    HW214502   2.354   2.472   5.587 -0.1074  3.8555  1.1259
  957SOL     OW14503   2.712   0.495   7.908  0.2136  0.1958  0.0703
  957SOL    HW114504   2.699   0.414   7.957  0.2316 -0.4989 -1.0704
  957SOL    HW214505   2.698   0.468   7.817 -2.7688 -0.4282  0.7128
  958SOL     OW14506   1.331   1.814   8.830 -0.4199 -0.0014  0.8613
  958SOL    HW114507   1.284   1.745   8.784  2.7615 -1.0415 -0.8229
  958SOL    HW214508   1.414   1.815   8.783 -0.8558 -0.1371  0.0856
  959SOL     OW14509   1.275   3.192   6.864  1.0980  0.3419 -0.0512
  959SOL    HW114510   1.224   3.233   6.934 -0.0321 -2.1182  0.5670
  959SOL    HW214511   1.209   3.138   6.821  0.1410  1.5608 -0.1137
  960SOL     OW14512   3.537   2.010  10.379  0.0678  0.2130 -0.2479
  960SOL    HW114513   3.511   1.936  10.324  1.4096  0.4573 -1.2107
  960SOL    HW214514   3.545   1.961  10.462  2.7881 -1.0665 -1.2507
  961SOL     OW14515   3.252   1.190  11.282  0.6150 -0.5907 -0.5564
  961SOL    HW114516   3.259   1.096  11.270  0.5758 -0.7063  0.3276
  961SOL    HW214517   3.314   1.226  11.219  0.5967 -0.5131 -0.5312
  962SOL     OW14518   2.545   3.405   8.513  0.1223 -0.1972 -0.2159
  962SOL    HW114519   2.457   3.443   8.505 -0.3780 -1.2901  0.0726
  962SOL    HW214520   2.532   3.328   8.569 -3.1041 -1.0153 -2.0544
  963SOL     OW14521   1.454   0.551   6.556  0.0807  0.4106 -1.0536
  963SOL    HW114522   1.487   0.568   6.644 -0.1071 -2.6368 -0.3835
  963SOL    HW214523   1.524   0.490   6.532  1.4830  2.5234 -2.2781
  964SOL     OW14524   2.273   4.237  17.039 -0.1736 -0.5196 -0.0801
  964SOL    HW114525   2.290   4.152  17.080 -2.5197 -1.3516 -0.8468
  964SOL    HW214526   2.311   4.289  17.109 -1.8137  0.3375  0.1811
  965SOL     OW14527   2.649   1.854   8.774 -0.6244 -0.2970  0.3065
  965SOL    HW114528   2.683   1.850   8.863 -0.2346 -1.2124  0.1238
  965SOL    HW214529   2.726   1.862   8.718 -0.0793 -3.5084  0.5967
  966SOL     OW14530   2.819   0.084  11.880 -0.4195  0.1779  0.4073
  966SOL    HW114531   2.796   4.726  11.884  0.1250  0.0580  0.7210
  966SOL    HW214532   2.913   0.069  11.870 -0.4678  1.0506 -1.2472
  967SOL     OW14533   4.457   1.264   2.970  0.0375  0.4125 -0.3270
  967SOL    HW114534   4.381   1.318   2.991  0.9649  0.8691  1.8122
  967SOL    HW214535   4.441   1.181   3.014  1.6020 -0.4508 -1.3765
  968SOL     OW14536   0.633   1.208   8.802 -0.0636  0.6684  0.2651
  968SOL    HW114537   0.651   1.255   8.721 -2.1226 -0.5526 -0.9162
  968SOL    HW214538   0.723   1.187   8.824  0.3372  0.3118 -1.6901
  969SOL     OW14539   3.207   2.298   2.926  0.2155  0.2127  0.1916
  969SOL    HW114540   3.169   2.384   2.908  0.2554  0.1008 -0.4048
  969SOL    HW214541   3.171   2.241   2.858  0.1446 -0.0434  0.4375
  970SOL     OW14542   2.885   3.671   6.334  0.0207  0.0210  0.5964
  970SOL    HW114543   2.855   3.658   6.424  0.0553 -2.9189  0.1821
  970SOL    HW214544   2.901   3.765   6.328 -0.2417 -0.0828 -1.4943
  971SOL     OW14545   2.155   1.883   0.421  0.2722  0.1456 -0.3506
  971SOL    HW114546   2.182   1.815   0.483 -1.0228 -0.1687 -0.1449
  971SOL    HW214547   2.163   1.835   0.338  0.6151  0.2445 -0.3754
  972SOL     OW14548   1.153   4.041   7.734 -0.0982 -0.3093  0.3490
  972SOL    HW114549   1.220   4.043   7.802 -1.0807  0.5449  1.2830
  972SOL    HW214550   1.198   4.021   7.651  3.0887 -0.0185  1.9926
  973SOL     OW14551   2.589   4.246   1.268 -0.0575 -0.5902 -0.1988
  973SOL    HW114552   2.533   4.168   1.273 -0.9902  0.1097  0.2767
  973SOL    HW214553   2.590   4.270   1.360  1.8149  0.7933 -0.5878
  974SOL     OW14554   2.262   2.374   4.047 -0.4812 -0.2933  0.6213
  974SOL    HW114555   2.341   2.386   3.994 -0.4328  1.3116  1.0560
  974SOL    HW214556   2.269   2.454   4.099  1.7979  0.5410 -0.9674
  975SOL     OW14557   0.944   4.650   6.003 -0.2088  0.1505  0.8380
  975SOL    HW114558   1.003   4.621   5.934 -0.8836 -0.0524  0.3485
  975SOL    HW214559   0.948   0.011   6.005 -0.9775  0.1878  0.7929
  976SOL     OW14560   2.548   0.795   1.261 -0.1734  0.3088  0.2661
  976SOL    HW114561   2.630   0.840   1.285 -0.6959  0.2176  2.1889
  976SOL    HW214562   2.553   0.725   1.326 -0.3391 -0.0442 -0.0994
  977SOL     OW14563   1.349   0.258   1.953  0.2785  0.3810 -0.1186
  977SOL    HW114564   1.326   0.191   1.889  2.0448  0.4808 -0.8609
  977SOL    HW214565   1.313   0.215   2.031 -1.5108 -1.4320 -1.9440
  978SOL     OW14566   0.244   1.985  14.057 -0.2170 -0.3061  0.2871
  978SOL    HW114567   0.176   1.933  14.099 -0.3896  0.8640  1.4539
  978SOL    HW214568   0.316   1.973  14.119 -0.3743  0.0988  0.5478
  979SOL     OW14569   2.955   2.087   1.100 -0.2457  0.0015  0.2747
  979SOL    HW114570   2.950   2.109   1.007  1.6747  1.0042  0.3820
  979SOL    HW214571   2.865   2.069   1.126  0.2447 -0.6835  1.5209
  980SOL     OW14572   3.776   0.795   6.522  0.4463 -0.2167  0.1996
  980SOL    HW114573   3.692   0.749   6.518 -0.4836  1.4587  0.0575
  980SOL    HW214574   3.777   0.826   6.612 -0.1073  1.2003 -0.2786
  981SOL     OW14575   2.467   0.729   5.667  0.2586  0.0051 -0.1584
  981SOL    HW114576   2.461   0.724   5.572 -1.4077  1.2900 -0.0947
  981SOL    HW214577   2.388   0.686   5.699 -0.2755  0.1366 -1.3341
  982SOL     OW14578   4.664   0.656   2.733  0.6722  0.7117  0.0209
  982SOL    HW114579   4.666   0.560   2.725  0.3733  0.7187 -0.1660
  982SOL    HW214580   4.607   0.684   2.661 -0.5010  1.7656  1.3573
  983SOL     OW14581   2.938   4.270   6.252 -0.8301 -0.3540  0.0789
  983SOL    HW114582   2.972   4.312   6.331  1.2693 -0.8165 -0.5543
  983SOL    HW214583   3.024   4.251   6.214 -0.4948 -0.6507  0.9714
  984SOL     OW14584   1.149   1.704   5.839 -0.1126 -0.0338 -0.0232
  984SOL    HW114585   1.077   1.648   5.869  1.6578 -2.2952  0.0067
  984SOL    HW214586   1.198   1.706   5.921 -0.1428  1.3350 -0.0501
  985SOL     OW14587   1.052   2.332   5.137  0.5910 -0.3358 -0.0906
  985SOL    HW114588   1.084   2.300   5.052  0.0472  1.6021 -1.0344
  985SOL    HW214589   1.056   2.258   5.198 -0.8678  1.0968  1.7069
  986SOL     OW14590   0.079   1.197  13.850  0.2908  0.0477  0.4871
  986SOL    HW114591   0.112   1.185  13.939  0.7038  1.3822  0.5149
  986SOL    HW214592   0.149   1.242  13.803 -1.0073  2.6726  1.0311
  987SOL     OW14593   1.543   3.441   3.294 -0.0736 -0.2197  0.0379
  987SOL    HW114594   1.485   3.491   3.351  0.4293  0.5014 -0.0878
  987SOL    HW214595   1.482   3.410   3.227  0.3025 -1.2924  0.1797
  988SOL     OW14596   1.740   2.662   5.663  0.1064 -0.4374 -0.1513
  988SOL    HW114597   1.780   2.623   5.585 -0.1257  1.2604 -1.1248
  988SOL    HW214598   1.760   2.589   5.721 -0.5229 -2.2043 -2.1351
  989SOL     OW14599   0.918   3.497   8.024 -0.6245 -0.5453 -0.0399
  989SOL    HW114600   0.861   3.571   8.005 -0.4284 -1.0149 -2.4248
  989SOL    HW214601   0.855   3.437   8.064  1.6301 -1.5027  2.1197
  990SOL     OW14602   0.103   3.528   5.094 -0.1873  0.1508  0.1418
  990SOL    HW114603   0.073   3.455   5.148 -0.0719 -0.3663 -0.4946
  990SOL    HW214604   0.190   3.538   5.132  0.4806  1.3887 -1.6711
  991SOL     OW14605   1.153   3.450   9.690  0.1212  0.1130  0.3964
  991SOL    HW114606   1.214   3.447   9.763 -0.5477 -0.7419  0.9155
  991SOL    HW214607   1.107   3.366   9.696  1.1440 -0.5285 -0.8061
  992SOL     OW14608   4.725   1.683   4.678 -0.0494  0.2810 -0.0386
  992SOL    HW114609   4.711   1.652   4.768  2.1535 -0.4067  0.0841
  992SOL    HW214610   4.643   1.651   4.640  0.3519  0.3533 -0.9680
  993SOL     OW14611   0.036   4.015   4.753  1.0376 -0.5845  0.3434
  993SOL    HW114612   0.079   4.049   4.675  1.9149 -1.4724  0.4324
  993SOL    HW214613   0.033   3.922   4.730 -2.0631 -1.1985  3.1677
  994SOL     OW14614   2.558   3.227   6.601 -0.3237 -0.1034 -0.1151
  994SOL    HW114615   2.624   3.191   6.541 -0.2456 -0.6319  0.2896
  994SOL    HW214616   2.591   3.185   6.680 -0.9859  0.6931  0.5919
  995SOL     OW14617   3.861   2.264   4.693  0.1416 -0.1743 -0.3349
  995SOL    HW114618   3.921   2.199   4.731 -0.1237 -0.4690 -0.4193
  995SOL    HW214619   3.776   2.221   4.684  0.2417 -0.9243  2.2097
  996SOL     OW14620   3.619   1.704   1.322 -0.1874  0.3032  0.1255
  996SOL    HW114621   3.621   1.800   1.316 -0.4325  0.4014  1.6142
  996SOL    HW214622   3.692   1.691   1.261 -0.0452 -0.9950  0.5863
  997SOL     OW14623   1.709   1.037   6.964 -0.0496  0.3523 -0.3036
  997SOL    HW114624   1.742   1.026   7.053 -1.6176 -0.0261  0.2337
  997SOL    HW214625   1.631   1.089   6.986 -0.6107  0.1126 -1.7228
  998SOL     OW14626   2.483   1.983   7.653 -0.3284 -0.1551 -0.3236
  998SOL    HW114627   2.539   1.955   7.580 -0.6124 -1.8410  0.1069
  998SOL    HW214628   2.435   2.059   7.619 -1.7013 -2.2598 -3.0149
  999SOL     OW14629   0.495   1.227   6.568 -0.1255 -0.6800 -0.7377
  999SOL    HW114630   0.547   1.216   6.488 -2.0180 -2.3484 -1.7500
  999SOL    HW214631   0.535   1.166   6.630  0.5484  0.7877  0.2758
 1000SOL     OW14632   3.803   4.269   8.100  0.4391  0.1081 -0.7002
 1000SOL    HW114633   3.733   4.238   8.156 -0.0385 -1.8671 -2.3910
 1000SOL    HW214634   3.857   4.191   8.089  0.6202  0.1191  0.1606
 1001SOL     OW14635   0.734   4.371   2.615  0.3083  0.3156 -0.3295
 1001SOL    HW114636   0.781   4.441   2.661 -2.9376  1.5658  1.0881
 1001SOL    HW214637   0.708   4.318   2.691 -0.9735  0.5061 -0.6366
 1002SOL     OW14638   0.123   2.104   3.144  0.5372 -0.0699  0.3373
 1002SOL    HW114639   0.053   2.065   3.092  1.0266 -1.4659  0.7303
 1002SOL    HW214640   0.082   2.110   3.231  0.1198  0.2321  0.1166
 1003SOL     OW14641   1.443   2.991   8.483 -0.5513 -0.4305 -0.1090
 1003SOL    HW114642   1.453   2.901   8.513 -1.6726 -1.0666 -1.6977
 1003SOL    HW214643   1.434   2.980   8.389 -2.3687  0.8127 -0.0747
 1004SOL     OW14644   0.390   2.737   3.926 -0.5159 -0.4383  0.0536
 1004SOL    HW114645   0.434   2.795   3.988  0.1043 -3.1968  2.1728
 1004SOL    HW214646   0.368   2.804   3.861 -0.9256  0.4987  1.1751
 1005SOL     OW14647   3.851   2.685   6.915 -0.4128  0.6340  0.1942
 1005SOL    HW114648   3.881   2.663   7.004 -0.8035  0.6821  0.3354
 1005SOL    HW214649   3.835   2.776   6.939 -0.8207  1.1169 -1.9701
 1006SOL     OW14650   3.971   4.221   4.103  0.1467 -0.2580 -0.2901
 1006SOL    HW114651   3.902   4.206   4.167 -0.1187 -1.1035 -0.7793
 1006SOL    HW214652   4.010   4.138   4.132 -0.4285 -0.3851  0.1134
 1007SOL     OW14653   2.946   1.831   3.471 -0.8279 -0.5033 -0.5538
 1007SOL    HW114654   2.995   1.903   3.431 -2.4944  0.7106 -0.4429
 1007SOL    HW214655   2.954   1.864   3.560  1.3119  2.1580 -1.7337
 1008SOL     OW14656   0.344   3.760   1.523 -0.4445  0.0556  0.3785
 1008SOL    HW114657   0.324   3.722   1.437 -2.3124 -1.3492  1.4069
 1008SOL    HW214658   0.258   3.766   1.564 -0.4113  1.4793  0.2381
 1009SOL     OW14659   3.189   2.331   0.518 -0.0983 -0.3086 -0.6839
 1009SOL    HW114660   3.167   2.242   0.491  1.5386 -1.1582  0.7746
 1009SOL    HW214661   3.102   2.370   0.510  0.6013  1.7291  1.5287
 1010SOL     OW14662   4.604   4.488  10.933 -0.3723  0.4499 -0.1667
 1010SOL    HW114663   4.603   4.579  10.961  0.2258  0.8622 -1.4842
 1010SOL    HW214664   4.520   4.457  10.967 -0.6067 -0.3187 -1.4617
 1011SOL     OW14665   3.360   2.655   1.090  0.0346  0.1263  0.2341
 1011SOL    HW114666   3.338   2.575   1.042 -0.8542  0.7298 -0.3564
 1011SOL    HW214667   3.452   2.672   1.073  1.0718 -1.5761  4.1716
 1012SOL     OW14668   0.136   3.008   6.001 -0.0472 -0.9003 -1.0581
 1012SOL    HW114669   0.081   2.966   6.068 -0.8293 -0.1246 -1.2259
 1012SOL    HW214670   0.142   3.091   6.047  0.2044 -1.6944  0.3447
 1013SOL     OW14671   3.140   2.181  13.089  0.2647  0.9873 -1.0183
 1013SOL    HW114672   3.223   2.186  13.041  0.5905 -0.0289 -0.5739
 1013SOL    HW214673   3.161   2.098  13.133  1.8025  0.6943 -2.2586
 1014SOL     OW14674   1.300   1.264   7.776 -0.0961 -0.4901  0.5886
 1014SOL    HW114675   1.386   1.223   7.787  0.1470 -0.0999  0.1497
 1014SOL    HW214676   1.272   1.272   7.867 -1.0694 -0.0057  0.2373
 1015SOL     OW14677   4.047   2.724   2.968  0.2240  0.1033  0.0663
 1015SOL    HW114678   3.978   2.791   2.969 -1.1527 -1.2813 -1.5481
 1015SOL    HW214679   4.076   2.711   3.059  0.8397  1.3189  0.0340
 1016SOL     OW14680   3.412   1.005   2.615 -0.1599 -0.3933 -0.4028
 1016SOL    HW114681   3.326   1.039   2.640  0.0544 -0.8753  0.9592
 1016SOL    HW214682   3.421   0.950   2.692 -0.3891  0.1886  0.0399
 1017SOL     OW14683   0.752   0.167   8.814  0.5312 -0.3202 -0.7425
 1017SOL    HW114684   0.753   0.086   8.763  0.6725 -2.2488  2.2881
 1017SOL    HW214685   0.665   0.159   8.853  0.0058 -0.5787 -1.9762
 1018SOL     OW14686   2.050   1.503  15.031 -0.1026  0.3063 -0.1137
 1018SOL    HW114687   1.998   1.549  15.098  0.0953 -1.0869  0.9955
 1018SOL    HW214688   2.050   1.415  15.069 -0.0280 -0.3526 -1.6331
 1019SOL     OW14689   0.152   3.885   1.936  0.1151  0.1853  0.5567
 1019SOL    HW114690   0.240   3.848   1.933 -0.0535  0.0336 -2.3129
 1019SOL    HW214691   0.115   3.861   2.021  1.6132  0.3162  1.2456
 1020SOL     OW14692   4.191   3.677   3.503 -0.0607 -0.3396 -0.3708
 1020SOL    HW114693   4.098   3.652   3.500 -0.9968  2.9961  0.5200
 1020SOL    HW214694   4.193   3.742   3.573  0.6493  0.1042 -0.8105
 1021SOL     OW14695   1.494   0.787   7.325 -0.0780  0.1354  0.4604
 1021SOL    HW114696   1.502   0.734   7.246 -0.0543  0.3014  0.3498
 1021SOL    HW214697   1.583   0.790   7.362 -0.5452  0.7888  1.5251
 1022SOL     OW14698   0.793   1.448  15.957  0.0549  0.2140  0.0556
 1022SOL    HW114699   0.776   1.356  15.938  1.6225  0.4913 -2.6997
 1022SOL    HW214700   0.884   1.441  15.985  0.1966 -1.6236 -0.8620
 1023SOL     OW14701   3.793   3.147   1.766  0.8492 -0.4320 -0.6359
 1023SOL    HW114702   3.737   3.102   1.831  1.2845 -1.2827 -0.8478
 1023SOL    HW214703   3.850   3.200   1.821  0.9749 -2.0399  0.8023
 1024SOL     OW14704   1.401   1.946   2.430  0.3061  0.0674  0.1557
 1024SOL    HW114705   1.464   1.888   2.388 -1.3194 -1.9664  0.5519
 1024SOL    HW214706   1.451   2.020   2.465 -1.1501  1.0487  0.1672
 1025SOL     OW14707   4.621   0.161   9.184  0.0486 -0.0606 -0.2581
 1025SOL    HW114708   4.581   0.132   9.265 -2.1079 -1.4662 -1.8173
 1025SOL    HW214709   4.567   0.109   9.124 -0.5585  1.0207 -0.6603
 1026SOL     OW14710   3.091   4.559   5.983  0.1200  0.0983 -0.0560
 1026SOL    HW114711   3.012   4.508   5.962  0.4656  0.3369 -1.9207
 1026SOL    HW214712   3.098   4.603   5.899 -1.3470 -0.3028 -0.4015
 1027SOL     OW14713   3.842   0.912   1.782 -0.5012 -0.0555  0.8649
 1027SOL    HW114714   3.821   0.917   1.876  0.7364 -1.8116  1.2288
 1027SOL    HW214715   3.910   0.845   1.776  2.0131  2.4674  0.9570
 1028SOL     OW14716   3.391   4.711   4.283  0.3746  0.4928 -0.2733
 1028SOL    HW114717   3.398   0.070   4.295 -1.1046  0.5032  0.4764
 1028SOL    HW214718   3.398   4.689   4.376 -1.7677  1.0154  0.0002
 1029SOL     OW14719   0.628   3.143  13.376 -0.1431  0.6029  0.6551
 1029SOL    HW114720   0.614   3.084  13.450  2.1468 -0.3499  0.3116
 1029SOL    HW214721   0.716   3.175  13.395  0.5441 -0.3585 -0.8662
 1030SOL     OW14722   2.243   3.099   5.633  0.1649  0.2878  0.0493
 1030SOL    HW114723   2.243   3.051   5.716  1.9891  1.3126  0.6395
 1030SOL    HW214724   2.265   3.029   5.572 -1.4665 -0.0943 -0.0859
 1031SOL     OW14725   4.180   2.365  12.247 -0.7680 -0.4597  0.1585
 1031SOL    HW114726   4.112   2.301  12.269  2.1688 -3.6900 -0.1619
 1031SOL    HW214727   4.139   2.451  12.259 -0.4163 -0.4590  1.3053
 1032SOL     OW14728   0.481   0.923   4.411 -0.1359 -0.3438  0.0659
 1032SOL    HW114729   0.517   0.951   4.327  2.3578  1.6209  1.7716
 1032SOL    HW214730   0.417   0.855   4.390 -0.4167  0.5081 -1.8006
 1033SOL     OW14731   4.662   2.933  14.707  0.1402  0.1166  0.1034
 1033SOL    HW114732   4.614   2.898  14.632 -0.5188  0.1357  0.5150
 1033SOL    HW214733   4.706   3.008  14.666  2.1518 -1.7189 -1.1816
 1034SOL     OW14734   3.569   3.117   8.626 -0.0366 -0.1244 -0.1630
 1034SOL    HW114735   3.645   3.086   8.675  0.1003  1.5428  0.6874
 1034SOL    HW214736   3.555   3.043   8.566 -0.9440 -0.1676  0.1115
 1035SOL     OW14737   1.972   1.934   6.349 -0.4255  0.0255 -0.1453
 1035SOL    HW114738   2.025   1.862   6.384 -2.2085 -0.6811  1.0868
 1035SOL    HW214739   1.990   1.985   6.428 -0.9995  0.2979 -0.1922
 1036SOL     OW14740   1.354   3.300   6.129 -0.2194 -0.1945 -0.0384
 1036SOL    HW114741   1.416   3.357   6.083  0.3049  0.5083  1.5583
 1036SOL    HW214742   1.335   3.250   6.049 -0.6445 -0.8961  0.5030
 1037SOL     OW14743   2.907   0.729   0.665 -0.3144 -0.4323  0.0062
 1037SOL    HW114744   2.839   0.724   0.732 -1.0092 -2.0584 -0.8379
 1037SOL    HW214745   2.970   0.774   0.722  2.1523 -0.9182 -2.3493
 1038SOL     OW14746   0.677   0.188   1.718 -0.0241  0.4874  0.1493
 1038SOL    HW114747   0.759   0.168   1.673 -0.7745 -0.2219 -0.9085
 1038SOL    HW214748   0.620   0.141   1.657  1.1258 -2.4422  1.3511
 1039SOL     OW14749   1.007   1.668   2.644 -0.3282 -0.4678 -0.0661
 1039SOL    HW114750   1.093   1.643   2.676 -0.7904 -1.5783  0.3260
 1039SOL    HW214751   1.005   1.603   2.574  0.9459 -0.2272 -0.3168
 1040SOL     OW14752   0.552   4.502  11.799  0.0330  0.1156  0.1135
 1040SOL    HW114753   0.621   4.549  11.752 -1.8270  2.0894 -0.6764
 1040SOL    HW214754   0.503   4.571  11.843  0.9542  1.7265 -1.3605
 1041SOL     OW14755   2.143   2.964   9.651  0.1151  0.3332  0.7429
 1041SOL    HW114756   2.117   2.880   9.614  2.2355  0.3148 -0.6875
 1041SOL    HW214757   2.238   2.956   9.642 -0.2747 -1.2918 -2.0032
 1042SOL     OW14758   3.284   2.828   6.502 -0.1868 -0.0794 -0.4155
 1042SOL    HW114759   3.371   2.846   6.536  0.0739 -0.5909 -0.7992
 1042SOL    HW214760   3.299   2.752   6.446 -0.2520 -0.2246 -0.2367
 1043SOL     OW14761   1.185   4.028   1.782  0.5932  0.1355 -0.0256
 1043SOL    HW114762   1.185   4.082   1.702  0.0424 -2.9752 -2.1175
 1043SOL    HW214763   1.102   4.057   1.819  1.5837  1.9460  0.7964
 1044SOL     OW14764   1.103   3.025   6.728  0.2082  0.4025 -0.2786
 1044SOL    HW114765   1.017   3.061   6.706  0.5829  0.6690 -1.3143
 1044SOL    HW214766   1.091   2.938   6.766  1.0976  0.4170  0.0393
 1045SOL     OW14767   2.402   4.733   2.772  0.3661  0.3930  0.3025
 1045SOL    HW114768   2.428   4.645   2.748 -0.2377  0.0085  1.0616
 1045SOL    HW214769   2.419   0.001   2.866  0.4993  2.7621  0.2173
 1046SOL     OW14770   0.798   4.640   4.743 -0.1951 -0.2926 -0.7515
 1046SOL    HW114771   0.812   4.584   4.819  0.2852 -0.1004 -0.6993
 1046SOL    HW214772   0.770   4.721   4.785 -2.6295 -1.8099  0.5083
 1047SOL     OW14773   1.088   1.648   3.470 -0.4928 -0.1003 -0.3337
 1047SOL    HW114774   1.050   1.645   3.382  0.0756  1.1938 -0.6292
 1047SOL    HW214775   1.008   1.653   3.523 -1.0810 -1.0217 -1.1346
 1048SOL     OW14776   0.753   4.432  14.518  0.3229 -1.2514 -0.3861
 1048SOL    HW114777   0.681   4.397  14.465  1.1681  0.3499 -2.5703
 1048SOL    HW214778   0.816   4.363  14.537  2.3134  0.5473 -0.5006
 1049SOL     OW14779   0.338   3.592   3.322 -0.4123 -0.4742 -0.2661
 1049SOL    HW114780   0.252   3.607   3.360 -0.1292  0.5721 -0.0437
 1049SOL    HW214781   0.344   3.634   3.236  1.1396 -0.9105 -0.3767
 1050SOL     OW14782   4.633   1.708  16.188  0.6031  0.3706  0.5853
 1050SOL    HW114783   4.681   1.712  16.106  0.7518  0.3912  0.6739
 1050SOL    HW214784   4.697   1.745  16.250  0.5482 -0.3177  1.0579
 1051SOL     OW14785   0.006   4.306   2.907  0.3632 -0.2866 -0.2266
 1051SOL    HW114786   0.062   4.302   2.829 -0.6343  0.5804 -0.9913
 1051SOL    HW214787   4.664   4.358   2.884 -0.0652 -0.5144  0.6993
 1052SOL     OW14788   4.178   1.295   7.181 -0.4695  0.0505  0.6835
 1052SOL    HW114789   4.122   1.371   7.165  1.5078  1.7164  1.7607
 1052SOL    HW214790   4.260   1.324   7.143 -0.8998  0.0794 -0.2291
 1053SOL     OW14791   3.249   4.229  17.423 -0.0106 -1.1810 -0.1700
 1053SOL    HW114792   3.173   4.270  17.381  0.9812 -0.5467 -1.3523
 1053SOL    HW214793   3.208   4.148  17.452  0.9704 -0.9085  1.9335
 1054SOL     OW14794   3.905   1.943   2.032 -0.0557  0.1600 -0.0346
 1054SOL    HW114795   3.915   1.935   1.937  0.6221 -0.1875  0.0682
 1054SOL    HW214796   3.996   1.961   2.054  0.7274 -0.3663 -2.8650
 1055SOL     OW14797   3.578   3.757   4.894  0.0322  0.3372  0.4626
 1055SOL    HW114798   3.500   3.805   4.866 -0.8723 -2.3391 -1.6860
 1055SOL    HW214799   3.543   3.693   4.956  1.9571  1.2700  2.4933
 1056SOL     OW14800   0.122   2.574   7.388 -0.4848 -0.7981 -0.3251
 1056SOL    HW114801   0.111   2.627   7.309  0.7511 -1.2069 -0.7768
 1056SOL    HW214802   0.078   2.492   7.367 -2.2521 -0.2011  1.0877
 1057SOL     OW14803   0.508   3.108  11.059 -0.1107 -0.2956  0.1680
 1057SOL    HW114804   0.558   3.113  10.977 -0.4945  1.6142  0.0323
 1057SOL    HW214805   0.419   3.126  11.027 -0.9715 -3.3517  0.8763
 1058SOL     OW14806   3.602   0.648   4.125  0.1351  0.3669  0.6457
 1058SOL    HW114807   3.577   0.592   4.198 -0.3640 -1.4484 -0.9054
 1058SOL    HW214808   3.570   0.735   4.146 -0.0037  0.5797 -0.4655
 1059SOL     OW14809   1.083   1.292  16.238 -0.8448  0.5607  0.4988
 1059SOL    HW114810   1.045   1.319  16.155  0.6567  1.9386  0.2475
 1059SOL    HW214811   1.174   1.310  16.214 -1.3611  0.8314 -1.2471
 1060SOL     OW14812   3.424   2.044  13.162  0.4960  0.2921 -0.3747
 1060SOL    HW114813   3.416   2.060  13.256 -0.9831  1.0857 -0.6386
 1060SOL    HW214814   3.470   1.960  13.157 -1.0012 -0.6298  0.8604
 1061SOL     OW14815   4.617   3.356   1.886  0.5345  0.4170  0.0371
 1061SOL    HW114816   4.584   3.303   1.813  0.6407  0.1896  0.1544
 1061SOL    HW214817   4.553   3.332   1.953  0.5790  0.0055 -0.0633
 1062SOL     OW14818   3.662   2.397   3.289  0.4468 -0.3268  0.2795
 1062SOL    HW114819   3.740   2.414   3.236  0.0270  0.2509 -0.1578
 1062SOL    HW214820   3.618   2.337   3.228  2.3972 -0.2222 -1.2191
 1063SOL     OW14821   1.729   1.757  15.522 -0.4531  0.1919 -0.0526
 1063SOL    HW114822   1.795   1.701  15.563 -0.3616  0.2936 -0.0624
 1063SOL    HW214823   1.653   1.721  15.569 -0.2683  0.7743  0.6880
 1064SOL     OW14824   1.471   0.634   3.725 -0.0515 -0.1556  0.2856
 1064SOL    HW114825   1.430   0.720   3.734 -3.2755 -1.2810 -3.5501
 1064SOL    HW214826   1.481   0.602   3.815 -0.4900  0.2736  0.4855
 1065SOL     OW14827   3.297   1.012   6.886  1.2231  0.3478 -0.2145
 1065SOL    HW114828   3.262   1.061   6.961 -0.4850 -1.2427  0.0452
 1065SOL    HW214829   3.214   0.970   6.863  0.2608  1.7778  0.5584
 1066SOL     OW14830   4.125   1.182   0.807 -0.6048  0.2446 -0.0526
 1066SOL    HW114831   4.059   1.170   0.876 -0.7146 -0.5006 -0.2889
 1066SOL    HW214832   4.076   1.187   0.725 -2.3554  0.3802  0.9990
 1067SOL     OW14833   3.599   3.018   7.900  0.0995  0.0944  0.2101
 1067SOL    HW114834   3.524   3.005   7.958  0.4083 -1.3133  0.2839
 1067SOL    HW214835   3.618   3.110   7.918 -1.6878  0.3875  0.6267
 1068SOL     OW14836   2.740   3.240   0.038 -0.2246 -0.1494 -0.3731
 1068SOL    HW114837   2.803   3.304   0.072 -1.6886  1.8504 -1.4217
 1068SOL    HW214838   2.802   3.204  17.715  1.6362  0.1554  1.2591
 1069SOL     OW14839   1.575   1.992  13.480 -0.7692 -0.0176  0.0861
 1069SOL    HW114840   1.616   2.040  13.408  0.7638 -0.4896  0.6263
 1069SOL    HW214841   1.573   2.061  13.546  0.9236 -1.5759  1.7807
 1070SOL     OW14842   1.227   0.582  10.942  0.4247 -0.0059 -0.3439
 1070SOL    HW114843   1.254   0.551  10.856 -0.6836  0.3555 -0.8169
 1070SOL    HW214844   1.302   0.633  10.971  0.3253  0.5312 -1.0294
 1071SOL     OW14845   3.511   2.696   1.335 -0.4371 -0.4935  0.1775
 1071SOL    HW114846   3.570   2.708   1.261 -1.2460 -0.3795 -0.4478
 1071SOL    HW214847   3.546   2.616   1.374  1.1314 -0.5318 -1.3026
 1072SOL     OW14848   1.024   2.977   3.083 -0.2230  0.8877 -0.3793
 1072SOL    HW114849   1.045   3.039   3.153 -0.4405  0.7927 -0.2295
 1072SOL    HW214850   0.948   3.010   3.035 -1.2306 -2.7390 -1.2715
 1073SOL     OW14851   1.962   1.598  15.267  0.1188 -0.1279  0.3235
 1073SOL    HW114852   2.007   1.660  15.325  0.3354  0.0602 -0.0487
 1073SOL    HW214853   1.928   1.529  15.324  0.7519 -0.5439  0.1958
 1074SOL     OW14854   4.553   2.446   7.134  0.3858  0.2251  0.1704
 1074SOL    HW114855   4.461   2.471   7.130  0.4881  0.3696 -0.9969
 1074SOL    HW214856   4.557   2.385   7.061 -0.2832 -1.7300  1.7535
 1075SOL     OW14857   2.743   1.864   4.278  0.0494  0.5846  0.0470
 1075SOL    HW114858   2.699   1.948   4.271 -1.6853 -0.1174  2.1855
 1075SOL    HW214859   2.829   1.896   4.304 -0.8893  2.7856  0.3986
 1076SOL     OW14860   1.294   3.699   4.333 -0.0872 -0.1586 -0.3720
 1076SOL    HW114861   1.360   3.698   4.402 -0.6609 -0.9760  0.1639
 1076SOL    HW214862   1.272   3.608   4.313  0.7533 -0.4589  0.0767
 1077SOL     OW14863   1.722   3.344   1.743 -0.0921  0.3575 -0.4400
 1077SOL    HW114864   1.635   3.381   1.758 -0.0117 -0.1390  1.1491
 1077SOL    HW214865   1.729   3.390   1.658 -1.0415 -0.1009 -0.7689
 1078SOL     OW14866   3.998   1.573   6.549  0.3754 -0.1915 -0.7196
 1078SOL    HW114867   3.954   1.521   6.481 -1.2707  1.7957 -1.1928
 1078SOL    HW214868   3.916   1.605   6.588 -0.7536  1.3738 -4.3159
 1079SOL     OW14869   0.616   0.739   9.817  0.1773 -0.2170  0.1515
 1079SOL    HW114870   0.638   0.738   9.910 -0.6058  1.0917  0.3490
 1079SOL    HW214871   0.581   0.828   9.820  1.1501  0.2414 -1.7954
 1080SOL     OW14872   4.447   1.999  16.702 -0.1134 -0.6178  0.2182
 1080SOL    HW114873   4.478   2.001  16.793 -0.1822 -2.0482  0.2662
 1080SOL    HW214874   4.523   1.978  16.647 -0.9085 -0.8906 -0.7570
 1081SOL     OW14875   2.898   0.490   1.455  0.4032 -0.0375 -0.2386
 1081SOL    HW114876   2.966   0.467   1.392 -0.7640 -1.0596 -1.1345
 1081SOL    HW214877   2.837   0.421   1.427  0.7113 -0.9352  1.3256
 1082SOL     OW14878   4.386   3.885   6.650 -0.4771  0.4451 -0.0327
 1082SOL    HW114879   4.313   3.839   6.608 -0.4227  0.6368 -0.3371
 1082SOL    HW214880   4.423   3.808   6.692 -0.4008  1.1973  1.2997
 1083SOL     OW14881   2.971   0.558  10.591 -0.3546  0.2821 -0.2252
 1083SOL    HW114882   3.014   0.507  10.660 -0.4127  1.1470  0.4512
 1083SOL    HW214883   2.884   0.520  10.595  1.1266 -3.2032 -1.0069
 1084SOL     OW14884   2.914   4.610   4.266  0.5269  0.4610  0.1017
 1084SOL    HW114885   2.881   4.666   4.337 -0.2085  1.1412 -0.7890
 1084SOL    HW214886   2.865   4.530   4.281  0.2971  1.1433  3.0996
 1085SOL     OW14887   1.711   0.241   8.859 -0.0469 -0.6757 -0.2431
 1085SOL    HW114888   1.686   0.213   8.770  1.3031  0.4142 -0.9561
 1085SOL    HW214889   1.756   0.322   8.837  0.5547 -1.1729 -0.8686
 1086SOL     OW14890   1.519   0.154   5.883  0.1534 -0.3073  0.6191
 1086SOL    HW114891   1.594   0.099   5.858  0.1331 -1.8351  3.9607
 1086SOL    HW214892   1.525   0.229   5.824  0.7455 -0.5936  0.3100
 1087SOL     OW14893   0.084   3.581   2.937 -1.1598 -0.0601  0.7389
 1087SOL    HW114894   0.034   3.504   2.909 -1.7009  1.6839 -3.1468
 1087SOL    HW214895   0.167   3.535   2.952  0.0652  1.9898  0.3319
 1088SOL     OW14896   2.791   3.165   8.144 -0.0416 -0.0225  0.0077
 1088SOL    HW114897   2.731   3.200   8.078  1.7856  0.9704 -1.1364
 1088SOL    HW214898   2.792   3.237   8.207 -0.5821  1.1432 -1.3011
 1089SOL     OW14899   4.187   2.919   3.411 -0.4534 -0.3019 -0.1782
 1089SOL    HW114900   4.166   3.009   3.388  0.4356  0.1207  0.6638
 1089SOL    HW214901   4.214   2.924   3.503  0.1854  0.6898 -0.4230
 1090SOL     OW14902   2.221   0.600   6.052  0.5136 -0.1016  0.0355
 1090SOL    HW114903   2.242   0.693   6.038 -1.2514  0.7592  3.0983
 1090SOL    HW214904   2.155   0.602   6.121  1.2418 -1.3495  0.7619
 1091SOL     OW14905   1.358   2.907  17.309 -0.2300 -0.6071  0.4280
 1091SOL    HW114906   1.312   2.991  17.309 -1.4133 -1.2600  1.0002
 1091SOL    HW214907   1.448   2.939  17.316  0.9905 -3.8930 -0.5461
 1092SOL     OW14908   0.053   3.578   5.671 -0.7818  0.4125  0.2304
 1092SOL    HW114909   0.070   3.668   5.643  0.7016 -0.5761 -2.0974
 1092SOL    HW214910   4.700   3.579   5.706 -0.0665  0.6915  2.0257
 1093SOL     OW14911   2.867   4.471   5.582 -0.0473 -0.0341 -0.3179
 1093SOL    HW114912   2.796   4.452   5.644  0.5609 -1.4413 -0.0558
 1093SOL    HW214913   2.822   4.528   5.520  2.1293 -0.5405 -2.3838
 1094SOL     OW14914   0.857   0.463  11.077  0.2587  0.0207 -0.2299
 1094SOL    HW114915   0.867   0.486  11.169  0.3865 -4.4179  0.8431
 1094SOL    HW214916   0.763   0.450  11.070  0.4275 -1.8178  1.0508
 1095SOL     OW14917   2.857   4.694   1.424 -0.0526  0.1564 -0.0002
 1095SOL    HW114918   2.831   0.011   1.500 -0.8094 -3.1669  2.0423
 1095SOL    HW214919   2.889   4.614   1.464  1.7163  1.2029  0.6675
 1096SOL     OW14920   3.408   0.327   3.510 -0.5478 -0.0237  0.0082
 1096SOL    HW114921   3.328   0.370   3.480 -0.1977 -1.3673 -2.8367
 1096SOL    HW214922   3.368   0.249   3.548  1.1442  0.1754  2.2023
 1097SOL     OW14923   4.692   4.728   7.107 -0.1025  0.4543 -0.1275
 1097SOL    HW114924   4.634   0.066   7.089  1.0628  1.0557 -1.4660
 1097SOL    HW214925   0.006   4.729   7.025  0.1109  0.2603 -0.0003
 1098SOL     OW14926   2.969   4.490  15.274 -0.8782  0.8951  0.1939
 1098SOL    HW114927   2.931   4.571  15.308 -2.1162  0.3709  0.0723
 1098SOL    HW214928   3.059   4.521  15.266 -0.3209 -0.8372 -0.2289
 1099SOL     OW14929   3.149   0.194  10.125  0.1535 -0.0524  0.2492
 1099SOL    HW114930   3.156   0.250  10.048 -0.8573  0.4209  0.4874
 1099SOL    HW214931   3.068   0.225  10.167 -0.6193 -0.6635 -0.7812
 1100SOL     OW14932   2.375   1.947  11.342 -0.0059 -0.8244 -0.2070
 1100SOL    HW114933   2.430   2.024  11.358 -1.7989  0.3988  0.0226
 1100SOL    HW214934   2.289   1.984  11.322  0.3687  1.2124  1.8988
 1101SOL     OW14935   2.234   2.864  12.669 -0.0039  0.7505 -0.5208
 1101SOL    HW114936   2.267   2.954  12.669 -0.3979  0.8957 -0.0151
 1101SOL    HW214937   2.309   2.808  12.650 -1.7626 -1.7500 -0.0561
 1102SOL     OW14938   3.454   2.464   7.063 -0.0081 -0.5140 -0.0779
 1102SOL    HW114939   3.496   2.400   7.120 -1.0775 -0.9217  0.2619
 1102SOL    HW214940   3.525   2.480   7.002  0.8989 -3.4517  0.2457
 1103SOL     OW14941   0.946   2.965   7.320 -0.1074 -0.1420 -0.5416
 1103SOL    HW114942   1.018   2.938   7.376  0.9259  3.4760 -0.1255
 1103SOL    HW214943   0.874   2.988   7.379  0.4890  0.6302 -0.1197
 1104SOL     OW14944   2.246   3.317  10.750 -0.4936 -0.7263  0.3915
 1104SOL    HW114945   2.251   3.289  10.841  0.4776 -0.2962  0.4748
 1104SOL    HW214946   2.157   3.304  10.718 -0.5248  2.2250 -0.7533
 1105SOL     OW14947   1.100   1.602  11.808  0.0724  0.3639 -0.1260
 1105SOL    HW114948   1.130   1.583  11.897 -0.1305  1.6460  0.2270
 1105SOL    HW214949   1.078   1.513  11.782  0.5736  0.0323  0.5979
 1106SOL     OW14950   1.645   0.159  10.380 -0.1217 -0.2542  0.1486
 1106SOL    HW114951   1.717   0.181  10.320 -1.6832 -2.4556 -2.5292
 1106SOL    HW214952   1.589   0.100  10.331  0.4251  1.0662 -2.0592
 1107SOL     OW14953   1.786   2.413   2.847  0.4116 -0.2961  0.1399
 1107SOL    HW114954   1.847   2.474   2.806 -0.0922 -2.3092 -3.5686
 1107SOL    HW214955   1.854   2.367   2.896  0.8272 -0.3673 -0.5024
 1108SOL     OW14956   4.630   0.166  10.484 -1.0690 -0.3146 -0.5165
 1108SOL    HW114957   4.711   0.214  10.468 -0.4696 -0.7924  1.0265
 1108SOL    HW214958   4.646   0.090  10.428 -0.9371  0.6279 -1.7397
 1109SOL     OW14959   1.440   0.680   4.265  0.2033  0.5085  0.5258
 1109SOL    HW114960   1.363   0.707   4.216  0.3929 -1.5504 -0.9185
 1109SOL    HW214961   1.391   0.620   4.322  1.1887 -0.2284  0.6044
 1110SOL     OW14962   0.349   3.422   9.684  0.2228 -0.7050  0.6531
 1110SOL    HW114963   0.400   3.386   9.756 -1.8160 -3.3621  0.7612
 1110SOL    HW214964   0.419   3.450   9.625  1.9641 -0.5227  2.8277
 1111SOL     OW14965   1.054   1.808   2.873  0.2543  0.0000 -0.2075
 1111SOL    HW114966   1.012   1.767   2.797 -1.2713  0.8091  0.2133
 1111SOL    HW214967   1.129   1.751   2.856 -0.8741 -1.3519 -0.6341
 1112SOL     OW14968   3.187   3.707   7.891  0.4920  0.2679 -0.1362
 1112SOL    HW114969   3.239   3.669   7.821 -0.4540 -1.0512 -0.1196
 1112SOL    HW214970   3.135   3.773   7.843  0.7654  1.1050  0.7251
 1113SOL     OW14971   3.088   2.401   4.970 -0.9235 -0.5536  0.5703
 1113SOL    HW114972   3.091   2.398   4.874  0.4057 -0.4522  0.6109
 1113SOL    HW214973   2.994   2.385   4.977 -0.7375 -2.6565 -1.8580
 1114SOL     OW14974   1.643   3.039  13.491 -0.2813  0.4557  0.2447
 1114SOL    HW114975   1.618   2.948  13.475  1.0002 -0.2062  2.0041
 1114SOL    HW214976   1.689   3.026  13.574 -0.0615 -0.6562 -0.0523
 1115SOL     OW14977   0.709   2.631   1.407 -0.0521 -0.4416  0.1543
 1115SOL    HW114978   0.761   2.551   1.409  0.7732  0.0335 -1.7952
 1115SOL    HW214979   0.659   2.620   1.326  1.4727 -1.2112 -0.6959
 1116SOL     OW14980   1.022   2.455   2.116  0.5953 -0.2259  0.2926
 1116SOL    HW114981   0.956   2.461   2.185  1.5665 -0.0698  1.2037
 1116SOL    HW214982   1.003   2.370   2.078  2.6702 -0.0172 -1.1984
 1117SOL     OW14983   1.914   0.959   5.102  0.0175  0.2046 -0.2209
 1117SOL    HW114984   1.912   0.909   5.184 -1.0468 -1.8934 -1.5033
 1117SOL    HW214985   1.942   1.042   5.140 -0.0288  0.9430 -1.8216
 1118SOL     OW14986   3.613   3.882   7.256  0.0684 -0.4324 -0.0695
 1118SOL    HW114987   3.635   3.792   7.281  0.3166 -0.0963  0.9272
 1118SOL    HW214988   3.529   3.881   7.209 -0.2900 -2.6859  0.6171
 1119SOL     OW14989   1.638   3.541  16.904  0.6187  0.1902 -0.0770
 1119SOL    HW114990   1.673   3.460  16.941  1.0476  0.2804 -0.2844
 1119SOL    HW214991   1.635   3.518  16.811 -0.8683  0.2346 -0.0303
 1120SOL     OW14992   4.215   0.406   5.488  0.0933 -0.3858  0.9854
 1120SOL    HW114993   4.181   0.403   5.577 -0.3808  1.2982  0.8450
 1120SOL    HW214994   4.239   0.313   5.487  0.3063 -0.3065 -0.7719
 1121SOL     OW14995   2.905   2.121   1.482 -0.1468 -0.8007 -0.3149
 1121SOL    HW114996   2.814   2.093   1.482 -0.3912 -0.0173 -1.0598
 1121SOL    HW214997   2.904   2.214   1.503  1.3888 -0.6439 -0.8682
 1122SOL     OW14998   3.998   0.901  10.566 -0.2529  0.1920 -0.4930
 1122SOL    HW114999   4.048   0.944  10.496 -1.2230  0.5559 -0.9549
 1122SOL    HW215000   3.914   0.944  10.550 -0.3330  0.5940  1.0600
 1123SOL     OW15001   0.569   4.602   5.009  0.1000  0.4630 -0.0573
 1123SOL    HW115002   0.589   4.680   5.061 -1.7577  0.8376  0.0988
 1123SOL    HW215003   0.484   4.629   4.975  0.1648  3.4727  2.1595
 1124SOL     OW15004   2.697   0.191   9.088 -0.4970 -0.2086  0.0079
 1124SOL    HW115005   2.669   0.283   9.088  0.7343  0.1542  2.6512
 1124SOL    HW215006   2.620   0.158   9.133  0.2725 -0.5414  1.0869
 1125SOL     OW15007   2.041   1.074   0.508  0.4765 -0.3060 -0.0406
 1125SOL    HW115008   2.028   0.992   0.460  1.4115 -1.4694  1.6782
 1125SOL    HW215009   2.109   1.115   0.454  1.1825  1.0946  1.9100
 1126SOL     OW15010   4.111   2.726   5.886 -0.3140 -0.1098  0.0405
 1126SOL    HW115011   4.041   2.704   5.947  0.3611 -1.0451  0.4688
 1126SOL    HW215012   4.172   2.748   5.956  0.2904  1.3168 -0.9322
 1127SOL     OW15013   2.099   2.833   4.480  0.1293  0.0806  0.1846
 1127SOL    HW115014   2.106   2.858   4.572  2.2357 -1.3930  0.4305
 1127SOL    HW215015   2.110   2.915   4.431  1.0355 -1.5260 -2.2938
 1128SOL     OW15016   0.018   3.180   6.572  0.2138  0.6997 -0.3436
 1128SOL    HW115017   0.055   3.268   6.574  1.5206  0.0907  1.5356
 1128SOL    HW215018   0.086   3.123   6.606 -1.7121 -1.5888 -0.3011
 1129SOL     OW15019   1.320   1.559   9.267  0.1410  0.1130  0.1227
 1129SOL    HW115020   1.225   1.552   9.273 -0.2038 -0.0343 -5.2376
 1129SOL    HW215021   1.345   1.478   9.222 -0.0338  0.3863 -0.4647
 1130SOL     OW15022   3.388   4.583   4.780  0.2905  0.5310 -0.7602
 1130SOL    HW115023   3.386   4.626   4.866 -2.4247  0.9733 -1.0633
 1130SOL    HW215024   3.306   4.534   4.772  0.1105  0.7264 -0.0862
 1131SOL     OW15025   1.714   3.130   3.736 -0.1778  0.3207 -0.1723
 1131SOL    HW115026   1.690   3.159   3.648 -0.9845  0.4204  0.0841
 1131SOL    HW215027   1.809   3.142   3.727  0.0368 -1.7432 -0.5665
 1132SOL     OW15028   1.465   3.810   2.088  0.0145 -0.1289  0.0261
 1132SOL    HW115029   1.443   3.808   1.995  2.0750 -0.2980 -0.4386
 1132SOL    HW215030   1.456   3.715   2.097  0.7865 -0.0294  1.9284
 1133SOL     OW15031   1.195   0.522  17.596 -0.8509 -0.1349  0.2440
 1133SOL    HW115032   1.236   0.608  17.586  0.8661 -0.9783  0.0037
 1133SOL    HW215033   1.225   0.483  17.514  3.5925  0.2918  1.6301
 1134SOL     OW15034   3.304   0.262   8.632  1.2715 -0.2866 -0.0532
 1134SOL    HW115035   3.235   0.255   8.698  0.5240 -1.8308 -0.9924
 1134SOL    HW215036   3.289   0.344   8.583 -2.1504 -0.1654  1.1864
 1135SOL     OW15037   3.884   1.850   4.070  0.3874 -0.0063  0.3169
 1135SOL    HW115038   3.895   1.936   4.028 -2.6518  1.6002  2.7857
 1135SOL    HW215039   3.931   1.792   4.010 -0.6785 -0.2775 -0.2348
 1136SOL     OW15040   0.397   1.898   5.613 -0.5010  0.5245  0.1357
 1136SOL    HW115041   0.481   1.880   5.656 -0.8808 -0.8430  0.2801
 1136SOL    HW215042   0.334   1.850   5.666 -0.2714 -0.2557 -0.3093
 1137SOL     OW15043   3.941   4.489  15.630  0.0912 -0.2939  0.1565
 1137SOL    HW115044   3.966   4.573  15.668 -0.8238  0.2778 -0.5164
 1137SOL    HW215045   3.994   4.492  15.551  2.3812  0.9579  1.7217
 1138SOL     OW15046   1.520   3.197  14.305 -0.5039 -0.0349 -0.0936
 1138SOL    HW115047   1.507   3.166  14.394 -1.9172 -2.9662 -1.3525
 1138SOL    HW215048   1.432   3.226  14.284  0.7449  3.5998 -0.3054
 1139SOL     OW15049   2.539   1.308  16.338 -0.3592 -0.4369  0.3917
 1139SOL    HW115050   2.600   1.234  16.339 -1.8282 -1.6434 -0.1605
 1139SOL    HW215051   2.521   1.322  16.245 -0.1103  2.0978  0.7401
 1140SOL     OW15052   0.462   1.520   9.063 -0.1747 -0.2902 -0.0356
 1140SOL    HW115053   0.395   1.489   9.124 -0.9608  1.6984  0.1151
 1140SOL    HW215054   0.408   1.537   8.986 -1.3514 -0.1759  0.8058
 1141SOL     OW15055   1.203   2.623   1.784 -0.0273 -0.1205 -0.2744
 1141SOL    HW115056   1.141   2.696   1.774 -0.8360 -0.7918 -0.1346
 1141SOL    HW215057   1.140   2.551   1.784  0.7864 -0.8417  1.3647
 1142SOL     OW15058   1.528   0.001   9.656  0.5371  0.1746  0.5677
 1142SOL    HW115059   1.612   4.733   9.702  0.1938 -1.0819  1.0893
 1142SOL    HW215060   1.529   0.095   9.637 -1.4394 -0.2711 -1.6826
 1143SOL     OW15061   1.087   1.521  15.731 -0.8448 -0.0384 -0.4899
 1143SOL    HW115062   1.120   1.481  15.651 -1.2175 -1.3823  0.0342
 1143SOL    HW215063   1.142   1.600  15.731 -0.0700 -0.5894 -2.0142
 1144SOL     OW15064   4.474   0.569   6.349 -0.1325 -0.5995  0.1494
 1144SOL    HW115065   4.457   0.585   6.441 -1.2691 -0.5711 -0.0595
 1144SOL    HW215066   4.407   0.499   6.346 -0.7472 -0.0360  0.8777
 1145SOL     OW15067   0.027   1.467   7.645  0.0552  0.1503 -0.1738
 1145SOL    HW115068   4.702   1.397   7.620 -1.5356  1.4052  0.1806
 1145SOL    HW215069   0.074   1.426   7.718  1.5502 -1.2771 -1.9065
 1146SOL     OW15070   0.356   1.119  16.304 -0.0242  0.3041  0.1411
 1146SOL    HW115071   0.305   1.076  16.373 -1.9565  0.7570 -0.9977
 1146SOL    HW215072   0.375   1.201  16.349  2.8627 -0.1546 -0.2421
 1147SOL     OW15073   2.016   0.420   8.436 -0.1971  0.0337  0.4053
 1147SOL    HW115074   2.057   0.354   8.492 -1.7880 -2.0184 -0.8668
 1147SOL    HW215075   1.924   0.425   8.461 -0.0293 -0.4321  1.1054
 1148SOL     OW15076   4.009   2.922   9.541 -0.0451 -0.2310  0.5885
 1148SOL    HW115077   4.086   2.923   9.484 -0.2720  0.6279  0.3033
 1148SOL    HW215078   3.979   2.834   9.517 -1.0225  0.0129  0.9183
 1149SOL     OW15079   3.729   0.294   2.197  0.3264  0.1042 -0.2332
 1149SOL    HW115080   3.773   0.251   2.124  0.1044 -1.9911  0.8693
 1149SOL    HW215081   3.743   0.382   2.161  1.4156  0.0451  0.0387
 1150SOL     OW15082   3.560   3.748   8.587 -0.3090 -0.0652  0.4230
 1150SOL    HW115083   3.485   3.693   8.562 -2.1191  1.4497  2.5366
 1150SOL    HW215084   3.518   3.832   8.604 -1.8443 -1.0007  1.3076
 1151SOL     OW15085   4.730   0.866   0.176 -0.1536 -0.1996 -0.0955
 1151SOL    HW115086   4.696   0.778   0.192  0.1183 -0.8623 -3.0206
 1151SOL    HW215087   4.675   0.911   0.239  0.0444 -0.4035  0.2200
 1152SOL     OW15088   3.985   4.729  15.726 -0.5643 -0.3311  0.4323
 1152SOL    HW115089   3.975   0.047  15.804 -1.3888 -0.3795  0.3681
 1152SOL    HW215090   3.942   0.051  15.662 -0.4701 -1.9639 -1.1229
 1153SOL     OW15091   2.564   0.339   6.581 -0.0789 -0.6194 -0.4157
 1153SOL    HW115092   2.612   0.261   6.609  1.9888  0.8177  0.0238
 1153SOL    HW215093   2.640   0.397   6.576  2.2801 -3.6299  0.3668
 1154SOL     OW15094   1.304   2.767  12.240 -0.7342 -0.0977 -0.4989
 1154SOL    HW115095   1.375   2.830  12.247  0.2676 -1.2041 -0.6952
 1154SOL    HW215096   1.257   2.793  12.320  0.8296  2.5459 -0.4428
 1155SOL     OW15097   4.394   2.424  12.084 -0.0530  0.0993  0.4344
 1155SOL    HW115098   4.324   2.388  12.137  0.6183 -0.6966  0.7807
 1155SOL    HW215099   4.461   2.358  12.105  1.0559  0.5927 -1.5029
 1156SOL     OW15100   0.225   3.288   4.801 -0.0788 -0.2336 -0.1090
 1156SOL    HW115101   0.143   3.325   4.832  0.7873  1.2208  0.4342
 1156SOL    HW215102   0.203   3.264   4.710 -0.3581  1.1879 -0.4078
 1157SOL     OW15103   3.820   3.971   6.245  0.1486 -0.2238  0.2638
 1157SOL    HW115104   3.845   3.994   6.335  0.3341  2.7633 -0.5233
 1157SOL    HW215105   3.805   4.057   6.206 -0.5709  0.1739  1.4162
 1158SOL     OW15106   3.550   3.231   3.023  0.2216 -0.0697  0.6052
 1158SOL    HW115107   3.559   3.149   3.072 -2.3892 -0.7232 -0.0298
 1158SOL    HW215108   3.639   3.266   3.031 -1.2807  3.8796 -0.2116
 1159SOL     OW15109   2.442   0.007   3.065  0.0541  0.4961  0.0412
 1159SOL    HW115110   2.448   4.690   3.145  1.2053  0.1866 -0.2494
 1159SOL    HW215111   2.452   0.097   3.095  0.7598  0.6401 -0.6393
 1160SOL     OW15112   1.027   2.283   2.924  0.2615  0.6468 -0.4648
 1160SOL    HW115113   0.997   2.192   2.915  0.2977  0.6496 -0.6181
 1160SOL    HW215114   1.122   2.275   2.932  0.1190  0.3008  0.9057
 1161SOL     OW15115   0.041   2.436  11.089  0.1690  0.3273  0.0633
 1161SOL    HW115116   0.081   2.397  11.167  0.4346  2.0216  0.7741
 1161SOL    HW215117   0.122   2.462  11.044  0.4787  0.2281  0.5594
 1162SOL     OW15118   0.570   0.757   5.982  0.1441 -0.4570 -0.3605
 1162SOL    HW115119   0.629   0.758   5.906  2.3137  0.2689  1.3185
 1162SOL    HW215120   0.526   0.840   5.963  0.0687  0.4399  3.6394
 1163SOL     OW15121   3.425   1.756   2.502  0.8894 -0.3275 -0.5518
 1163SOL    HW115122   3.447   1.791   2.415  1.6603  1.0764  0.2099
 1163SOL    HW215123   3.462   1.667   2.499  0.3145 -0.6440  2.5436
 1164SOL     OW15124   4.218   4.492   7.501  0.0755  0.0992 -0.4334
 1164SOL    HW115125   4.284   4.549   7.540  0.4108 -0.5338 -0.0653
 1164SOL    HW215126   4.158   4.562   7.475 -0.9072 -1.3056 -1.9783
 1165SOL     OW15127   0.549   0.191   8.984 -0.0935 -0.6586 -0.3175
 1165SOL    HW115128   0.527   0.122   9.047  3.1438 -0.9031  0.5632
 1165SOL    HW215129   0.476   0.250   9.000 -0.5921 -1.2971 -0.2092
 1166SOL     OW15130   3.684   1.267  11.600 -0.3139 -0.1074 -0.2740
 1166SOL    HW115131   3.618   1.328  11.635 -0.3767 -1.2331  1.5721
 1166SOL    HW215132   3.690   1.298  11.510 -0.1426  0.3906 -0.0956
 1167SOL     OW15133   0.878   3.782   7.540  0.2319  0.0421 -0.2486
 1167SOL    HW115134   0.932   3.782   7.461 -0.1261  0.0887 -0.4952
 1167SOL    HW215135   0.791   3.778   7.501 -1.0965 -0.7180  2.7848
 1168SOL     OW15136   1.951   0.016  16.304  0.2525 -0.4435  0.1701
 1168SOL    HW115137   2.046   0.022  16.302  0.2594 -1.0238 -1.2370
 1168SOL    HW215138   1.932   0.091  16.247  0.4000 -0.9276 -0.5285
 1169SOL     OW15139   2.552   4.102   2.943 -0.4406 -0.0417 -0.5954
 1169SOL    HW115140   2.596   4.133   2.864 -0.6197 -0.0531 -0.6978
 1169SOL    HW215141   2.458   4.107   2.927 -0.6309  0.6261  0.7779
 1170SOL     OW15142   4.271   4.308   1.238 -0.4509  0.1409 -0.5109
 1170SOL    HW115143   4.355   4.271   1.209  0.4982  3.5448 -2.1702
 1170SOL    HW215144   4.210   4.289   1.168 -2.2676 -0.7577  1.3054
 1171SOL     OW15145   2.486   4.064   5.864 -0.0527  0.0162 -0.1144
 1171SOL    HW115146   2.486   3.976   5.900  0.4772 -0.3032 -0.8845
 1171SOL    HW215147   2.537   4.062   5.783 -0.2527  0.6339 -0.2589
 1172SOL     OW15148   2.381   0.730   4.003 -0.3715  0.6774  0.0290
 1172SOL    HW115149   2.406   0.641   3.979  0.0267  0.3790  1.5420
 1172SOL    HW215150   2.447   0.773   3.949 -0.6626  1.7044  0.5026
 1173SOL     OW15151   0.109   4.198  10.301  0.0257 -0.0435  0.4381
 1173SOL    HW115152   0.124   4.134  10.370  1.4145 -1.7989 -1.4774
 1173SOL    HW215153   0.123   4.147  10.221  0.4397  0.4981  0.1599
 1174SOL     OW15154   1.418   3.849   6.728  0.7148  0.1554 -0.0693
 1174SOL    HW115155   1.509   3.828   6.707  0.4552 -0.5331 -0.5112
 1174SOL    HW215156   1.433   3.888   6.814 -0.6158  1.0475 -0.2424
 1175SOL     OW15157   3.406   2.177  12.941 -0.4060  0.4481 -0.1468
 1175SOL    HW115158   3.396   2.105  13.003 -4.2306  0.9769 -0.1191
 1175SOL    HW215159   3.455   2.238  12.996  1.8250 -1.8997  0.4893
 1176SOL     OW15160   3.500   2.594   8.658  0.4127 -0.7968 -0.0769
 1176SOL    HW115161   3.519   2.568   8.567  1.8343  2.1395 -0.6083
 1176SOL    HW215162   3.462   2.681   8.648  1.6773 -0.2025  0.2369
 1177SOL     OW15163   4.073   2.720   3.260  0.4417 -0.0075  0.0033
 1177SOL    HW115164   4.121   2.799   3.287 -0.2148  0.8195 -1.2495
 1177SOL    HW215165   4.085   2.670   3.340 -0.6835 -2.0170 -1.1041
 1178SOL     OW15166   2.326   1.769   4.271  0.3037  0.0686  0.0591
 1178SOL    HW115167   2.281   1.789   4.189  2.7149 -0.5189 -1.4235
 1178SOL    HW215168   2.406   1.723   4.243 -0.2201 -0.0814 -1.2172
 1179SOL     OW15169   2.249   2.747  13.011  0.1404 -0.7629 -0.0117
 1179SOL    HW115170   2.318   2.813  13.005  0.1752 -0.8660 -0.7909
 1179SOL    HW215171   2.311   2.677  12.993 -0.1601 -0.3336 -2.7602
 1180SOL     OW15172   4.636   3.392   3.455  0.2764 -0.4597 -0.8686
 1180SOL    HW115173   4.686   3.342   3.390  3.1282  0.5081  0.5864
 1180SOL    HW215174   4.648   3.478   3.413  0.5191  1.2242  2.6268
 1181SOL     OW15175   1.893   0.152   5.041 -0.4965 -0.2032  0.2959
 1181SOL    HW115176   1.911   0.184   5.129 -1.7448  1.7057 -0.1335
 1181SOL    HW215177   1.962   0.087   5.029 -0.1504  0.5874 -1.9750
 1182SOL     OW15178   4.222   1.250   4.701 -0.2701 -0.2544  0.2262
 1182SOL    HW115179   4.146   1.303   4.726  0.5331  0.2119  1.6778
 1182SOL    HW215180   4.228   1.256   4.606  0.4888 -1.1707  0.2107
 1183SOL     OW15181   0.399   3.826   9.505  0.0801  0.0547 -0.6040
 1183SOL    HW115182   0.398   3.880   9.584  0.2403 -0.5132 -0.2124
 1183SOL    HW215183   0.381   3.892   9.438 -0.9090 -0.9735 -1.3671
 1184SOL     OW15184   3.797   3.010   6.827 -0.6542 -0.4006  0.5614
 1184SOL    HW115185   3.736   3.012   6.754 -1.9085  0.1438  1.6318
 1184SOL    HW215186   3.881   3.000   6.781 -1.4610 -1.1652 -0.7211
 1185SOL     OW15187   4.169   0.578   1.452 -0.4903 -0.3100 -0.4130
 1185SOL    HW115188   4.074   0.594   1.451 -0.6237 -1.2986 -3.8791
 1185SOL    HW215189   4.207   0.653   1.406 -2.8015  2.1576  1.6987
 1186SOL     OW15190   2.710   4.428   0.236 -0.1954  0.0093 -0.2318
 1186SOL    HW115191   2.743   4.506   0.280 -0.5754 -1.0483  1.9108
 1186SOL    HW215192   2.706   4.462   0.146  1.8945  0.6408 -0.0898
 1187SOL     OW15193   2.454   1.761   6.793 -0.1284 -0.1397  0.2454
 1187SOL    HW115194   2.500   1.800   6.719  0.6696 -3.1274 -0.8624
 1187SOL    HW215195   2.511   1.777   6.868 -0.6325  1.0787  0.3603
 1188SOL     OW15196   0.714   3.056  10.858  0.7213 -0.1538  0.1679
 1188SOL    HW115197   0.683   2.965  10.855 -1.6957  0.6525  0.7909
 1188SOL    HW215198   0.770   3.068  10.781  0.9618  1.0004  0.5347
 1189SOL     OW15199   2.928   4.056   5.403 -0.1552 -0.7944  0.0800
 1189SOL    HW115200   2.951   4.149   5.394  0.4533 -0.5040  4.3642
 1189SOL    HW215201   2.877   4.059   5.484  1.2575 -1.2439  0.9815
 1190SOL     OW15202   0.584   4.531  14.256  0.3731  0.1251 -0.3437
 1190SOL    HW115203   0.566   4.440  14.282 -2.1154 -0.0193 -2.4957
 1190SOL    HW215204   0.668   4.527  14.210  0.6801  3.0461  0.0111
 1191SOL     OW15205   0.552   1.363  10.713  0.5066  0.3826 -0.2583
 1191SOL    HW115206   0.607   1.307  10.768  0.6863  1.0661  0.2562
 1191SOL    HW215207   0.514   1.417  10.782  0.1355 -0.9810  0.5904
 1192SOL     OW15208   3.990   0.431   7.475 -0.4886  0.0389 -0.2379
 1192SOL    HW115209   3.933   0.405   7.547  0.0021 -0.9876 -0.2179
 1192SOL    HW215210   3.922   0.458   7.413 -0.0910  0.5376 -0.4577
 1193SOL     OW15211   1.216   0.757  12.048 -0.3890 -0.3513  0.1433
 1193SOL    HW115212   1.297   0.806  12.037 -0.4074 -0.7770 -1.8317
 1193SOL    HW215213   1.248   0.675  12.085 -1.1620 -0.8858 -0.3841
 1194SOL     OW15214   1.508   3.048   7.632  0.5556 -0.2495 -0.0265
 1194SOL    HW115215   1.451   3.069   7.558  0.0316 -0.0797  0.4257
 1194SOL    HW215216   1.546   2.961   7.623 -0.7292 -0.8430  0.3051
 1195SOL     OW15217   0.057   3.986   2.278  0.2086 -0.2134  0.0494
 1195SOL    HW115218   0.150   3.961   2.279  0.2569  0.1892  3.4787
 1195SOL    HW215219   0.033   3.965   2.368  1.2104 -0.0406  0.3567
 1196SOL     OW15220   3.330   0.952   9.326  0.5276 -0.2198  0.3736
 1196SOL    HW115221   3.336   0.979   9.235  3.0636 -2.0900 -0.0148
 1196SOL    HW215222   3.380   1.019   9.374 -0.9596  1.5593 -0.5702
 1197SOL     OW15223   3.128   0.261   7.469 -0.4781 -0.0523  0.1223
 1197SOL    HW115224   3.206   0.287   7.518  0.1921 -0.7723 -0.5756
 1197SOL    HW215225   3.165   0.190   7.418 -0.9854 -0.3363  0.1520
 1198SOL     OW15226   3.137   4.456   7.560  0.0413 -0.4297  0.1694
 1198SOL    HW115227   3.117   4.542   7.597 -0.4454  0.7073 -2.7897
 1198SOL    HW215228   3.052   4.422   7.531 -0.3017  0.4423  0.1675
 1199SOL     OW15229   3.370   3.811   3.797 -1.0281 -0.1784  0.7387
 1199SOL    HW115230   3.402   3.751   3.864 -1.8868  2.3042  3.3656
 1199SOL    HW215231   3.434   3.881   3.812 -0.2991 -1.4899  3.7807
 1200SOL     OW15232   0.079   2.867   8.067  0.0998  0.2124  0.3082
 1200SOL    HW115233   0.058   2.802   8.000  0.2926  0.7979 -0.3170
 1200SOL    HW215234   0.160   2.905   8.034 -0.6889  0.9754 -0.7548
 1201SOL     OW15235   2.099   1.778   6.125  0.1225  0.5207  0.3201
 1201SOL    HW115236   2.022   1.813   6.169 -1.4571 -1.3242 -0.9771
 1201SOL    HW215237   2.074   1.686   6.114  2.8527 -0.1275 -0.6806
 1202SOL     OW15238   2.529   0.725   3.436 -0.3583 -0.2689  0.4795
 1202SOL    HW115239   2.449   0.759   3.475 -1.6354 -3.6341  0.7666
 1202SOL    HW215240   2.572   0.685   3.511 -0.3940 -2.0375 -0.4483
 1203SOL     OW15241   2.466   4.482   1.796  0.3667  0.2169  0.5807
 1203SOL    HW115242   2.549   4.524   1.818  0.9603  0.2855 -1.8445
 1203SOL    HW215243   2.480   4.388   1.807  0.5378 -0.0128 -1.6276
 1204SOL     OW15244   3.002   4.255  15.443 -0.0940  0.0300  0.2000
 1204SOL    HW115245   3.001   4.302  15.360 -0.0696 -1.8117 -0.8201
 1204SOL    HW215246   3.065   4.298  15.501  0.6841 -0.7833 -0.0351
 1205SOL     OW15247   3.637   0.032   2.652  0.8365  0.2345 -0.0148
 1205SOL    HW115248   3.581   0.089   2.599  0.4003  0.8381  1.0857
 1205SOL    HW215249   3.628   4.679   2.616  0.3266  1.0138 -1.8087
 1206SOL     OW15250   0.904   4.203  14.226 -0.2729 -0.0294  0.1180
 1206SOL    HW115251   0.953   4.284  14.226  3.2680 -2.1801 -1.5667
 1206SOL    HW215252   0.972   4.136  14.213  0.0445  0.3999 -0.3947
 1207SOL     OW15253   1.122   2.749   3.007 -0.1248 -0.0054 -0.6252
 1207SOL    HW115254   1.059   2.687   3.042  0.2288  0.4148  0.7599
 1207SOL    HW215255   1.084   2.835   3.024  2.0612  0.6167  1.1631
 1208SOL     OW15256   1.509   3.303   4.208 -0.6305  0.1455  0.2965
 1208SOL    HW115257   1.530   3.239   4.276 -2.8071 -1.2981 -0.3879
 1208SOL    HW215258   1.578   3.279   4.146  0.1703 -0.0101  1.2486
 1209SOL     OW15259   3.658   2.003   8.234 -1.0465 -0.2494 -0.1222
 1209SOL    HW115260   3.617   2.018   8.319 -0.2174  2.7968 -0.2591
 1209SOL    HW215261   3.583   2.015   8.175 -0.5402  0.8445 -0.5402
 1210SOL     OW15262   0.416   4.168   9.414 -0.3642  0.2561  0.4233
 1210SOL    HW115263   0.509   4.150   9.423 -0.0870  1.6166  0.3727
 1210SOL    HW215264   0.415   4.255   9.454 -0.2917  0.7433 -0.6442
 1211SOL     OW15265   1.220   2.811   6.051 -0.4272  0.0403  0.0849
 1211SOL    HW115266   1.260   2.767   5.976 -1.3350  0.2110 -0.5024
 1211SOL    HW215267   1.198   2.737   6.108 -1.8543  0.0422 -0.4551
 1212SOL     OW15268   0.297   1.468   3.880 -0.2627  0.4262 -0.0953
 1212SOL    HW115269   0.285   1.518   3.799 -2.1795 -0.4157 -0.3218
 1212SOL    HW215270   0.239   1.393   3.870 -1.9474  1.7635 -0.3681
 1213SOL     OW15271   0.799   2.033  13.799 -1.0914  0.2124  0.3816
 1213SOL    HW115272   0.780   2.107  13.857  1.2541  1.4168 -0.3681
 1213SOL    HW215273   0.711   2.019  13.765 -0.9073 -0.5879  0.2206
 1214SOL     OW15274   3.424   3.609  17.637  0.5479  0.6180 -0.2067
 1214SOL    HW115275   3.447   3.661  17.560 -1.5762  1.3942 -0.3039
 1214SOL    HW215276   3.496   3.545  17.637  0.5682  0.6406 -0.1717
 1215SOL     OW15277   1.028   2.973  12.353  0.3307 -0.6342  0.0786
 1215SOL    HW115278   1.089   2.917  12.402 -1.1200 -2.2155  0.0752
 1215SOL    HW215279   0.945   2.957  12.398 -0.4481  1.9195 -0.4391
 1216SOL     OW15280   2.621   2.658   5.647 -0.0170 -0.5917 -0.2502
 1216SOL    HW115281   2.571   2.577   5.643 -2.7062  0.9945  0.6737
 1216SOL    HW215282   2.588   2.691   5.563 -1.2803  1.4120  1.0129
 1217SOL     OW15283   4.566   3.814   7.104 -0.3610 -0.3863  0.3635
 1217SOL    HW115284   4.582   3.766   7.024 -2.5478  0.8178 -0.7982
 1217SOL    HW215285   4.637   3.775   7.155  0.7526  0.0747 -0.8382
 1218SOL     OW15286   3.424   0.165   3.883  0.7248  0.4177  0.0859
 1218SOL    HW115287   3.464   0.078   3.880 -0.4129 -0.1167  0.5883
 1218SOL    HW215288   3.367   0.161   3.807  0.3576 -1.5243  0.4792
 1219SOL     OW15289   2.519   0.543   4.579 -0.4801  0.0669 -0.1995
 1219SOL    HW115290   2.447   0.579   4.631  0.8319  1.6467  0.4911
 1219SOL    HW215291   2.493   0.564   4.489  1.6417 -0.4352 -0.9225
 1220SOL     OW15292   1.856   0.480  15.352 -0.0543  0.7484 -0.2023
 1220SOL    HW115293   1.764   0.475  15.327  0.5167  0.4648 -2.1954
 1220SOL    HW215294   1.894   0.395  15.332 -0.1299  0.7071 -0.1710
 1221SOL     OW15295   4.251   0.918   2.442  0.5807  0.3214  0.2692
 1221SOL    HW115296   4.325   0.876   2.398  0.7923  1.8299 -0.8353
 1221SOL    HW215297   4.257   0.893   2.534 -1.2500 -0.9102  0.0536
 1222SOL     OW15298   3.745   0.074   0.230  0.2360 -0.2157  0.0868
 1222SOL    HW115299   3.716   4.718   0.236 -1.4725  0.2046 -1.5289
 1222SOL    HW215300   3.831   0.068   0.188  0.7794 -2.5209  1.4874
 1223SOL     OW15301   3.751   1.037  10.552  0.2092  0.5922  0.6886
 1223SOL    HW115302   3.760   1.122  10.510 -1.9156  1.0278  1.1244
 1223SOL    HW215303   3.667   1.038  10.598 -0.2969 -1.1139 -0.2122
 1224SOL     OW15304   4.413   0.121  11.795  0.1755 -0.0387 -0.3973
 1224SOL    HW115305   4.491   0.148  11.844 -1.0226 -0.2891  1.6906
 1224SOL    HW215306   4.421   0.026  11.798  2.2857  0.1655  0.3147
 1225SOL     OW15307   0.197   1.631   2.954  0.2688  0.3025  0.7595
 1225SOL    HW115308   0.288   1.644   2.927  0.9249 -0.7127  2.5014
 1225SOL    HW215309   0.140   1.648   2.879 -2.2498  0.0740  2.5999
 1226SOL     OW15310   3.733   0.768  14.516  0.0343 -0.0671 -0.1046
 1226SOL    HW115311   3.644   0.733  14.517  0.5508 -1.4349 -1.9901
 1226SOL    HW215312   3.714   0.860  14.533  0.7686  0.1185 -0.3019
 1227SOL     OW15313   2.531   3.127  14.567 -0.1227  0.2203 -0.1975
 1227SOL    HW115314   2.528   3.222  14.550 -2.1000  0.4057  1.2288
 1227SOL    HW215315   2.610   3.121  14.622  1.1072  0.0944 -1.9913
 1228SOL     OW15316   2.904   1.729   2.277  0.1409  0.7076 -0.4605
 1228SOL    HW115317   2.931   1.758   2.364 -0.3340 -0.0107 -0.0716
 1228SOL    HW215318   2.943   1.643   2.266 -0.4854  0.5162 -1.1966
 1229SOL     OW15319   2.106   2.494  13.259 -0.0125 -0.6800  0.0055
 1229SOL    HW115320   2.042   2.429  13.286 -0.6910  0.3689  0.9279
 1229SOL    HW215321   2.073   2.572  13.303  0.7733 -0.4796  0.2444
 1230SOL     OW15322   1.279   0.240  15.775  0.4591  0.1045 -0.8048
 1230SOL    HW115323   1.322   0.191  15.705  0.1084 -2.2305  0.6162
 1230SOL    HW215324   1.215   0.290  15.725  0.3500  0.7887  0.0125
 1231SOL     OW15325   3.458   3.295   5.288 -0.0707 -0.1119 -0.1970
 1231SOL    HW115326   3.502   3.241   5.353 -1.9640 -0.5436  0.7141
 1231SOL    HW215327   3.529   3.334   5.238 -0.6500  0.0464 -0.9013
 1232SOL     OW15328   2.487   0.620   2.176 -1.1023  0.6979  0.3681
 1232SOL    HW115329   2.400   0.594   2.208 -0.9530  0.3988  0.5335
 1232SOL    HW215330   2.518   0.529   2.175  2.2234  1.8643  0.1840
 1233SOL     OW15331   1.652   4.436  16.219  0.1721 -0.0016  0.1908
 1233SOL    HW115332   1.703   4.510  16.183 -0.9216 -0.0874 -1.5413
 1233SOL    HW215333   1.636   4.481  16.302 -0.5929  0.5516 -0.2615
 1234SOL     OW15334   0.606   1.145   7.854  0.0055 -0.3172  0.0436
 1234SOL    HW115335   0.680   1.198   7.885 -0.5281  0.7985 -0.5948
 1234SOL    HW215336   0.571   1.205   7.789 -0.2738 -1.3505 -0.7544
 1235SOL     OW15337   0.561   2.108   3.620 -0.2380 -0.5179  0.1892
 1235SOL    HW115338   0.614   2.155   3.556 -2.3516  1.2829 -0.2438
 1235SOL    HW215339   0.474   2.129   3.586  0.9006  1.6899 -1.3283
 1236SOL     OW15340   3.729   1.250   4.100 -0.5688 -0.3445 -0.1113
 1236SOL    HW115341   3.773   1.175   4.138 -1.0126 -1.3653 -1.6362
 1236SOL    HW215342   3.652   1.215   4.054 -0.8175 -0.1907  0.1799
 1237SOL     OW15343   3.912   1.346   3.540 -0.0263 -0.0825  0.2141
 1237SOL    HW115344   3.984   1.406   3.561 -0.6201  0.9200 -0.6331
 1237SOL    HW215345   3.899   1.349   3.445 -1.6084 -0.9269  0.4137
 1238SOL     OW15346   1.774   1.469   3.032  1.0170 -0.0013 -0.1068
 1238SOL    HW115347   1.857   1.424   3.019  2.3329  3.1505 -2.5076
 1238SOL    HW215348   1.774   1.544   2.972 -2.8040 -0.9517 -1.3228
 1239SOL     OW15349   2.441   3.659   2.391  0.8352  0.1417 -0.3383
 1239SOL    HW115350   2.365   3.715   2.375  0.1815 -0.3155  1.2209
 1239SOL    HW215351   2.506   3.683   2.325  0.4044 -0.0941 -0.8510
 1240SOL     OW15352   2.997   2.324   9.049  0.0696 -0.1205 -0.9394
 1240SOL    HW115353   3.009   2.309   9.142  0.5810  0.0079 -0.9843
 1240SOL    HW215354   3.069   2.267   9.021  0.8526  0.1617  0.4845
 1241SOL     OW15355   1.352   3.886  11.565  0.5580  0.2047 -0.4143
 1241SOL    HW115356   1.434   3.837  11.564  0.8059  0.5620  1.2427
 1241SOL    HW215357   1.294   3.819  11.531 -0.0595  0.5874 -0.1071
 1242SOL     OW15358   1.614   0.261  12.193 -0.3567  0.6529 -0.4330
 1242SOL    HW115359   1.617   0.188  12.255 -1.0949 -0.1710 -1.3813
 1242SOL    HW215360   1.535   0.302  12.230 -0.0882  1.0110 -0.2517
 1243SOL     OW15361   2.714   3.520   7.911 -0.0687  0.3210 -0.5109
 1243SOL    HW115362   2.805   3.531   7.884 -0.1396  2.7484  0.2322
 1243SOL    HW215363   2.726   3.558   7.998 -0.7258 -1.2624  0.2741
 1244SOL     OW15364   2.519   4.351  16.769 -0.9402  0.6858  0.7288
 1244SOL    HW115365   2.527   4.315  16.858  2.6053 -0.5418 -0.0851
 1244SOL    HW215366   2.423   4.356  16.775 -0.7792  2.5859  1.6459
 1245SOL     OW15367   1.857   2.913   2.571 -0.8432  0.1129 -0.3721
 1245SOL    HW115368   1.872   2.992   2.520 -0.8036  0.6126  0.4136
 1245SOL    HW215369   1.889   2.843   2.513 -0.8125 -1.8345  1.9927
 1246SOL     OW15370   4.097   1.752   1.294 -0.1850 -0.1261 -0.0699
 1246SOL    HW115371   4.125   1.706   1.215  0.3848 -0.3913  0.2946
 1246SOL    HW215372   4.071   1.841   1.268  0.7793  0.1122 -0.2084
 1247SOL     OW15373   4.088   1.690   2.179 -0.3586  0.3433  0.4006
 1247SOL    HW115374   4.092   1.603   2.139 -1.3205 -0.8794  2.9604
 1247SOL    HW215375   3.994   1.702   2.194 -0.3361 -1.6381  2.1348
 1248SOL     OW15376   3.983   3.745   7.999  0.3510 -0.2970 -0.2699
 1248SOL    HW115377   4.043   3.741   8.074 -1.5310 -2.2632  1.1611
 1248SOL    HW215378   4.051   3.730   7.933 -0.9409  0.2353 -1.7126
 1249SOL     OW15379   2.589   1.433  11.101  0.9605  0.2617 -0.1070
 1249SOL    HW115380   2.572   1.431  11.195 -1.9301  1.5999 -0.6023
 1249SOL    HW215381   2.601   1.338  11.105 -2.7801 -0.1693  1.0082
 1250SOL     OW15382   1.469   1.373   4.597 -0.2226  0.3773  0.0961
 1250SOL    HW115383   1.483   1.279   4.585 -1.2933  0.3067 -0.6755
 1250SOL    HW215384   1.553   1.412   4.574  0.2609 -1.0698 -0.5558
 1251SOL     OW15385   4.610   3.950   7.471 -0.3067 -0.2750 -0.2367
 1251SOL    HW115386   4.537   3.901   7.509 -0.4025 -0.3617 -0.5265
 1251SOL    HW215387   4.586   4.040   7.493  0.7678  0.2186 -1.1059
 1252SOL     OW15388   3.772   2.962  10.371 -0.7915 -0.5986 -0.1464
 1252SOL    HW115389   3.837   2.994  10.434 -2.5886 -0.0532  1.4429
 1252SOL    HW215390   3.822   2.932  10.295 -1.9097 -0.7158 -0.8252
 1253SOL     OW15391   0.624   2.586   8.507  0.3257  0.0116 -0.5472
 1253SOL    HW115392   0.595   2.618   8.421  0.5337  2.4020  0.2627
 1253SOL    HW215393   0.675   2.507   8.489  0.2599  0.0385 -0.8500
 1254SOL     OW15394   4.534   3.188   3.077 -0.2335 -0.1077 -0.5405
 1254SOL    HW115395   4.592   3.208   3.150 -0.6033  1.1862 -0.5967
 1254SOL    HW215396   4.450   3.233   3.093  0.5053  1.1068 -0.0448
 1255SOL     OW15397   0.401   3.992   3.608 -0.3695 -0.0912 -0.6863
 1255SOL    HW115398   0.312   4.002   3.573 -0.7564 -0.2085  0.2604
 1255SOL    HW215399   0.414   3.898   3.597 -2.6664 -0.6605  1.3834
 1256SOL     OW15400   1.314   1.201   4.211 -0.2738 -0.1149 -0.5204
 1256SOL    HW115401   1.281   1.288   4.186  1.5063  0.0050 -2.4109
 1256SOL    HW215402   1.274   1.196   4.297  1.9260  1.7194  0.6241
 1257SOL     OW15403   0.840   2.002   5.533  0.0898  0.1916 -0.0305
 1257SOL    HW115404   0.882   2.063   5.472 -1.2703  0.6853 -0.4908
 1257SOL    HW215405   0.901   1.980   5.603  0.5693  2.1226  0.1714
 1258SOL     OW15406   3.438   1.385   2.735 -0.2129  0.3719 -0.6281
 1258SOL    HW115407   3.462   1.321   2.802 -0.6562  0.4015 -0.4428
 1258SOL    HW215408   3.525   1.406   2.701 -0.9961 -0.7612 -3.3096
 1259SOL     OW15409   0.107   1.385   4.706  0.3245 -0.2170 -0.0829
 1259SOL    HW115410   0.011   1.390   4.700  0.4476  0.9683 -1.0113
 1259SOL    HW215411   0.109   1.350   4.795 -1.0002  3.3329  1.3103
 1260SOL     OW15412   3.016   3.406   9.431  0.3137  0.6403 -0.4417
 1260SOL    HW115413   3.024   3.435   9.340  0.1728  0.6932 -0.4376
 1260SOL    HW215414   3.035   3.486   9.480  1.5719  0.2798 -0.3582
 1261SOL     OW15415   1.718   4.700  11.612 -0.2111  0.1012  0.1513
 1261SOL    HW115416   1.633   4.681  11.652  0.1472 -2.0255 -0.1381
 1261SOL    HW215417   1.774   4.669  11.683  0.9991  0.9489 -0.4270
 1262SOL     OW15418   1.637   2.274   3.217 -0.1771  0.4557 -0.4160
 1262SOL    HW115419   1.552   2.242   3.247  0.3163  0.1307  0.6398
 1262SOL    HW215420   1.615   2.277   3.124 -2.3759  0.0986  0.1007
 1263SOL     OW15421   3.362   0.848   5.109 -0.1378  0.0729  0.0616
 1263SOL    HW115422   3.388   0.818   5.023 -0.5015 -0.5458  0.1706
 1263SOL    HW215423   3.394   0.780   5.167  1.1339 -0.7018 -1.5828
 1264SOL     OW15424   4.391   2.150   1.357  0.4251 -1.1246  0.1891
 1264SOL    HW115425   4.451   2.211   1.401  0.0884 -1.0356  0.5183
 1264SOL    HW215426   4.379   2.198   1.275  1.1995 -2.0193 -0.4497
 1265SOL     OW15427   2.886   1.053   2.169  0.4599  0.4727 -0.8972
 1265SOL    HW115428   2.880   1.129   2.227 -1.0814 -1.2083  1.1445
 1265SOL    HW215429   2.915   0.991   2.236 -1.6199  0.7205  0.2367
 1266SOL     OW15430   3.758   0.547   2.127  0.5236  0.0316 -0.4404
 1266SOL    HW115431   3.716   0.623   2.087 -2.0828 -1.0175  0.2954
 1266SOL    HW215432   3.838   0.536   2.075  0.9675 -1.8903  0.6506
 1267SOL     OW15433   3.601   0.020   7.141  0.7853 -0.8811 -0.2786
 1267SOL    HW115434   3.530   4.691   7.148 -1.0283  1.2433  0.6436
 1267SOL    HW215435   3.593   0.067   7.224 -0.3862 -0.1289 -0.8127
 1268SOL     OW15436   0.199   0.025  15.745 -0.0599  0.3335 -0.2892
 1268SOL    HW115437   0.137   0.088  15.781  0.5777  1.2864 -0.8495
 1268SOL    HW215438   0.174   4.673  15.775 -0.5559 -0.0699 -1.8433
 1269SOL     OW15439   0.307   4.308  14.452  0.4115  0.9406 -0.2708
 1269SOL    HW115440   0.234   4.252  14.480  1.0954 -0.3704 -1.0934
 1269SOL    HW215441   0.268   4.395  14.446  3.4486  2.3951  0.6877
 1270SOL     OW15442   1.969   0.945   9.784  0.5837 -0.0824 -0.5531
 1270SOL    HW115443   2.006   0.859   9.806 -0.0225 -0.2143 -0.0328
 1270SOL    HW215444   1.935   0.915   9.700 -0.8561  3.1611 -1.0915
 1271SOL     OW15445   2.843   3.968  13.483 -0.1085 -0.7267 -0.2305
 1271SOL    HW115446   2.812   3.882  13.455 -1.7487 -0.2292  0.0685
 1271SOL    HW215447   2.764   4.012  13.516 -0.0704 -1.5854  0.9953
 1272SOL     OW15448   0.214   2.416   7.739 -0.3290 -0.3805 -0.0031
 1272SOL    HW115449   0.211   2.357   7.663  4.3187 -3.2249  2.0185
 1272SOL    HW215450   0.143   2.472   7.706 -0.4611 -0.9322 -0.6516
 1273SOL     OW15451   4.641   0.729   4.526  0.2503  0.5285 -0.2704
 1273SOL    HW115452   4.567   0.694   4.477  0.2749  1.1600 -0.7446
 1273SOL    HW215453   4.633   0.820   4.498  1.1226  0.3863 -0.9616
 1274SOL     OW15454   0.831   0.819   3.785 -0.4522 -0.0883 -0.2332
 1274SOL    HW115455   0.805   0.812   3.693 -1.9302  2.4339  0.0002
 1274SOL    HW215456   0.841   0.726   3.806 -0.8717  0.0504  0.5592
 1275SOL     OW15457   2.839   3.650   7.233 -0.0395 -0.6516  0.1413
 1275SOL    HW115458   2.820   3.616   7.145 -1.8766 -1.6941  0.9346
 1275SOL    HW215459   2.759   3.644   7.285  0.1663  2.3676  0.8149
 1276SOL     OW15460   1.295   0.991   7.913 -0.1326 -0.5809  0.5476
 1276SOL    HW115461   1.370   1.041   7.944  0.5046 -2.4230  1.9699
 1276SOL    HW215462   1.273   1.018   7.824  0.2179  1.5177  1.1050
 1277SOL     OW15463   3.358   3.397   7.041 -0.3374  0.3689 -0.1458
 1277SOL    HW115464   3.281   3.367   7.090  0.5442 -3.0935 -0.8651
 1277SOL    HW215465   3.411   3.321   7.063 -0.1428  1.3137  2.6311
 1278SOL     OW15466   1.075   0.413   0.842  0.2200 -0.4446 -0.1737
 1278SOL    HW115467   1.081   0.508   0.853  0.6618 -0.4344 -0.4760
 1278SOL    HW215468   1.152   0.404   0.786 -0.0786 -1.6227 -0.3919
 1279SOL     OW15469   0.561   2.695   5.399  0.2126 -0.5149 -0.3589
 1279SOL    HW115470   0.636   2.738   5.440  2.1408 -2.7835 -1.4288
 1279SOL    HW215471   0.547   2.617   5.453 -1.4112 -2.3402 -3.3993
 1280SOL     OW15472   1.441   2.190   3.938 -0.0787 -0.4465  0.0206
 1280SOL    HW115473   1.526   2.150   3.955 -0.3555 -1.1933 -0.3512
 1280SOL    HW215474   1.386   2.116   3.910 -0.0408 -1.1465  1.8294
 1281SOL     OW15475   2.622   3.589   7.402 -0.0808  0.5391 -0.3279
 1281SOL    HW115476   2.597   3.498   7.420  3.0495 -0.1789  0.3864
 1281SOL    HW215477   2.547   3.628   7.447 -1.3637 -1.7080 -0.5320
 1282SOL     OW15478   1.705   4.051  15.546 -0.0839 -0.1514  0.0666
 1282SOL    HW115479   1.715   4.008  15.631 -3.0387 -0.3142  0.3085
 1282SOL    HW215480   1.668   4.132  15.581  0.6785  0.8990 -1.5607
 1283SOL     OW15481   0.826   4.200   7.679 -0.3820  0.0705  0.3856
 1283SOL    HW115482   0.890   4.151   7.732 -2.2495 -0.3192  2.3025
 1283SOL    HW215483   0.749   4.194   7.736 -1.3106 -0.0101 -0.8988
 1284SOL     OW15484   1.252   0.931   1.581  0.5327 -0.0714 -0.4189
 1284SOL    HW115485   1.331   0.920   1.634 -0.0861  2.1290  1.0000
 1284SOL    HW215486   1.214   0.845   1.600  1.5809 -0.7297 -1.3342
 1285SOL     OW15487   0.977   4.063   8.064 -0.0120 -0.4111 -0.0518
 1285SOL    HW115488   1.052   4.008   8.088  0.6538 -0.2182 -1.6687
 1285SOL    HW215489   0.943   4.024   7.983  1.7532 -1.7415 -0.1652
 1286SOL     OW15490   0.056   3.999   1.529  0.0197 -0.0746  0.1474
 1286SOL    HW115491   0.059   3.916   1.577 -0.3877 -0.2232 -0.0801
 1286SOL    HW215492   0.004   3.976   1.452 -0.6360 -2.7291  1.3866
 1287SOL     OW15493   3.858   4.717   7.706 -0.4354 -0.7020  0.0005
 1287SOL    HW115494   3.903   4.634   7.695  1.4051  0.3605 -0.5329
 1287SOL    HW215495   3.779   4.687   7.751 -0.0465 -0.6198  0.7509
 1288SOL     OW15496   2.373   4.187   7.876  0.5672 -0.1099  0.4712
 1288SOL    HW115497   2.376   4.269   7.827 -1.1760 -0.4863 -0.2429
 1288SOL    HW215498   2.365   4.211   7.968 -1.6256  3.2103 -0.5789
 1289SOL     OW15499   3.440   1.923   1.037  0.2385  0.3421  0.2071
 1289SOL    HW115500   3.452   2.014   1.009  0.4324  0.2071 -0.1464
 1289SOL    HW215501   3.457   1.929   1.131 -1.0356 -0.3539  0.4777
 1290SOL     OW15502   1.786   3.654  15.569 -0.6129  0.7871 -0.6992
 1290SOL    HW115503   1.716   3.693  15.621 -1.2986 -1.0381 -0.2487
 1290SOL    HW215504   1.746   3.598  15.502  2.0837 -1.5046 -0.4046
 1291SOL     OW15505   0.633   4.112   0.912  0.0199  0.1512 -0.3654
 1291SOL    HW115506   0.692   4.163   0.857 -0.3219  1.2722  0.3109
 1291SOL    HW215507   0.668   4.143   0.996  1.3916 -0.8293 -0.5768
 1292SOL     OW15508   0.784   3.432   1.409 -0.3972 -0.2720  0.9837
 1292SOL    HW115509   0.702   3.390   1.386  0.4301 -0.9194 -0.7691
 1292SOL    HW215510   0.864   3.408   1.363 -0.5510  1.5399 -0.2444
 1293SOL     OW15511   3.099   2.413   6.733  0.3809  0.1703  0.0385
 1293SOL    HW115512   3.069   2.502   6.712 -0.1872 -0.1939 -0.6793
 1293SOL    HW215513   3.108   2.370   6.648  0.4091 -1.1250  0.7072
 1294SOL     OW15514   2.931   1.590   9.163 -0.5158 -0.1022 -0.5653
 1294SOL    HW115515   2.991   1.563   9.094  1.7306 -1.7804  2.0319
 1294SOL    HW215516   2.876   1.514   9.179  0.3844 -0.0379  2.9410
 1295SOL     OW15517   2.685   1.796  15.441  0.9444 -0.2803  0.1071
 1295SOL    HW115518   2.627   1.838  15.504  0.1130 -0.5702 -0.4759
 1295SOL    HW215519   2.673   1.854  15.366  0.2230 -0.4638  0.0890
 1296SOL     OW15520   0.409   4.633  11.998  0.3752  0.6722  1.0020
 1296SOL    HW115521   0.460   4.588  12.065 -1.5180 -3.6693 -0.4637
 1296SOL    HW215522   0.330   4.639  12.051 -0.8215  0.6112 -0.7574
 1297SOL     OW15523   1.966   0.437   9.217  0.1223  0.1931 -0.3842
 1297SOL    HW115524   2.047   0.488   9.214 -0.9302  1.9802  2.4320
 1297SOL    HW215525   1.912   0.499   9.168 -1.4787  0.9035  2.3484
 1298SOL     OW15526   2.853   3.244   3.925  0.1934  0.2720 -0.0945
 1298SOL    HW115527   2.831   3.311   3.860  1.3018  0.0677 -0.6798
 1298SOL    HW215528   2.929   3.285   3.966  1.0566 -0.9120 -0.5215
 1299SOL     OW15529   0.571   1.869   7.448  0.2015  0.3492  0.0761
 1299SOL    HW115530   0.632   1.925   7.400 -0.5264  1.4134  0.3968
 1299SOL    HW215531   0.524   1.920   7.513  0.5146  2.2899 -1.2358
 1300SOL     OW15532   4.005   4.071  17.228  0.8582 -0.2328 -0.2837
 1300SOL    HW115533   3.940   4.129  17.267  0.1977 -0.1007 -1.5677
 1300SOL    HW215534   3.974   3.981  17.238  1.0469 -0.5938 -2.8177
 1301SOL     OW15535   0.960   1.991   8.436  0.2106 -0.0734  0.1711
 1301SOL    HW115536   0.880   1.945   8.461 -1.5882  2.5512 -0.8095
 1301SOL    HW215537   0.920   2.051   8.374 -1.7249 -1.6504 -0.0980
 1302SOL     OW15538   3.938   4.000  11.610 -0.5968 -0.2244  0.1541
 1302SOL    HW115539   4.026   4.036  11.606 -0.7362 -0.1273 -1.7308
 1302SOL    HW215540   3.952   3.914  11.651 -0.2426 -0.3898 -0.3097
 1303SOL     OW15541   2.361   3.625   9.089  0.2326  0.0713 -0.1809
 1303SOL    HW115542   2.362   3.579   9.173  5.5757  1.1856  0.3957
 1303SOL    HW215543   2.352   3.717   9.113  0.9406 -0.1785  1.0316
 1304SOL     OW15544   3.076   4.192  15.026  0.6260  0.1452  0.0391
 1304SOL    HW115545   3.087   4.105  14.989  1.6938 -0.9645  2.9509
 1304SOL    HW215546   3.136   4.202  15.100 -0.5031 -1.2376  1.1465
 1305SOL     OW15547   1.701   4.081   8.002 -0.0534  0.4861  0.2592
 1305SOL    HW115548   1.757   4.153   8.031 -0.3778  1.1957 -0.8846
 1305SOL    HW215549   1.614   4.100   8.038 -1.6656 -2.4296 -2.0518
 1306SOL     OW15550   3.252   1.090   5.009 -0.3316 -0.2455  0.3294
 1306SOL    HW115551   3.273   1.140   5.088 -0.9019  0.6791 -0.1093
 1306SOL    HW215552   3.278   1.004   5.043 -1.6523 -1.2369 -1.1609
 1307SOL     OW15553   4.133   2.419  12.707 -0.0623  0.2308 -0.4163
 1307SOL    HW115554   4.179   2.440  12.788 -1.1789  0.3219  0.1982
 1307SOL    HW215555   4.200   2.363  12.669  0.5022  1.1381 -0.7610
 1308SOL     OW15556   2.194   3.168   2.731 -0.6677 -0.8784 -0.1228
 1308SOL    HW115557   2.125   3.205   2.676  0.2426  2.1331  0.7419
 1308SOL    HW215558   2.147   3.093   2.766 -1.5186 -1.6166 -2.8617
 1309SOL     OW15559   4.213   2.575   5.520  0.4119  0.7445 -0.4185
 1309SOL    HW115560   4.267   2.650   5.545 -1.5170  2.3099 -0.9929
 1309SOL    HW215561   4.281   2.508   5.513 -0.4928 -0.2350  0.3590
 1310SOL     OW15562   3.785   1.119  13.166 -0.0912  0.0757 -0.1269
 1310SOL    HW115563   3.769   1.028  13.189  1.2548  0.1603  1.1320
 1310SOL    HW215564   3.697   1.155  13.151 -0.5051 -0.4488  1.0578
 1311SOL     OW15565   2.567   2.733   5.390 -0.6355  0.0986  0.3446
 1311SOL    HW115566   2.530   2.646   5.378 -3.0900  1.1536  0.2785
 1311SOL    HW215567   2.629   2.743   5.319  0.6590  1.1011  1.6080
 1312SOL     OW15568   1.490   2.981   2.121 -0.2575 -0.0036  0.1361
 1312SOL    HW115569   1.559   2.989   2.186 -1.6389  0.9266  1.4688
 1312SOL    HW215570   1.535   2.925   2.057  0.1822 -0.2014  0.6151
 1313SOL     OW15571   0.698   1.351   8.521  0.4384 -0.0265 -0.2075
 1313SOL    HW115572   0.673   1.419   8.457  0.6343  0.2306 -0.0091
 1313SOL    HW215573   0.784   1.323   8.490  1.0800  1.7667 -0.0226
 1314SOL     OW15574   1.009   3.403   7.137  0.1055 -0.2002  0.5809
 1314SOL    HW115575   1.098   3.436   7.148  1.0911 -2.3664 -0.8037
 1314SOL    HW215576   0.970   3.387   7.223 -2.0138 -1.6445 -0.6494
 1315SOL     OW15577   3.301   0.807   0.015  0.0101  0.1244 -1.0393
 1315SOL    HW115578   3.383   0.832   0.057 -0.2052  0.1334 -0.6328
 1315SOL    HW215579   3.244   0.878   0.044 -0.5430 -1.0643  0.7604
 1316SOL     OW15580   3.162   4.259   2.569  0.2313  0.2539 -0.4452
 1316SOL    HW115581   3.141   4.214   2.487  0.6170  2.4125 -1.7299
 1316SOL    HW215582   3.227   4.202   2.609 -0.7866  0.8734  2.0521
 1317SOL     OW15583   2.725   4.114   4.877  0.3856  0.8888 -0.3784
 1317SOL    HW115584   2.754   4.052   4.944  0.6575  1.5326  0.1015
 1317SOL    HW215585   2.695   4.192   4.924  0.1339  1.0144 -0.7458
 1318SOL     OW15586   0.198   0.912   4.789  0.7279  0.1532 -0.3622
 1318SOL    HW115587   0.225   0.823   4.765  1.5530  0.1251  0.6412
 1318SOL    HW215588   0.195   0.962   4.707  3.3114  1.6000  0.4382
 1319SOL     OW15589   1.404   1.443  15.863 -0.2413  0.0937  0.8488
 1319SOL    HW115590   1.351   1.363  15.858  0.8104 -0.4429 -1.6821
 1319SOL    HW215591   1.465   1.418  15.932 -0.9828 -1.3377  0.9846
 1320SOL     OW15592   4.559   1.890   6.442 -0.0315  0.2299 -0.9953
 1320SOL    HW115593   4.587   1.803   6.411  2.4201  0.6569  0.0302
 1320SOL    HW215594   4.640   1.935   6.421  0.8221 -0.4486  0.8554
 1321SOL     OW15595   0.182   2.758  10.898  0.0319 -0.6725  0.4672
 1321SOL    HW115596   0.233   2.839  10.890  0.7865 -1.3120 -1.0775
 1321SOL    HW215597   0.187   2.740  10.992 -0.4832  0.8407  0.7825
 1322SOL     OW15598   3.059   3.082   5.241 -0.2324  0.2832  0.2978
 1322SOL    HW115599   3.109   3.163   5.249  0.2895 -0.1098  0.9741
 1322SOL    HW215600   3.127   3.017   5.260 -0.0284  0.7042  0.9805
 1323SOL     OW15601   4.580   3.025   3.411  0.2203  0.2007  0.8010
 1323SOL    HW115602   4.526   3.102   3.396 -0.1902 -0.3041 -0.3275
 1323SOL    HW215603   4.589   3.032   3.506  0.8818 -1.3782  0.8644
 1324SOL     OW15604   2.178   4.517   1.280 -0.5184  0.5680 -0.2923
 1324SOL    HW115605   2.256   4.472   1.312 -0.3598  1.5017  0.6608
 1324SOL    HW215606   2.168   4.583   1.349  0.3692  0.3199  0.0640
 1325SOL     OW15607   3.384   1.275   8.106  0.0508  0.0186 -0.0545
 1325SOL    HW115608   3.457   1.330   8.079  1.4038 -1.0116  1.4961
 1325SOL    HW215609   3.427   1.195   8.138  1.2368  0.4704 -0.5234
 1326SOL     OW15610   3.083   3.362  14.493 -0.0400  0.0893  0.2518
 1326SOL    HW115611   3.053   3.417  14.565  0.6263 -2.3009  2.3553
 1326SOL    HW215612   3.018   3.396  14.431 -0.3573  0.2221  0.6557
 1327SOL     OW15613   2.057   2.031  11.961 -0.5051 -0.1174 -0.1361
 1327SOL    HW115614   2.006   2.109  11.942 -0.5690 -0.2472 -0.5006
 1327SOL    HW215615   2.124   2.046  11.895  0.0816 -0.7384  0.3131
 1328SOL     OW15616   3.692   3.323   9.890  0.5855  0.3853 -0.2175
 1328SOL    HW115617   3.625   3.317   9.959  2.0591  1.9601  1.3409
 1328SOL    HW215618   3.773   3.340   9.938  1.2385 -1.2733 -0.7315
 1329SOL     OW15619   2.553   3.794   5.997  0.3067  0.1392 -0.0492
 1329SOL    HW115620   2.575   3.826   6.084 -3.4316  1.6677  0.3217
 1329SOL    HW215621   2.581   3.704   6.015  1.0001  0.4242  0.2840
 1330SOL     OW15622   1.822   4.702   1.524 -0.5567 -0.7821  0.2126
 1330SOL    HW115623   1.840   4.735   1.436  0.2343  0.0648  0.6914
 1330SOL    HW215624   1.827   0.049   1.574  3.1124  1.1160 -3.2402
 1331SOL     OW15625   2.996   1.872   0.026 -0.4468 -0.3616  0.3951
 1331SOL    HW115626   2.939   1.859  17.691 -0.3619 -2.2145  0.6458
 1331SOL    HW215627   3.014   1.966   0.031  1.6218 -0.6469 -1.8377
 1332SOL     OW15628   2.732   0.161   4.933 -0.1303 -0.0894 -0.1652
 1332SOL    HW115629   2.785   0.235   4.962  1.4267 -1.6199  0.8815
 1332SOL    HW215630   2.651   0.208   4.915 -0.8436 -0.7920  1.2043
 1333SOL     OW15631   4.566   4.443  13.824 -0.2845  0.2609 -0.4805
 1333SOL    HW115632   4.532   4.359  13.793 -0.6074 -0.4755  1.8715
 1333SOL    HW215633   4.613   4.477  13.748  1.2819  1.2538  0.9242
 1334SOL     OW15634   0.938   4.104   9.061  0.4062  0.6208 -0.0134
 1334SOL    HW115635   0.910   4.035   9.001  1.2787  0.9714 -0.8425
 1334SOL    HW215636   0.987   4.162   9.002 -1.8491  0.7817 -1.7373
 1335SOL     OW15637   1.045   4.225   3.758 -0.1537  0.0726 -0.3599
 1335SOL    HW115638   1.069   4.317   3.762  1.1876 -0.3218  0.5979
 1335SOL    HW215639   1.125   4.188   3.797 -1.5024 -0.9925  1.4025
 1336SOL     OW15640   0.695   1.783   1.516  0.0695  0.3373  0.1979
 1336SOL    HW115641   0.724   1.692   1.517 -3.0044 -0.6153  1.8504
 1336SOL    HW215642   0.705   1.812   1.606 -1.0465 -1.2592  0.8399
 1337SOL     OW15643   0.176   3.039  15.853  0.0042 -0.0823 -0.0022
 1337SOL    HW115644   0.269   3.048  15.872 -0.5881  2.8754  1.5148
 1337SOL    HW215645   0.161   3.083  15.770 -1.4477  3.0171  1.8782
 1338SOL     OW15646   4.017   3.977   8.844  0.0723 -0.1407  0.6510
 1338SOL    HW115647   3.954   3.922   8.798  1.3854 -1.7588  0.7642
 1338SOL    HW215648   3.994   4.069   8.830  1.0339  0.1833  1.2094
 1339SOL     OW15649   4.464   3.801   6.248  0.1647  0.0587 -0.8816
 1339SOL    HW115650   4.456   3.891   6.279  1.5328 -0.1850  0.2020
 1339SOL    HW215651   4.404   3.792   6.174 -1.7341 -2.0706  0.9473
 1340SOL     OW15652   1.246   4.287  12.718  0.3677 -0.5456 -0.1960
 1340SOL    HW115653   1.200   4.206  12.740 -0.0416  0.0854  1.2808
 1340SOL    HW215654   1.319   4.258  12.773  0.6790  2.0335  0.7245
 1341SOL     OW15655   4.234   2.596   6.142  0.3328 -0.4767 -0.0241
 1341SOL    HW115656   4.295   2.666   6.166  1.0099 -1.0522 -0.0922
 1341SOL    HW215657   4.293   2.529   6.174  0.7209  0.9679  2.3108
 1342SOL     OW15658   2.429   0.517   8.342 -0.1792 -0.2507  0.1856
 1342SOL    HW115659   2.490   0.590   8.344 -0.2372 -0.1972  0.0450
 1342SOL    HW215660   2.357   0.571   8.307  1.1120  1.2046 -0.2031
 1343SOL     OW15661   0.686   0.996   9.351 -0.2737  0.2836 -0.0780
 1343SOL    HW115662   0.633   0.946   9.414 -1.7850 -0.4400 -1.9379
 1343SOL    HW215663   0.641   1.080   9.353  1.9767  1.5069 -0.9130
 1344SOL     OW15664   1.385   4.424  16.120  0.1360 -0.1207  0.2129
 1344SOL    HW115665   1.457   4.394  16.175  1.0042  0.6545 -0.4874
 1344SOL    HW215666   1.404   4.379  16.037 -0.0151  1.2090 -0.5478
 1345SOL     OW15667   4.526   1.871   6.130  0.4135 -0.4606  0.2581
 1345SOL    HW115668   4.501   1.791   6.175 -0.3381 -0.7066 -0.5927
 1345SOL    HW215669   4.555   1.842   6.043 -0.4411  2.3462 -0.9789
 1346SOL     OW15670   1.575   4.177   6.954  0.1811  0.3089 -0.2195
 1346SOL    HW115671   1.479   4.169   6.955  0.3348 -1.8334 -1.7189
 1346SOL    HW215672   1.594   4.083   6.948  2.9980  0.8421  0.4490
 1347SOL     OW15673   2.139   0.775   7.350  0.9403  0.1930  0.3526
 1347SOL    HW115674   2.184   0.753   7.432 -1.3467  0.5247  1.7024
 1347SOL    HW215675   2.083   0.700   7.332  0.8353  1.3530 -4.0492
 1348SOL     OW15676   0.429   3.426   6.528  0.4720 -0.3413 -0.0960
 1348SOL    HW115677   0.466   3.501   6.480 -1.4018  0.5334 -0.1719
 1348SOL    HW215678   0.341   3.462   6.534  0.0626 -0.9602 -2.6016
 1349SOL     OW15679   4.183   1.650  15.951 -0.1246  0.1142 -0.0359
 1349SOL    HW115680   4.266   1.620  15.989  0.7779 -0.0060 -2.0791
 1349SOL    HW215681   4.207   1.671  15.860 -1.4189  2.7123  0.2218
 1350SOL     OW15682   0.887   3.406   0.545 -0.7668  0.0810 -0.0562
 1350SOL    HW115683   0.826   3.479   0.550 -0.3806  0.3857  0.2217
 1350SOL    HW215684   0.951   3.437   0.481  0.0829 -0.0477  0.7261
 1351SOL     OW15685   1.334   3.885   6.258  0.5797  0.4268  0.2647
 1351SOL    HW115686   1.345   3.962   6.202  0.8530 -0.4256 -0.8789
 1351SOL    HW215687   1.410   3.906   6.311  0.1739 -1.9739  1.7952
 1352SOL     OW15688   2.523   3.083  11.431  0.0016 -0.0004  0.5410
 1352SOL    HW115689   2.430   3.101  11.413 -0.2525 -4.1712 -2.3159
 1352SOL    HW215690   2.547   3.165  11.474 -0.5584 -0.5831  1.9689
 1353SOL     OW15691   0.002   1.176   3.508  0.2359 -0.0889 -0.2400
 1353SOL    HW115692   0.046   1.091   3.504 -1.1221 -0.5719 -4.3953
 1353SOL    HW215693   4.646   1.150   3.494  0.4090 -0.4680 -0.6513
 1354SOL     OW15694   2.826   4.464   6.075  0.4121 -0.2107 -0.1111
 1354SOL    HW115695   2.846   4.528   6.143 -1.9501 -0.5937  0.9217
 1354SOL    HW215696   2.828   4.378   6.117 -0.1273 -1.1159 -1.9372
 1355SOL     OW15697   2.823   0.429   2.515  0.1161  0.4867 -0.3852
 1355SOL    HW115698   2.764   0.355   2.510 -1.2888  1.5815 -0.0055
 1355SOL    HW215699   2.776   0.497   2.468  1.6890  2.3986  0.7768
 1356SOL     OW15700   4.297   3.534   8.093 -0.1655 -0.2436  0.4040
 1356SOL    HW115701   4.245   3.456   8.073  0.9003 -0.6150 -0.9506
 1356SOL    HW215702   4.322   3.519   8.184  2.6648  2.5624  0.0958
 1357SOL     OW15703   3.135   3.173   6.542 -0.4754 -0.2717 -1.3603
 1357SOL    HW115704   3.116   3.091   6.498 -1.0217 -0.7631 -0.1953
 1357SOL    HW215705   3.109   3.235   6.473 -0.4258 -0.1831 -1.2991
 1358SOL     OW15706   3.426   0.281   8.101  0.3183  1.0263 -0.0824
 1358SOL    HW115707   3.499   0.319   8.150  2.3132 -0.2900 -2.0309
 1358SOL    HW215708   3.347   0.306   8.148 -0.0118  0.0267 -0.1158
 1359SOL     OW15709   1.607   4.299  15.571 -0.2163  0.2708  0.1673
 1359SOL    HW115710   1.639   4.373  15.519  1.1343  0.3793  1.1492
 1359SOL    HW215711   1.513   4.315  15.566  0.0581  1.5381 -0.9293
 1360SOL     OW15712   2.506   1.634   8.081  0.4781  0.3169 -0.3644
 1360SOL    HW115713   2.440   1.646   8.150  1.8845  2.3861  0.6399
 1360SOL    HW215714   2.516   1.539   8.087  0.2982  0.1526 -2.8757
 1361SOL     OW15715   0.808   1.340   3.780  0.0388  0.5948 -0.3891
 1361SOL    HW115716   0.815   1.431   3.807 -1.2684  0.1633  1.3600
 1361SOL    HW215717   0.866   1.342   3.703  2.9662  0.3284  1.8116
 1362SOL     OW15718   1.095   3.879   0.605 -0.4661  0.7566  0.0542
 1362SOL    HW115719   1.100   3.951   0.668 -0.6757 -1.0311  2.1278
 1362SOL    HW215720   1.013   3.906   0.562 -0.8927 -2.5648 -1.2252
 1363SOL     OW15721   4.155   3.810   5.458  0.4469  0.1274  0.4847
 1363SOL    HW115722   4.194   3.772   5.537  3.5038  0.3732 -0.8706
 1363SOL    HW215723   4.238   3.819   5.410 -0.8234  1.5163 -1.4286
 1364SOL     OW15724   2.980   2.009   4.307  0.0325  0.3218  0.4730
 1364SOL    HW115725   3.049   1.963   4.354 -1.1573 -0.1895  1.7193
 1364SOL    HW215726   3.008   2.099   4.323  1.4685 -0.4003  2.0791
 1365SOL     OW15727   4.332   2.209   6.494  0.0595  0.4940  0.2711
 1365SOL    HW115728   4.331   2.128   6.443 -0.0030  1.0221 -0.5731
 1365SOL    HW215729   4.256   2.255   6.457  1.2658  0.5731 -2.1322
 1366SOL     OW15730   3.249   1.250   7.355  0.0719  0.2164 -0.0996
 1366SOL    HW115731   3.303   1.299   7.418 -0.0310  0.5760 -0.2926
 1366SOL    HW215732   3.177   1.218   7.410 -1.5375  2.2828 -1.0205
 1367SOL     OW15733   1.952   3.260  12.680 -0.3693  0.1721  0.4033
 1367SOL    HW115734   1.939   3.231  12.770  2.4285 -3.4563 -0.3456
 1367SOL    HW215735   1.913   3.189  12.627 -1.3704  0.2250  1.0665
 1368SOL     OW15736   0.548   2.540   1.194  0.5301 -0.2937 -0.6741
 1368SOL    HW115737   0.496   2.460   1.185 -0.1642  0.0133  0.6690
 1368SOL    HW215738   0.587   2.535   1.107  1.6509  3.3436 -0.3653
 1369SOL     OW15739   2.707   1.249   7.526 -0.3523 -0.0544  0.5736
 1369SOL    HW115740   2.626   1.297   7.543  0.1455  1.9937 -2.9184
 1369SOL    HW215741   2.710   1.198   7.607 -0.1221 -2.0525 -0.6898
 1370SOL     OW15742   3.991   2.483   6.071 -0.0020 -0.2473 -0.0865
 1370SOL    HW115743   4.082   2.497   6.095 -0.5951  1.5047  1.1710
 1370SOL    HW215744   3.951   2.542   6.135 -0.8069  0.8098 -1.5629
 1371SOL     OW15745   4.360   0.464   5.136 -0.4002  0.4408 -0.1398
 1371SOL    HW115746   4.354   0.369   5.147 -0.4489  0.3103 -1.2926
 1371SOL    HW215747   4.450   0.488   5.159 -1.0202  4.0994 -1.6193
 1372SOL     OW15748   1.142   2.342   6.083 -0.3309 -0.4242  0.9035
 1372SOL    HW115749   1.218   2.386   6.119 -2.3313  1.1286  3.2010
 1372SOL    HW215750   1.076   2.375   6.144  0.1057 -0.1268  1.2134
 1373SOL     OW15751   2.114   2.858  14.754 -0.0316  0.1194 -0.4536
 1373SOL    HW115752   2.194   2.902  14.783 -0.3990 -1.0107  2.2387
 1373SOL    HW215753   2.124   2.774  14.798 -0.6759  1.1741  1.7191
 1374SOL     OW15754   4.515   0.700   5.862 -0.5633  0.1207  0.0220
 1374SOL    HW115755   4.561   0.719   5.944  1.0547 -2.5770 -0.2687
 1374SOL    HW215756   4.575   0.747   5.804 -1.1424 -0.3197 -0.9149
 1375SOL     OW15757   3.946   0.123   5.118  0.1370 -0.3173 -0.3078
 1375SOL    HW115758   3.976   0.039   5.083 -0.0875 -0.0758 -1.0850
 1375SOL    HW215759   3.974   0.184   5.049  0.0838  0.4264  0.3237
 1376SOL     OW15760   1.195   0.093   3.867 -0.4297  0.8378 -0.2685
 1376SOL    HW115761   1.157   0.018   3.820 -0.6144 -0.2237  1.5745
 1376SOL    HW215762   1.131   0.102   3.938  0.8298  0.1247  0.9532
 1377SOL     OW15763   2.230   4.223   1.790  0.3463 -0.1284 -0.1511
 1377SOL    HW115764   2.264   4.157   1.730  2.0617 -1.0682  1.8765
 1377SOL    HW215765   2.304   4.237   1.849 -0.9798 -0.6713  1.6520
 1378SOL     OW15766   0.755   1.599   2.124 -0.8859 -0.2911  0.6140
 1378SOL    HW115767   0.752   1.676   2.180 -0.4131 -0.5392  0.9872
 1378SOL    HW215768   0.829   1.624   2.068 -1.3194  0.6633  0.4721
 1379SOL     OW15769   2.377   3.979  12.743  0.0015  0.0035 -0.5262
 1379SOL    HW115770   2.433   4.000  12.817 -0.6954  0.5422 -0.1567
 1379SOL    HW215771   2.417   4.037  12.678  0.3571  0.2405 -0.0964
 1380SOL     OW15772   3.822   3.578   4.369 -0.2676 -0.0549 -0.1849
 1380SOL    HW115773   3.736   3.613   4.393  0.5712  0.5058  2.0270
 1380SOL    HW215774   3.803   3.520   4.296 -2.9469 -0.3408  0.7426
 1381SOL     OW15775   0.350   3.517   8.339 -0.4772  0.1526  0.0748
 1381SOL    HW115776   0.439   3.539   8.312 -1.0167 -0.0354 -1.8095
 1381SOL    HW215777   0.366   3.474   8.423 -0.6136 -0.0587 -0.0085
 1382SOL     OW15778   2.924   3.756   3.692  0.2870 -0.7682 -0.1967
 1382SOL    HW115779   2.900   3.822   3.626  0.6705 -1.0428 -0.6121
 1382SOL    HW215780   2.936   3.679   3.636  2.5904 -0.4799 -0.1133
 1383SOL     OW15781   3.277   2.192   2.514  0.0344  0.2538 -0.3545
 1383SOL    HW115782   3.342   2.194   2.444 -0.9077 -1.4626 -1.2771
 1383SOL    HW215783   3.315   2.262   2.568 -0.8740  0.2498  0.3009
 1384SOL     OW15784   2.837   2.125   6.100 -0.1251 -0.4002 -0.1548
 1384SOL    HW115785   2.828   2.216   6.073 -0.3621 -0.6772 -0.9985
 1384SOL    HW215786   2.904   2.083   6.046 -0.7824  1.0128 -2.0769
 1385SOL     OW15787   2.673   1.077   1.215 -0.0035  0.5387 -0.1984
 1385SOL    HW115788   2.759   1.036   1.212 -1.2609 -2.0091 -2.4802
 1385SOL    HW215789   2.626   1.050   1.135 -0.9233 -0.6342  0.7391
 1386SOL     OW15790   3.588   1.943   2.636  0.0578 -0.2389 -0.3328
 1386SOL    HW115791   3.523   1.884   2.596  1.9733 -1.1652 -2.1265
 1386SOL    HW215792   3.643   1.964   2.560  0.4498  0.9752  0.2941
 1387SOL     OW15793   0.181   2.574   8.156  0.1051  0.4341 -0.4264
 1387SOL    HW115794   0.163   2.481   8.145 -2.8135  1.1934 -2.0930
 1387SOL    HW215795   0.108   2.620   8.114 -0.0304  1.5803  1.0590
 1388SOL     OW15796   2.257   1.129  11.754  0.6560 -0.4942  0.0627
 1388SOL    HW115797   2.248   1.179  11.673  2.8097 -1.4921 -0.7914
 1388SOL    HW215798   2.179   1.074  11.749 -2.5488  3.9874  0.9958
 1389SOL     OW15799   4.160   1.648  13.585 -0.0132 -0.0044 -0.7582
 1389SOL    HW115800   4.251   1.618  13.576  0.0275 -0.3629  0.8636
 1389SOL    HW215801   4.117   1.582  13.531  0.8003  0.8124 -2.3830
 1390SOL     OW15802   4.216   1.040   7.611  0.5763  0.4208 -0.3644
 1390SOL    HW115803   4.189   1.105   7.675  0.1464  0.1938 -0.3206
 1390SOL    HW215804   4.135   0.991   7.598  1.7516 -1.0050 -2.5454
 1391SOL     OW15805   1.419   3.087   4.724  0.1160 -0.0940  0.0259
 1391SOL    HW115806   1.474   3.014   4.695 -0.7340 -0.7036 -0.0578
 1391SOL    HW215807   1.410   3.058   4.815 -1.5960  0.5440  0.0530
 1392SOL     OW15808   2.539   3.902   3.385  0.4421 -0.6537  0.3661
 1392SOL    HW115809   2.464   3.870   3.435  0.3024 -1.7714 -0.5520
 1392SOL    HW215810   2.532   3.869   3.295 -1.4651 -3.0620  1.4000
 1393SOL     OW15811   3.137   3.435   2.330 -0.3934 -0.1910  0.3339
 1393SOL    HW115812   3.175   3.382   2.401  0.5901 -2.1646 -1.6787
 1393SOL    HW215813   3.196   3.439   2.255 -0.2415 -0.3773  0.4428
 1394SOL     OW15814   0.097   2.934  10.177 -0.0808 -0.3278  0.6650
 1394SOL    HW115815   0.171   2.900  10.126 -0.5117 -0.6025  0.2300
 1394SOL    HW215816   0.063   2.985  10.103 -1.5130  0.1641  1.6666
 1395SOL     OW15817   4.558   4.063   9.459  0.5208  0.4069  0.0496
 1395SOL    HW115818   4.527   3.994   9.518 -1.4169  0.4095 -0.9742
 1395SOL    HW215819   4.636   4.022   9.420 -0.5656  0.2483 -1.9755
 1396SOL     OW15820   3.439   4.560   2.042  0.6762 -0.2601 -0.4065
 1396SOL    HW115821   3.497   4.526   2.111  0.4842  0.4676  0.1201
 1396SOL    HW215822   3.375   4.491   2.022 -0.2104  0.5158 -0.2300
 1397SOL     OW15823   0.826   1.493  11.185 -0.0202 -0.1658  0.8569
 1397SOL    HW115824   0.806   1.409  11.143  0.0704 -0.3787  1.2415
 1397SOL    HW215825   0.853   1.538  11.105 -0.9402  1.5837  1.5327
 1398SOL     OW15826   3.096   2.126   2.730  0.7139  0.3232  0.9530
 1398SOL    HW115827   3.155   2.117   2.656 -2.9882  0.4614 -2.0291
 1398SOL    HW215828   3.022   2.157   2.678  1.8692  0.7089 -0.4683
 1399SOL     OW15829   3.883   2.087  11.666  0.2844 -0.1697  0.1598
 1399SOL    HW115830   3.861   2.180  11.660  1.1388  0.1218  1.4088
 1399SOL    HW215831   3.852   2.053  11.582 -0.9333  3.4219 -0.8368
 1400SOL     OW15832   1.821   0.867   0.829  0.0127 -0.2529  1.0268
 1400SOL    HW115833   1.788   0.797   0.886  1.9142 -1.4462  0.6602
 1400SOL    HW215834   1.782   0.830   0.749  1.6045  1.1879 -0.4108
 1401SOL     OW15835   3.009   0.776  10.750  0.0293 -0.0172  0.5716
 1401SOL    HW115836   2.964   0.713  10.693 -1.6211 -0.3351  2.2065
 1401SOL    HW215837   2.950   0.849  10.731  0.7838  0.2352 -0.7596
 1402SOL     OW15838   3.614   3.782  10.574  0.2998  0.6361 -0.1210
 1402SOL    HW115839   3.553   3.763  10.645 -0.2473  1.2301 -0.4281
 1402SOL    HW215840   3.690   3.799  10.629 -0.0965  1.9882  0.0252
 1403SOL     OW15841   4.016   1.910   9.422  0.3808 -0.8751 -0.1204
 1403SOL    HW115842   4.018   1.816   9.438 -1.5684 -1.1458 -1.5690
 1403SOL    HW215843   3.940   1.938   9.473  1.3776  0.7930  0.4585
 1404SOL     OW15844   4.735   3.224   3.885  0.1989 -0.3752  0.7778
 1404SOL    HW115845   4.655   3.172   3.874 -0.0528  0.2933 -0.5007
 1404SOL    HW215846   4.713   3.269   3.966 -0.2602  3.6357 -1.5707
 1405SOL     OW15847   3.073   2.120   8.260  0.6201 -0.0524 -0.0539
 1405SOL    HW115848   3.009   2.049   8.266  1.3010 -0.9171 -2.8514
 1405SOL    HW215849   3.073   2.158   8.348  1.1076 -1.6076  0.6132
 1406SOL     OW15850   3.263   1.433  17.181 -0.4678  0.2269  0.2217
 1406SOL    HW115851   3.188   1.443  17.240 -0.4674  0.8471  0.1180
 1406SOL    HW215852   3.255   1.504  17.117  1.2237 -0.6076 -0.9107
 1407SOL     OW15853   4.720   0.167  10.151 -0.5190  0.7907 -0.0771
 1407SOL    HW115854   4.724   0.084  10.200  0.5410 -0.1592 -1.7913
 1407SOL    HW215855   0.044   0.227  10.197  3.0257 -1.5483 -1.6047
 1408SOL     OW15856   4.055   0.311   1.639  0.4205 -0.3158 -0.5913
 1408SOL    HW115857   3.967   0.278   1.625  0.4302  0.3859 -2.3113
 1408SOL    HW215858   4.051   0.394   1.590 -3.4652 -1.2773 -1.8476
 1409SOL     OW15859   3.394   2.870  13.987  0.7833  0.2152 -0.1732
 1409SOL    HW115860   3.419   2.930  14.057  0.6990 -1.8475  1.6335
 1409SOL    HW215861   3.383   2.928  13.912  0.7188 -0.3914 -0.6314
 1410SOL     OW15862   1.216   1.415   4.528  0.7634  0.0658  0.7407
 1410SOL    HW115863   1.299   1.385   4.565  0.0087  1.5315  3.6129
 1410SOL    HW215864   1.202   1.502   4.565  0.6162 -0.0682  0.9983
 1411SOL     OW15865   2.311   3.274   8.855  0.1105  0.4143  0.2222
 1411SOL    HW115866   2.370   3.216   8.904  0.1621  1.8547  1.8466
 1411SOL    HW215867   2.335   3.246   8.767  1.2824  1.8747  0.0763
 1412SOL     OW15868   3.695   4.290   8.725 -0.3805  0.1304  0.7346
 1412SOL    HW115869   3.659   4.359   8.781 -0.2313  0.9490 -0.1816
 1412SOL    HW215870   3.658   4.295   8.637 -0.5973 -0.4822  0.7895
 1413SOL     OW15871   1.959   1.022   2.461  0.0646 -0.0708  0.0463
 1413SOL    HW115872   1.947   0.935   2.501  1.0373 -0.5157 -0.6237
 1413SOL    HW215873   2.048   1.016   2.425  1.6204 -1.3252  4.0497
 1414SOL     OW15874   3.413   0.454  11.934 -0.2219  0.3263 -0.2814
 1414SOL    HW115875   3.340   0.456  11.997 -1.0663 -2.9889 -1.1709
 1414SOL    HW215876   3.433   0.362  11.952  1.4513  0.8357  0.4206
 1415SOL     OW15877   1.288   0.085   2.134  0.1249  0.8096  0.5240
 1415SOL    HW115878   1.267   4.734   2.098  1.2482  0.3604  0.9655
 1415SOL    HW215879   1.374   0.065   2.169  0.3794  2.8352  1.0258
 1416SOL     OW15880   0.243   4.275   6.950  0.1640 -0.4562 -0.2189
 1416SOL    HW115881   0.296   4.354   6.963 -0.7664  0.1895 -0.3465
 1416SOL    HW215882   0.181   4.300   6.881  0.8143  0.4367 -0.4786
 1417SOL     OW15883   4.118   3.155   2.921 -0.6059  0.4699  0.0080
 1417SOL    HW115884   4.195   3.209   2.936  1.0222 -1.4538 -1.5177
 1417SOL    HW215885   4.150   3.077   2.876 -2.3563 -1.2647  1.7276
 1418SOL     OW15886   4.236   3.020   0.288 -0.5653 -0.1692 -0.4434
 1418SOL    HW115887   4.282   2.948   0.332 -1.2870 -0.3874 -0.0386
 1418SOL    HW215888   4.291   3.097   0.295 -0.6709 -0.1475  0.1587
 1419SOL     OW15889   0.257   1.682   3.332 -0.0265 -0.2510  0.6800
 1419SOL    HW115890   0.298   1.754   3.284  1.5198 -2.0134 -0.6430
 1419SOL    HW215891   0.171   1.678   3.290 -0.6199 -0.2289  1.9057
 1420SOL     OW15892   0.863   1.715  10.706 -0.4909  0.4082  0.4776
 1420SOL    HW115893   0.873   1.700  10.612 -0.0323  0.4917  0.5124
 1420SOL    HW215894   0.769   1.698  10.714 -0.2723 -0.5843  0.8953
 1421SOL     OW15895   4.230   3.555  15.792  0.0498  0.3411  0.3026
 1421SOL    HW115896   4.261   3.625  15.735  1.0485 -0.1954  0.1789
 1421SOL    HW215897   4.154   3.521  15.746  1.3209  0.5647 -1.9315
 1422SOL     OW15898   4.152   1.325   9.826  0.1936 -0.8172 -0.2115
 1422SOL    HW115899   4.098   1.364   9.895 -0.5480  0.1145 -1.3114
 1422SOL    HW215900   4.128   1.233   9.821 -1.5052 -0.4907  2.0730
 1423SOL     OW15901   4.716   1.716  10.718 -0.2036 -0.3325  0.6210
 1423SOL    HW115902   4.727   1.807  10.744  1.2655 -0.0622 -0.9156
 1423SOL    HW215903   4.680   1.724  10.629 -1.6486  0.6240  1.2866
 1424SOL     OW15904   0.382   1.965   2.441 -0.3269  0.1087 -0.2391
 1424SOL    HW115905   0.315   1.967   2.510 -0.6358  2.4590 -0.5850
 1424SOL    HW215906   0.462   1.946   2.491 -0.1351 -0.2994 -0.7125
 1425SOL     OW15907   3.519   1.935   5.290  0.3634  0.1688  0.2482
 1425SOL    HW115908   3.537   1.869   5.223  0.4095  1.3402 -0.9135
 1425SOL    HW215909   3.448   1.984   5.249  1.5204  1.4373 -0.2548
 1426SOL     OW15910   0.295   4.335  11.584  0.0947  0.5139 -0.3013
 1426SOL    HW115911   0.318   4.427  11.594  1.8413  0.0521 -0.1000
 1426SOL    HW215912   0.380   4.290  11.586 -0.3827 -0.4365 -1.2301
 1427SOL     OW15913   2.234   0.612  10.629 -0.0473 -0.4240  0.1116
 1427SOL    HW115914   2.234   0.605  10.724  0.6973 -1.5593  0.0355
 1427SOL    HW215915   2.144   0.607  10.598 -0.1965 -2.3081  0.8768
 1428SOL     OW15916   4.168   2.225   4.006  0.2352 -0.1097  0.4544
 1428SOL    HW115917   4.259   2.227   4.034  0.8799 -3.3624 -1.3615
 1428SOL    HW215918   4.130   2.300   4.051  0.9130  1.1925 -1.1213
 1429SOL     OW15919   3.998   3.989   9.339  0.5169  0.9916 -0.2247
 1429SOL    HW115920   3.915   4.029   9.312  0.0449  0.2080  0.0691
 1429SOL    HW215921   3.996   4.003   9.434  1.4026  3.0385 -0.5034
 1430SOL     OW15922   0.719   0.573   0.473 -0.0270 -0.6479 -0.3294
 1430SOL    HW115923   0.685   0.490   0.440  0.3098 -0.4115 -1.2673
 1430SOL    HW215924   0.687   0.636   0.408  3.3300  0.6180 -0.7712
 1431SOL     OW15925   0.248   1.915  14.393  0.5694 -0.5604 -0.9141
 1431SOL    HW115926   0.335   1.908  14.353  0.9410  1.1039 -0.4090
 1431SOL    HW215927   0.217   1.826  14.381 -0.9572  0.1126 -1.9971
 1432SOL     OW15928   3.835   1.832   0.978 -0.0277 -0.5837 -0.1689
 1432SOL    HW115929   3.772   1.902   0.991  0.4276 -0.3711  0.9355
 1432SOL    HW215930   3.870   1.817   1.066  2.6281  0.9611 -0.9610
 1433SOL     OW15931   3.777   3.811   2.512 -0.4514  0.0093 -0.1391
 1433SOL    HW115932   3.765   3.893   2.464 -0.3697 -1.4750 -2.7372
 1433SOL    HW215933   3.873   3.817   2.514 -0.3260 -2.1093 -0.2746
 1434SOL     OW15934   2.266   3.562   2.797  0.2712  0.1811  0.6516
 1434SOL    HW115935   2.334   3.629   2.787  1.1522 -0.9939 -1.1894
 1434SOL    HW215936   2.314   3.495   2.844  0.0336 -0.6991 -0.3564
 1435SOL     OW15937   0.397   0.749   6.269 -0.0108 -0.0574 -0.0178
 1435SOL    HW115938   0.398   0.787   6.357 -1.5275 -0.6750  0.2661
 1435SOL    HW215939   0.423   0.824   6.216  0.4483  1.2973  2.1244
 1436SOL     OW15940   0.201   0.185   8.126 -0.1637  0.1599  0.3763
 1436SOL    HW115941   0.166   0.261   8.078 -0.2380 -0.5147 -0.6426
 1436SOL    HW215942   0.225   0.221   8.211  0.3117 -2.4364  1.3208
 1437SOL     OW15943   3.461   1.007   6.453 -0.2493  0.3771  0.2752
 1437SOL    HW115944   3.433   0.916   6.448 -1.4561  0.9562 -3.3216
 1437SOL    HW215945   3.489   1.013   6.544 -0.2065  0.3548  0.2630
 1438SOL     OW15946   3.696   0.982   5.975  0.5641  0.2021  0.1952
 1438SOL    HW115947   3.713   1.070   5.942 -0.1466  0.3700  0.2639
 1438SOL    HW215948   3.654   1.015   6.054 -0.8990 -0.9238 -0.1016
 1439SOL     OW15949   1.648   3.535  15.333 -0.4005 -0.4176  0.1907
 1439SOL    HW115950   1.588   3.509  15.263 -0.4869  0.6578 -0.1348
 1439SOL    HW215951   1.609   3.491  15.409 -2.6300  1.9475  0.4074
 1440SOL     OW15952   2.534   1.921  15.625  0.1021  0.0589 -0.3394
 1440SOL    HW115953   2.493   2.005  15.648 -1.9288 -1.5668  1.8452
 1440SOL    HW215954   2.529   1.878  15.710 -0.7615  1.5099  0.3471
 1441SOL     OW15955   2.063   0.110  10.619  0.4006 -0.1277 -0.3463
 1441SOL    HW115956   2.038   0.200  10.640 -0.7894 -0.3964 -0.5657
 1441SOL    HW215957   2.100   0.122  10.532 -0.2699 -0.9287 -0.7431
 1442SOL     OW15958   1.432   0.182   2.874  0.8420 -0.4481  0.8683
 1442SOL    HW115959   1.482   0.228   2.942 -1.0518  0.4104  1.6615
 1442SOL    HW215960   1.462   0.221   2.792  0.4678 -1.2799  0.3453
 1443SOL     OW15961   1.284   2.331   2.823 -0.3669  0.2312  0.4992
 1443SOL    HW115962   1.265   2.341   2.730 -2.0246  2.7155  1.0876
 1443SOL    HW215963   1.275   2.422   2.852  1.0857 -0.2559  2.4444
 1444SOL     OW15964   2.906   4.701   4.837  0.6166  0.2321 -0.3703
 1444SOL    HW115965   2.831   4.647   4.812  2.8495 -3.4625  0.9656
 1444SOL    HW215966   2.862   0.034   4.888 -0.0701  0.4134 -1.2023
 1445SOL     OW15967   1.847   2.048   7.928  0.0993 -0.4178  0.0629
 1445SOL    HW115968   1.873   2.022   8.017  1.2775 -1.9211 -0.7111
 1445SOL    HW215969   1.756   2.018   7.924 -0.7265  2.6423 -3.2802
 1446SOL     OW15970   1.813   3.491   3.365  0.2784  0.2093 -0.0280
 1446SOL    HW115971   1.717   3.482   3.361  0.2789 -0.4609  1.4124
 1446SOL    HW215972   1.838   3.432   3.294 -1.2659 -1.7636  1.0582
 1447SOL     OW15973   3.592   3.073   6.645 -0.0405  0.6492  0.2240
 1447SOL    HW115974   3.511   3.088   6.694 -0.3793 -0.3473 -0.0299
 1447SOL    HW215975   3.558   3.086   6.556 -2.4110 -0.6874  0.9247
 1448SOL     OW15976   3.343   2.066   4.509 -0.5929  0.4813  0.6724
 1448SOL    HW115977   3.427   2.049   4.465 -1.1374  1.2043 -0.6682
 1448SOL    HW215978   3.362   2.030   4.595 -1.8439 -0.3242  0.6105
 1449SOL     OW15979   3.761   0.769   6.828 -0.7675 -0.2562 -0.1488
 1449SOL    HW115980   3.736   0.678   6.807 -2.0754 -0.1611  0.9856
 1449SOL    HW215981   3.737   0.762   6.921  0.8450 -0.5377  0.2415
 1450SOL     OW15982   3.756   3.796   3.142  0.3307 -1.0041 -0.0334
 1450SOL    HW115983   3.739   3.878   3.095  0.6903 -1.7665 -1.4805
 1450SOL    HW215984   3.811   3.828   3.214 -0.2107  2.4489 -1.1469
 1451SOL     OW15985   4.208   2.768   4.683  0.1242 -0.2406 -0.1600
 1451SOL    HW115986   4.134   2.710   4.664 -0.7063  0.7129  0.2143
 1451SOL    HW215987   4.278   2.704   4.693  1.8593  1.6448 -0.3492
 1452SOL     OW15988   2.959   2.943   3.239 -0.6907 -0.1681  0.3166
 1452SOL    HW115989   2.928   2.856   3.215 -0.1420 -0.2113 -0.2180
 1452SOL    HW215990   2.896   3.000   3.194  0.5895  1.2432  0.2932
 1453SOL     OW15991   4.221   1.359   6.739 -0.1469 -0.2926 -0.7414
 1453SOL    HW115992   4.253   1.273   6.768 -2.2921 -0.9748 -0.3613
 1453SOL    HW215993   4.304   1.404   6.724  0.3804 -0.3571  1.9609
 1454SOL     OW15994   3.068   4.096   5.078 -0.4456 -0.4534  0.2146
 1454SOL    HW115995   3.059   4.144   4.996 -0.1194 -0.0585  0.4078
 1454SOL    HW215996   3.120   4.161   5.125  2.2086 -1.5448 -1.1982
 1455SOL     OW15997   3.612   2.437   8.209  0.0008 -0.3361  0.1434
 1455SOL    HW115998   3.539   2.414   8.152  0.6473 -1.9897 -0.0279
 1455SOL    HW215999   3.687   2.427   8.151  1.6187  0.5221  2.0863
 1456SOL     OW16000   2.322   1.936   5.721  0.3189  0.2531  0.3088
 1456SOL    HW116001   2.371   1.857   5.744 -0.2156 -0.4843 -1.0429
 1456SOL    HW216002   2.277   1.954   5.804  0.9114 -0.6429  0.8125
 1457SOL     OW16003   0.100   3.745  12.176  0.3251 -0.7331 -0.4800
 1457SOL    HW116004   0.187   3.730  12.213 -0.8204 -1.0350  2.0518
 1457SOL    HW216005   0.059   3.661  12.196  0.3474 -0.1658  1.8981
 1458SOL     OW16006   3.330   2.184   9.920 -0.3860  0.2186 -1.1245
 1458SOL    HW116007   3.337   2.224  10.007 -1.8140 -1.2262 -0.3531
 1458SOL    HW216008   3.248   2.134   9.924 -0.3893  0.2736 -0.5662
 1459SOL     OW16009   0.236   0.873   9.847 -0.8497 -0.2439 -0.0537
 1459SOL    HW116010   0.161   0.921   9.882  0.8887  1.5548  1.2448
 1459SOL    HW216011   0.300   0.943   9.835 -1.3513  0.4163  1.1313
 1460SOL     OW16012   1.103   0.853   3.089 -0.4748 -0.1341  0.7178
 1460SOL    HW116013   1.171   0.822   3.148 -0.8418 -1.2812  0.5389
 1460SOL    HW216014   1.094   0.786   3.021  0.2937  0.1255  0.3557
 1461SOL     OW16015   4.273   2.714  12.507 -0.3065 -0.3379 -0.0013
 1461SOL    HW116016   4.217   2.641  12.479 -0.2433 -0.6226  0.6085
 1461SOL    HW216017   4.226   2.792  12.477  0.1371  0.0748  0.3862
 1462SOL     OW16018   3.797   3.225   7.535  0.3820  0.4086  0.2863
 1462SOL    HW116019   3.758   3.139   7.523 -0.5708  0.6866  1.3431
 1462SOL    HW216020   3.838   3.216   7.622 -1.1034 -2.5632  0.6837
 1463SOL     OW16021   2.542   4.086   1.003 -0.2724  0.3180 -0.0038
 1463SOL    HW116022   2.477   4.017   0.986  0.4748  0.0384 -1.6788
 1463SOL    HW216023   2.628   4.045   1.007 -1.0284 -1.5060 -2.5879
 1464SOL     OW16024   1.637   1.025   9.466  0.4846  0.3629  0.1638
 1464SOL    HW116025   1.602   1.043   9.553  1.1935  0.1567  0.4930
 1464SOL    HW216026   1.560   1.021   9.409  1.7507  1.7185 -1.6652
 1465SOL     OW16027   1.978   1.563   5.250 -0.3134 -0.0584 -0.6436
 1465SOL    HW116028   1.949   1.653   5.238 -1.0382 -0.2183 -0.0883
 1465SOL    HW216029   2.000   1.557   5.343 -2.1079  2.0010 -0.1096
 1466SOL     OW16030   3.538   4.411   6.287  0.3441  0.4756  0.5396
 1466SOL    HW116031   3.596   4.444   6.356  1.6116 -0.5397 -0.0236
 1466SOL    HW216032   3.535   4.490   6.233 -1.1295 -1.5453 -2.3078
 1467SOL     OW16033   2.502   2.789   5.052  0.5833 -0.4091 -0.6547
 1467SOL    HW116034   2.515   2.854   4.983  1.4878  1.5057  1.3031
 1467SOL    HW216035   2.577   2.794   5.112  0.6137 -2.0785 -0.5504
 1468SOL     OW16036   2.529   3.769   4.329  0.2852 -0.2063 -0.2535
 1468SOL    HW116037   2.567   3.799   4.246 -1.6134  2.0579 -0.3195
 1468SOL    HW216038   2.590   3.807   4.391 -1.8190  0.9643  1.1193
 1469SOL     OW16039   2.678   2.696  12.586 -0.1583 -0.6033  0.1951
 1469SOL    HW116040   2.708   2.726  12.500  0.1749 -1.5815 -0.0349
 1469SOL    HW216041   2.744   2.725  12.649  0.5400  1.9794 -1.7581
 1470SOL     OW16042   3.339   1.254   1.011 -0.6002 -0.6510  0.0501
 1470SOL    HW116043   3.334   1.330   1.068  0.3755 -0.8151  0.3593
 1470SOL    HW216044   3.276   1.192   1.046 -0.5435 -1.1917 -0.8006
 1471SOL     OW16045   0.955   1.304   8.163  0.0603 -0.0180 -0.2389
 1471SOL    HW116046   0.976   1.330   8.073  1.7691 -2.6931 -0.6051
 1471SOL    HW216047   0.866   1.341   8.161  0.0354 -0.0004  1.4009
 1472SOL     OW16048   2.093   1.722   8.688  0.0263 -0.0000 -0.1804
 1472SOL    HW116049   2.179   1.747   8.656 -0.9079  1.3022 -1.6998
 1472SOL    HW216050   2.078   1.637   8.646  0.1868 -0.9878  1.7856
 1473SOL     OW16051   4.112   1.434  15.552  0.5842 -0.2550  0.0855
 1473SOL    HW116052   4.093   1.510  15.607  1.0111  0.9584 -1.4419
 1473SOL    HW216053   4.079   1.460  15.466  1.9137  0.3100 -0.2609
 1474SOL     OW16054   2.240   1.274   8.121  0.8162 -0.1016  0.4335
 1474SOL    HW116055   2.172   1.299   8.183 -1.0217 -0.9389 -1.2770
 1474SOL    HW216056   2.221   1.346   8.061  0.8637 -1.1448 -0.8296
 1475SOL     OW16057   4.012   2.759   5.618  0.2555  0.4499  0.2604
 1475SOL    HW116058   4.061   2.758   5.701 -1.0302  1.7946  1.0442
 1475SOL    HW216059   4.038   2.678   5.576  1.1900  0.8783 -0.0027
 1476SOL     OW16060   2.191   3.932   7.181  0.0979  0.0712  0.3405
 1476SOL    HW116061   2.274   3.924   7.228 -0.7508 -0.5081  1.7402
 1476SOL    HW216062   2.170   4.025   7.183 -0.5448 -0.0830  0.8658
 1477SOL     OW16063   1.364   2.988   6.628  0.1345  0.5464 -0.0928
 1477SOL    HW116064   1.340   3.013   6.538 -1.0972  1.5965  0.5186
 1477SOL    HW216065   1.282   3.001   6.676  1.3848 -1.4337  2.5116
 1478SOL     OW16066   3.599   2.742   7.473 -0.0659 -0.8246 -0.0348
 1478SOL    HW116067   3.659   2.773   7.541 -1.8020  1.4787  0.4769
 1478SOL    HW216068   3.606   2.815   7.411  0.3510  0.5857  1.6746
 1479SOL     OW16069   3.052   2.880   9.073 -0.8842 -0.4833  0.0704
 1479SOL    HW116070   2.958   2.901   9.071 -0.8872 -0.5410 -0.5786
 1479SOL    HW216071   3.056   2.784   9.076 -0.8643 -0.4937 -0.2446
 1480SOL     OW16072   4.427   0.208   4.933 -0.7721  0.2868 -0.8579
 1480SOL    HW116073   4.510   0.240   4.900  0.5843 -3.3088 -0.8994
 1480SOL    HW216074   4.372   0.285   4.918  0.4357  1.4092  0.5826
 1481SOL     OW16075   4.685   3.040   9.955  0.3068 -0.4478 -1.0823
 1481SOL    HW116076   4.595   3.055   9.927 -0.2897 -0.4997  0.8188
 1481SOL    HW216077   4.725   3.128   9.954 -1.0509  0.1654 -2.6046
 1482SOL     OW16078   2.744   3.610   4.012 -0.1608 -0.1207  0.2585
 1482SOL    HW116079   2.665   3.559   4.031  0.0094  0.2490  1.9447
 1482SOL    HW216080   2.701   3.695   4.023 -0.2949 -0.0288 -0.9521
 1483SOL     OW16081   0.002   0.602   8.255  0.2417  0.1283 -0.3120
 1483SOL    HW116082   4.723   0.588   8.161 -1.2412  0.0202 -0.0776
 1483SOL    HW216083   4.648   0.596   8.290 -1.0178  1.0052 -3.3469
 1484SOL     OW16084   3.329   1.541   9.936  0.1979  0.5508 -0.0032
 1484SOL    HW116085   3.260   1.541  10.003 -0.1953 -2.8627 -0.4010
 1484SOL    HW216086   3.287   1.602   9.875  0.7357  2.7460  1.8200
 1485SOL     OW16087   0.381   3.330   7.170 -0.0140 -0.0058 -0.0820
 1485SOL    HW116088   0.320   3.389   7.215  0.1360  0.6718 -0.7569
 1485SOL    HW216089   0.327   3.252   7.162 -1.1952  0.3975  4.3780
 1486SOL     OW16090   4.633   1.642  15.497 -0.7043  0.2881 -0.0400
 1486SOL    HW116091   4.578   1.567  15.520 -0.0717 -0.5149 -1.1896
 1486SOL    HW216092   4.586   1.677  15.422 -1.7423 -1.5790 -0.2799
 1487SOL     OW16093   4.085   0.254   6.536 -0.2992 -0.1901  0.2836
 1487SOL    HW116094   3.996   0.285   6.519  0.4850  1.0998 -1.5068
 1487SOL    HW216095   4.065   0.177   6.588  1.5022 -1.3867 -0.8128
 1488SOL     OW16096   4.198   0.389   4.863  0.5902 -0.2713  0.4772
 1488SOL    HW116097   4.211   0.413   4.771  1.5902 -0.1680  0.6468
 1488SOL    HW216098   4.245   0.459   4.909  0.4164  1.3550 -1.8204
 1489SOL     OW16099   0.613   4.247   4.691 -0.3961  1.2945 -0.6655
 1489SOL    HW116100   0.544   4.256   4.756  1.2300  1.0720  1.1037
 1489SOL    HW216101   0.684   4.223   4.751 -1.2771 -0.5823 -0.3839
 1490SOL     OW16102   0.900   4.077   8.607  0.1661 -0.1637  0.5576
 1490SOL    HW116103   0.805   4.064   8.606  0.0039  1.0447 -0.4619
 1490SOL    HW216104   0.910   4.159   8.655 -1.9103  1.0690 -1.0840
 1491SOL     OW16105   0.533   4.603   4.675  0.2309  0.2651  0.9274
 1491SOL    HW116106   0.528   4.632   4.766 -1.0087  2.8080  0.0409
 1491SOL    HW216107   0.626   4.590   4.657  0.0822  3.0382 -1.8928
 1492SOL     OW16108   2.059   2.470   7.037  0.1773 -0.1965  0.0930
 1492SOL    HW116109   2.079   2.478   7.130 -0.2077 -1.5695  0.2990
 1492SOL    HW216110   2.144   2.482   6.995  0.4907 -2.2511  0.1257
 1493SOL     OW16111   2.514   0.603   5.090 -0.1909  0.2086  0.5266
 1493SOL    HW116112   2.445   0.558   5.041 -1.3931  2.9244 -0.2833
 1493SOL    HW216113   2.471   0.689   5.096  1.2724  0.9574  0.3247
 1494SOL     OW16114   0.723   3.637   2.291  0.4287 -0.0656  0.2415
 1494SOL    HW116115   0.696   3.672   2.375  1.6557  2.1077 -0.2912
 1494SOL    HW216116   0.648   3.578   2.278  1.8550 -1.2896 -2.6088
 1495SOL     OW16117   0.906   1.007  11.027  0.1789  0.6783 -0.4911
 1495SOL    HW116118   0.959   0.933  11.056  1.1545  2.2477  1.7376
 1495SOL    HW216119   0.861   0.963  10.954  2.0590 -1.5697 -0.3016
 1496SOL     OW16120   3.267   0.530  15.951 -0.3399 -0.4902  0.4888
 1496SOL    HW116121   3.175   0.546  15.973  0.6240  3.6433  1.4263
 1496SOL    HW216122   3.306   0.611  15.920  1.4838 -2.2001 -1.6919
 1497SOL     OW16123   0.653   1.269  11.452 -0.2841 -0.2927 -0.4109
 1497SOL    HW116124   0.625   1.255  11.362  1.4037  0.9189 -1.1137
 1497SOL    HW216125   0.611   1.194  11.495 -0.8227 -1.4734 -3.0039
 1498SOL     OW16126   0.315   0.510  12.117  0.2569 -0.4761 -0.0266
 1498SOL    HW116127   0.241   0.508  12.057  0.2531 -2.3856  0.0490
 1498SOL    HW216128   0.382   0.561  12.071  0.2929 -2.7448 -2.4738
 1499SOL     OW16129   1.359   1.017  13.147  0.1403 -0.5676  0.2436
 1499SOL    HW116130   1.333   0.930  13.116  1.5634 -0.4126 -1.3302
 1499SOL    HW216131   1.425   1.041  13.082  1.3130  1.3035  2.0932
 1500SOL     OW16132   2.881   2.127   4.041  0.3471 -0.3712  0.1309
 1500SOL    HW116133   2.957   2.150   3.988 -0.8211 -2.2018 -2.3996
 1500SOL    HW216134   2.925   2.101   4.121 -1.6131 -0.8530  1.0613
 1501SOL     OW16135   1.476   4.276  15.915  0.1148  0.4742  0.5445
 1501SOL    HW116136   1.496   4.183  15.926 -3.3161 -0.4426 -0.9193
 1501SOL    HW216137   1.564   4.307  15.895 -0.5574  0.9187 -1.7827
 1502SOL     OW16138   1.004   3.527  16.150 -0.3772 -0.2704 -0.5584
 1502SOL    HW116139   0.995   3.458  16.084 -0.4013 -0.3434 -0.4800
 1502SOL    HW216140   1.050   3.592  16.098 -1.0690 -0.5596 -1.5249
 1503SOL     OW16141   3.016   2.847  15.739  0.4331  0.0500 -0.8085
 1503SOL    HW116142   2.955   2.914  15.707  0.0830  0.6899  1.2521
 1503SOL    HW216143   3.083   2.849  15.670  0.4465 -0.0596 -0.7992
 1504SOL     OW16144   2.159   3.902   6.913  0.0545 -0.1487  0.5977
 1504SOL    HW116145   2.179   3.900   7.006 -0.7092  0.9578  0.7801
 1504SOL    HW216146   2.147   3.808   6.898 -1.3075  0.1949 -0.4540
 1505SOL     OW16147   1.599   2.178   4.304 -0.1538 -0.6351  0.5897
 1505SOL    HW116148   1.590   2.141   4.216  0.2323  0.5933  0.0305
 1505SOL    HW216149   1.604   2.101   4.361  0.8839 -0.6110  0.5350
 1506SOL     OW16150   3.068   1.794   2.042 -0.3087 -0.4562  0.6137
 1506SOL    HW116151   2.980   1.801   2.081  0.4457  1.3411  1.9886
 1506SOL    HW216152   3.117   1.763   2.117 -0.6796 -0.9840  0.6355
 1507SOL     OW16153   1.325   1.064   6.433 -0.6467 -0.0530 -0.1939
 1507SOL    HW116154   1.234   1.037   6.443 -0.8375  0.1121 -1.4511
 1507SOL    HW216155   1.362   1.013   6.506 -0.4498  1.3683  0.6908
 1508SOL     OW16156   1.655   3.607   6.189  0.2598  0.3457  0.5648
 1508SOL    HW116157   1.661   3.511   6.188 -0.2092  0.3254 -1.2920
 1508SOL    HW216158   1.733   3.623   6.136 -0.9245  0.3294 -1.1924
 1509SOL     OW16159   4.353   2.349  17.598  0.0921 -0.8396 -0.4785
 1509SOL    HW116160   4.440   2.354  17.558 -0.9402 -0.6063 -2.6828
 1509SOL    HW216161   4.340   2.263  17.638  1.4848  0.1023  2.0522
 1510SOL     OW16162   1.048   3.741   5.718  0.4223  0.2704  0.5704
 1510SOL    HW116163   1.076   3.683   5.789 -2.1319  1.0075  2.1984
 1510SOL    HW216164   0.971   3.693   5.689 -0.3784  0.4992  2.2981
 1511SOL     OW16165   4.208   0.874   6.848  0.0396  0.0390  0.2949
 1511SOL    HW116166   4.165   0.826   6.919  0.2109 -1.7639 -0.8063
 1511SOL    HW216167   4.243   0.798   6.801  0.7910  0.6266 -0.0912
 1512SOL     OW16168   3.673   4.710  14.649  0.0221 -0.0415  0.4262
 1512SOL    HW116169   3.704   0.049  14.598 -0.4508  0.7410  1.2631
 1512SOL    HW216170   3.656   4.645  14.581  1.2160  0.7570 -0.6442
 1513SOL     OW16171   2.925   3.245  17.566  0.2661 -0.4211  0.3622
 1513SOL    HW116172   3.010   3.213  17.597  0.2061 -2.4522 -1.5856
 1513SOL    HW216173   2.949   3.310  17.500 -0.2479  0.8307  1.3983
 1514SOL     OW16174   4.171   4.504   5.866 -1.0889  0.1363  0.2919
 1514SOL    HW116175   4.221   4.586   5.861  0.3494 -0.9472 -2.9681
 1514SOL    HW216176   4.098   4.513   5.927  0.3188  1.9583  1.7175
 1515SOL     OW16177   1.997   4.229   5.029 -0.6933  0.6386 -0.3348
 1515SOL    HW116178   2.025   4.307   4.982 -1.1233  0.2360 -1.2618
 1515SOL    HW216179   2.071   4.211   5.087  0.4796  1.1531 -1.6507
 1516SOL     OW16180   1.293   2.865   8.926 -0.2515  0.7983  0.0697
 1516SOL    HW116181   1.283   2.779   8.886  0.6464  0.8157 -0.1839
 1516SOL    HW216182   1.315   2.922   8.852  0.8993 -0.4931 -0.5631
 1517SOL     OW16183   1.449   2.541   7.498 -0.3820 -0.0403  0.0065
 1517SOL    HW116184   1.419   2.458   7.460 -1.2374  0.2669  0.0216
 1517SOL    HW216185   1.377   2.593   7.464 -0.4607 -0.3182 -0.2585
 1518SOL     OW16186   0.641   3.647  17.104  0.0505 -0.2065  0.3805
 1518SOL    HW116187   0.583   3.659  17.028 -1.3132  0.9166  1.6120
 1518SOL    HW216188   0.598   3.567  17.133  1.9964 -0.9139  1.3163
 1519SOL     OW16189   3.695   1.077   1.440  0.6784  0.5356 -0.1893
 1519SOL    HW116190   3.656   1.040   1.519 -1.6100 -3.3898 -3.1847
 1519SOL    HW216191   3.636   1.150   1.423  0.6242  1.4657  3.8907
 1520SOL     OW16192   1.286   4.203   4.346 -0.1966  0.0838 -0.1412
 1520SOL    HW116193   1.256   4.218   4.256 -1.9774 -1.1203  0.2505
 1520SOL    HW216194   1.376   4.211   4.316 -0.1510 -0.3889 -0.1304
 1521SOL     OW16195   1.752   0.015   4.849 -0.4513 -0.1778  0.8479
 1521SOL    HW116196   1.788   0.073   4.916 -1.6496 -0.2327  1.5261
 1521SOL    HW216197   1.674   0.064   4.824 -0.7814 -0.9333  0.4073
 1522SOL     OW16198   3.536   3.628   3.091 -0.5027  0.1638 -0.4724
 1522SOL    HW116199   3.618   3.675   3.080 -0.4093  0.1909  0.2996
 1522SOL    HW216200   3.501   3.669   3.170 -1.4505 -1.3488 -0.0939
 1523SOL     OW16201   0.119   1.799   4.247  0.5460  0.1289  0.6767
 1523SOL    HW116202   0.052   1.866   4.234  0.8363 -0.0533 -1.7559
 1523SOL    HW216203   0.115   1.784   4.342 -3.7355 -0.3900  0.3874
 1524SOL     OW16204   3.779   0.181   3.292 -0.0357  0.0093  0.0646
 1524SOL    HW116205   3.726   0.258   3.313 -1.4851 -1.2113  0.8761
 1524SOL    HW216206   3.837   0.186   3.368 -0.6044 -0.6848  0.5372
 1525SOL     OW16207   0.197   3.163   7.817 -0.7828  0.7763  0.0925
 1525SOL    HW116208   0.260   3.170   7.746  0.4049 -1.9049  0.8707
 1525SOL    HW216209   0.244   3.098   7.869  1.1218  2.4780  0.4844
 1526SOL     OW16210   3.304   0.069   8.880 -0.2086  0.0790  0.3195
 1526SOL    HW116211   3.261   4.720   8.889  1.8338 -0.9756  0.1704
 1526SOL    HW216212   3.233   0.133   8.867  0.2765  0.2305 -1.5494
 1527SOL     OW16213   3.615   3.499  15.699 -0.1482  0.1539 -0.6496
 1527SOL    HW116214   3.548   3.547  15.650 -0.2506  0.6741  0.0073
 1527SOL    HW216215   3.684   3.564  15.699 -0.1509  0.1547  0.1668
 1528SOL     OW16216   3.105   3.973  15.570 -0.7820 -1.0067  0.1712
 1528SOL    HW116217   3.085   4.063  15.544  1.2699 -0.2234  1.3005
 1528SOL    HW216218   3.194   3.955  15.540 -0.4487 -0.9005  1.0920
 1529SOL     OW16219   3.933   3.758  11.720 -0.5042  0.2423  0.4129
 1529SOL    HW116220   3.890   3.688  11.672 -3.0172  1.3392  1.0426
 1529SOL    HW216221   4.010   3.707  11.745  0.1923  0.1584 -1.9962
 1530SOL     OW16222   1.417   4.523   6.873 -0.1695 -0.5111  0.1245
 1530SOL    HW116223   1.511   4.509   6.860 -0.1039  1.5498 -1.6453
 1530SOL    HW216224   1.391   4.454   6.933  1.8352  1.9341  3.7998
 1531SOL     OW16225   4.594   1.093   2.053 -0.1540 -0.3862 -0.4032
 1531SOL    HW116226   4.675   1.063   2.013 -0.2393 -0.1782 -0.7311
 1531SOL    HW216227   4.604   1.188   2.047  1.1294 -0.4713  0.3068
 1532SOL     OW16228   0.955   4.597   4.221 -0.5655  0.5973  0.2328
 1532SOL    HW116229   0.944   4.548   4.302  1.1875  1.6637  1.1173
 1532SOL    HW216230   1.031   4.554   4.180 -0.5144  0.1909  0.7563
 1533SOL     OW16231   1.143   4.400   9.061  0.2128  0.3973 -0.0275
 1533SOL    HW116232   1.059   4.396   9.106 -0.1456  1.0381 -0.6320
 1533SOL    HW216233   1.177   4.485   9.090  2.1336  0.3917 -2.1815
 1534SOL     OW16234   3.634   2.297   0.086 -0.2452 -0.0858  0.5584
 1534SOL    HW116235   3.582   2.230   0.131  1.8296 -1.1360  1.3942
 1534SOL    HW216236   3.645   2.259  17.739 -0.1211  0.3384  0.3928
 1535SOL     OW16237   1.627   3.938   5.978  0.0637 -0.1332  0.6290
 1535SOL    HW116238   1.673   3.855   5.971  0.2549 -0.2073  2.6192
 1535SOL    HW216239   1.535   3.925   5.955  0.2450  0.3347 -0.3415
 1536SOL     OW16240   1.941   1.541   3.915 -0.3291 -0.4783  0.3696
 1536SOL    HW116241   1.887   1.485   3.970 -1.3415  0.2135  0.0926
 1536SOL    HW216242   1.886   1.564   3.840  1.3778  0.5164 -0.5743
 1537SOL     OW16243   4.032   3.176   0.205  0.6277  0.2435 -0.0910
 1537SOL    HW116244   4.088   3.105   0.237  0.2462 -0.3886 -0.8381
 1537SOL    HW216245   4.004   3.222   0.285  0.1497  0.6405 -0.4866
 1538SOL     OW16246   2.209   2.989   9.106  0.7691 -0.1441  0.3717
 1538SOL    HW116247   2.261   3.024   9.034 -1.0764 -0.2863 -1.0283
 1538SOL    HW216248   2.155   2.922   9.064 -1.1291  1.2226  0.6675
 1539SOL     OW16249   3.874   0.667   5.829  0.0328  0.9711 -0.1958
 1539SOL    HW116250   3.810   0.659   5.900  0.4781 -1.1012 -0.0077
 1539SOL    HW216251   3.903   0.758   5.820 -0.6184  1.0593 -1.4448
 1540SOL     OW16252   2.990   2.805   5.511 -0.2766 -0.6786  0.5420
 1540SOL    HW116253   3.017   2.816   5.419 -0.0519  0.9927  0.8088
 1540SOL    HW216254   3.072   2.803   5.561 -0.7234  1.1217  1.3577
 1541SOL     OW16255   0.365   2.793   3.321 -0.3942 -0.0423 -0.0157
 1541SOL    HW116256   0.348   2.725   3.387 -0.6516  1.1741  1.1914
 1541SOL    HW216257   0.276   2.825   3.308 -1.3097 -1.5910  2.3996
 1542SOL     OW16258   1.641   3.889  10.069  0.0320 -0.2119  0.1873
 1542SOL    HW116259   1.723   3.933  10.090 -0.3193  0.4361  0.2048
 1542SOL    HW216260   1.599   3.944  10.003 -0.1881  0.0547  0.5451
 1543SOL     OW16261   3.069   3.170   8.683 -0.1895  0.3845 -0.9613
 1543SOL    HW116262   3.124   3.123   8.746 -2.5628  0.2127  0.9696
 1543SOL    HW216263   3.080   3.259   8.717 -2.8239 -0.7366  2.7607
 1544SOL     OW16264   1.090   4.594  16.849 -0.0239 -0.0942  0.2699
 1544SOL    HW116265   1.060   4.528  16.911  2.1866  1.4076  2.9488
 1544SOL    HW216266   1.013   4.652  16.852  1.1497  1.4100  1.3681
 1545SOL     OW16267   0.124   4.130   3.840 -0.2576 -0.3695  0.0073
 1545SOL    HW116268   0.086   4.120   3.927  1.8651 -0.5459  0.9157
 1545SOL    HW216269   0.080   4.212   3.815 -1.9721 -1.8073 -1.6668
 1546SOL     OW16270   0.081   1.528   5.861 -0.6423 -0.2882 -0.0731
 1546SOL    HW116271   0.047   1.460   5.803  0.5427 -0.3935 -0.6314
 1546SOL    HW216272   0.033   1.508   5.942  2.8533  0.0054  2.0618
 1547SOL     OW16273   1.437   2.441  12.788  0.5090  0.8292 -0.0876
 1547SOL    HW116274   1.485   2.363  12.759  0.0355  1.1066 -1.6332
 1547SOL    HW216275   1.503   2.475  12.847  1.5932  0.9013 -1.3423
 1548SOL     OW16276   1.216   2.668   5.379 -0.3911  0.5658  0.3633
 1548SOL    HW116277   1.239   2.613   5.304 -2.9997 -0.6395  0.4678
 1548SOL    HW216278   1.303   2.688   5.415 -0.6326  5.0002 -1.5654
 1549SOL     OW16279   0.883   1.043   1.661 -0.9777 -0.2454 -0.3071
 1549SOL    HW116280   0.868   1.124   1.611 -0.0416 -0.9774 -1.7908
 1549SOL    HW216281   0.933   0.993   1.596 -1.1662 -2.3759  1.1977
 1550SOL     OW16282   1.060   3.495   9.447 -0.1360  0.0874  0.1800
 1550SOL    HW116283   1.099   3.416   9.411  0.0695  0.4040 -0.2906
 1550SOL    HW216284   1.119   3.508   9.521 -1.4985 -1.8409  1.6036
 1551SOL     OW16285   1.115   4.080   6.134  0.4885 -0.1363 -0.1351
 1551SOL    HW116286   1.093   4.040   6.050 -0.9379 -1.2618  0.7775
 1551SOL    HW216287   1.038   4.132   6.159  0.3113 -0.4099 -0.1092
 1552SOL     OW16288   4.315   0.416  11.031 -0.3893  0.1937 -0.9958
 1552SOL    HW116289   4.307   0.476  10.956 -0.9898  2.2452  0.6898
 1552SOL    HW216290   4.257   0.455  11.096  1.9654  0.8205  0.7293
 1553SOL     OW16291   3.008   0.597   6.749  0.0694  0.3701 -0.3402
 1553SOL    HW116292   3.030   0.595   6.843  0.0059 -1.8533 -0.3739
 1553SOL    HW216293   2.914   0.616   6.746  0.1976  1.3530  1.7233
 1554SOL     OW16294   2.257   0.976   4.429  0.3192 -0.3760  0.5223
 1554SOL    HW116295   2.253   1.070   4.447  1.2873 -0.6223  1.9559
 1554SOL    HW216296   2.252   0.935   4.516 -2.0221 -1.6378 -0.1997
 1555SOL     OW16297   1.556   2.219  12.461  0.3401  0.2449  0.1506
 1555SOL    HW116298   1.533   2.152  12.397  0.3083 -0.7003  1.1403
 1555SOL    HW216299   1.490   2.189  12.525 -1.5118  1.0775 -1.3700
 1556SOL     OW16300   0.807   4.484   4.949 -0.0245 -0.5208  0.1805
 1556SOL    HW116301   0.789   4.397   4.913 -0.7690  0.8087 -2.7220
 1556SOL    HW216302   0.717   4.517   4.955  0.5268  1.4246 -1.9837
 1557SOL     OW16303   2.565   0.831  11.088  0.1281 -0.2064  0.2977
 1557SOL    HW116304   2.540   0.810  11.178  1.4460 -0.1295  0.6900
 1557SOL    HW216305   2.659   0.852  11.084  0.1447 -0.0356  1.5794
 1558SOL     OW16306   3.711   2.541   4.481  0.6604  0.1470 -0.4521
 1558SOL    HW116307   3.654   2.464   4.491  0.1969  0.5355 -0.1031
 1558SOL    HW216308   3.754   2.516   4.399  0.6381  0.5650 -0.5914
 1559SOL     OW16309   2.331   2.061   9.160 -0.1788  0.3174  0.0696
 1559SOL    HW116310   2.283   1.991   9.204 -1.7572  0.4291 -1.5121
 1559SOL    HW216311   2.339   2.120   9.235  1.3322  3.5582 -2.6187
 1560SOL     OW16312   2.960   3.912   4.457 -0.0673 -0.2509 -0.0582
 1560SOL    HW116313   2.870   3.884   4.471 -0.0710 -1.0970 -1.7839
 1560SOL    HW216314   2.999   3.832   4.421 -2.4507 -1.5394  0.2492
 1561SOL     OW16315   3.830   0.068   6.452  0.1251 -0.8999 -0.9274
 1561SOL    HW116316   3.863   0.098   6.367 -0.4173 -2.2245 -1.6026
 1561SOL    HW216317   3.911   0.036   6.492  1.7562  0.6788 -2.9184
 1562SOL     OW16318   4.274   2.681  14.047 -0.4610 -0.4185  0.3889
 1562SOL    HW116319   4.217   2.751  14.014 -1.3436 -0.4151  1.9474
 1562SOL    HW216320   4.215   2.606  14.035 -1.0842  0.3408 -1.4248
 1563SOL     OW16321   1.285   0.818   7.082 -0.3335 -0.2867  0.3883
 1563SOL    HW116322   1.330   0.750   7.032 -0.6855 -0.4752  0.3271
 1563SOL    HW216323   1.255   0.788   7.168 -0.5521 -2.4916 -0.4817
 1564SOL     OW16324   0.517   1.118   1.626  0.2527 -0.3922 -0.1751
 1564SOL    HW116325   0.439   1.100   1.574  0.0046  0.5473 -0.1214
 1564SOL    HW216326   0.548   1.032   1.654 -2.8202 -0.8981  1.7029
 1565SOL     OW16327   4.411   1.668   6.857  0.3464  0.4910 -0.1421
 1565SOL    HW116328   4.482   1.613   6.822 -1.2892 -2.9471  1.8658
 1565SOL    HW216329   4.429   1.761   6.843  4.4155 -0.3640 -0.6530
 1566SOL     OW16330   2.623   1.906   7.451 -0.6934 -0.3983 -0.2768
 1566SOL    HW116331   2.652   1.839   7.390  0.4058  2.1026 -2.4790
 1566SOL    HW216332   2.563   1.951   7.391  0.7258  2.3555  0.3865
 1567SOL     OW16333   1.503   3.408   7.573  0.2923  0.3554  0.3784
 1567SOL    HW116334   1.492   3.313   7.583  0.6838  0.1332 -1.2040
 1567SOL    HW216335   1.424   3.445   7.611 -0.6682  0.4841 -1.7302
 1568SOL     OW16336   3.564   3.429   4.226 -0.2952  0.0773 -0.4247
 1568SOL    HW116337   3.549   3.423   4.131  0.8092 -2.0754 -0.4489
 1568SOL    HW216338   3.522   3.514   4.242 -0.5065  0.0189 -0.6496
 1569SOL     OW16339   2.692   2.465  17.433 -0.9055 -0.4573  0.3274
 1569SOL    HW116340   2.731   2.532  17.376  0.4946  0.9124  2.9256
 1569SOL    HW216341   2.607   2.509  17.443 -0.0332  1.3675 -0.2890
 1570SOL     OW16342   3.922   2.092   3.964 -0.5763 -0.0297  0.4200
 1570SOL    HW116343   3.899   2.138   3.883 -0.6663 -0.1504  0.3771
 1570SOL    HW216344   4.018   2.094   3.959 -0.6375  1.0148 -0.1517
 1571SOL     OW16345   3.314   3.799  15.352  0.1900 -0.2756  0.2354
 1571SOL    HW116346   3.242   3.768  15.297  0.1202  1.3845 -0.6008
 1571SOL    HW216347   3.368   3.812  15.274  1.1187  0.8619  1.0726
 1572SOL     OW16348   4.199   2.387   9.029  0.2473  0.2726  0.2537
 1572SOL    HW116349   4.157   2.471   9.009 -0.2405 -0.1926 -0.7060
 1572SOL    HW216350   4.220   2.390   9.122  3.1916 -0.9631 -0.3895
 1573SOL     OW16351   1.710   4.220   2.350 -0.7836  0.4335  0.3108
 1573SOL    HW116352   1.669   4.149   2.300 -0.0305 -1.0939  1.8703
 1573SOL    HW216353   1.646   4.286   2.324 -1.4636 -0.0594  0.7265
 1574SOL     OW16354   3.245   1.272   5.270  0.1842 -0.6897 -0.6861
 1574SOL    HW116355   3.220   1.198   5.325 -2.7837  0.4368 -0.5554
 1574SOL    HW216356   3.174   1.332   5.293 -0.2015 -1.1598 -0.6460
 1575SOL     OW16357   1.412   3.381   4.707  0.2019 -0.4012 -0.2059
 1575SOL    HW116358   1.482   3.417   4.761 -0.3952  1.0437 -0.4144
 1575SOL    HW216359   1.427   3.287   4.722  1.0974 -0.4325 -1.3422
 1576SOL     OW16360   0.083   3.331   5.273 -0.1196 -0.3131  0.2008
 1576SOL    HW116361   0.163   3.295   5.309  1.0498  0.4092 -1.6593
 1576SOL    HW216362   0.037   3.357   5.353  0.0166  0.7831 -0.0699
 1577SOL     OW16363   1.942   1.198   3.708 -0.1393  0.1567  0.3971
 1577SOL    HW116364   1.938   1.286   3.671  0.5891 -0.8133 -1.9913
 1577SOL    HW216365   1.858   1.192   3.754 -0.1435  2.9220  0.7451
 1578SOL     OW16366   4.265   3.901   7.586  0.1256  0.2262 -0.3345
 1578SOL    HW116367   4.244   3.865   7.499  1.3902 -1.4090  0.0448
 1578SOL    HW216368   4.302   3.988   7.573 -2.0875  1.3210  0.7264
 1579SOL     OW16369   0.222   3.330  10.716 -0.1643  0.6803 -0.2178
 1579SOL    HW116370   0.224   3.370  10.803 -0.4742 -2.0764  1.0719
 1579SOL    HW216371   0.316   3.328  10.695 -0.0880  0.5591  0.1367
 1580SOL     OW16372   1.058   2.221  12.056  0.4854  0.4021 -0.0270
 1580SOL    HW116373   1.055   2.175  11.972 -2.8656 -1.5670  1.1454
 1580SOL    HW216374   0.964   2.216  12.077  0.9372 -0.2257  1.7870
 1581SOL     OW16375   2.860   2.992   3.848 -0.3648 -0.6044  0.7470
 1581SOL    HW116376   2.852   3.084   3.871  0.0091 -1.0663  2.7318
 1581SOL    HW216377   2.897   2.996   3.759  1.8089 -1.7439  1.5909
 1582SOL     OW16378   2.922   0.236   7.098  0.0751 -0.2987 -0.0358
 1582SOL    HW116379   3.009   0.270   7.074 -0.0451 -0.9617 -1.4338
 1582SOL    HW216380   2.945   0.173   7.166  0.5182  0.0722  0.1594
 1583SOL     OW16381   2.185   3.049   3.629  0.1836  0.3565 -0.2262
 1583SOL    HW116382   2.201   2.963   3.668  1.3771 -0.1485 -1.8377
 1583SOL    HW216383   2.211   3.022   3.541 -0.8302  1.5981 -0.9031
 1584SOL     OW16384   0.743   0.424   8.983 -0.3537  0.2313  0.3760
 1584SOL    HW116385   0.834   0.418   8.954 -0.2741 -0.2039  0.7154
 1584SOL    HW216386   0.705   0.342   8.949 -0.3036  0.0397  0.7794
 1585SOL     OW16387   0.886   3.591  15.389 -0.1540 -0.0991 -0.0543
 1585SOL    HW116388   0.874   3.684  15.405  1.4122  0.4205 -1.9278
 1585SOL    HW216389   0.971   3.595  15.346 -1.2079  1.7475 -1.9333
 1586SOL     OW16390   4.181   2.628  13.384 -0.2095 -0.4095  0.4718
 1586SOL    HW116391   4.097   2.665  13.410 -0.6833 -0.2283 -1.2736
 1586SOL    HW216392   4.245   2.682  13.430 -1.3193  0.0331  1.4732
 1587SOL     OW16393   1.016   2.537  10.001  0.1391  0.3507 -0.4400
 1587SOL    HW116394   1.050   2.503  10.084  0.2542 -0.6429 -0.8964
 1587SOL    HW216395   0.926   2.508  10.014  0.4750  0.4115  2.0729
 1588SOL     OW16396   1.499   0.502   3.954  0.7982 -0.3022  0.3271
 1588SOL    HW116397   1.541   0.544   4.029 -0.4398 -0.3316  1.0392
 1588SOL    HW216398   1.427   0.458   3.998 -0.4288  0.9247 -0.4485
 1589SOL     OW16399   0.097   1.887  16.253  0.1073 -0.2715 -0.0976
 1589SOL    HW116400   0.103   1.951  16.182  1.0847 -2.0928 -1.6709
 1589SOL    HW216401   0.181   1.907  16.294  0.4512 -1.6478 -0.1340
 1590SOL     OW16402   0.335   3.505   5.239  0.2794 -0.0515 -0.1215
 1590SOL    HW116403   0.324   3.410   5.241 -2.2843  0.2471 -1.0576
 1590SOL    HW216404   0.393   3.506   5.316 -1.0751  0.1311  0.8897
 1591SOL     OW16405   2.136   4.067   3.833  0.0780 -0.0628  0.1783
 1591SOL    HW116406   2.104   3.986   3.793  1.8776 -1.4811  1.5919
 1591SOL    HW216407   2.090   4.133   3.782  1.9864  2.5444  1.8311
 1592SOL     OW16408   0.943   1.591   5.631 -0.0316 -0.2797 -0.2892
 1592SOL    HW116409   1.002   1.652   5.588  1.7133 -1.2869  0.6462
 1592SOL    HW216410   0.867   1.646   5.653  1.3626  1.5792 -0.1620
 1593SOL     OW16411   3.020   0.665   2.086 -0.5502  0.2674 -0.0673
 1593SOL    HW116412   2.983   0.695   2.169 -1.4282 -2.4173  0.5179
 1593SOL    HW216413   3.088   0.728   2.060 -2.3769  2.2255 -0.0834
 1594SOL     OW16414   2.759   4.550   8.081  0.3266  0.9302  0.2023
 1594SOL    HW116415   2.778   4.503   8.162 -0.0429 -1.2538 -0.9868
 1594SOL    HW216416   2.664   4.562   8.083  0.1764  0.0071 -1.5414
 1595SOL     OW16417   3.404   3.045   2.808 -0.2598 -0.1036  0.2268
 1595SOL    HW116418   3.369   3.123   2.851  0.6676  0.4199  0.0468
 1595SOL    HW216419   3.486   3.083   2.775 -0.4148 -1.1078 -1.2620
 1596SOL     OW16420   2.396   4.336   3.274  0.5618  0.4972  0.0686
 1596SOL    HW116421   2.325   4.294   3.226  0.8077  1.4608 -1.1500
 1596SOL    HW216422   2.469   4.282   3.243  0.1781 -0.7062  1.2705
 1597SOL     OW16423   1.181   4.716  15.964  0.0243 -0.3040 -0.2392
 1597SOL    HW116424   1.268   4.683  15.940 -0.1529  1.4579 -3.2207
 1597SOL    HW216425   1.116   4.649  15.940 -0.5118  0.5558 -1.1766
 1598SOL     OW16426   2.351   3.792   2.075 -0.4072 -0.0267  0.4368
 1598SOL    HW116427   2.296   3.721   2.108  0.3976 -1.1364 -0.6341
 1598SOL    HW216428   2.292   3.867   2.090  0.2307  0.4918  0.3632
 1599SOL     OW16429   3.218   0.869  12.632  0.2261  0.2390 -0.1946
 1599SOL    HW116430   3.288   0.805  12.642 -0.4156 -0.3365  0.6382
 1599SOL    HW216431   3.200   0.892  12.724 -0.6348 -0.8155 -0.0959
 1600SOL     OW16432   1.266   2.078   8.873 -0.0078 -0.3197 -0.1123
 1600SOL    HW116433   1.291   2.071   8.965  0.4864  0.9433 -0.1486
 1600SOL    HW216434   1.262   1.985   8.853  1.6281 -0.8716  2.1084
 1601SOL     OW16435   3.745   2.419  16.456  0.7354  0.4171 -0.4926
 1601SOL    HW116436   3.713   2.335  16.423  2.3336 -0.5330  0.3621
 1601SOL    HW216437   3.785   2.390  16.537  0.4674 -1.1097 -0.8994
 1602SOL     OW16438   0.493   3.368   5.027 -0.3778 -0.1417 -0.1631
 1602SOL    HW116439   0.433   3.397   5.095 -1.6718  0.1664 -1.4215
 1602SOL    HW216440   0.581   3.374   5.063 -0.2932 -1.5924 -0.1288
 1603SOL     OW16441   1.231   1.194  11.207  0.3886  0.4533 -0.5396
 1603SOL    HW116442   1.193   1.281  11.200 -0.4352 -0.0514 -2.3314
 1603SOL    HW216443   1.308   1.205  11.262 -0.4695 -1.2153  0.9742
 1604SOL     OW16444   3.240   0.529  10.063  0.8418 -0.1315  0.3532
 1604SOL    HW116445   3.248   0.497  10.153 -1.1398 -0.4840  0.4019
 1604SOL    HW216446   3.292   0.610  10.071 -0.7996  1.1873 -2.4726
 1605SOL     OW16447   2.871   3.130   5.440 -0.2055  0.1434  0.2310
 1605SOL    HW116448   2.950   3.132   5.387  0.2164  0.7968  0.9011
 1605SOL    HW216449   2.812   3.077   5.386 -0.0487  0.4600 -0.2524
 1606SOL     OW16450   0.417   1.437  10.955  0.0082  0.5157 -0.3327
 1606SOL    HW116451   0.386   1.525  10.974  1.4632  1.3235 -1.7346
 1606SOL    HW216452   0.454   1.411  11.039  0.0184 -2.9609 -1.4086
 1607SOL     OW16453   0.137   2.438   2.519 -0.0985 -0.5199 -0.3508
 1607SOL    HW116454   0.090   2.356   2.534  0.5693 -0.7928  0.2756
 1607SOL    HW216455   0.177   2.428   2.433 -2.6015 -2.3128 -1.2996
 1608SOL     OW16456   4.569   2.335   2.639  0.4519 -0.0575 -0.4996
 1608SOL    HW116457   4.522   2.418   2.636 -0.6908 -0.6910 -0.3407
 1608SOL    HW216458   4.533   2.282   2.568 -1.1618 -0.6126  0.7168
 1609SOL     OW16459   1.829   4.639   3.381 -0.5878 -0.6293 -0.3738
 1609SOL    HW116460   1.828   4.726   3.422  0.5223  0.9402 -3.6659
 1609SOL    HW216461   1.737   4.629   3.355  0.2985  1.0964 -4.2018
 1610SOL     OW16462   0.511   4.638  16.538  0.1766  0.4243  0.5774
 1610SOL    HW116463   0.440   4.683  16.493  0.0624 -0.4833 -0.1350
 1610SOL    HW216464   0.584   4.678  16.491  1.1228 -0.9730  0.8750
 1611SOL     OW16465   3.462   1.881   0.185 -0.2292 -0.4149 -0.3311
 1611SOL    HW116466   3.384   1.845   0.142  2.2263 -1.0596 -4.2018
 1611SOL    HW216467   3.476   1.817   0.255 -1.0889 -0.3751 -0.1193
 1612SOL     OW16468   0.391   3.140  12.958 -0.6329  0.0067  0.0189
 1612SOL    HW116469   0.395   3.164  12.865 -0.8862 -1.7036 -0.4427
 1612SOL    HW216470   0.298   3.155  12.972 -0.1126  1.5160  1.7781
 1613SOL     OW16471   3.353   0.283   7.634 -0.1080  0.1587 -0.2602
 1613SOL    HW116472   3.418   0.319   7.693  1.0567 -0.3085 -1.2678
 1613SOL    HW216473   3.365   0.188   7.643 -1.6402 -0.1238 -1.1306
 1614SOL     OW16474   1.674   2.771   6.094 -0.6092 -0.0031  0.1563
 1614SOL    HW116475   1.617   2.785   6.018  0.8457 -1.2228 -1.1368
 1614SOL    HW216476   1.744   2.832   6.071 -0.0022 -0.7517  0.0499
 1615SOL     OW16477   3.947   2.477   4.954 -0.3092  0.5478  0.5042
 1615SOL    HW116478   3.906   2.391   4.957  1.8917 -0.4934  0.1175
 1615SOL    HW216479   4.028   2.466   5.004  0.3872  1.3517 -0.4515
 1616SOL     OW16480   2.385   0.648  15.707  0.0143  0.5088  0.7354
 1616SOL    HW116481   2.404   0.608  15.622  0.3084  2.2084 -0.0069
 1616SOL    HW216482   2.358   0.734  15.675 -1.1390 -0.5639 -1.1320
 1617SOL     OW16483   2.189   2.050  15.911 -0.5723  0.0761 -0.0985
 1617SOL    HW116484   2.250   2.035  15.984 -1.1428  2.3634  0.8542
 1617SOL    HW216485   2.167   2.141  15.932  0.2675 -0.5269  3.3798
 1618SOL     OW16486   4.163   1.637   4.853  0.4780  0.5308 -0.2170
 1618SOL    HW116487   4.105   1.625   4.928  1.0993 -0.7203  0.0526
 1618SOL    HW216488   4.101   1.639   4.780  0.7340 -0.6660 -0.4603
 1619SOL     OW16489   0.777   1.478   9.131  0.0106 -0.1750  0.4793
 1619SOL    HW116490   0.685   1.487   9.104 -0.2202  1.0762  1.7006
 1619SOL    HW216491   0.764   1.542   9.200 -0.5118 -0.4168  0.6081
 1620SOL     OW16492   0.901   4.571   9.099 -0.8098 -0.0730 -0.0036
 1620SOL    HW116493   0.832   4.625   9.136  0.6059  2.7258 -1.4685
 1620SOL    HW216494   0.965   4.637   9.072  1.0430 -2.6671 -1.9908
 1621SOL     OW16495   2.339   1.019   2.622  0.3890  0.4412  0.0197
 1621SOL    HW116496   2.323   1.071   2.543  0.0141  0.3869  0.0591
 1621SOL    HW216497   2.250   1.021   2.657  0.5457  0.3052  0.4348
 1622SOL     OW16498   1.286   1.208   1.551  0.1086 -0.2597  0.0222
 1622SOL    HW116499   1.380   1.222   1.566 -0.5167  2.6919  1.3562
 1622SOL    HW216500   1.275   1.121   1.587  2.7582 -0.4588  0.3965
 1623SOL     OW16501   0.060   1.452  12.116 -0.0307 -0.3430  0.0684
 1623SOL    HW116502   0.074   1.537  12.159 -0.0042  0.1774 -0.9700
 1623SOL    HW216503   0.062   1.390  12.189  1.2314 -1.1888 -0.6837
 1624SOL     OW16504   3.941   1.900   1.778  0.1831 -0.9529 -0.2909
 1624SOL    HW116505   4.003   1.860   1.717  0.4337 -1.9021  0.5864
 1624SOL    HW216506   3.861   1.850   1.766 -0.2050 -0.3269 -0.3518
 1625SOL     OW16507   4.103   0.709   7.215  0.4701 -0.6145  0.3401
 1625SOL    HW116508   4.080   0.729   7.124  1.9958 -1.1987 -0.1818
 1625SOL    HW216509   4.084   0.616   7.210 -0.1015 -0.5087  0.5514
 1626SOL     OW16510   3.359   2.959   0.774  0.4529  0.1309  0.0532
 1626SOL    HW116511   3.306   3.014   0.716  0.6511 -0.1719 -0.4135
 1626SOL    HW216512   3.441   3.008   0.762  0.3467  0.4192  0.5241
 1627SOL     OW16513   1.087   3.720  15.998 -0.6795 -0.0802 -0.0024
 1627SOL    HW116514   1.015   3.756  15.948  0.5845  2.6029  0.1199
 1627SOL    HW216515   1.137   3.798  16.023  1.1024 -0.6878 -1.6673
 1628SOL     OW16516   3.603   3.362   0.767 -0.2025 -0.6640 -0.1363
 1628SOL    HW116517   3.684   3.408   0.746  0.0398 -1.2796 -0.5342
 1628SOL    HW216518   3.535   3.398   0.710 -1.3598 -2.9448 -0.1946
 1629SOL     OW16519   2.084   3.223   0.272  0.2103 -0.2256  0.0437
 1629SOL    HW116520   2.132   3.223   0.188 -0.2853 -1.8806 -0.2385
 1629SOL    HW216521   2.122   3.297   0.318  2.4215 -2.1798  1.3592
 1630SOL     OW16522   0.721   1.935   9.301  0.5953  0.5072 -0.0135
 1630SOL    HW116523   0.628   1.956   9.300 -0.2250 -3.0789 -0.3169
 1630SOL    HW216524   0.760   2.021   9.287  2.1150  0.1298  1.8449
 1631SOL     OW16525   4.139   1.709   6.865  0.4865 -0.4799 -0.1925
 1631SOL    HW116526   4.093   1.737   6.786  0.1081  1.4986  0.7446
 1631SOL    HW216527   4.225   1.675   6.841 -0.0420 -1.4579 -0.7486
 1632SOL     OW16528   0.168   4.318   5.868  0.2828  0.0864 -0.4821
 1632SOL    HW116529   0.225   4.394   5.855  0.3555  0.1065 -0.0491
 1632SOL    HW216530   0.230   4.268   5.921 -0.3509  0.8466  0.9462
 1633SOL     OW16531   4.341   4.362  14.020 -0.2906  1.1639  0.2567
 1633SOL    HW116532   4.352   4.329  13.931  1.1827 -3.7741  2.2611
 1633SOL    HW216533   4.293   4.296  14.070 -2.0626  0.9964 -1.6707
 1634SOL     OW16534   1.600   1.892   3.553 -0.6416  0.0548 -0.2943
 1634SOL    HW116535   1.576   1.979   3.523 -0.2758  1.0821  2.3390
 1634SOL    HW216536   1.563   1.905   3.641  1.7542  0.8867  0.5920
 1635SOL     OW16537   0.043   4.410  11.475 -0.0566  0.2280 -0.0819
 1635SOL    HW116538   0.114   4.410  11.539  0.9736 -1.9715 -1.2018
 1635SOL    HW216539   0.039   4.318  11.449 -3.2207 -0.2996  2.2722
 1636SOL     OW16540   0.751   2.451  11.617  0.4260 -0.4208 -0.0979
 1636SOL    HW116541   0.774   2.360  11.598  0.9394 -0.4050  0.4309
 1636SOL    HW216542   0.696   2.432  11.693  0.6191 -2.2200 -0.4142
 1637SOL     OW16543   2.274   2.816   1.724 -0.1157  0.0653 -0.5045
 1637SOL    HW116544   2.289   2.865   1.643 -0.7528  0.4567 -0.3903
 1637SOL    HW216545   2.344   2.844   1.783  0.5663 -0.1461 -1.2143
 1638SOL     OW16546   4.072   3.710   7.194 -0.1620 -0.2319 -0.2943
 1638SOL    HW116547   4.018   3.717   7.115  0.3687 -2.4014 -0.8644
 1638SOL    HW216548   4.156   3.742   7.159 -0.2564  0.6404  0.3019
 1639SOL     OW16549   3.072   1.023   3.729  0.5946 -0.5810  0.1392
 1639SOL    HW116550   3.015   1.100   3.737  1.9042  0.5474 -1.4399
 1639SOL    HW216551   3.038   1.001   3.816 -0.0531 -0.9915 -0.2124
 1640SOL     OW16552   2.931   1.329   8.860  0.2638 -0.1184 -0.1968
 1640SOL    HW116553   2.904   1.337   8.951  1.8282  0.4065  0.2177
 1640SOL    HW216554   3.006   1.272   8.876  0.0127 -0.3534  0.1333
 1641SOL     OW16555   1.702   2.071   3.991  0.1407 -0.3046 -0.4342
 1641SOL    HW116556   1.755   2.073   3.912 -0.8463 -2.0490 -1.1391
 1641SOL    HW216557   1.783   2.076   4.042  1.1277 -1.7330 -1.8672
 1642SOL     OW16558   1.780   2.315  13.052  0.2950  0.7048  0.2151
 1642SOL    HW116559   1.787   2.258  12.975 -0.3808  0.5192  0.2840
 1642SOL    HW216560   1.868   2.308  13.088  0.4965  0.0357 -0.3948
 1643SOL     OW16561   3.038   0.378   1.250  0.2563 -0.5391 -0.4980
 1643SOL    HW116562   3.093   0.446   1.210 -0.7993 -0.8667 -2.4840
 1643SOL    HW216563   2.963   0.372   1.192  0.3707 -1.6578 -0.5457
 1644SOL     OW16564   0.968   4.591  14.574 -0.5814  0.1361 -0.1266
 1644SOL    HW116565   0.919   4.522  14.527  0.0168  0.1274 -0.7349
 1644SOL    HW216566   1.022   4.537  14.631  0.8836  0.6319 -1.0512
 1645SOL     OW16567   1.227   2.993  14.907  0.0025 -0.3095  0.2264
 1645SOL    HW116568   1.225   2.900  14.885 -3.1222 -0.4781  1.2948
 1645SOL    HW216569   1.135   3.019  14.913  0.2001  0.3983  0.1865
 1646SOL     OW16570   0.286   0.228  14.876  0.0800  0.0023  0.5616
 1646SOL    HW116571   0.341   0.186  14.943  0.3402  1.9597  1.6020
 1646SOL    HW216572   0.242   0.292  14.932  0.1684 -0.3588  1.0502
 1647SOL     OW16573   1.639   0.676  16.958  0.3172 -0.3616 -0.4484
 1647SOL    HW116574   1.638   0.749  16.896 -0.7847  1.9258  2.2234
 1647SOL    HW216575   1.678   0.602  16.913  0.6751 -0.0759 -0.6101
 1648SOL     OW16576   3.852   1.154   6.275  0.0238  0.1501  0.1193
 1648SOL    HW116577   3.886   1.159   6.185 -0.5366 -0.4411 -0.1244
 1648SOL    HW216578   3.764   1.119   6.264 -0.7037  1.8328  0.6083
 1649SOL     OW16579   0.451   1.264   5.577 -0.2561  0.2110 -0.0890
 1649SOL    HW116580   0.470   1.187   5.523 -1.7510 -0.1936 -0.0366
 1649SOL    HW216581   0.484   1.333   5.520  1.5820 -1.8383 -1.5207
 1650SOL     OW16582   4.359   0.471   5.964  0.3189  0.0842  0.5019
 1650SOL    HW116583   4.451   0.450   5.950  0.9311  1.8061  1.8831
 1650SOL    HW216584   4.368   0.557   6.005  0.0946  0.8170 -0.9649
 1651SOL     OW16585   2.380   4.132   0.736 -0.1994  0.0599  0.4353
 1651SOL    HW116586   2.472   4.140   0.710 -0.7962  0.9162 -1.4070
 1651SOL    HW216587   2.374   4.049   0.783  0.8678 -1.5852 -2.3083
 1652SOL     OW16588   0.052   3.144  14.234  0.0138  0.4718  0.5538
 1652SOL    HW116589   4.722   3.212  14.219 -0.2293  0.0719 -0.1999
 1652SOL    HW216590   0.117   3.180  14.293 -0.5382  0.1529  1.3525
 1653SOL     OW16591   1.549   1.159  12.982 -0.8483  0.1180 -0.0240
 1653SOL    HW116592   1.637   1.195  12.991 -0.2993 -1.6625  1.5015
 1653SOL    HW216593   1.572   1.088  12.922  0.5444 -1.3476  2.2838
 1654SOL     OW16594   1.366   2.599   5.953  0.4696 -0.0687  0.1384
 1654SOL    HW116595   1.413   2.565   6.029  1.1973  0.8192  0.0870
 1654SOL    HW216596   1.415   2.561   5.880  0.0239  1.4917 -0.9947
 1655SOL     OW16597   2.421   1.044   7.671  0.0984 -0.3366 -0.2205
 1655SOL    HW116598   2.359   1.112   7.645 -1.5728 -1.2516  1.4285
 1655SOL    HW216599   2.484   1.104   7.712  0.2473  0.1428 -1.1407
 1656SOL     OW16600   0.924   3.909   7.839  0.2511 -0.6458 -0.9776
 1656SOL    HW116601   1.009   3.944   7.812  0.7321 -0.3028  0.9509
 1656SOL    HW216602   0.887   3.857   7.768  0.3470  1.0380 -2.2803
 1657SOL     OW16603   2.747   4.706  10.019 -0.4817 -0.1819  0.0327
 1657SOL    HW116604   2.730   4.733  10.110 -0.6530 -0.3928  0.0629
 1657SOL    HW216605   2.771   4.614  10.028 -4.1534 -1.4231 -3.0651
 1658SOL     OW16606   1.662   0.352   2.940  0.4386  0.0100  0.0900
 1658SOL    HW116607   1.686   0.438   2.975  1.2520 -0.5486  0.9192
 1658SOL    HW216608   1.702   0.342   2.854 -0.7721  0.5090 -0.5191
 1659SOL     OW16609   2.238   1.443   3.671  0.0123 -0.0992 -0.0470
 1659SOL    HW116610   2.256   1.537   3.669  1.4551 -0.3939 -0.8587
 1659SOL    HW216611   2.172   1.445   3.601 -1.4679 -0.1134  1.3319
 1660SOL     OW16612   0.388   1.530  16.645  0.5563 -0.0495  0.2864
 1660SOL    HW116613   0.412   1.467  16.577  0.6577  2.0621 -1.6461
 1660SOL    HW216614   0.400   1.481  16.726 -1.4213  1.5005  1.5174
 1661SOL     OW16615   4.198   2.756  16.010  0.5991  0.2866  0.6086
 1661SOL    HW116616   4.129   2.820  16.029 -0.1526 -0.5515  0.6885
 1661SOL    HW216617   4.155   2.671  15.998 -1.5610  1.5802 -1.0337
 1662SOL     OW16618   3.403   1.926   1.579  0.8426  0.3757 -0.2618
 1662SOL    HW116619   3.496   1.944   1.591  0.7841 -0.8090  1.9158
 1662SOL    HW216620   3.359   2.009   1.597 -0.7011 -0.8319  1.5272
 1663SOL     OW16621   0.185   3.891   4.520 -0.7102  0.3533 -0.4465
 1663SOL    HW116622   0.189   3.840   4.439 -0.9746  0.1273 -0.3168
 1663SOL    HW216623   0.205   3.974   4.478  0.3169  1.0628  1.4607
 1664SOL     OW16624   3.717   3.221   2.128  0.3837  0.4763  0.1239
 1664SOL    HW116625   3.721   3.177   2.212  2.6692  1.1288  0.3620
 1664SOL    HW216626   3.797   3.180   2.095  0.2900  1.2599 -1.0917
 1665SOL     OW16627   1.676   4.186   6.331  0.8109 -0.0392 -0.6410
 1665SOL    HW116628   1.651   4.096   6.349 -0.2140  0.4501  0.3652
 1665SOL    HW216629   1.605   4.218   6.276  0.2958  0.2207  0.1848
 1666SOL     OW16630   4.459   3.689  12.129 -0.0498 -0.3651  0.1149
 1666SOL    HW116631   4.525   3.621  12.144  1.6931  1.3421  0.1087
 1666SOL    HW216632   4.451   3.690  12.034  0.0694  0.3461  0.1145
 1667SOL     OW16633   3.435   2.327   8.590 -0.7054  0.3494  0.3081
 1667SOL    HW116634   3.484   2.407   8.611  0.4527 -0.5834  1.1244
 1667SOL    HW216635   3.345   2.346   8.561 -0.7998 -0.1495  0.2851
 1668SOL     OW16636   3.313   4.632   6.480  0.4132  0.2407  0.3903
 1668SOL    HW116637   3.284   4.640   6.389  2.4110 -0.3609 -0.2978
 1668SOL    HW216638   3.383   4.697   6.473  1.0226 -0.3853  0.7838
 1669SOL     OW16639   2.689   0.768   9.346 -0.1251  0.1108  0.2252
 1669SOL    HW116640   2.767   0.713   9.351 -0.3161 -0.2532 -0.7986
 1669SOL    HW216641   2.691   0.810   9.432  0.6605 -0.9836  0.7474
 1670SOL     OW16642   1.084   2.500  12.930  0.7993 -0.4980 -0.0993
 1670SOL    HW116643   1.130   2.471  13.008 -0.0884  2.6495  1.6109
 1670SOL    HW216644   1.056   2.589  12.953  0.5036 -0.7433  0.4772
 1671SOL     OW16645   4.564   3.045   3.690 -0.3267 -0.1315 -0.5751
 1671SOL    HW116646   4.496   2.980   3.710  0.7326 -0.5043  1.7430
 1671SOL    HW216647   4.518   3.129   3.691  0.9598  0.5776 -1.2411
 1672SOL     OW16648   0.130   4.067   9.455 -0.0302  0.3608 -0.4242
 1672SOL    HW116649   0.116   4.028   9.541  0.3563  1.0489 -0.0489
 1672SOL    HW216650   0.204   4.125   9.472 -0.6254  0.5782  1.5009
 1673SOL     OW16651   3.514   2.607   1.608 -0.0868  0.0144  0.2587
 1673SOL    HW116652   3.568   2.685   1.597 -1.2907  0.8284  0.1403
 1673SOL    HW216653   3.436   2.624   1.555 -0.3374 -0.9309  0.3260
 1674SOL     OW16654   4.413   2.755   2.803  0.9731 -0.5350  0.2855
 1674SOL    HW116655   4.459   2.774   2.885 -1.1374  0.5379  1.2064
 1674SOL    HW216656   4.448   2.810   2.733 -0.2600  1.4348  1.2188
 1675SOL     OW16657   2.121   1.698   7.410  0.1122 -0.6396 -0.2105
 1675SOL    HW116658   2.152   1.681   7.499  4.4532 -2.1638 -2.0290
 1675SOL    HW216659   2.200   1.698   7.356 -1.4396 -1.1378 -2.4762
 1676SOL     OW16660   2.772   0.050   1.662  0.4964 -0.0532  0.5474
 1676SOL    HW116661   2.762   4.711   1.722 -0.3705  0.9265  1.6182
 1676SOL    HW216662   2.824   0.108   1.718 -0.9660  0.3611  1.4886
 1677SOL     OW16663   0.263   1.888   7.514 -0.3554  0.5220  0.6141
 1677SOL    HW116664   0.205   1.813   7.505 -0.8870  0.7324  2.1450
 1677SOL    HW216665   0.194   1.953   7.527 -0.8437  0.4913 -1.9227
 1678SOL     OW16666   3.413   0.069   0.543  0.4801 -0.0564 -0.5479
 1678SOL    HW116667   3.491   0.104   0.586 -0.3916 -0.6928  1.5504
 1678SOL    HW216668   3.349   0.124   0.588  1.3603  1.3919 -1.0682
 1679SOL     OW16669   1.888   3.231  16.496 -0.0855 -0.0231  0.5113
 1679SOL    HW116670   1.859   3.256  16.583  0.3830  1.3271  0.2815
 1679SOL    HW216671   1.848   3.144  16.501 -2.5764  1.1491  0.5292
 1680SOL     OW16672   1.837   4.412  16.513  0.4835  0.2531  0.3847
 1680SOL    HW116673   1.762   4.465  16.488  1.9517  2.7832  1.3441
 1680SOL    HW216674   1.810   4.321  16.520  2.4029 -0.3370  0.2219
 1681SOL     OW16675   0.368   0.681   3.219  0.3748 -0.0089  0.4377
 1681SOL    HW116676   0.397   0.610   3.161 -2.4790 -1.0254  0.2543
 1681SOL    HW216677   0.454   0.722   3.230  0.3603  0.4537 -1.1521
 1682SOL     OW16678   0.394   4.318   2.351 -0.2758 -0.4828  0.0118
 1682SOL    HW116679   0.304   4.306   2.320  0.4418 -2.9651 -1.1244
 1682SOL    HW216680   0.439   4.343   2.270  0.5569 -1.4724  0.1599
 1683SOL     OW16681   3.789   2.195  17.182 -0.0529 -0.3475 -0.4869
 1683SOL    HW116682   3.752   2.139  17.250  1.4518 -1.6360 -0.7222
 1683SOL    HW216683   3.869   2.227  17.224 -0.0545  1.2034 -1.6472
 1684SOL     OW16684   2.327   0.408   2.991 -0.1697  0.0705  0.5816
 1684SOL    HW116685   2.382   0.360   3.053  0.5181 -0.2165 -0.2471
 1684SOL    HW216686   2.368   0.377   2.911 -1.7161 -1.5193  0.3918
 1685SOL     OW16687   1.408   0.810   4.764 -0.4690 -0.2298 -0.0620
 1685SOL    HW116688   1.342   0.760   4.716 -0.7697  0.1245 -0.0110
 1685SOL    HW216689   1.428   0.737   4.823 -2.0246  0.0835  0.8490
 1686SOL     OW16690   3.421   0.999   8.439 -0.0320 -0.3722  0.2787
 1686SOL    HW116691   3.479   1.028   8.510 -0.5042  1.2698  0.0011
 1686SOL    HW216692   3.433   0.905   8.446 -2.0380 -0.6222  0.2206
 1687SOL     OW16693   3.242   1.107   9.610 -0.0088 -0.0004  0.5858
 1687SOL    HW116694   3.306   1.105   9.539 -0.0910 -0.7256  0.5343
 1687SOL    HW216695   3.239   1.200   9.634  0.8909  0.4244 -0.9633
 1688SOL     OW16696   3.544   1.185  13.751  0.0843  0.2590  0.3494
 1688SOL    HW116697   3.477   1.243  13.714 -0.2902 -1.5925 -1.8748
 1688SOL    HW216698   3.556   1.126  13.677  2.0873  1.2565 -0.1208
 1689SOL     OW16699   3.677   1.566   0.928 -0.1597 -0.6957 -0.0135
 1689SOL    HW116700   3.740   1.626   0.968  0.0909 -0.1969 -1.1657
 1689SOL    HW216701   3.590   1.588   0.962  0.5556  0.4726  1.0897
 1690SOL     OW16702   0.607   3.235   1.362  0.5777  0.5076 -0.2172
 1690SOL    HW116703   0.660   3.162   1.329 -1.1763 -0.1391 -1.5860
 1690SOL    HW216704   0.536   3.229   1.299 -0.3452  2.5009  0.6274
 1691SOL     OW16705   3.269   1.852  11.019 -0.1887  0.5696 -0.3104
 1691SOL    HW116706   3.224   1.800  10.951  3.0624 -2.5968 -0.0355
 1691SOL    HW216707   3.358   1.817  11.012 -0.2874 -0.3181  2.7171
 1692SOL     OW16708   1.100   3.037   4.920 -0.3625 -0.0191 -0.4210
 1692SOL    HW116709   1.040   3.104   4.887  1.7135  2.0770  0.0689
 1692SOL    HW216710   1.165   3.096   4.960  2.8179 -3.7808 -0.0436
 1693SOL     OW16711   4.731   2.348   7.311  0.2101 -0.7592 -0.0461
 1693SOL    HW116712   4.643   2.352   7.275 -0.3016 -2.2967  1.0403
 1693SOL    HW216713   0.041   2.286   7.254 -0.7361 -0.6037 -0.9532
 1694SOL     OW16714   4.448   1.189  16.261  0.0011  0.0634 -0.3077
 1694SOL    HW116715   4.434   1.095  16.269  1.7674 -0.0879  1.0691
 1694SOL    HW216716   4.384   1.202  16.191  0.7378 -2.8221 -1.5099
 1695SOL     OW16717   3.521   2.935  10.116  0.1665  0.3173  0.4251
 1695SOL    HW116718   3.456   2.867  10.131  1.0054 -0.6569 -0.4371
 1695SOL    HW216719   3.570   2.893  10.045  0.7063  0.7566  0.5403
 1696SOL     OW16720   2.598   3.343  11.549 -0.2368  0.2120  0.5512
 1696SOL    HW116721   2.557   3.354  11.635 -1.4808  1.7348 -0.2361
 1696SOL    HW216722   2.684   3.378  11.569 -1.2693  2.4311  1.0935
 1697SOL     OW16723   3.035   3.997  11.972 -0.3451  0.2552 -0.0217
 1697SOL    HW116724   3.126   4.023  11.954  0.0099  0.2234  1.7473
 1697SOL    HW216725   2.989   4.077  11.948  0.3328  0.7372  0.2859
 1698SOL     OW16726   2.643   2.962  12.055  0.4172  0.2874  0.0812
 1698SOL    HW116727   2.690   3.019  11.994  1.2713 -1.9849 -1.3986
 1698SOL    HW216728   2.692   2.879  12.052 -0.8252 -0.4862  1.4543
 1699SOL     OW16729   2.345   3.410   4.803  0.3414 -0.3904 -0.3378
 1699SOL    HW116730   2.394   3.355   4.863 -1.8993 -2.1677 -0.1058
 1699SOL    HW216731   2.255   3.400   4.837  0.1948 -1.6472 -1.0947
 1700SOL     OW16732   1.640   4.476   2.207  0.7976  0.0643  0.0208
 1700SOL    HW116733   1.705   4.443   2.145  2.3100  1.9673  0.6108
 1700SOL    HW216734   1.560   4.460   2.157  0.2580  0.6476  0.6926
 1701SOL     OW16735   2.023   0.494   2.607 -0.2721  0.4408 -0.2802
 1701SOL    HW116736   2.016   0.483   2.702  3.3518 -0.0117 -0.0482
 1701SOL    HW216737   1.992   0.409   2.576  0.1274 -0.2313  1.1634
 1702SOL     OW16738   2.655   4.437   5.751 -0.2369 -0.5919  0.7399
 1702SOL    HW116739   2.568   4.405   5.728 -0.6130  0.9566  0.0267
 1702SOL    HW216740   2.635   4.519   5.795 -1.5500 -0.9192  0.7442
 1703SOL     OW16741   0.405   0.937  15.717 -0.1560 -0.4161  0.9397
 1703SOL    HW116742   0.448   0.914  15.634  0.8015  4.6996  0.0045
 1703SOL    HW216743   0.348   0.999  15.672  1.6819  1.5484  1.3484
 1704SOL     OW16744   3.727   1.266  14.514  0.0093 -1.0908 -0.0044
 1704SOL    HW116745   3.725   1.349  14.467 -2.5113 -1.8248 -1.2039
 1704SOL    HW216746   3.686   1.296  14.596 -0.9755  0.4613 -1.0562
 1705SOL     OW16747   2.650   1.714   4.684 -0.2337 -0.1675 -0.2182
 1705SOL    HW116748   2.563   1.702   4.646  0.1783 -3.0837 -0.2149
 1705SOL    HW216749   2.640   1.806   4.709  2.0112 -0.1131  0.5270
 1706SOL     OW16750   4.124   2.316   6.341  0.1013 -0.1407 -0.0855
 1706SOL    HW116751   4.073   2.346   6.416 -0.2845  0.9538 -0.7840
 1706SOL    HW216752   4.068   2.245   6.311 -0.1491  0.1248 -0.2429
 1707SOL     OW16753   3.578   4.494   3.089 -0.1829  0.2980  0.2346
 1707SOL    HW116754   3.652   4.463   3.142 -1.1535 -0.2294  1.2879
 1707SOL    HW216755   3.504   4.452   3.134  0.0574  0.6318  0.9388
 1708SOL     OW16756   2.926   3.670   5.132  0.7752 -0.0713  0.6430
 1708SOL    HW116757   2.954   3.743   5.186 -0.4120  0.1272  0.9912
 1708SOL    HW216758   2.854   3.653   5.193  1.0927 -0.4727  0.9075
 1709SOL     OW16759   0.235   1.019   8.448 -0.1185 -0.6885  0.8611
 1709SOL    HW116760   0.240   0.942   8.391  1.6924 -0.9604  1.4012
 1709SOL    HW216761   0.329   1.029   8.459 -0.1711  0.1197  0.5793
 1710SOL     OW16762   2.713   2.247  10.368  0.1072  0.3801  0.0766
 1710SOL    HW116763   2.646   2.253  10.436  0.2282  2.1690  0.0382
 1710SOL    HW216764   2.689   2.160  10.337 -1.5601  1.3977 -1.4802
 1711SOL     OW16765   3.846   1.004   0.666  0.3042 -0.3444 -0.5523
 1711SOL    HW116766   3.824   0.933   0.606  0.8551 -1.0660  0.0956
 1711SOL    HW216767   3.930   0.973   0.700  1.6681  1.5180 -2.2583
 1712SOL     OW16768   1.803   3.147  14.440  0.4551  0.0441  0.0821
 1712SOL    HW116769   1.867   3.076  14.430 -1.2416 -1.7095  1.7222
 1712SOL    HW216770   1.724   3.104  14.472  0.1709  0.6607  0.2157
 1713SOL     OW16771   1.659   2.022   7.597 -0.2652 -0.3108  0.0180
 1713SOL    HW116772   1.604   2.057   7.666 -2.2529  1.0370 -2.2588
 1713SOL    HW216773   1.643   1.928   7.604 -0.0051 -0.1202  2.8617
 1714SOL     OW16774   2.871   2.333   6.397  0.0293  0.1785  0.5315
 1714SOL    HW116775   2.914   2.259   6.440  0.4631  1.5501  2.4491
 1714SOL    HW216776   2.784   2.325   6.437 -1.1843 -0.9489 -2.3735
 1715SOL     OW16777   3.381   1.044   6.039 -0.2967  0.3232 -0.3573
 1715SOL    HW116778   3.360   1.130   6.004 -0.3952  1.0324  1.4421
 1715SOL    HW216779   3.453   1.054   6.102 -2.3798 -1.0267  2.2433
 1716SOL     OW16780   2.938   0.696   7.029  0.3345  0.3969 -0.6290
 1716SOL    HW116781   2.946   0.656   7.116  0.5424  0.7813 -0.4695
 1716SOL    HW216782   2.843   0.694   7.018  0.0542  2.8142  1.4440
 1717SOL     OW16783   3.407   0.757   7.728 -0.5814 -0.0166 -0.3474
 1717SOL    HW116784   3.332   0.735   7.674 -1.7819  0.2836  1.2023
 1717SOL    HW216785   3.386   0.714   7.810  1.1821 -0.4824 -0.1418
 1718SOL     OW16786   0.539   0.701  11.927 -0.0964  0.2629  0.0956
 1718SOL    HW116787   0.611   0.733  11.983 -0.3907 -1.2080  1.3266
 1718SOL    HW216788   0.585   0.639  11.870 -1.4796 -0.3516 -0.3347
 1719SOL     OW16789   2.146   2.255   3.424 -0.3656  0.1875  0.3251
 1719SOL    HW116790   2.069   2.239   3.370 -0.1463 -0.8336  0.3200
 1719SOL    HW216791   2.106   2.303   3.497 -1.0378  0.8843 -0.5061
 1720SOL     OW16792   0.705   0.040  15.733  0.5038  0.3325 -0.1533
 1720SOL    HW116793   0.758   0.119  15.724 -0.8783  1.3054  0.2359
 1720SOL    HW216794   0.757   4.735  15.803 -0.6303 -2.2042 -0.7726
 1721SOL     OW16795   3.218   0.489   7.334 -0.1615  0.2723 -0.2489
 1721SOL    HW116796   3.258   0.519   7.415 -1.3803 -0.1872  0.5284
 1721SOL    HW216797   3.188   0.403   7.364 -1.2308  1.1300  1.1021
 1722SOL     OW16798   2.292   0.640   7.849  0.4133  0.5297 -0.2156
 1722SOL    HW116799   2.233   0.714   7.861 -1.1459 -0.8736  0.8558
 1722SOL    HW216800   2.229   0.569   7.841  0.3688  0.3988  1.4091
 1723SOL     OW16801   0.599   3.987   1.947  0.2966  0.2671 -0.4814
 1723SOL    HW116802   0.515   4.008   1.905 -0.7976 -1.9726  0.5975
 1723SOL    HW216803   0.628   3.938   1.870 -1.4845 -2.9834  0.9342
 1724SOL     OW16804   0.782   3.079   7.513  0.0716  0.5792 -0.5864
 1724SOL    HW116805   0.835   3.152   7.544  0.8061 -0.2286  0.0508
 1724SOL    HW216806   0.730   3.055   7.590  1.0141  1.1304  0.2072
 1725SOL     OW16807   2.274   0.248   8.094 -0.2006  0.2944  0.2008
 1725SOL    HW116808   2.188   0.288   8.106  0.3669  0.8773  2.1869
 1725SOL    HW216809   2.321   0.257   8.177 -1.5946  1.0813  0.9032
 1726SOL     OW16810   2.972   1.947   6.276 -0.1999 -0.7259 -0.0920
 1726SOL    HW116811   2.985   1.962   6.369  1.0981 -1.1623 -0.1899
 1726SOL    HW216812   2.924   2.021   6.239  0.8249  1.2926  2.6095
 1727SOL     OW16813   2.966   1.034   9.564 -0.2167  0.0455 -0.4308
 1727SOL    HW116814   2.906   1.090   9.515  1.5134  1.8429 -0.5006
 1727SOL    HW216815   3.053   1.074   9.554 -0.5362  0.2341 -2.4122
 1728SOL     OW16816   4.724   2.878   9.264  0.1860  0.4682  0.0934
 1728SOL    HW116817   4.693   2.917   9.346 -2.6947 -1.3159 -0.1157
 1728SOL    HW216818   0.081   2.903   9.270  0.0291  1.0477  0.0949
 1729SOL     OW16819   4.686   1.523   5.526 -0.2879  0.0527  0.0450
 1729SOL    HW116820   4.659   1.445   5.574  1.7808  0.2953  1.6349
 1729SOL    HW216821   0.038   1.529   5.566  0.2789  1.3672 -1.3883
 1730SOL     OW16822   2.193   0.295  15.252  0.5787  0.1860  0.3561
 1730SOL    HW116823   2.156   0.369  15.202  2.8383  0.0797 -1.4673
 1730SOL    HW216824   2.249   0.258  15.184 -0.8010  1.4113 -1.4861
 1731SOL     OW16825   4.095   3.570   4.481 -0.6325  0.4093 -0.3658
 1731SOL    HW116826   4.034   3.557   4.408  0.8661  0.4317 -1.6213
 1731SOL    HW216827   4.054   3.643   4.527 -0.6689  0.4344 -0.4377
 1732SOL     OW16828   1.017   2.502   7.373  0.4630  0.0134 -0.7434
 1732SOL    HW116829   1.086   2.437   7.364  0.4883 -0.2079  1.2470
 1732SOL    HW216830   1.068   2.583   7.367  0.6582 -0.0987 -0.5829
 1733SOL     OW16831   2.901   2.391   8.305 -0.5649 -0.3394  0.2278
 1733SOL    HW116832   2.872   2.459   8.365  0.5078 -0.5356  0.9692
 1733SOL    HW216833   2.927   2.328   8.372  2.7633  0.4204 -0.3421
 1734SOL     OW16834   2.864   2.565   4.168 -0.3324  0.5296  0.2583
 1734SOL    HW116835   2.856   2.634   4.102  0.5985 -0.4932 -0.9256
 1734SOL    HW216836   2.959   2.570   4.178 -0.3682  1.5396  0.1107
 1735SOL     OW16837   2.615   0.325  10.883 -0.1876  0.0373  0.3558
 1735SOL    HW116838   2.618   0.414  10.919  0.8691 -0.4040  1.3709
 1735SOL    HW216839   2.616   0.272  10.963 -0.3320 -0.6046 -0.0723
 1736SOL     OW16840   4.409   0.749   4.959 -0.0415  0.1109  0.4730
 1736SOL    HW116841   4.481   0.698   4.997 -0.2746 -0.9754 -0.5739
 1736SOL    HW216842   4.429   0.829   5.009 -1.2615  0.7976 -0.1410
 1737SOL     OW16843   4.373   4.416  12.038  0.1082 -0.4080 -0.0587
 1737SOL    HW116844   4.300   4.370  11.997 -0.1463  1.0476 -1.2601
 1737SOL    HW216845   4.373   4.495  11.984  0.4587 -1.3618 -1.4329
 1738SOL     OW16846   3.215   4.669   4.050  0.0279  0.2725  0.6564
 1738SOL    HW116847   3.249   4.693   4.136  0.1483  1.2485  0.3312
 1738SOL    HW216848   3.300   4.697   4.016  0.1583 -0.4210  0.3929
 1739SOL     OW16849   0.755   1.159  17.578  0.8962  0.1594  0.3837
 1739SOL    HW116850   0.693   1.137  17.508 -0.4404 -0.8202  1.8740
 1739SOL    HW216851   0.831   1.106  17.554 -0.7040 -2.2436  0.5885
 1740SOL     OW16852   2.938   3.262  17.154 -0.8779  0.3779  0.1828
 1740SOL    HW116853   2.848   3.291  17.168 -1.0975  0.5478 -1.6081
 1740SOL    HW216854   2.930   3.238  17.062 -3.4291 -0.2184  0.5503
 1741SOL     OW16855   0.717   3.136   5.066 -0.2217 -0.5591 -0.2194
 1741SOL    HW116856   0.660   3.126   5.143 -1.4071 -0.5998 -1.1026
 1741SOL    HW216857   0.805   3.141   5.104  0.0501  2.4027 -1.1944
 1742SOL     OW16858   1.316   1.503   7.606  0.6052 -0.0933  0.7228
 1742SOL    HW116859   1.331   1.412   7.580 -0.3309  0.1687 -0.7898
 1742SOL    HW216860   1.309   1.495   7.701  0.0670  3.3908  0.9978
 1743SOL     OW16861   1.179   1.367   0.786  0.0749  0.9659 -0.0121
 1743SOL    HW116862   1.230   1.316   0.723 -2.2678 -0.7616 -0.5168
 1743SOL    HW216863   1.206   1.342   0.874 -1.1119 -3.1562 -0.8314
 1744SOL     OW16864   1.402   3.065   3.618  0.6456  0.0196 -0.4945
 1744SOL    HW116865   1.331   3.033   3.563  2.3878 -1.6548 -1.7786
 1744SOL    HW216866   1.444   2.986   3.653  1.4733 -0.2136 -1.9762
 1745SOL     OW16867   2.174   1.740   5.470 -0.1464  0.2790  0.3335
 1745SOL    HW116868   2.215   1.694   5.542 -0.1803 -1.4196 -0.7297
 1745SOL    HW216869   2.083   1.729   5.499 -0.2155  2.8670  1.0574
 1746SOL     OW16870   0.856   0.304   3.574 -0.1621 -0.0544  0.4733
 1746SOL    HW116871   0.907   0.227   3.548  0.1865  0.3024  0.1167
 1746SOL    HW216872   0.924   0.359   3.611 -2.2062  2.0688  1.0435
 1747SOL     OW16873   3.289   1.601   9.623  0.2259 -0.5051  0.1528
 1747SOL    HW116874   3.288   1.680   9.676  1.4021  0.3950 -1.1785
 1747SOL    HW216875   3.213   1.626   9.570  0.7343  0.9597  0.1218
 1748SOL     OW16876   2.130   1.437   5.053  0.1951 -0.0659  0.2892
 1748SOL    HW116877   2.177   1.465   5.132  0.7150  0.7716 -0.3247
 1748SOL    HW216878   2.040   1.434   5.087 -0.2406 -1.3780 -0.9696
 1749SOL     OW16879   4.129   2.200  11.692  0.3431 -0.2301 -0.1807
 1749SOL    HW116880   4.054   2.144  11.672 -0.1021  0.7330 -1.1731
 1749SOL    HW216881   4.167   2.204  11.604  1.1605  0.3715  0.2021
 1750SOL     OW16882   2.797   3.416  16.207 -0.1511  0.3669  0.5579
 1750SOL    HW116883   2.729   3.360  16.244  1.6186 -1.7129  0.6276
 1750SOL    HW216884   2.758   3.504  16.216 -2.6306 -0.8739  1.9876
 1751SOL     OW16885   2.401   1.684   3.981  0.3249  0.1332 -0.0817
 1751SOL    HW116886   2.470   1.664   4.044 -0.7971 -0.5208  0.9518
 1751SOL    HW216887   2.448   1.721   3.907 -0.4600 -0.2227 -0.7659
 1752SOL     OW16888   2.023   1.802   3.889  0.1621 -0.1019  0.5174
 1752SOL    HW116889   2.019   1.711   3.919 -0.1772 -1.2707 -3.0052
 1752SOL    HW216890   1.967   1.805   3.811 -0.1995  1.5959  0.8429
 1753SOL     OW16891   0.163   4.357   6.434  0.2496 -0.3006 -0.1251
 1753SOL    HW116892   0.069   4.373   6.430  0.2697  0.2444  1.6667
 1753SOL    HW216893   0.188   4.403   6.353 -1.1686  1.4198  0.4129
 1754SOL     OW16894   1.738   4.635   8.486  0.1205  0.1232  0.3800
 1754SOL    HW116895   1.767   4.590   8.566  0.3735 -1.3257 -0.5160
 1754SOL    HW216896   1.664   4.587   8.449 -0.7019  2.6011 -1.1267
 1755SOL     OW16897   3.722   3.096   2.373  0.5173  0.2748  0.5387
 1755SOL    HW116898   3.657   3.045   2.421  0.6652  0.0520  0.5008
 1755SOL    HW216899   3.800   3.070   2.422  1.0842 -0.8283 -0.9609
 1756SOL     OW16900   0.325   1.375   4.922  0.1350  0.0530  0.1194
 1756SOL    HW116901   0.336   1.404   4.831  0.8562 -0.9314 -0.1067
 1756SOL    HW216902   0.376   1.295   4.910  1.0755  0.5267  0.9228
 1757SOL     OW16903   4.720   4.453   7.095  0.9175  0.1166  0.0843
 1757SOL    HW116904   4.718   4.543   7.127  0.9060 -0.4728  1.7332
 1757SOL    HW216905   4.683   4.469   7.008  0.4077 -0.4729  0.1905
 1758SOL     OW16906   2.742   2.797   3.565 -0.2263 -0.1789  0.3224
 1758SOL    HW116907   2.821   2.842   3.594  0.2940  0.7438 -2.4515
 1758SOL    HW216908   2.761   2.704   3.568  1.1657  0.0894 -0.3313
 1759SOL     OW16909   4.706   4.404   3.810 -0.3234  0.0021 -0.2144
 1759SOL    HW116910   0.007   4.480   3.856 -0.2687 -1.2942  1.8372
 1759SOL    HW216911   4.617   4.396   3.846 -0.9013 -2.0285 -2.0505
 1760SOL     OW16912   4.178   0.287   6.808  0.5274  0.6384  0.5034
 1760SOL    HW116913   4.198   0.307   6.717 -2.6045 -0.3509 -0.4059
 1760SOL    HW216914   4.082   0.294   6.802  0.5999  0.4906 -0.7865
 1761SOL     OW16915   3.382   1.919   3.307 -0.3587 -0.2014 -0.5732
 1761SOL    HW116916   3.423   1.896   3.390  0.5159  1.4525 -0.5678
 1761SOL    HW216917   3.438   1.989   3.273 -0.5595 -0.8524 -2.2647
 1762SOL     OW16918   0.775   3.884   6.863 -1.4781 -0.2522  1.0435
 1762SOL    HW116919   0.703   3.822   6.861 -1.6102 -0.0025 -1.0438
 1762SOL    HW216920   0.733   3.964   6.833 -1.3436 -0.9400 -0.9228
 1763SOL     OW16921   4.150   4.508   4.283 -0.2526 -1.2457 -0.0511
 1763SOL    HW116922   4.201   4.534   4.207 -1.4328 -0.0055 -0.3886
 1763SOL    HW216923   4.105   4.591   4.295 -0.0146 -1.1158 -0.0495
 1764SOL     OW16924   0.741   2.891   8.001  0.0078 -0.2379 -0.5979
 1764SOL    HW116925   0.691   2.809   7.992  1.2921 -0.9375 -1.3465
 1764SOL    HW216926   0.829   2.854   8.011  1.1580  2.1269 -1.8937
 1765SOL     OW16927   0.256   2.567  16.803 -0.3209 -0.4525 -0.1116
 1765SOL    HW116928   0.336   2.532  16.841  0.1368 -0.8267 -1.4160
 1765SOL    HW216929   0.196   2.499  16.833  0.3913 -1.2899 -0.5845
 1766SOL     OW16930   0.075   4.377   3.170  0.0326 -1.0245  0.3229
 1766SOL    HW116931   0.053   4.348   3.081  0.0334 -0.9728  0.3062
 1766SOL    HW216932   0.159   4.331   3.175  0.4655 -0.4794 -1.9809
 1767SOL     OW16933   0.614   1.360   2.157 -0.1267 -0.0207  0.5192
 1767SOL    HW116934   0.678   1.430   2.143  1.5977 -1.9517 -1.2091
 1767SOL    HW216935   0.595   1.389   2.246 -0.7866 -0.8860  0.6579
 1768SOL     OW16936   3.514   0.158  14.741 -0.4188  0.0340  0.4620
 1768SOL    HW116937   3.567   0.082  14.716  0.6464  1.2312 -0.8910
 1768SOL    HW216938   3.452   0.163  14.668  0.0110  0.8435  0.1546
 1769SOL     OW16939   3.148   1.598   7.770 -0.3284  0.1567  0.1350
 1769SOL    HW116940   3.168   1.692   7.768  0.8017 -0.1114 -1.9095
 1769SOL    HW216941   3.092   1.600   7.692 -1.3198 -0.7596  0.8351
 1770SOL     OW16942   3.203   1.978   6.614  0.0745  0.0322  0.1745
 1770SOL    HW116943   3.148   1.899   6.609 -1.1857  0.8599  1.1329
 1770SOL    HW216944   3.290   1.942   6.593 -1.2576 -2.5421 -0.9284
 1771SOL     OW16945   2.981   1.374  12.263  0.0176  0.4621 -0.2416
 1771SOL    HW116946   2.989   1.281  12.283  0.7202  0.6787  0.5064
 1771SOL    HW216947   3.058   1.417  12.300  1.5427 -0.1476 -2.6793
 1772SOL     OW16948   0.440   0.246   2.611  0.7094  0.0062  0.0142
 1772SOL    HW116949   0.449   0.329   2.564 -3.4240 -0.0212 -0.8615
 1772SOL    HW216950   0.531   0.221   2.598  0.1078 -2.3436  0.4370
 1773SOL     OW16951   3.936   2.353   0.508 -0.7673 -0.0794  0.4408
 1773SOL    HW116952   4.020   2.310   0.491 -0.9278 -0.0450 -0.4798
 1773SOL    HW216953   3.908   2.366   0.417  0.9233  0.8593  0.0592
 1774SOL     OW16954   2.561   0.087  13.028  0.3051 -0.9220 -0.0204
 1774SOL    HW116955   2.492   0.151  13.012  1.6116  0.7710  1.1027
 1774SOL    HW216956   2.514   0.010  12.997  1.4810 -1.3454 -0.7598
 1775SOL     OW16957   3.713   1.265  14.123  0.1849  0.3858  0.8314
 1775SOL    HW116958   3.773   1.206  14.169 -1.4332  0.1870  2.7126
 1775SOL    HW216959   3.666   1.198  14.072  0.0928 -0.0655  1.4970
 1776SOL     OW16960   2.577   1.816   1.596 -0.0910  0.1356 -0.2846
 1776SOL    HW116961   2.595   1.758   1.670 -0.6386  2.4356  1.6096
 1776SOL    HW216962   2.652   1.788   1.544 -1.0258 -4.4256  0.8196
 1777SOL     OW16963   3.442   0.523   6.641 -0.3043 -0.1186 -0.1019
 1777SOL    HW116964   3.414   0.539   6.731  1.0642  1.4103  0.0678
 1777SOL    HW216965   3.356   0.542   6.603 -0.0502  0.3553 -0.4368
 1778SOL     OW16966   3.944   3.911   7.570 -0.0865 -0.1140  0.0071
 1778SOL    HW116967   3.900   3.989   7.535  2.4134  2.4016  2.4283
 1778SOL    HW216968   3.920   3.923   7.662 -0.1249  0.6392 -0.0953
 1779SOL     OW16969   4.570   4.733  13.908 -0.1297  0.9976  0.2096
 1779SOL    HW116970   4.569   0.008  13.813  0.1562 -0.2171  0.0706
 1779SOL    HW216971   4.663   4.709  13.905 -0.3768  0.1596 -0.7746
 1780SOL     OW16972   2.635   3.005   5.417 -0.0895 -0.3408  0.4623
 1780SOL    HW116973   2.714   3.002   5.470 -0.5710 -3.2475  0.9858
 1780SOL    HW216974   2.608   2.913   5.417 -2.3857  0.3358  0.7149
 1781SOL     OW16975   1.971   0.628  14.173  0.4248 -0.4805  0.1214
 1781SOL    HW116976   2.013   0.619  14.088 -0.6898 -2.7264 -0.1920
 1781SOL    HW216977   1.992   0.719  14.194  0.5258 -0.2313 -1.0995
 1782SOL     OW16978   2.243   2.699   5.786  0.4702 -0.1664 -0.2349
 1782SOL    HW116979   2.294   2.630   5.829  1.6894  1.8916  1.5800
 1782SOL    HW216980   2.243   2.672   5.694  0.6654  1.0253 -0.5782
 1783SOL     OW16981   0.814   2.214   5.308 -0.1536 -0.1038  0.2518
 1783SOL    HW116982   0.792   2.247   5.395  0.3359  1.5780 -0.2504
 1783SOL    HW216983   0.761   2.278   5.260  0.6042 -0.5376 -1.1803
 1784SOL     OW16984   2.701   4.690   0.674  0.1225 -0.5830 -0.1755
 1784SOL    HW116985   2.615   4.654   0.696 -0.0664  0.6388  1.0573
 1784SOL    HW216986   2.684   0.049   0.679  1.7063 -0.4376  2.3223
 1785SOL     OW16987   4.342   2.207   7.167  0.4187  0.0041  0.0357
 1785SOL    HW116988   4.382   2.133   7.123  0.8767 -1.0796  2.2847
 1785SOL    HW216989   4.333   2.167   7.253  2.0021  0.2133  0.3015
 1786SOL     OW16990   3.722   1.992  17.365 -0.0341  0.0902 -0.1796
 1786SOL    HW116991   3.647   1.973  17.308 -0.0902 -0.0346 -0.0624
 1786SOL    HW216992   3.785   1.929  17.331  0.0500  0.0189  0.1099
 1787SOL     OW16993   3.528   0.083  15.140  0.3075 -0.3932  0.1566
 1787SOL    HW116994   3.593   0.146  15.107 -0.6636  0.4049 -0.2320
 1787SOL    HW216995   3.554   0.002  15.097 -0.5687  0.3979 -1.8324
 1788SOL     OW16996   2.726   1.692  14.809 -0.1047  0.1784  0.2362
 1788SOL    HW116997   2.720   1.625  14.877  0.9778  1.0985  1.2287
 1788SOL    HW216998   2.744   1.769  14.862  0.3112 -0.5348  1.1244
 1789SOL     OW16999   3.507   3.873  14.641 -0.3631  0.1936 -0.2529
 1789SOL    HW117000   3.516   3.902  14.732  2.2118  1.4985 -0.9115
 1789SOL    HW217001   3.456   3.946  14.607 -0.2133  0.6981  0.5941
 1790SOL     OW17002   2.799   2.749   3.989 -0.0778 -0.0039 -0.0481
 1790SOL    HW117003   2.838   2.827   3.949 -1.2015 -0.5692 -2.2852
 1790SOL    HW217004   2.724   2.735   3.931  0.0284  3.2975 -1.0185
 1791SOL     OW17005   2.675   1.788   5.115  0.1050 -0.1672 -0.1160
 1791SOL    HW117006   2.625   1.866   5.091 -0.5672 -1.0401 -1.5747
 1791SOL    HW217007   2.637   1.730   5.048  0.2221  0.8594 -1.0695
 1792SOL     OW17008   0.626   0.628   6.212  0.7049  0.1125  0.0263
 1792SOL    HW117009   0.555   0.664   6.265  0.9803  2.7707 -1.3760
 1792SOL    HW217010   0.608   0.668   6.127 -1.3947  3.7531  2.2067
 1793SOL     OW17011   3.232   4.314   6.289  0.5881 -0.5001  0.1090
 1793SOL    HW117012   3.264   4.404   6.282 -2.6109  0.5202 -1.4148
 1793SOL    HW217013   3.233   4.323   6.384  1.0137 -0.4186  0.0976
 1794SOL     OW17014   4.253   2.769  12.800  0.6100  0.3537 -0.0418
 1794SOL    HW117015   4.226   2.742  12.712  0.4713  2.6903 -0.7420
 1794SOL    HW217016   4.276   2.688  12.844  0.4332  0.9073  1.0640
 1795SOL     OW17017   2.831   2.223  10.025 -0.8547 -0.0530 -1.1388
 1795SOL    HW117018   2.883   2.224  10.105 -1.7137  1.1377 -0.5927
 1795SOL    HW217019   2.774   2.299  10.037  0.1314  0.3412  1.0542
 1796SOL     OW17020   3.040   2.083   2.101 -0.3679  0.0187 -0.0046
 1796SOL    HW117021   2.979   2.157   2.103 -1.6691 -1.0768  0.7476
 1796SOL    HW217022   3.046   2.066   2.007 -0.3402  0.4031 -0.0702
 1797SOL     OW17023   0.878   2.612   9.403 -0.1294  0.3412  0.1244
 1797SOL    HW117024   0.793   2.594   9.363 -0.3073  2.1153 -0.3078
 1797SOL    HW217025   0.910   2.527   9.432  0.2151  0.4466  0.0426
 1798SOL     OW17026   0.214   1.814   4.872 -0.4272 -0.1372 -0.0707
 1798SOL    HW117027   0.172   1.900   4.876 -1.5479 -0.6141 -1.4639
 1798SOL    HW217028   0.183   1.804   4.782 -1.0478 -0.8027  0.2204
 1799SOL     OW17029   1.614   1.544   4.327  0.3722 -0.0207 -0.5867
 1799SOL    HW117030   1.533   1.560   4.278  0.4707 -1.7314 -1.2879
 1799SOL    HW217031   1.658   1.628   4.315 -0.8184  0.7251  0.2566
 1800SOL     OW17032   3.912   4.667   4.686  0.1110  0.1163  0.2123
 1800SOL    HW117033   3.911   0.027   4.679 -0.2615  0.2167  1.6445
 1800SOL    HW217034   3.819   4.643   4.684  0.3922 -0.8822 -0.5910
 1801SOL     OW17035   2.968   0.368  10.293  0.2818 -0.1565 -0.3219
 1801SOL    HW117036   2.940   0.457  10.271 -2.3280 -1.1468 -0.9903
 1801SOL    HW217037   3.017   0.377  10.375 -2.2907  1.2916  1.0778
 1802SOL     OW17038   4.403   2.483   3.046  0.6225  0.4911 -0.0490
 1802SOL    HW117039   4.483   2.530   3.023  1.6647 -1.9065 -1.3140
 1802SOL    HW217040   4.348   2.498   2.969 -0.9377 -0.5464  0.8767
 1803SOL     OW17041   0.332   2.825   9.044 -0.1457 -0.2357 -0.0210
 1803SOL    HW117042   0.249   2.778   9.038 -0.5602  0.5657 -0.5525
 1803SOL    HW217043   0.310   2.879   9.120 -0.7085 -1.7217  0.8863
 1804SOL     OW17044   0.656   1.272  10.468 -0.4959 -0.3576 -0.2709
 1804SOL    HW117045   0.602   1.305  10.396 -2.4667 -2.1192  0.4066
 1804SOL    HW217046   0.632   1.325  10.544  0.1139 -0.8951  0.2970
 1805SOL     OW17047   2.235   3.591   4.372  0.0916  0.4113  0.2333
 1805SOL    HW117048   2.151   3.568   4.412  0.3620 -0.0271  0.5486
 1805SOL    HW217049   2.291   3.516   4.395  2.6675  2.3940  0.4700
 1806SOL     OW17050   1.068   4.710   2.786 -0.2672 -0.1993  0.0736
 1806SOL    HW117051   0.991   0.023   2.817  0.2518  0.8813 -0.2976
 1806SOL    HW217052   1.033   4.640   2.732 -0.8671 -0.1459  0.3868
 1807SOL     OW17053   0.802   3.110   1.939  0.3010  0.1321  0.5374
 1807SOL    HW117054   0.721   3.073   1.905  0.9162  0.5324 -1.3774
 1807SOL    HW217055   0.837   3.029   1.975  0.0881  0.4297  1.4163
 1808SOL     OW17056   2.822   3.874   3.419 -0.2746  0.0016 -0.3762
 1808SOL    HW117057   2.817   3.796   3.363 -0.1708 -1.4041  1.5682
 1808SOL    HW217058   2.729   3.893   3.427  0.0012  0.6927  1.1247
 1809SOL     OW17059   1.921   0.061   6.593  0.0176 -0.0427 -0.1025
 1809SOL    HW117060   1.835   0.042   6.631 -0.1619 -1.7587 -1.3706
 1809SOL    HW217061   1.961   4.710   6.603  1.6111  0.6857 -0.1256
 1810SOL     OW17062   2.930   2.664   9.605  0.0264 -0.1099 -0.3741
 1810SOL    HW117063   2.975   2.746   9.586  0.2547 -0.4698 -1.3746
 1810SOL    HW217064   2.861   2.660   9.539  1.2807  2.6316 -1.8113
 1811SOL     OW17065   1.049   3.019  17.110  0.1299 -0.1959  0.1939
 1811SOL    HW117066   1.011   3.039  17.025  0.3924 -2.0391 -0.3481
 1811SOL    HW217067   1.011   2.932  17.117 -0.8779  0.3878  1.8345
 1812SOL     OW17068   2.207   1.703   0.602  0.5520 -0.1983 -0.4292
 1812SOL    HW117069   2.199   1.613   0.631 -2.6406 -0.8009 -3.1406
 1812SOL    HW217070   2.192   1.756   0.681  2.4072  0.6551 -0.6636
 1813SOL     OW17071   1.577   2.954   0.647  0.1502 -0.5057 -0.5004
 1813SOL    HW117072   1.663   2.986   0.675 -0.5181 -1.1978  2.2536
 1813SOL    HW217073   1.531   3.027   0.604  0.2439 -0.2805 -0.2153
 1814SOL     OW17074   4.426   3.599   2.367 -0.2432  0.5628  0.2344
 1814SOL    HW117075   4.390   3.679   2.329 -0.2754  0.6702  0.4884
 1814SOL    HW217076   4.512   3.627   2.398 -1.1819  3.5794  0.0661
 1815SOL     OW17077   3.140   2.690   2.379  0.1492  0.4675  0.5388
 1815SOL    HW117078   3.090   2.628   2.432 -1.7189  1.4043 -0.1083
 1815SOL    HW217079   3.201   2.721   2.446  1.9218  0.1376 -0.9260
 1816SOL     OW17080   3.169   3.692   7.006 -0.3863 -0.0389  0.5848
 1816SOL    HW117081   3.078   3.664   7.003  0.1875 -1.7727 -1.0131
 1816SOL    HW217082   3.198   3.677   6.916  1.0879 -1.9372  1.3726
 1817SOL     OW17083   4.622   2.408  15.098 -0.0996  0.2005 -0.1972
 1817SOL    HW117084   4.680   2.483  15.111 -0.7481  0.5062  1.0165
 1817SOL    HW217085   4.597   2.387  15.188  1.5334  0.3624  0.2887
 1818SOL     OW17086   4.084   0.404   1.191  0.5329 -0.6063  0.2772
 1818SOL    HW117087   4.128   0.445   1.116 -0.0436 -0.9708 -0.2611
 1818SOL    HW217088   4.014   0.469   1.200 -1.3296 -2.7861  1.4265
 1819SOL     OW17089   2.045   1.004  17.023 -0.1107 -0.4033 -0.5635
 1819SOL    HW117090   1.976   1.063  17.054  1.1987  1.5233 -1.2928
 1819SOL    HW217091   2.093   0.989  17.105  0.0183  0.0073 -0.5636
 1820SOL     OW17092   1.988   2.913   5.711  0.4256  0.4186  0.3085
 1820SOL    HW117093   2.006   2.901   5.618 -0.3875  1.2778  0.0418
 1820SOL    HW217094   2.065   2.875   5.754  0.9742  0.7034 -0.4383
 1821SOL     OW17095   4.674   4.427   2.101 -0.3204 -0.2901  0.6903
 1821SOL    HW117096   4.639   4.474   2.025 -0.7888 -3.7346 -1.2411
 1821SOL    HW217097   4.680   4.338   2.066  1.1648 -0.1440  0.5529
 1822SOL     OW17098   2.398   1.066  16.901 -0.3438 -0.0622  0.3871
 1822SOL    HW117099   2.369   1.076  16.811 -1.8153  3.5330  1.2326
 1822SOL    HW217100   2.441   1.151  16.908 -0.1100  0.0119 -2.1696
 1823SOL     OW17101   3.947   3.295   9.011 -0.0621  0.1047 -0.0008
 1823SOL    HW117102   4.034   3.263   9.033 -0.1441  0.4000  0.7482
 1823SOL    HW217103   3.890   3.225   9.044  0.1119  0.0250  0.1274
 1824SOL     OW17104   0.488   0.269  15.745  0.6814  0.0409 -0.3951
 1824SOL    HW117105   0.529   0.272  15.659  0.3823  0.0930 -0.5385
 1824SOL    HW217106   0.559   0.290  15.806 -1.6128  0.6551  2.0802
 1825SOL     OW17107   1.432   0.633   2.793  0.2346 -0.4121  0.2985
 1825SOL    HW117108   1.462   0.630   2.883  0.6663  0.1021  0.1702
 1825SOL    HW217109   1.515   0.607   2.753  1.3805  1.7060  1.3198
 1826SOL     OW17110   2.949   3.230  10.512 -0.1053  0.4566 -0.1699
 1826SOL    HW117111   2.997   3.280  10.579  1.6661  1.2487 -2.0485
 1826SOL    HW217112   2.949   3.144  10.554 -1.0536  0.5240 -0.0348
 1827SOL     OW17113   2.041   2.253   5.716 -0.2130 -0.6913  0.3211
 1827SOL    HW117114   2.001   2.315   5.654 -0.0947 -0.7412  0.1952
 1827SOL    HW217115   1.967   2.213   5.761 -0.9260 -1.3335 -1.3962
 1828SOL     OW17116   3.666   0.312  15.124 -0.3297  0.5794 -0.4102
 1828SOL    HW117117   3.666   0.326  15.029  1.2676  0.3436 -0.4542
 1828SOL    HW217118   3.642   0.403  15.141  0.1002  0.9785 -1.8872
 1829SOL     OW17119   2.930   3.760  16.554  0.0250  0.4275  0.2311
 1829SOL    HW117120   2.844   3.752  16.512 -0.0414  1.2245  0.2089
 1829SOL    HW217121   2.958   3.851  16.565 -2.8605  1.3146  0.5130
 1830SOL     OW17122   3.433   1.317  12.862 -0.7160  0.7211 -0.2444
 1830SOL    HW117123   3.496   1.251  12.833 -2.9724 -0.6954 -1.9325
 1830SOL    HW217124   3.348   1.274  12.856 -0.4788  0.0466  1.2634
 1831SOL     OW17125   0.950   3.985   1.493  0.2597 -0.4031 -0.0111
 1831SOL    HW117126   0.960   3.919   1.425  1.0618  0.3641 -0.6356
 1831SOL    HW217127   0.975   3.934   1.569  1.3313  1.9414  1.2232
 1832SOL     OW17128   4.324   2.528  12.928  0.1560  0.2154 -0.4183
 1832SOL    HW117129   4.303   2.503  13.018  2.1287 -0.2727 -0.0845
 1832SOL    HW217130   4.375   2.455  12.892  1.6518  0.1279  1.8473
 1833SOL     OW17131   0.259   3.058  10.876 -0.7643  0.1015  0.4139
 1833SOL    HW117132   0.306   3.036  10.795  0.0224 -0.1930  0.9501
 1833SOL    HW217133   0.218   3.140  10.847 -0.1839  0.9718  2.0444
 1834SOL     OW17134   4.040   3.587   0.210  0.5731  0.1113  0.3572
 1834SOL    HW117135   3.959   3.540   0.192 -0.0589  1.5221 -0.4810
 1834SOL    HW217136   4.028   3.673   0.170 -1.4176 -1.2877 -2.0462
 1835SOL     OW17137   2.016   0.683   8.573  0.0447  0.1639 -0.0629
 1835SOL    HW117138   1.924   0.708   8.562 -0.2696 -1.3566 -0.8726
 1835SOL    HW217139   2.052   0.685   8.485 -1.7794  1.0184 -0.8011
 1836SOL     OW17140   0.356   4.539   5.831  0.1683 -0.3352 -0.2113
 1836SOL    HW117141   0.383   4.611   5.888 -0.1837 -2.1587  2.3063
 1836SOL    HW217142   0.352   4.589   5.750 -0.6016 -1.7530 -1.0439
 1837SOL     OW17143   0.739   1.165  14.107 -0.1154 -0.2959  0.4234
 1837SOL    HW117144   0.789   1.143  14.028  0.0448  1.7272 -0.0504
 1837SOL    HW217145   0.653   1.175  14.066  0.6585 -0.2761 -1.1688
 1838SOL     OW17146   1.535   1.246   7.435 -0.6965  0.4456 -0.3847
 1838SOL    HW117147   1.568   1.325   7.391 -1.4485  0.4111 -1.0098
 1838SOL    HW217148   1.611   1.224   7.489 -1.6562 -0.3116  0.6218
 1839SOL     OW17149   0.992   3.983  10.677 -0.2927  0.3458 -0.2754
 1839SOL    HW117150   0.981   3.981  10.772  1.8652  0.7274 -0.0217
 1839SOL    HW217151   0.906   4.017  10.650 -0.7178 -0.0851  0.5578
 1840SOL     OW17152   3.600   1.900   3.902  0.4945  0.4395  0.6311
 1840SOL    HW117153   3.580   1.835   3.835 -3.5005 -0.1964  2.4205
 1840SOL    HW217154   3.652   1.848   3.963 -1.5789 -1.7112  0.5281
 1841SOL     OW17155   0.320   0.028   3.199  0.0273  0.0723 -0.6054
 1841SOL    HW117156   0.278   4.691   3.154 -1.1153  0.5607 -0.3114
 1841SOL    HW217157   0.264   0.106   3.196  2.7764  2.0561 -1.3095
 1842SOL     OW17158   3.265   1.534   1.158 -0.0255  0.4941 -0.2232
 1842SOL    HW117159   3.269   1.582   1.241 -0.2823 -0.6486  0.4466
 1842SOL    HW217160   3.173   1.543   1.132 -0.5093 -0.5855  1.1581
 1843SOL     OW17161   2.578   0.915  12.947  0.0552  0.7623 -0.2806
 1843SOL    HW117162   2.518   0.895  13.019 -1.8145  1.3719 -1.6679
 1843SOL    HW217163   2.608   1.001  12.974 -0.9060 -0.2151  3.9324
 1844SOL     OW17164   2.964   3.740   3.013 -0.1827 -0.6098 -0.2074
 1844SOL    HW117165   2.971   3.675   3.083 -0.1393 -0.7497 -0.3403
 1844SOL    HW217166   3.056   3.759   2.998 -0.5491  0.8784 -0.5886
 1845SOL     OW17167   3.321   0.850   5.763 -0.7884 -0.2002  0.0499
 1845SOL    HW117168   3.416   0.858   5.764 -0.6310 -1.9917  0.2002
 1845SOL    HW217169   3.298   0.866   5.855 -0.5595  0.6751 -0.0478
 1846SOL     OW17170   0.307   1.988   8.641  0.9310  0.1833  0.2789
 1846SOL    HW117171   0.373   2.015   8.705  0.1334  1.8428  0.4278
 1846SOL    HW217172   0.227   2.021   8.684  0.1240  0.0198 -1.1124
 1847SOL     OW17173   0.915   3.088  16.325 -0.1850 -0.1527 -0.5719
 1847SOL    HW117174   0.859   3.065  16.251 -0.4158  0.1007 -0.4743
 1847SOL    HW217175   0.990   3.038  16.293 -0.2071 -1.7410  1.8441
 1848SOL     OW17176   1.089   1.979   9.306 -0.4033  0.3734 -0.2486
 1848SOL    HW117177   1.137   1.930   9.373 -1.1954  1.9831  1.5235
 1848SOL    HW217178   1.058   1.908   9.250  2.1149 -0.4853 -0.5593
 1849SOL     OW17179   0.708   1.622   3.166 -0.7311 -0.3412  0.0146
 1849SOL    HW117180   0.672   1.678   3.236  0.0215 -0.2025  0.2861
 1849SOL    HW217181   0.624   1.581   3.145 -1.5188  2.0413 -1.4866
 1850SOL     OW17182   1.246   2.341  16.805 -0.6507  0.0460 -0.0320
 1850SOL    HW117183   1.178   2.403  16.830 -0.1035  1.4800 -2.1174
 1850SOL    HW217184   1.295   2.383  16.734  2.6075 -0.6157  1.8256
 1851SOL     OW17185   0.395   3.911  14.080 -0.1215 -0.1596  0.4260
 1851SOL    HW117186   0.358   3.842  14.025 -0.1058 -0.6801  1.0663
 1851SOL    HW217187   0.477   3.933  14.034 -0.7377 -0.3377 -0.7659
 1852SOL     OW17188   3.883   1.995   4.560 -0.1243 -0.4949  0.6305
 1852SOL    HW117189   3.951   2.005   4.626  0.7431  1.8317 -0.6124
 1852SOL    HW217190   3.911   2.056   4.491 -1.3193 -1.6356 -0.8675
 1853SOL     OW17191   2.259   2.155   1.570 -0.1776 -0.0601 -0.0210
 1853SOL    HW117192   2.277   2.183   1.660 -0.1686 -0.3325  0.0628
 1853SOL    HW217193   2.271   2.060   1.578  1.1358  0.1804  0.7754
 1854SOL     OW17194   1.231   0.271   8.166 -0.2286 -0.8138 -0.0730
 1854SOL    HW117195   1.158   0.248   8.223  1.4274 -0.2033  2.3220
 1854SOL    HW217196   1.204   0.360   8.143 -0.5123 -0.9087 -0.1056
 1855SOL     OW17197   3.574   1.263   5.578 -0.1705  0.0558  0.0319
 1855SOL    HW117198   3.574   1.239   5.671 -1.8722  0.2235  0.0642
 1855SOL    HW217199   3.496   1.315   5.558  0.6140  0.0588 -2.9510
 1856SOL     OW17200   0.541   0.831   0.289 -0.2382 -0.0368 -0.1690
 1856SOL    HW117201   0.466   0.867   0.337 -1.6827 -1.5205 -1.3228
 1856SOL    HW217202   0.603   0.900   0.314 -0.3561  1.2027 -3.2750
 1857SOL     OW17203   1.743   3.568   7.100  1.0945 -0.4432  0.2154
 1857SOL    HW117204   1.660   3.599   7.065  1.8375 -0.5323 -1.6276
 1857SOL    HW217205   1.795   3.647   7.086  0.1522  0.1453  0.0762
 1858SOL     OW17206   4.487   2.263   4.349 -0.9207  0.0597  0.3897
 1858SOL    HW117207   4.570   2.258   4.395 -0.7459 -0.8883 -0.0309
 1858SOL    HW217208   4.420   2.284   4.414 -1.1003 -0.2815  0.3144
 1859SOL     OW17209   1.239   1.159   3.842  0.6199 -0.4530  0.1062
 1859SOL    HW117210   1.146   1.140   3.846  0.1967  1.6077 -0.0611
 1859SOL    HW217211   1.273   1.118   3.921  4.0643 -0.1401 -1.1911
 1860SOL     OW17212   3.535   0.577  16.723  0.1954  0.1801  0.2283
 1860SOL    HW117213   3.457   0.587  16.667  0.7740 -0.1711 -0.6501
 1860SOL    HW217214   3.538   0.662  16.767 -1.2160 -0.2789  1.2178
 1861SOL     OW17215   4.578   0.318   5.688  0.1296  0.2759 -0.5153
 1861SOL    HW117216   4.670   0.337   5.668  0.1785  0.5970 -0.0078
 1861SOL    HW217217   4.540   0.370   5.617 -1.9474 -2.5917 -1.4781
 1862SOL     OW17218   2.911   1.061   5.336  0.5605  0.0984 -0.0213
 1862SOL    HW117219   3.002   1.040   5.357  0.7071 -0.5781 -1.3238
 1862SOL    HW217220   2.869   1.010   5.406 -1.6787  0.6865 -0.9243
 1863SOL     OW17221   1.340   4.709   6.711  0.2447  0.2924  0.6447
 1863SOL    HW117222   1.337   0.032   6.787 -0.4350 -0.7759  1.4353
 1863SOL    HW217223   1.381   4.634   6.752  3.2022  0.3272 -2.2350
 1864SOL     OW17224   3.329   3.926   4.933 -0.4797  0.1776 -0.0425
 1864SOL    HW117225   3.239   3.909   4.908 -0.8177 -0.9004  1.9352
 1864SOL    HW217226   3.334   3.909   5.027  1.1574 -0.9458 -0.3139
 1865SOL     OW17227   0.818   2.526   9.044  0.1316 -0.2102 -0.2465
 1865SOL    HW117228   0.777   2.583   8.979 -0.5627 -1.0401 -0.5413
 1865SOL    HW217229   0.752   2.513   9.113  1.9744  0.5494  1.6575
 1866SOL     OW17230   3.722   2.078   5.035 -0.0292 -0.2597 -0.2318
 1866SOL    HW117231   3.653   2.127   5.079 -0.1318 -0.7592  0.1499
 1866SOL    HW217232   3.664   2.027   4.978 -0.3395  0.8589 -0.9320
 1867SOL     OW17233   1.948   1.308   4.366  0.1671  0.5915 -0.0783
 1867SOL    HW117234   2.030   1.263   4.345  1.3123  0.8713  3.6507
 1867SOL    HW217235   1.959   1.401   4.349  2.1863  0.6037  1.2399
 1868SOL     OW17236   1.350   3.267   8.437 -0.1674 -0.2761 -0.6613
 1868SOL    HW117237   1.417   3.332   8.458  0.1658 -1.4640  1.9440
 1868SOL    HW217238   1.402   3.187   8.443 -0.0783  0.0281  2.7405
 1869SOL     OW17239   0.679   3.794   4.825  0.1429 -0.2184 -0.0445
 1869SOL    HW117240   0.676   3.803   4.730 -0.9300  0.2546  0.0314
 1869SOL    HW217241   0.588   3.807   4.851  0.1137 -0.3362 -0.0883
 1870SOL     OW17242   2.910   0.852   8.973 -0.2338  0.0700 -0.0792
 1870SOL    HW117243   2.953   0.925   9.018  1.7365  0.4643 -2.5742
 1870SOL    HW217244   2.948   0.775   9.015 -1.6044  0.4173  1.8191
 1871SOL     OW17245   2.632   4.171   4.254 -0.2549 -0.4474 -0.3634
 1871SOL    HW117246   2.618   4.109   4.325 -0.3426  0.9599  0.8314
 1871SOL    HW217247   2.554   4.226   4.257  0.7922  1.0510 -0.2426
 1872SOL     OW17248   1.163   3.471  11.559  0.5271  0.2462  0.5880
 1872SOL    HW117249   1.138   3.561  11.540  1.1951 -0.0392 -1.6073
 1872SOL    HW217250   1.174   3.441  11.469 -2.1008  0.2298  0.2754
 1873SOL     OW17251   2.248   3.702   0.061 -0.5139 -0.5707  0.2020
 1873SOL    HW117252   2.240   3.624   0.115  1.5645 -1.5490 -0.8611
 1873SOL    HW217253   2.203   3.681  17.719 -1.4246  3.1353 -0.2408
 1874SOL     OW17254   2.365   1.123   4.808 -0.6103 -0.2963 -0.7571
 1874SOL    HW117255   2.449   1.079   4.799  0.4260  1.0730  2.1741
 1874SOL    HW217256   2.388   1.216   4.797 -0.2537 -0.2426  0.4815
 1875SOL     OW17257   4.290   3.293   3.147  0.4808  0.2397 -0.1510
 1875SOL    HW117258   4.308   3.361   3.212  1.0431 -1.7409  1.7833
 1875SOL    HW217259   4.224   3.241   3.193  1.0374 -1.7870 -1.6275
 1876SOL     OW17260   3.045   2.990  17.213  0.2632  0.4592  0.7266
 1876SOL    HW117261   3.032   3.084  17.200  0.3116  0.2367 -0.9399
 1876SOL    HW217262   2.957   2.955  17.200 -1.0437  2.8790  3.0339
 1877SOL     OW17263   0.953   0.872   4.099 -0.6243  0.1161 -0.6932
 1877SOL    HW117264   0.909   0.815   4.163  0.7990  0.2084  0.3698
 1877SOL    HW217265   0.993   0.928   4.166 -0.8890  0.2147 -0.6176
 1878SOL     OW17266   4.198   1.053  15.334 -0.6933 -0.0727 -0.4152
 1878SOL    HW117267   4.187   1.133  15.283 -0.1260 -1.2695 -2.4178
 1878SOL    HW217268   4.271   1.016  15.284  1.5463  1.4556  1.6666
 1879SOL     OW17269   4.695   0.998   5.927 -0.4139 -0.0528  0.5083
 1879SOL    HW117270   0.043   1.044   5.929  0.4364 -1.6578  1.3873
 1879SOL    HW217271   4.706   0.934   5.856 -1.1789 -0.4062  0.7092
 1880SOL     OW17272   4.210   4.562   3.677 -0.3713  0.0232 -0.5000
 1880SOL    HW117273   4.209   4.651   3.640  0.1392 -0.4405 -1.6067
 1880SOL    HW217274   4.266   4.517   3.615 -1.0364  1.9809 -2.5306
 1881SOL     OW17275   1.257   3.007   2.450 -0.6522  0.1147 -0.1652
 1881SOL    HW117276   1.216   3.052   2.376  0.5950  1.5951  0.0314
 1881SOL    HW217277   1.176   2.964   2.476 -0.3235  0.4250  1.3410
 1882SOL     OW17278   1.822   1.104   8.693  0.1451  0.0135  0.1441
 1882SOL    HW117279   1.799   1.099   8.601  1.4909 -0.7817 -0.1547
 1882SOL    HW217280   1.756   1.045   8.730 -1.1898  1.2536 -0.2864
 1883SOL     OW17281   2.599   2.798   0.676 -0.4141  0.1935  0.3109
 1883SOL    HW117282   2.549   2.873   0.710  2.5214  2.5933 -0.6097
 1883SOL    HW217283   2.524   2.743   0.697 -0.4221 -1.0077 -2.8708
 1884SOL     OW17284   4.644   4.076   3.432 -0.2195  0.4131 -0.2065
 1884SOL    HW117285   4.735   4.094   3.455 -0.4212  0.2831  0.6811
 1884SOL    HW217286   4.628   4.145   3.368  1.4090 -0.9193 -2.0756
 1885SOL     OW17287   0.376   2.907   1.951  0.3167 -0.5471  0.4960
 1885SOL    HW117288   0.405   2.995   1.926  0.8675 -1.1086 -0.8046
 1885SOL    HW217289   0.410   2.910   2.041 -1.1308  1.6875  0.9478
 1886SOL     OW17290   3.326   3.105   6.739 -0.5919  0.3219  0.3946
 1886SOL    HW117291   3.315   3.200   6.740  0.4367  0.4784 -2.1075
 1886SOL    HW217292   3.255   3.089   6.677 -0.8801 -0.1969  0.8537
 1887SOL     OW17293   1.084   4.364  11.679  0.5831  0.3474  0.4988
 1887SOL    HW117294   1.116   4.288  11.629  0.2340  0.2708  0.3971
 1887SOL    HW217295   1.129   4.359  11.764  0.7260  0.8149  0.4461
 1888SOL     OW17296   0.655   0.804  11.610  0.5114  0.2310  0.2295
 1888SOL    HW117297   0.694   0.842  11.689 -1.1042  0.8337  0.7340
 1888SOL    HW217298   0.712   0.840  11.542 -0.3213 -0.3160 -0.7718
 1889SOL     OW17299   1.916   1.234   1.743 -0.3105 -0.2626 -0.1178
 1889SOL    HW117300   1.983   1.300   1.759  1.4651 -1.7416 -1.4750
 1889SOL    HW217301   1.948   1.174   1.676  1.3882  1.0240 -0.4481
 1890SOL     OW17302   1.557   1.959  14.398  0.4191 -0.4883  0.1704
 1890SOL    HW117303   1.533   2.049  14.377 -1.0142  0.0458  4.0124
 1890SOL    HW217304   1.649   1.963  14.372  1.0111 -0.5987  2.2011
 1891SOL     OW17305   3.616   0.226   4.961 -0.4146 -0.2042 -0.2930
 1891SOL    HW117306   3.584   0.243   5.050  0.1365  0.0948 -0.1542
 1891SOL    HW217307   3.687   0.168   4.987 -0.4220  0.4010  1.0841
 1892SOL     OW17308   2.157   1.584  16.051  0.1166 -0.1371  0.1328
 1892SOL    HW117309   2.174   1.591  15.957  1.0679  0.5923  0.3515
 1892SOL    HW217310   2.118   1.497  16.047  0.3657 -0.2269 -0.4561
 1893SOL     OW17311   0.108   4.266   2.281  0.0541  0.2102  0.0406
 1893SOL    HW117312   0.053   4.329   2.235 -0.7586 -0.1416  0.5424
 1893SOL    HW217313   0.066   4.185   2.255  2.0613 -0.5717 -0.7317
 1894SOL     OW17314   2.404   4.256   6.103  1.0258 -0.2507  0.2792
 1894SOL    HW117315   2.485   4.284   6.145  1.4549  1.7716 -1.8942
 1894SOL    HW217316   2.438   4.245   6.014  3.1380 -2.3530  1.3409
 1895SOL     OW17317   4.361   1.117   6.802 -0.0256 -0.4218  0.3466
 1895SOL    HW117318   4.314   1.034   6.809 -0.1567 -0.5784 -2.5471
 1895SOL    HW217319   4.416   1.125   6.880 -1.1239 -0.9826  1.1721
 1896SOL     OW17320   2.327   2.293  12.505 -0.4259  0.1110 -0.0327
 1896SOL    HW117321   2.280   2.361  12.554 -0.4649 -1.8952  2.6943
 1896SOL    HW217322   2.332   2.335  12.419 -1.9964 -2.2911 -1.3013
 1897SOL     OW17323   1.228   3.054   0.280  0.2748 -0.0095  0.8363
 1897SOL    HW117324   1.180   2.973   0.264  2.4718 -1.5226  1.8766
 1897SOL    HW217325   1.150   3.106   0.301  0.7886  0.4909  1.5277
 1898SOL     OW17326   2.361   2.098   8.409 -0.3595 -0.5842  0.2998
 1898SOL    HW117327   2.360   2.126   8.500  0.7089  0.8124 -0.1317
 1898SOL    HW217328   2.300   2.160   8.369 -0.1396 -0.9370 -0.5829
 1899SOL     OW17329   2.330   1.949   5.378  0.5779 -0.4443 -0.1977
 1899SOL    HW117330   2.279   1.884   5.428 -2.6273  2.4583  0.3285
 1899SOL    HW217331   2.337   2.024   5.438  2.2638 -0.9924  0.2749
 1900SOL     OW17332   3.493   3.738   5.170  0.2141  0.1950 -0.1296
 1900SOL    HW117333   3.496   3.832   5.187  2.3833  0.3340 -1.2318
 1900SOL    HW217334   3.401   3.717   5.183 -0.1166  0.3555 -2.1849
 1901SOL     OW17335   0.578   3.940   1.326 -0.3812 -0.3256  0.3125
 1901SOL    HW117336   0.527   3.925   1.246  0.2395  1.0437 -0.3290
 1901SOL    HW217337   0.645   3.872   1.314 -0.2829 -0.1569 -0.1074
 1902SOL     OW17338   0.429   4.173  16.344  0.0760 -0.6573 -0.1736
 1902SOL    HW117339   0.444   4.149  16.253 -4.5587  0.5295 -1.2308
 1902SOL    HW217340   0.513   4.217  16.355 -1.0695  1.1449  1.3281
 1903SOL     OW17341   3.497   1.670   7.954  0.4761 -0.0542  0.1000
 1903SOL    HW117342   3.555   1.742   7.978 -0.6563  0.6606  0.6892
 1903SOL    HW217343   3.424   1.706   8.005 -0.4649  0.0903 -1.3448
 1904SOL     OW17344   0.065   2.873   2.997  0.5993 -0.2274  0.2645
 1904SOL    HW117345   4.707   2.891   2.980  0.6060 -0.4712 -0.0206
 1904SOL    HW217346   0.077   2.926   3.075 -0.0448 -0.8822  0.8110
 1905SOL     OW17347   4.320   2.195   1.732  0.0948  0.0261 -0.1975
 1905SOL    HW117348   4.407   2.159   1.749  1.7228  2.9699 -2.1701
 1905SOL    HW217349   4.333   2.290   1.736 -1.3332  0.2276 -0.2259
 1906SOL     OW17350   2.613   0.129   9.823  0.3602  0.0113 -0.0611
 1906SOL    HW117351   2.704   0.136   9.793  0.1792  0.1074 -0.5836
 1906SOL    HW217352   2.623   0.066   9.894 -0.6125  0.4987  0.4944
 1907SOL     OW17353   1.205   1.899   2.205 -0.2053  0.0671  0.1398
 1907SOL    HW117354   1.212   1.804   2.212  1.9059  0.3670  2.1754
 1907SOL    HW217355   1.289   1.926   2.243 -1.1719  1.3828  1.3822
 1908SOL     OW17356   4.154   0.529  11.230 -0.4468 -0.1951  0.2781
 1908SOL    HW117357   4.227   0.498  11.284 -0.0052 -0.0458 -0.2297
 1908SOL    HW217358   4.095   0.564  11.297 -0.9057 -1.9083  0.7618
 1909SOL     OW17359   0.218   0.881   9.029 -0.0801  0.4956  0.4032
 1909SOL    HW117360   0.134   0.905   8.989  1.0860  1.9381 -1.1813
 1909SOL    HW217361   0.185   0.835   9.107 -1.1731  0.8220  0.1386
 1910SOL     OW17362   2.052   0.502   3.805 -0.2759  0.0537 -0.7312
 1910SOL    HW117363   2.005   0.484   3.886  0.4728 -0.2858 -0.3754
 1910SOL    HW217364   2.045   0.421   3.754 -0.3263  0.4341 -1.3371
 1911SOL     OW17365   0.277   3.749   0.824 -0.8322  0.3987 -0.2522
 1911SOL    HW117366   0.222   3.828   0.825 -0.0369  0.9753 -2.1233
 1911SOL    HW217367   0.214   3.684   0.854 -0.9659 -0.3507 -2.1818
 1912SOL     OW17368   1.087   1.999   7.783 -0.1979  0.2815 -0.1947
 1912SOL    HW117369   1.023   1.984   7.853 -0.8299  0.6597 -0.6893
 1912SOL    HW217370   1.032   2.034   7.713  1.2750  2.9926  0.0179
 1913SOL     OW17371   3.205   3.046   8.897  0.0888 -0.9781 -0.0720
 1913SOL    HW117372   3.198   3.120   8.958 -0.4965  1.5489 -3.2023
 1913SOL    HW217373   3.170   2.972   8.947 -0.4919  0.9395  2.3472
 1914SOL     OW17374   4.027   1.070  17.089 -0.1876  0.3973  0.6026
 1914SOL    HW117375   4.057   1.088  17.000 -0.3830 -1.8882  0.0610
 1914SOL    HW217376   3.972   0.993  17.078 -2.8309  2.2295  1.0179
 1915SOL     OW17377   0.818   0.988   4.491 -0.6474  0.2567 -0.8020
 1915SOL    HW117378   0.758   1.026   4.426 -0.6175  1.1141 -0.3280
 1915SOL    HW217379   0.890   0.974   4.430 -0.0951  0.5866 -0.2231
 1916SOL     OW17380   4.155   4.681   1.964  0.4120  0.2835 -0.1108
 1916SOL    HW117381   4.147   4.586   1.951 -0.2575 -0.0792  2.8757
 1916SOL    HW217382   4.078   4.713   2.011 -0.7604  2.1994 -3.3756
 1917SOL     OW17383   1.809   4.116   4.882 -0.2088  0.1410 -0.1094
 1917SOL    HW117384   1.889   4.149   4.923 -0.7622 -1.0988  1.9586
 1917SOL    HW217385   1.846   4.035   4.844  0.6509  0.3021  0.3814
 1918SOL     OW17386   2.910   4.351  11.685  0.1568 -0.1878  0.2109
 1918SOL    HW117387   2.926   4.378  11.594  2.4632 -1.4471  0.2458
 1918SOL    HW217388   2.957   4.268  11.685 -0.0187 -0.2893  0.4380
 1919SOL     OW17389   3.287   0.783  11.890  0.4263 -0.1622 -0.2819
 1919SOL    HW117390   3.202   0.779  11.933  0.7472  0.2303  0.3796
 1919SOL    HW217391   3.333   0.707  11.926 -2.7267 -0.3489  3.3044
 1920SOL     OW17392   3.178   4.604  16.857  0.1844  0.9736  0.2750
 1920SOL    HW117393   3.142   4.561  16.779 -1.1450  1.0764  0.8306
 1920SOL    HW217394   3.135   4.541  16.915 -0.1044 -0.9020 -1.9918
 1921SOL     OW17395   3.891   2.677   1.088 -0.1514 -0.0318 -0.2694
 1921SOL    HW117396   3.926   2.700   1.002  0.6549 -0.6292 -0.1029
 1921SOL    HW217397   3.971   2.639   1.126 -1.1885 -1.6596  0.2943
 1922SOL     OW17398   4.607   3.000  12.184  0.1200  0.0717  0.0587
 1922SOL    HW117399   4.696   2.967  12.195  0.0457  0.4706  1.8059
 1922SOL    HW217400   4.557   2.950  12.249  1.1357 -1.4205 -0.3156
 1923SOL     OW17401   3.856   1.621   1.180 -0.2943 -0.0721  0.1298
 1923SOL    HW117402   3.878   1.534   1.147 -0.1897  0.0478 -0.1153
 1923SOL    HW217403   3.938   1.642   1.224  1.1282  2.1345 -3.5672
 1924SOL     OW17404   3.993   0.123   6.241  0.0305 -0.4912  0.2180
 1924SOL    HW117405   3.986   0.204   6.190  3.2158 -0.5667 -0.2862
 1924SOL    HW217406   4.085   0.115   6.263  0.3899  1.0145 -0.7365
 1925SOL     OW17407   0.284   1.163  16.054 -0.3639 -0.2685 -0.3508
 1925SOL    HW117408   0.288   1.144  16.147 -0.5994  0.8315 -0.1229
 1925SOL    HW217409   0.265   1.256  16.041  1.7003 -0.0632 -1.9985
 1926SOL     OW17410   1.374   4.036  12.645  0.4764 -0.5446  0.1104
 1926SOL    HW117411   1.420   4.077  12.718  2.0564  0.3648 -1.3856
 1926SOL    HW217412   1.440   3.966  12.643  1.0385 -0.0304  1.0611
 1927SOL     OW17413   0.680   3.793   2.530  0.3517 -0.1460 -0.6494
 1927SOL    HW117414   0.687   3.884   2.501  1.4844 -0.1078 -0.2840
 1927SOL    HW217415   0.587   3.773   2.531  0.7552 -2.0860 -1.2067
 1928SOL     OW17416   3.080   4.404   3.327  0.4947 -0.3444  0.1846
 1928SOL    HW117417   3.033   4.334   3.282 -2.6115  1.2309  0.9158
 1928SOL    HW217418   3.124   4.353   3.394  0.4980 -0.3702  0.1630
 1929SOL     OW17419   3.123   4.362  10.110 -0.3025  0.8484  0.2915
 1929SOL    HW117420   3.137   4.451  10.142  1.2348  0.3819  0.9424
 1929SOL    HW217421   3.042   4.375  10.061  0.4172 -2.1258 -1.6867
 1930SOL     OW17422   0.115   3.759   1.659  0.4034 -0.3906 -0.1013
 1930SOL    HW117423   0.176   3.767   1.732  0.2778  2.0514 -0.2721
 1930SOL    HW217424   0.065   3.681   1.681 -0.1347  0.3103  1.1388
 1931SOL     OW17425   1.808   3.920  13.430  0.0586  0.1367 -0.1108
 1931SOL    HW117426   1.805   3.940  13.336  4.0013  1.4122  0.0056
 1931SOL    HW217427   1.822   4.011  13.454 -2.4212  0.1205  1.3573
 1932SOL     OW17428   1.484   1.412   3.931  0.3033  0.3358 -0.0461
 1932SOL    HW117429   1.394   1.445   3.932  0.1061 -0.1500 -1.1581
 1932SOL    HW217430   1.491   1.361   3.850 -0.2762 -1.2579  0.8981
 1933SOL     OW17431   2.351   0.325   4.600 -0.3984 -0.2616  0.8755
 1933SOL    HW117432   2.423   0.383   4.626 -0.1774 -0.2657  0.2551
 1933SOL    HW217433   2.304   0.384   4.542  2.0446 -0.1926 -1.0345
 1934SOL     OW17434   1.611   0.217  14.709 -0.1654 -0.1271 -0.2242
 1934SOL    HW117435   1.693   0.259  14.684 -0.4435 -1.2274 -2.9498
 1934SOL    HW217436   1.588   0.182  14.623 -1.9184  2.0646 -0.6530
 1935SOL     OW17437   4.208   0.716   8.981  0.2299 -0.4715 -0.3522
 1935SOL    HW117438   4.151   0.640   8.979 -1.3342  0.6575  0.5635
 1935SOL    HW217439   4.292   0.688   8.944 -1.5137 -4.1905 -1.4418
 1936SOL     OW17440   0.457   4.686   7.907  0.7057 -0.0968  0.2457
 1936SOL    HW117441   0.464   0.041   7.938 -0.7092 -0.2882  1.0994
 1936SOL    HW217442   0.403   4.696   7.828  1.1870  0.5695  0.0033
 1937SOL     OW17443   3.062   3.775  14.382 -0.1746  0.5931 -0.6215
 1937SOL    HW117444   3.069   3.786  14.287  1.7946  1.8157 -0.3333
 1937SOL    HW217445   2.979   3.729  14.387  0.1915  0.2552  2.6439
 1938SOL     OW17446   4.629   2.943  13.868  0.3104  0.8997  0.2985
 1938SOL    HW117447   4.588   3.003  13.806  0.0298  0.3719 -0.0294
 1938SOL    HW217448   4.718   2.961  13.838  0.0815  1.9496  0.2561
 1939SOL     OW17449   3.378   2.113   6.859  0.0448  0.0856 -0.3700
 1939SOL    HW117450   3.321   2.133   6.933 -0.0048  0.9726 -0.6489
 1939SOL    HW217451   3.347   2.029   6.823  0.6430 -0.7357  1.0262
 1940SOL     OW17452   1.864   4.654   7.697  0.2067  0.0079 -0.3494
 1940SOL    HW117453   1.919   4.732   7.691  0.1122 -0.0040 -1.2955
 1940SOL    HW217454   1.777   4.679   7.664 -0.8052  0.7065  2.8341
 1941SOL     OW17455   1.477   0.194  15.173  0.2716 -0.3601 -0.4536
 1941SOL    HW117456   1.386   0.195  15.142 -0.0303  1.1922  0.4511
 1941SOL    HW217457   1.477   0.102  15.197  0.4485 -0.0692  0.6667
 1942SOL     OW17458   3.123   0.458   1.607  0.0051 -0.5855  0.3536
 1942SOL    HW117459   3.135   0.368   1.577 -1.0380 -0.4738 -0.4002
 1942SOL    HW217460   3.042   0.483   1.562  1.1539  1.9057 -0.3603
 1943SOL     OW17461   1.675   4.048   4.126 -0.3804  0.1196 -0.7209
 1943SOL    HW117462   1.626   3.968   4.145  0.4840 -0.4073 -0.6782
 1943SOL    HW217463   1.686   4.033   4.032  0.3050 -1.9564 -0.2988
 1944SOL     OW17464   4.697   2.314   9.117 -1.1408 -0.0376 -0.0175
 1944SOL    HW117465   4.656   2.350   9.038 -0.1724  0.8104 -0.1310
 1944SOL    HW217466   4.621   2.277   9.161  1.6374 -4.9543  0.7313
 1945SOL     OW17467   3.889   0.186   3.558 -0.0913 -0.3258  0.7873
 1945SOL    HW117468   3.909   0.257   3.620  0.4995  2.7573 -2.9441
 1945SOL    HW217469   3.897   0.108   3.613 -0.0311 -1.3707 -0.7114
 1946SOL     OW17470   2.147   3.401   3.406 -0.0881  0.1391 -0.0775
 1946SOL    HW117471   2.105   3.318   3.430 -1.1693  0.6027 -0.3740
 1946SOL    HW217472   2.103   3.470   3.455  0.3580 -0.5001  1.2106
 1947SOL     OW17473   1.955   3.951   7.549 -0.2391 -0.4586  0.0789
 1947SOL    HW117474   1.902   3.966   7.627  2.0712 -0.3751  1.6382
 1947SOL    HW217475   1.996   4.037   7.537  2.1697 -1.6060  0.0357
 1948SOL     OW17476   1.252   3.626   3.119  0.0310 -0.5126 -0.1667
 1948SOL    HW117477   1.173   3.638   3.066 -0.2746  1.0373  0.6420
 1948SOL    HW217478   1.222   3.661   3.203 -1.2967 -0.7091 -0.5679
 1949SOL     OW17479   0.341   0.437   7.746  0.3681  0.4478 -0.0839
 1949SOL    HW117480   0.373   0.428   7.656 -2.8542  0.8696 -1.2618
 1949SOL    HW217481   0.323   0.530   7.743 -1.0319  0.1615 -0.5301
 1950SOL     OW17482   2.630   2.091   8.474 -0.1508  0.2498 -0.9705
 1950SOL    HW117483   2.538   2.073   8.453 -0.6662  1.6636  0.0214
 1950SOL    HW217484   2.622   2.182   8.504  0.6303 -0.2493  0.6900
 1951SOL     OW17485   1.217   4.266  11.313  0.1491  0.1434 -0.1236
 1951SOL    HW117486   1.268   4.251  11.393  1.7600  1.5894 -0.8597
 1951SOL    HW217487   1.146   4.208  11.339  0.1018  0.8489  1.3312
 1952SOL     OW17488   2.697   0.504  13.930  0.3002  0.2521  0.8696
 1952SOL    HW117489   2.616   0.528  13.885  1.0511 -2.7892 -2.0585
 1952SOL    HW217490   2.721   0.590  13.964  0.0716 -0.1245  2.0054
 1953SOL     OW17491   2.865   1.812   0.938 -0.3794 -0.2368  0.5830
 1953SOL    HW117492   2.890   1.766   0.858 -1.8772 -1.8918  1.0607
 1953SOL    HW217493   2.938   1.873   0.953  0.2994 -0.7794 -0.5118
 1954SOL     OW17494   1.666   2.248   1.870  0.4588 -0.2694  0.1456
 1954SOL    HW117495   1.571   2.259   1.874  0.6205  0.6037  1.4587
 1954SOL    HW217496   1.689   2.158   1.896 -0.0695 -0.2383  0.7282
 1955SOL     OW17497   4.601   3.223   4.784  0.2226 -0.1950  0.3913
 1955SOL    HW117498   4.659   3.296   4.806  2.0883 -0.9654 -1.9668
 1955SOL    HW217499   4.564   3.180   4.862 -0.8044  3.4674  1.8958
 1956SOL     OW17500   4.451   2.220   8.986 -0.1774  0.1375 -0.1310
 1956SOL    HW117501   4.364   2.260   8.996  0.3824  1.7267 -1.7702
 1956SOL    HW217502   4.455   2.217   8.890  2.8652  0.7097  0.0048
 1957SOL     OW17503   1.813   3.656   4.659  0.2113 -0.2068 -0.4383
 1957SOL    HW117504   1.773   3.738   4.630  0.0888 -0.9012 -2.2367
 1957SOL    HW217505   1.758   3.628   4.734 -0.5767 -3.2509 -2.1411
 1958SOL     OW17506   0.627   3.211  16.607  0.6272  0.8756 -0.0616
 1958SOL    HW117507   0.622   3.240  16.698  0.4069  0.7185 -0.0211
 1958SOL    HW217508   0.547   3.158  16.606  1.2796 -0.0803 -2.5430
 1959SOL     OW17509   1.302   3.188   2.184  0.6819 -0.0988  0.1677
 1959SOL    HW117510   1.344   3.105   2.162  1.1223 -0.2824  1.6729
 1959SOL    HW217511   1.211   3.159   2.181  1.2928 -1.8150 -1.9428
 1960SOL     OW17512   1.840   0.415  13.041  0.9397 -0.6496  0.3442
 1960SOL    HW117513   1.821   0.499  13.000  3.3194 -0.4766 -0.4095
 1960SOL    HW217514   1.752   0.382  13.023 -0.1816  1.4017  1.9412
 1961SOL     OW17515   3.547   1.638   3.284 -0.0062 -0.8013  0.6139
 1961SOL    HW117516   3.542   1.601   3.196 -1.1236 -2.3334  1.3083
 1961SOL    HW217517   3.566   1.728   3.256 -2.2834 -0.8391 -1.0827
 1962SOL     OW17518   4.484   3.214  16.586 -0.2843  0.2744  0.3726
 1962SOL    HW117519   4.436   3.157  16.526 -1.9147  1.7251  0.3034
 1962SOL    HW217520   4.430   3.293  16.583  0.0245  0.4193 -1.4683
 1963SOL     OW17521   3.156   0.955   8.402 -0.3761 -0.3795 -0.4511
 1963SOL    HW117522   3.154   0.868   8.363  2.6767 -1.2350  1.2928
 1963SOL    HW217523   3.251   0.962   8.414 -0.4893 -1.0500  0.8118
 1964SOL     OW17524   3.368   0.151  13.988 -0.3089 -0.1686 -0.6107
 1964SOL    HW117525   3.315   0.230  13.977  0.7137  0.3511 -1.8243
 1964SOL    HW217526   3.451   0.198  14.000  0.0756 -1.4388  1.7474
 1965SOL     OW17527   3.769   1.231   5.900 -0.2657  0.0741 -0.1200
 1965SOL    HW117528   3.852   1.229   5.947  0.4026 -1.2573 -1.3262
 1965SOL    HW217529   3.755   1.325   5.895  1.4194  0.3425  0.1081
 1966SOL     OW17530   0.169   3.654   6.935  0.0383  0.0591  0.3304
 1966SOL    HW117531   0.186   3.674   6.843 -2.3668  0.4878 -0.0188
 1966SOL    HW217532   0.117   3.573   6.927 -1.2316  1.1290 -2.2245
 1967SOL     OW17533   1.189   2.217   6.731 -0.4552 -0.2149 -0.8093
 1967SOL    HW117534   1.148   2.300   6.758  1.3420  0.3319  0.2782
 1967SOL    HW217535   1.279   2.250   6.729  0.2467 -1.9975  1.2080
 1968SOL     OW17536   0.554   0.627  11.087  0.6617 -0.2208  0.1043
 1968SOL    HW117537   0.469   0.628  11.043  0.5133 -0.3846  0.3876
 1968SOL    HW217538   0.607   0.628  11.008 -0.1264 -1.5176 -0.4376
 1969SOL     OW17539   4.106   1.664   5.843 -0.7190  0.5012 -0.4701
 1969SOL    HW117540   4.169   1.696   5.908  1.4059 -0.6594 -1.9369
 1969SOL    HW217541   4.132   1.709   5.763  0.3512 -0.6757 -0.7834
 1970SOL     OW17542   1.458   1.947   8.525 -0.0196  0.7521  0.2748
 1970SOL    HW117543   1.553   1.938   8.531 -0.1025  0.2383  0.8067
 1970SOL    HW217544   1.450   2.004   8.448  2.2596 -0.2706 -0.7067
 1971SOL     OW17545   2.214   0.314   8.973 -0.6359 -0.0036  0.0351
 1971SOL    HW117546   2.174   0.401   8.977 -2.2694 -0.6493 -2.5233
 1971SOL    HW217547   2.142   0.257   8.945 -0.5508 -0.2556  0.3277
 1972SOL     OW17548   3.194   1.437  12.653  0.2989  0.2418 -0.5140
 1972SOL    HW117549   3.189   1.428  12.558  0.0539 -2.4151 -0.2363
 1972SOL    HW217550   3.198   1.349  12.691  2.8806  0.2413 -0.7853
 1973SOL     OW17551   0.747   3.144   4.809 -0.2980  0.0094  0.0876
 1973SOL    HW117552   0.657   3.161   4.780  0.1628 -1.2225 -2.1209
 1973SOL    HW217553   0.728   3.137   4.903  0.1984 -0.8026  0.1223
 1974SOL     OW17554   3.226   3.179  14.722 -0.1284 -0.5541 -0.1525
 1974SOL    HW117555   3.177   3.140  14.794  0.3662  0.0764  0.5245
 1974SOL    HW217556   3.160   3.189  14.654  0.5979 -0.0031 -0.7769
 1975SOL     OW17557   2.820   3.357  15.922  0.4726  0.2430 -0.0261
 1975SOL    HW117558   2.809   3.386  16.013 -0.8890 -2.2081  0.5887
 1975SOL    HW217559   2.856   3.269  15.935  2.0518  0.5764 -2.0510
 1976SOL     OW17560   0.996   4.094   9.338 -0.0621 -0.3585  0.5360
 1976SOL    HW117561   0.996   4.190   9.331  2.0731 -0.2484  2.2385
 1976SOL    HW217562   0.963   4.070   9.251  3.6962 -0.1650 -0.9717
 1977SOL     OW17563   0.824   0.083  13.454  0.1450 -0.0953  1.2270
 1977SOL    HW117564   0.914   0.051  13.450  0.9155  2.4610 -2.0819
 1977SOL    HW217565   0.789   0.017  13.394  3.6559  0.2837 -1.2321
 1978SOL     OW17566   2.116   2.008   4.718  0.4631  0.2266 -0.2700
 1978SOL    HW117567   2.111   1.924   4.763 -0.1360  0.9331  1.0143
 1978SOL    HW217568   2.145   1.972   4.634  0.0064 -0.4972 -0.1179
 1979SOL     OW17569   3.193   4.097   8.473 -0.1781  0.3601 -0.0022
 1979SOL    HW117570   3.189   4.187   8.504  2.0119  0.8556 -1.1803
 1979SOL    HW217571   3.233   4.108   8.387  0.4088  1.2465  0.3923
 1980SOL     OW17572   1.310   2.232   5.297 -0.0166  0.4882  0.5476
 1980SOL    HW117573   1.284   2.252   5.387  0.2323  1.1723  0.4674
 1980SOL    HW217574   1.329   2.317   5.256  0.4163 -0.4296 -1.1658
 1981SOL     OW17575   0.476   1.940   5.308 -0.1706 -0.1424 -0.0122
 1981SOL    HW117576   0.541   1.888   5.260  0.1735 -0.9030  1.2932
 1981SOL    HW217577   0.494   1.928   5.401 -3.5043  1.2037  0.8107
 1982SOL     OW17578   3.668   2.382  11.863 -0.0013  0.6653  0.0068
 1982SOL    HW117579   3.699   2.471  11.847 -0.4985  0.6932 -0.8019
 1982SOL    HW217580   3.724   2.357  11.936  0.7878 -1.4351 -1.3218
 1983SOL     OW17581   2.581   1.706  10.238  0.0543 -0.3341 -0.0800
 1983SOL    HW117582   2.521   1.699  10.312 -0.0604 -2.4484 -0.3759
 1983SOL    HW217583   2.570   1.619  10.201  1.9310 -1.0306  0.9935
 1984SOL     OW17584   2.781   1.955   5.494  0.7231 -0.0955  1.0716
 1984SOL    HW117585   2.808   2.002   5.573 -0.0070 -1.4103  2.1074
 1984SOL    HW217586   2.809   2.012   5.422  1.1158 -0.7935  0.6747
 1985SOL     OW17587   0.871   3.974  17.726 -0.0412 -0.2694 -0.2992
 1985SOL    HW117588   0.853   4.019  17.643  0.0676  1.4174  0.5834
 1985SOL    HW217589   0.786   3.993   0.027  0.2631 -1.7881  1.0436
 1986SOL     OW17590   3.571   1.377  14.713  0.9149 -0.1636  0.1548
 1986SOL    HW117591   3.485   1.365  14.673  0.8694  0.6834 -0.0016
 1986SOL    HW217592   3.553   1.353  14.804  3.0895  0.7612  0.8222
 1987SOL     OW17593   0.911   2.983  15.553  0.2771 -0.2094  0.4191
 1987SOL    HW117594   0.978   2.916  15.567 -0.7396 -1.0848  1.0830
 1987SOL    HW217595   0.925   3.007  15.461  0.2638 -0.7119  0.2853
 1988SOL     OW17596   3.187   0.519   8.048  0.0937 -0.2149 -0.0064
 1988SOL    HW117597   3.103   0.553   8.018 -1.0275 -1.5916  1.5269
 1988SOL    HW217598   3.171   0.436   8.094 -1.4262 -1.3514 -2.5398
 1989SOL     OW17599   4.611   2.298  10.836  0.5072  0.4938 -0.5772
 1989SOL    HW117600   4.702   2.327  10.825 -0.0681  1.4631 -2.8421
 1989SOL    HW217601   4.617   2.218  10.889 -1.3763 -0.0513 -1.1946
 1990SOL     OW17602   0.087   0.366   0.346  0.2446 -0.1826 -0.1310
 1990SOL    HW117603   0.114   0.456   0.367  1.7851 -0.9871  1.3577
 1990SOL    HW217604   0.166   0.322   0.315 -0.3963  0.1962 -2.2922
 1991SOL     OW17605   3.266   0.051  17.547 -0.0600  0.2286  0.3058
 1991SOL    HW117606   3.211   0.067  17.624 -0.7036 -0.5186  0.0093
 1991SOL    HW217607   3.352   0.056  17.588  0.4993 -1.0820 -0.6964
 1992SOL     OW17608   4.083   0.202   8.125  0.1880  0.2064 -0.1730
 1992SOL    HW117609   4.133   0.159   8.195 -0.5065 -1.8122 -0.9285
 1992SOL    HW217610   3.990   0.189   8.143  0.1822  1.4780  0.7374
 1993SOL     OW17611   2.917   4.074   9.146  0.4279 -0.5268  0.5789
 1993SOL    HW117612   2.846   4.029   9.191  0.4593 -0.3300  0.8262
 1993SOL    HW217613   2.910   4.048   9.054  0.4664  0.6185  0.2503
 1994SOL     OW17614   2.260   3.102   1.605 -0.2092  1.0871 -0.0970
 1994SOL    HW117615   2.318   3.177   1.616  0.0714  1.2052 -2.3322
 1994SOL    HW217616   2.248   3.087   1.699  2.6051  0.8549  0.2191
 1995SOL     OW17617   1.197   1.185   2.393  0.7055  0.6401 -0.6190
 1995SOL    HW117618   1.222   1.103   2.437 -2.3638 -0.2031 -0.4319
 1995SOL    HW217619   1.110   1.160   2.361  1.0088  0.5346 -1.3630
 1996SOL     OW17620   1.631   0.350   6.473 -0.2182  0.0781 -0.6770
 1996SOL    HW117621   1.720   0.314   6.477  0.0034  0.8743  1.8581
 1996SOL    HW217622   1.583   0.267   6.478 -0.2013 -0.0161 -2.0510
 1997SOL     OW17623   2.592   1.790   1.930 -0.9666  0.3169 -0.2168
 1997SOL    HW117624   2.581   1.704   1.890 -0.3685  0.3690 -0.4919
 1997SOL    HW217625   2.625   1.775   2.019  2.2259  0.7990 -1.3342
 1998SOL     OW17626   4.413   4.015   5.966  0.6038 -0.0445  0.1066
 1998SOL    HW117627   4.489   4.021   6.024 -0.1096  3.2893  0.7147
 1998SOL    HW217628   4.382   4.106   5.966  0.4967 -0.0707  1.7292
 1999SOL     OW17629   0.002   2.864   9.003  0.1113 -0.0003  0.1373
 1999SOL    HW117630   4.693   2.935   8.956 -1.2290 -0.8570  0.1241
 1999SOL    HW217631   4.710   2.878   9.094  1.1342  0.0839  0.4283
 2000SOL     OW17632   1.587   3.092   8.877 -0.5926  0.0226  0.1318
 2000SOL    HW117633   1.565   3.166   8.934 -0.6959  0.3965 -0.3958
 2000SOL    HW217634   1.681   3.090   8.895 -1.0138  1.6235  2.5927
 2001SOL     OW17635   3.551   0.043   6.376  0.5543 -0.2136  0.2703
 2001SOL    HW117636   3.644   0.025   6.364  0.7868  1.6495 -0.7062
 2001SOL    HW217637   3.532   0.079   6.289 -1.9098 -0.2863  0.7930
 2002SOL     OW17638   1.220   2.154   4.182  0.3924 -0.5800 -0.5891
 2002SOL    HW117639   1.275   2.220   4.140  0.7162 -0.7718 -0.4658
 2002SOL    HW217640   1.134   2.174   4.147  0.9647 -0.8554 -2.1736
 2003SOL     OW17641   0.759   3.035  15.047 -0.7220 -0.1427 -0.4003
 2003SOL    HW117642   0.678   3.086  15.039 -1.6802 -2.0647 -2.8314
 2003SOL    HW217643   0.733   2.946  15.025 -1.3949 -0.2814  0.9513
 2004SOL     OW17644   1.703   1.860  16.560 -0.1898 -0.5577 -0.5063
 2004SOL    HW117645   1.708   1.880  16.467 -2.0475  0.0763 -0.4688
 2004SOL    HW217646   1.792   1.828  16.573 -0.0538 -0.5450 -1.4175
 2005SOL     OW17647   3.456   1.685   1.813 -0.2031 -0.0925 -0.1226
 2005SOL    HW117648   3.415   1.618   1.758 -0.2387  0.3133 -0.5980
 2005SOL    HW217649   3.385   1.749   1.824 -0.2845 -0.1733 -0.1826
 2006SOL     OW17650   1.748   0.556   3.096  0.0682  0.2002 -0.0822
 2006SOL    HW117651   1.823   0.602   3.057  0.5553 -0.5896 -0.0843
 2006SOL    HW217652   1.785   0.518   3.176 -1.4487 -1.3485 -0.1001
 2007SOL     OW17653   2.424   3.346   1.656  0.2725 -0.2277 -0.0058
 2007SOL    HW117654   2.503   3.326   1.607  0.2464  0.0621 -0.1663
 2007SOL    HW217655   2.445   3.438   1.671 -0.0693 -0.3133  0.9987
 2008SOL     OW17656   2.358   2.644   7.595  0.3433  0.8860 -0.3085
 2008SOL    HW117657   2.435   2.590   7.616 -0.1328 -0.2746 -1.5245
 2008SOL    HW217658   2.351   2.700   7.672 -0.3396 -0.4934  0.6242
 2009SOL     OW17659   3.694   3.853  11.567  0.1949  0.4490  0.0333
 2009SOL    HW117660   3.780   3.888  11.591  0.2817  0.7646 -0.7469
 2009SOL    HW217661   3.638   3.857  11.645 -0.4479  0.7179 -0.4403
 2010SOL     OW17662   1.276   3.418   5.502 -0.3596 -0.0727  0.3696
 2010SOL    HW117663   1.348   3.363   5.536  0.3356 -0.4260 -1.6798
 2010SOL    HW217664   1.216   3.353   5.466  1.5711 -2.5061  1.4684
 2011SOL     OW17665   2.305   0.064   5.324  0.1372  0.1164  0.0105
 2011SOL    HW117666   2.379   0.040   5.268 -0.3316 -0.3132 -0.4272
 2011SOL    HW217667   2.344   0.044   5.409 -0.9992  1.6457  0.8841
 2012SOL     OW17668   3.880   1.781   0.092 -0.3687 -0.2937  0.0546
 2012SOL    HW117669   3.906   1.696   0.127  1.7054  0.7464  1.0249
 2012SOL    HW217670   3.817   1.745   0.029  1.7816  1.0693 -2.8575
 2013SOL     OW17671   3.445   3.704   7.765 -0.0138 -0.4364  0.4195
 2013SOL    HW117672   3.514   3.639   7.748 -0.7624 -1.1275  0.0308
 2013SOL    HW217673   3.475   3.749   7.844 -0.3865 -2.7947  1.9079
 2014SOL     OW17674   2.259   3.203  11.307 -0.4210  0.5377  0.3102
 2014SOL    HW117675   2.174   3.245  11.297 -1.0252 -0.4994  1.0354
 2014SOL    HW217676   2.225   3.127  11.354 -2.2471 -0.0660 -1.9598
 2015SOL     OW17677   3.392   1.288   6.526  0.2917  0.2557 -0.4143
 2015SOL    HW117678   3.440   1.258   6.449 -0.2068  0.3276 -0.7582
 2015SOL    HW217679   3.421   1.241   6.604  2.2609  2.7419  0.3676
 2016SOL     OW17680   2.036   0.906  10.491 -0.1169  0.0465  0.0999
 2016SOL    HW117681   2.090   0.840  10.447  0.7701 -0.0722  1.3938
 2016SOL    HW217682   1.991   0.946  10.416 -0.6876 -0.2457  0.2851
 2017SOL     OW17683   1.787   4.212   2.970 -0.2036  0.3924  0.4001
 2017SOL    HW117684   1.797   4.121   2.998  1.6155  0.7689  0.9562
 2017SOL    HW217685   1.729   4.202   2.893  0.3726 -0.3473  0.0609
 2018SOL     OW17686   1.781   3.733  10.528  0.3834  0.1957  0.3319
 2018SOL    HW117687   1.862   3.715  10.481  0.9735 -2.8933  2.5603
 2018SOL    HW217688   1.746   3.818  10.501  0.1488  0.8101  2.5978
 2019SOL     OW17689   3.361   0.799   7.078 -0.6306 -0.4368 -0.2406
 2019SOL    HW117690   3.323   0.832   7.159 -0.9886  0.7813 -0.8978
 2019SOL    HW217691   3.340   0.869   7.015  0.7181  0.1582 -0.0316
 2020SOL     OW17692   3.651   2.239   0.502  0.3189  0.2157  0.3135
 2020SOL    HW117693   3.571   2.284   0.478 -0.4335  0.1551  2.6444
 2020SOL    HW217694   3.706   2.252   0.425 -0.6977 -0.1146 -0.4588
 2021SOL     OW17695   0.150   3.242  16.469  0.3198  0.0054  0.5344
 2021SOL    HW117696   0.176   3.202  16.552  0.1113  2.7917  1.9283
 2021SOL    HW217697   0.184   3.331  16.481 -0.9861  0.3824  1.3888
 2022SOL     OW17698   0.294   0.959   5.073 -0.7717  0.0643  0.0168
 2022SOL    HW117699   0.313   1.001   4.989  0.4922  0.6360  0.5877
 2022SOL    HW217700   0.382   0.946   5.107 -2.0903 -1.5831  2.7979
 2023SOL     OW17701   4.430   3.210   7.923 -0.1371  0.4143  0.6951
 2023SOL    HW117702   4.488   3.147   7.966  0.2087 -0.4959 -1.0619
 2023SOL    HW217703   4.475   3.293   7.938  0.6399  0.4257 -1.6534
 2024SOL     OW17704   2.188   3.848   7.855  0.0814 -0.1185 -0.0968
 2024SOL    HW117705   2.163   3.917   7.794  1.1277  0.5852  0.2667
 2024SOL    HW217706   2.134   3.778   7.819  0.1903 -1.4482  2.3403
 2025SOL     OW17707   3.149   1.617  17.540  0.4799 -0.1767 -0.2042
 2025SOL    HW117708   3.112   1.598  17.454 -0.4469  0.4410  0.0526
 2025SOL    HW217709   3.180   1.530  17.563  0.3386 -0.1253  0.1825
 2026SOL     OW17710   4.423   3.683   2.936  0.4475  0.1842 -0.2627
 2026SOL    HW117711   4.362   3.609   2.934  2.8887 -1.8949  1.0148
 2026SOL    HW217712   4.481   3.655   3.007  2.4272  2.5412 -0.9487
 2027SOL     OW17713   3.929   1.397   2.837 -0.1915 -0.0792 -0.0015
 2027SOL    HW117714   3.963   1.486   2.826  2.2823 -1.2173 -1.4896
 2027SOL    HW217715   3.990   1.354   2.896 -1.2059 -0.5033  0.7472
 2028SOL     OW17716   2.202   2.411  10.451 -0.7363  0.1710  0.2912
 2028SOL    HW117717   2.175   2.476  10.386  0.3311  1.8198  1.4729
 2028SOL    HW217718   2.290   2.445  10.466  0.0074 -0.8882 -1.7436
 2029SOL     OW17719   4.702   2.942   7.306 -0.1772  0.2107  0.6147
 2029SOL    HW117720   0.008   2.942   7.392  1.3141 -0.4828 -0.0860
 2029SOL    HW217721   0.026   2.886   7.255  0.5338  1.8708 -0.3657
 2030SOL     OW17722   0.386   2.751   4.245 -0.2141 -0.1580  0.2111
 2030SOL    HW117723   0.324   2.773   4.176 -0.2665  2.6834  1.1586
 2030SOL    HW217724   0.355   2.797   4.323  1.5256  0.0439  0.7894
 2031SOL     OW17725   1.128   4.631   7.786 -0.3935  0.2777  0.6988
 2031SOL    HW117726   1.035   4.614   7.804  0.0305 -0.6448  2.0559
 2031SOL    HW217727   1.137   4.584   7.704  0.8586  0.1595  0.9090
 2032SOL     OW17728   3.376   2.241  12.652 -0.3110 -0.1355  0.7573
 2032SOL    HW117729   3.392   2.223  12.745  1.2424  1.1992  0.7566
 2032SOL    HW217730   3.291   2.283  12.659 -0.0782  0.6153 -1.1355
 2033SOL     OW17731   3.759   1.767   7.841  0.1259 -0.5909  0.0732
 2033SOL    HW117732   3.818   1.797   7.910 -0.6144 -0.4213  0.6369
 2033SOL    HW217733   3.710   1.845   7.814 -0.7167 -2.3877 -3.5793
 2034SOL     OW17734   3.383   4.144   9.436  0.2596  0.3055 -0.2480
 2034SOL    HW117735   3.458   4.097   9.474  1.7621  1.2658 -2.0432
 2034SOL    HW217736   3.423   4.198   9.368 -0.6554 -0.5448 -1.4588
 2035SOL     OW17737   3.939   0.749   5.119 -0.1709 -0.3966 -0.1437
 2035SOL    HW117738   3.946   0.721   5.210 -2.3865 -0.4610  0.0133
 2035SOL    HW217739   4.009   0.706   5.069  1.0058 -1.2188  2.2096
 2036SOL     OW17740   3.400   4.578   3.585 -0.1809  0.0536  0.5661
 2036SOL    HW117741   3.341   4.643   3.545 -0.1879  0.4830  1.2715
 2036SOL    HW217742   3.484   4.622   3.575  0.1047 -0.5999  0.1004
 2037SOL     OW17743   0.721   0.986   3.985  0.4013 -0.1532  0.0863
 2037SOL    HW117744   0.776   0.959   4.058 -0.8540  1.3058  1.5594
 2037SOL    HW217745   0.746   0.926   3.914  2.3375  1.6228 -0.7214
 2038SOL     OW17746   3.418   0.174   1.698  0.3945  0.5644  0.0650
 2038SOL    HW117747   3.414   0.112   1.771 -0.3833 -0.5000 -0.9061
 2038SOL    HW217748   3.376   0.250   1.739 -0.0554 -0.0448  0.7210
 2039SOL     OW17749   0.811   1.143   7.222 -0.0959  0.4055  0.1960
 2039SOL    HW117750   0.824   1.051   7.201 -1.1374  0.4073 -0.4934
 2039SOL    HW217751   0.827   1.127   7.315 -0.7789 -1.1930  0.0514
 2040SOL     OW17752   2.072   3.765   9.353  0.3709  0.0927  0.3607
 2040SOL    HW117753   2.123   3.691   9.318 -2.5561 -0.9242 -1.7489
 2040SOL    HW217754   2.020   3.730   9.425 -1.7724 -0.2298 -1.3282
 2041SOL     OW17755   2.850   1.725  10.780 -0.2681  0.2795 -0.3172
 2041SOL    HW117756   2.831   1.658  10.845 -0.2363 -0.1542 -0.7548
 2041SOL    HW217757   2.839   1.801  10.837 -0.1916 -1.2797  1.7887
 2042SOL     OW17758   2.115   1.028   6.888  0.7243 -0.3850 -0.5643
 2042SOL    HW117759   2.074   1.036   6.974  1.3097 -0.8640 -0.2467
 2042SOL    HW217760   2.163   1.111   6.896  3.2874 -1.8660 -0.7234
 2043SOL     OW17761   2.462   2.114   3.825  0.2220 -0.2633  0.4871
 2043SOL    HW117762   2.434   2.191   3.776 -0.8038 -0.9418 -0.0065
 2043SOL    HW217763   2.379   2.077   3.854 -0.1252 -0.5662 -0.8495
 2044SOL     OW17764   3.923   0.137  15.486 -0.2872 -0.2602  0.7265
 2044SOL    HW117765   3.993   0.190  15.447 -1.6649  1.7849  1.0177
 2044SOL    HW217766   3.884   0.100  15.407  0.7008  2.2490 -0.9505
 2045SOL     OW17767   3.774   1.286   6.605 -0.2492  0.2441 -0.1927
 2045SOL    HW117768   3.777   1.322   6.694 -0.3641 -1.0685  0.3361
 2045SOL    HW217769   3.743   1.196   6.613  1.9523 -0.4621  0.2749
 2046SOL     OW17770   0.426   4.572   2.536  0.0723 -0.1864  0.3243
 2046SOL    HW117771   0.369   4.574   2.459  1.0503 -0.0602 -0.3952
 2046SOL    HW217772   0.441   4.478   2.545 -0.8418 -0.4967 -1.3639
 2047SOL     OW17773   3.718   0.138  17.526  0.2959  0.1853 -0.4000
 2047SOL    HW117774   3.675   0.071  17.473  0.8156 -1.9977  1.9325
 2047SOL    HW217775   3.684   0.106  17.610 -1.4283 -1.5457 -1.7528
 2048SOL     OW17776   1.055   1.737   8.448  0.3977  0.0565 -0.4568
 2048SOL    HW117777   1.009   1.820   8.435  2.0859  1.0017 -0.3505
 2048SOL    HW217778   1.117   1.733   8.375 -2.1999 -2.7956 -2.4966
 2049SOL     OW17779   1.591   0.100  14.362 -0.7038  0.4503  0.0539
 2049SOL    HW117780   1.556   0.189  14.373 -0.7304  0.4313  0.1214
 2049SOL    HW217781   1.686   0.109  14.355 -0.3341 -2.1578  1.8656
 2050SOL     OW17782   2.767   0.502   3.226 -0.2799 -0.5005 -0.1007
 2050SOL    HW117783   2.798   0.517   3.315  0.0572 -0.7793 -0.1723
 2050SOL    HW217784   2.716   0.580   3.206 -0.3998 -0.1534  1.5120
 2051SOL     OW17785   3.738   0.797   1.259 -0.3722 -0.6566 -0.0044
 2051SOL    HW117786   3.801   0.839   1.317  1.0251 -2.3883 -0.2757
 2051SOL    HW217787   3.716   0.864   1.193 -0.0742 -0.0224  0.5364
 2052SOL     OW17788   2.161   3.739   8.570  0.1492  0.1411  0.3015
 2052SOL    HW117789   2.119   3.743   8.656  1.6268  0.0702  1.0243
 2052SOL    HW217790   2.089   3.694   8.526  0.9916 -0.0285 -0.9203
 2053SOL     OW17791   1.545   1.615  15.678  0.2586  0.7084  0.4223
 2053SOL    HW117792   1.611   1.587  15.741  0.1482  0.9437  0.6424
 2053SOL    HW217793   1.471   1.558  15.701  2.6286 -2.3292  0.6027
 2054SOL     OW17794   4.472   1.187   2.298 -0.7077 -0.3284 -0.1471
 2054SOL    HW117795   4.462   1.093   2.316 -3.6793  0.1124  0.4935
 2054SOL    HW217796   4.523   1.186   2.217 -1.6497 -2.0989 -0.7259
 2055SOL     OW17797   2.490   3.066  11.870 -0.1866  0.4261  0.7253
 2055SOL    HW117798   2.515   3.007  11.941  0.5350 -0.1206  0.0173
 2055SOL    HW217799   2.573   3.102  11.841 -0.0328  0.3507  1.0770
 2056SOL     OW17800   2.404   1.858  14.903  0.6750 -0.1582 -0.5607
 2056SOL    HW117801   2.385   1.817  14.988 -1.0705 -0.0844 -0.9131
 2056SOL    HW217802   2.430   1.947  14.925 -2.6605  0.2120  2.0435
 2057SOL     OW17803   0.599   1.888   2.588  0.5181  0.5277  0.2000
 2057SOL    HW117804   0.595   1.854   2.677  0.0655  2.7132  1.0182
 2057SOL    HW217805   0.693   1.907   2.586  0.5468  0.3660  0.0191
 2058SOL     OW17806   3.033   2.297   4.284 -0.4712 -0.0133 -0.1827
 2058SOL    HW117807   3.037   2.343   4.200 -2.7846 -0.7560 -0.6953
 2058SOL    HW217808   3.124   2.309   4.313 -0.1813 -1.6388 -0.3946
 2059SOL     OW17809   1.632   0.429   7.323 -0.8495 -0.3459 -0.3642
 2059SOL    HW117810   1.566   0.393   7.383  0.7029 -0.7176  1.1222
 2059SOL    HW217811   1.715   0.382   7.337  0.5608  2.2095 -0.2009
 2060SOL     OW17812   0.601   1.841   4.800  0.1257 -0.3142 -0.0215
 2060SOL    HW117813   0.689   1.852   4.766 -0.6778 -1.1687 -2.4201
 2060SOL    HW217814   0.561   1.804   4.721  1.4843 -0.2981 -0.7084
 2061SOL     OW17815   0.682   1.596  14.739  0.2367  0.1195  0.2173
 2061SOL    HW117816   0.611   1.595  14.676  1.2516  1.7378 -0.9621
 2061SOL    HW217817   0.671   1.686  14.771  0.3238  0.0838  0.3482
 2062SOL     OW17818   4.302   2.337   4.546 -0.2246  0.6672 -0.4540
 2062SOL    HW117819   4.223   2.339   4.493 -2.7577  2.2264  3.3758
 2062SOL    HW217820   4.274   2.296   4.628 -0.1123 -0.4748 -0.9861
 2063SOL     OW17821   4.104   2.778   2.371 -0.3397  0.0191  0.0932
 2063SOL    HW117822   4.096   2.795   2.278 -1.1091 -0.4266  0.0829
 2063SOL    HW217823   4.037   2.712   2.384  0.5693 -0.7081  1.1340
 2064SOL     OW17824   3.023   3.347  16.364 -0.1883  0.0572 -0.1773
 2064SOL    HW117825   3.052   3.438  16.367 -4.0242  1.2300  1.5283
 2064SOL    HW217826   2.954   3.354  16.298 -1.3800 -1.3952  0.9019
 2065SOL     OW17827   2.510   1.318  16.994 -0.2379 -0.0877  0.5396
 2065SOL    HW117828   2.506   1.369  16.913  0.1866  1.1683  1.3093
 2065SOL    HW217829   2.603   1.326  17.016  0.1100 -1.1625 -0.5191
 2066SOL     OW17830   2.470   2.623  17.364  0.1392  1.1787  0.0861
 2066SOL    HW117831   2.378   2.629  17.388  0.2573 -1.5935  1.2604
 2066SOL    HW217832   2.491   2.715  17.353 -3.6741  1.8415 -1.6236
 2067SOL     OW17833   4.701   2.649   2.663 -0.2944 -0.4726 -0.9558
 2067SOL    HW117834   4.632   2.674   2.602 -0.9633  0.6569  0.2529
 2067SOL    HW217835   0.005   2.579   2.611 -0.9289 -2.4711  1.2481
 2068SOL     OW17836   1.375   3.867   5.901 -0.0469 -0.1256 -0.1878
 2068SOL    HW117837   1.397   3.788   5.951  0.7049  0.1170 -0.1313
 2068SOL    HW217838   1.350   3.834   5.815 -1.9311  0.4193  0.1555
 2069SOL     OW17839   3.348   2.454   5.028  0.3166  0.1200 -0.1402
 2069SOL    HW117840   3.384   2.522   4.970  0.3237  1.5831  1.5770
 2069SOL    HW217841   3.255   2.452   5.007  0.8348  0.8054 -2.5273
 2070SOL     OW17842   1.713   4.326  15.215 -0.4251  0.3972  1.0048
 2070SOL    HW117843   1.733   4.239  15.251 -2.5936 -0.6406 -0.3176
 2070SOL    HW217844   1.771   4.383  15.265  0.7035  0.4301 -0.3470
 2071SOL     OW17845   0.553   0.161  12.157  0.2039  0.2211  0.7233
 2071SOL    HW117846   0.459   0.159  12.139  0.6526 -2.7908 -1.3042
 2071SOL    HW217847   0.570   0.078  12.202 -0.9989 -1.7260 -2.4410
 2072SOL     OW17848   1.095   4.517   3.836  0.3729 -0.6231 -0.2745
 2072SOL    HW117849   1.128   4.508   3.746 -1.4473  2.0652 -1.1987
 2072SOL    HW217850   1.177   4.508   3.884 -0.7835 -0.7445  1.6797
 2073SOL     OW17851   0.248   3.488   9.976 -0.4036  0.1247 -0.5642
 2073SOL    HW117852   0.283   3.503   9.888  1.7250 -0.2000  0.2054
 2073SOL    HW217853   0.225   3.574  10.011 -0.8073 -0.5708  0.8992
 2074SOL     OW17854   2.958   0.623   5.245 -0.0271  0.6478  0.3351
 2074SOL    HW117855   2.908   0.660   5.318  0.0766  0.7053  0.3768
 2074SOL    HW217856   2.893   0.638   5.176  1.3678  0.7990 -0.9368
 2075SOL     OW17857   0.661   3.735   7.360  0.1023  0.0744  0.0991
 2075SOL    HW117858   0.621   3.812   7.318  1.3167  0.4148 -0.4473
 2075SOL    HW217859   0.712   3.705   7.285  0.2858  2.4286 -0.7354
 2076SOL     OW17860   1.582   0.654   7.074  0.5351 -0.5410 -0.2770
 2076SOL    HW117861   1.671   0.630   7.100  0.7978 -0.2319 -0.8968
 2076SOL    HW217862   1.576   0.631   6.982  1.7960 -0.5294 -0.3594
 2077SOL     OW17863   1.432   3.015   4.051  0.5879  0.1278 -0.3847
 2077SOL    HW117864   1.410   2.942   4.109 -0.6999  0.2565 -0.7321
 2077SOL    HW217865   1.506   3.059   4.094  1.3999 -1.2417 -0.3670
 2078SOL     OW17866   0.396   2.252   6.712 -0.2760 -0.3498 -0.1664
 2078SOL    HW117867   0.413   2.343   6.690 -2.9533 -0.1287 -1.3156
 2078SOL    HW217868   0.465   2.245   6.778 -0.9200 -0.6995  0.4653
 2079SOL     OW17869   1.004   0.954  12.040 -0.1871  0.1317 -0.4863
 2079SOL    HW117870   1.050   0.877  12.072 -0.8293  0.4018  1.0695
 2079SOL    HW217871   1.062   1.026  12.067  0.9160 -0.4306 -1.3488
 2080SOL     OW17872   3.056   2.578   8.554 -0.3808 -0.4289  0.5738
 2080SOL    HW117873   2.968   2.543   8.540 -0.9780  0.9452  0.9216
 2080SOL    HW217874   3.041   2.621   8.637 -0.1911  0.5770  0.0822
 2081SOL     OW17875   4.484   3.071   5.601 -0.7377  0.0045 -0.2472
 2081SOL    HW117876   4.422   3.127   5.555 -1.3506 -0.0685  0.4769
 2081SOL    HW217877   4.548   3.045   5.536  0.5856  1.5707  0.4245
 2082SOL     OW17878   2.498   2.374   9.147 -0.2250 -0.2533 -0.7040
 2082SOL    HW117879   2.463   2.300   9.197  0.0639 -0.3075 -0.5830
 2082SOL    HW217880   2.432   2.443   9.159 -0.2919 -0.2789 -0.9166
 2083SOL     OW17881   1.795   3.852  16.558 -0.0542  0.4502  0.5857
 2083SOL    HW117882   1.818   3.776  16.610 -1.4319 -0.0833  0.4267
 2083SOL    HW217883   1.701   3.860  16.579  0.6918  2.2770  3.2643
 2084SOL     OW17884   0.673   1.930   6.740  0.0669  0.0395 -0.4571
 2084SOL    HW117885   0.628   1.854   6.704 -1.4071  1.1888 -1.0226
 2084SOL    HW217886   0.749   1.937   6.683 -0.2869 -2.0548 -1.1878
 2085SOL     OW17887   1.645   4.640   4.341  0.1389 -0.4905  0.5875
 2085SOL    HW117888   1.670   4.580   4.411  0.7871 -0.6643  0.2066
 2085SOL    HW217889   1.735   4.657   4.312  0.5704 -2.4171  0.7696
 2086SOL     OW17890   2.050   0.175   1.609 -0.1477  0.0879  0.1411
 2086SOL    HW117891   1.981   0.216   1.662 -1.7126  0.2155 -2.0082
 2086SOL    HW217892   2.110   0.249   1.596 -1.5132  0.9876 -1.0563
 2087SOL     OW17893   1.787   3.004   4.500  0.2145 -0.1505 -0.1365
 2087SOL    HW117894   1.767   2.911   4.503 -0.7960  0.1767  2.9194
 2087SOL    HW217895   1.711   3.041   4.455  0.5894  0.8577  0.0483
 2088SOL     OW17896   1.636   1.661  15.269  0.2254  0.0366 -0.0601
 2088SOL    HW117897   1.687   1.736  15.300  0.4634 -0.2114  0.1629
 2088SOL    HW217898   1.704   1.643  15.204  0.0547  1.3817 -0.5883
 2089SOL     OW17899   2.952   1.685   3.835 -0.3408  0.1423  0.0677
 2089SOL    HW117900   3.047   1.678   3.825 -0.2654 -0.4122  1.0714
 2089SOL    HW217901   2.921   1.750   3.772  0.8590  1.7613  1.1531
 2090SOL     OW17902   3.577   2.979   4.326 -0.2178  0.5463  0.0073
 2090SOL    HW117903   3.533   3.048   4.374  0.4802  0.3694  0.9156
 2090SOL    HW217904   3.506   2.934   4.281  0.4934 -1.1191  0.5150
 2091SOL     OW17905   0.348   0.776  15.929 -0.2516 -0.5117  0.1534
 2091SOL    HW117906   0.360   0.684  15.906 -0.3227 -0.4178 -0.2504
 2091SOL    HW217907   0.387   0.821  15.855 -0.3203  0.9629  1.0153
 2092SOL     OW17908   1.369   3.560  11.767 -0.4130 -0.0092 -0.2161
 2092SOL    HW117909   1.435   3.532  11.703 -0.9849  2.2116 -1.7897
 2092SOL    HW217910   1.290   3.553  11.712  0.0422  1.9426 -1.1343
 2093SOL     OW17911   2.863   0.603   8.853 -0.1129 -0.2180 -0.3145
 2093SOL    HW117912   2.828   0.608   8.764  1.4028  2.1635 -0.7776
 2093SOL    HW217913   2.892   0.694   8.859 -1.7009  0.1104  1.8869
 2094SOL     OW17914   2.005   3.193   9.194  0.5946 -0.0892  0.1188
 2094SOL    HW117915   2.028   3.281   9.223  2.0600 -0.0837 -1.0806
 2094SOL    HW217916   2.079   3.137   9.215 -0.9932 -2.1380  0.2731
 2095SOL     OW17917   0.998   1.058  14.229  0.1076 -0.6047 -0.1429
 2095SOL    HW117918   0.906   1.067  14.204  0.4460 -1.6301 -1.7359
 2095SOL    HW217919   1.011   1.111  14.308  1.6357  0.4934 -1.1175
 2096SOL     OW17920   2.320   2.135   8.030  0.1984  0.1392 -0.9937
 2096SOL    HW117921   2.365   2.215   8.001  2.6163 -1.9412 -2.9731
 2096SOL    HW217922   2.236   2.131   7.984 -0.1926 -0.8703 -0.1832
 2097SOL     OW17923   2.492   3.743   7.086  0.4711  0.1558 -0.0037
 2097SOL    HW117924   2.528   3.828   7.061 -1.2869  0.7632 -0.4327
 2097SOL    HW217925   2.538   3.685   7.025  1.3447  0.9726 -0.1319
 2098SOL     OW17926   3.896   0.298  10.636 -0.0016 -0.3241  0.7634
 2098SOL    HW117927   3.901   0.208  10.670  0.2525  0.5341  2.9670
 2098SOL    HW217928   3.823   0.339  10.681 -0.7344 -0.7224 -0.0425
 2099SOL     OW17929   4.241   0.954   4.671 -0.2161  0.4335  0.1171
 2099SOL    HW117930   4.238   1.039   4.715  1.6565 -0.2416  1.5711
 2099SOL    HW217931   4.293   0.984   4.597  0.5137  0.1645  0.5217
 2100SOL     OW17932   0.298   3.367  17.628  0.0693 -0.4379 -0.4710
 2100SOL    HW117933   0.304   3.301  17.559 -1.2687 -3.2416  2.0577
 2100SOL    HW217934   0.387   3.354  17.660  0.1076  1.3873  0.1366
 2101SOL     OW17935   1.717   2.689   9.105  0.0419 -0.1161 -0.5631
 2101SOL    HW117936   1.640   2.741   9.129  0.5717  0.6697 -0.5936
 2101SOL    HW217937   1.679   2.637   9.034  0.2322 -2.8778  1.3602
 2102SOL     OW17938   0.379   1.936  15.467 -0.1991  0.4223 -0.2798
 2102SOL    HW117939   0.442   1.891  15.410 -0.7173  0.9596 -1.2720
 2102SOL    HW217940   0.372   2.029  15.445 -2.7054  0.2143 -0.3496
 2103SOL     OW17941   2.985   2.624   3.474  0.2688  0.2071 -0.6914
 2103SOL    HW117942   2.945   2.650   3.391 -0.4630  2.4706  0.3849
 2103SOL    HW217943   3.080   2.633   3.466  0.0229  2.5956 -0.7795
 2104SOL     OW17944   3.435   1.199   4.638 -0.1314 -0.1512  0.0841
 2104SOL    HW117945   3.502   1.186   4.570 -1.5238 -1.2647 -1.0797
 2104SOL    HW217946   3.489   1.228   4.711 -0.4351 -2.2071  1.1072
 2105SOL     OW17947   0.356   1.108   9.776 -0.5072 -0.3456  0.4911
 2105SOL    HW117948   0.430   1.153   9.816 -1.1946 -0.8264  2.3152
 2105SOL    HW217949   0.396   1.058   9.705  0.3151  3.0731 -1.4093
 2106SOL     OW17950   2.466   3.133   0.489  0.8177 -0.0461  0.4165
 2106SOL    HW117951   2.397   3.077   0.452  0.6988  0.6582 -0.4241
 2106SOL    HW217952   2.522   3.135   0.412 -1.3583  0.2575 -1.1775
 2107SOL     OW17953   2.702   3.200  12.962  0.1131  0.3354 -0.0254
 2107SOL    HW117954   2.736   3.279  13.004 -0.5953 -0.8924  2.8593
 2107SOL    HW217955   2.754   3.198  12.882 -0.6477  2.6572 -0.5924
 2108SOL     OW17956   1.216   3.064   1.825  0.3514 -0.3003  0.8276
 2108SOL    HW117957   1.297   3.116   1.821 -0.2172  0.6021  1.2004
 2108SOL    HW217958   1.240   2.994   1.886 -0.5643  0.9541  2.6011
 2109SOL     OW17959   4.689   1.387   2.114  0.0412 -0.1552 -0.0875
 2109SOL    HW117960   0.002   1.372   2.195  1.3030  0.1191 -0.7930
 2109SOL    HW217961   0.023   1.427   2.061 -0.5525  0.5947 -0.3034
 2110SOL     OW17962   0.826   2.733   5.536  0.1063  0.2521  0.1148
 2110SOL    HW117963   0.783   2.819   5.534  0.6988  0.5476  0.0352
 2110SOL    HW217964   0.915   2.748   5.566  0.5355 -2.6524  0.2808
 2111SOL     OW17965   4.717   2.492   4.593  0.2215  0.1873 -0.6813
 2111SOL    HW117966   4.626   2.518   4.585 -0.0626 -1.0165 -1.3982
 2111SOL    HW217967   0.015   2.530   4.512 -2.2673 -0.1607 -1.8551
 2112SOL     OW17968   2.625   0.196   2.527 -0.7437  0.0410  0.3209
 2112SOL    HW117969   2.680   0.130   2.486 -1.4964 -1.3527  1.5877
 2112SOL    HW217970   2.556   0.207   2.461 -1.4380 -0.7027  0.9313
 2113SOL     OW17971   4.713   4.189   9.692 -0.0622 -0.0058  0.0319
 2113SOL    HW117972   4.708   4.206   9.598  2.5030  1.0566  0.0838
 2113SOL    HW217973   4.627   4.223   9.717  0.3607  0.5817  0.6826
 2114SOL     OW17974   1.923   0.889   1.849 -0.2790 -0.7412 -0.0450
 2114SOL    HW117975   1.899   0.982   1.853  3.3451  0.1665  0.1819
 2114SOL    HW217976   1.981   0.881   1.925  0.0623  1.1005 -0.1145
 2115SOL     OW17977   2.364   4.342   7.662  0.1383 -0.4394 -0.1966
 2115SOL    HW117978   2.318   4.393   7.595 -1.4979 -0.0753  1.1829
 2115SOL    HW217979   2.369   4.265   7.606  0.9258  0.1872 -0.9886
 2116SOL     OW17980   2.001   4.274   7.447  0.3838 -0.1231  0.2503
 2116SOL    HW117981   2.037   4.330   7.516 -0.5859  1.0750 -0.2363
 2116SOL    HW217982   1.906   4.280   7.456 -0.0573 -1.8738 -2.9657
 2117SOL     OW17983   0.448   1.488   3.258  0.7534 -0.0411  1.0447
 2117SOL    HW117984   0.426   1.577   3.285  0.9843 -0.5670  3.0000
 2117SOL    HW217985   0.364   1.461   3.222  0.8196  0.5410  0.4438
 2118SOL     OW17986   3.112   2.003   2.411  0.1540  0.8583 -0.0396
 2118SOL    HW117987   3.182   2.049   2.457 -0.3751  0.8476  0.7880
 2118SOL    HW217988   3.092   2.069   2.344  0.9045  1.7675  0.6379
 2119SOL     OW17989   2.622   4.707  10.823 -0.2129  0.1885 -0.0101
 2119SOL    HW117990   2.607   0.051  10.875  1.0955  0.2142  0.3316
 2119SOL    HW217991   2.709   4.674  10.848  0.4947  1.2484 -1.0721
 2120SOL     OW17992   1.878   1.234  14.357 -0.2040  0.2182 -0.0505
 2120SOL    HW117993   1.875   1.297  14.285  1.3638  0.5739  0.2015
 2120SOL    HW217994   1.815   1.171  14.323  0.3095 -1.0447  1.3487
 2121SOL     OW17995   0.086   1.590  15.281 -0.2937 -0.2586 -0.4360
 2121SOL    HW117996   0.034   1.589  15.362 -0.5521 -3.9314 -0.6820
 2121SOL    HW217997   0.116   1.681  15.280  1.9567 -0.9863  2.3189
 2122SOL     OW17998   1.960   4.345   2.370  0.0976 -0.6552 -0.0656
 2122SOL    HW117999   1.922   4.401   2.438 -2.1324 -0.0982 -1.7539
 2122SOL    HW218000   1.895   4.278   2.349  0.2556 -1.5006  2.1041
 2123SOL     OW18001   0.470   0.602   1.972  0.6100  0.0520 -0.2374
 2123SOL    HW118002   0.500   0.517   1.941  0.2796  0.2473 -1.1010
 2123SOL    HW218003   0.388   0.609   1.924  0.2652 -3.2794 -0.1138
 2124SOL     OW18004   3.243   0.743  15.658 -0.3765  0.0016  0.1078
 2124SOL    HW118005   3.199   0.659  15.667 -0.7537  0.2482  0.5324
 2124SOL    HW218006   3.311   0.718  15.594 -1.0452 -0.7752 -0.2958
 2125SOL     OW18007   0.450   1.901   1.143  0.4802  0.6942 -0.1576
 2125SOL    HW118008   0.542   1.888   1.164  0.3680  0.6004  0.2685
 2125SOL    HW218009   0.414   1.949   1.218  0.5826  0.8713 -0.2223
 2126SOL     OW18010   3.926   0.956   7.570 -0.3433  0.5067  0.7303
 2126SOL    HW118011   3.860   0.901   7.611 -0.3250  1.0580  1.5131
 2126SOL    HW218012   3.915   0.954   7.475  1.4109 -0.3614  0.5479
 2127SOL     OW18013   0.410   2.208  17.125 -0.0224  0.4227  0.4631
 2127SOL    HW118014   0.367   2.163  17.052 -0.8761  2.5180 -0.3326
 2127SOL    HW218015   0.475   2.262  17.081  0.0046  1.9613  2.3838
 2128SOL     OW18016   3.018   1.823   9.276 -0.2496 -0.0869  0.7111
 2128SOL    HW118017   2.930   1.837   9.313 -0.0825  3.2403 -0.1732
 2128SOL    HW218018   3.006   1.742   9.225  1.1486  0.3475 -0.3027
 2129SOL     OW18019   3.142   1.165   6.591 -0.0437  0.4749  0.7366
 2129SOL    HW118020   3.167   1.222   6.663  0.1443 -0.1310  1.1475
 2129SOL    HW218021   3.223   1.129   6.555 -0.9096 -1.6014  0.8986
 2130SOL     OW18022   0.981   3.855   5.435  0.2729  0.8865 -0.1171
 2130SOL    HW118023   1.034   3.929   5.404  1.4798  0.1550  0.1945
 2130SOL    HW218024   0.975   3.871   5.529  1.8915  0.8219 -0.0004
 2131SOL     OW18025   2.332   2.759   6.363 -0.6463  0.4240  0.1301
 2131SOL    HW118026   2.338   2.854   6.354  0.1682  0.1791 -1.9575
 2131SOL    HW218027   2.277   2.733   6.290  0.6709  0.2712 -0.8211
 2132SOL     OW18028   1.048   4.718  17.320  0.1372 -0.0892 -0.0629
 2132SOL    HW118029   1.096   4.654  17.374 -0.9999 -0.5267  0.4304
 2132SOL    HW218030   1.093   4.715  17.236  0.6291 -0.6616  0.2202
 2133SOL     OW18031   4.351   1.742   9.510 -0.5289 -0.0930 -0.1438
 2133SOL    HW118032   4.402   1.813   9.471  0.9892 -1.7835 -1.2860
 2133SOL    HW218033   4.288   1.785   9.567 -1.4512 -1.1603 -0.3532
 2134SOL     OW18034   2.497   3.926   6.719 -0.0668  0.2610  0.2192
 2134SOL    HW118035   2.515   3.835   6.745  0.2483 -0.1413 -1.3955
 2134SOL    HW218036   2.443   3.909   6.642  2.4989  2.6813 -2.1056
 2135SOL     OW18037   4.280   2.272  12.537  0.3090  0.0993 -0.4288
 2135SOL    HW118038   4.370   2.305  12.528  0.3615  0.1284  0.1837
 2135SOL    HW218039   4.262   2.286  12.444 -3.8386 -1.1391  0.2178
 2136SOL     OW18040   0.803   3.659   5.355 -0.3007  0.4130  0.0636
 2136SOL    HW118041   0.721   3.705   5.341  0.1815  1.5762  1.0676
 2136SOL    HW218042   0.860   3.727   5.391 -0.4559  0.5666  0.0169
 2137SOL     OW18043   3.429   1.746   4.491 -0.8740 -0.4424 -0.5725
 2137SOL    HW118044   3.343   1.758   4.530 -1.7743 -0.9563 -2.3996
 2137SOL    HW218045   3.417   1.806   4.417  0.5701  0.7130  0.1066
 2138SOL     OW18046   3.509   4.081   1.826  0.2637 -0.3982 -0.4775
 2138SOL    HW118047   3.543   4.066   1.914 -0.1863 -2.3205 -0.6493
 2138SOL    HW218048   3.438   4.018   1.835  1.1945 -1.4840 -0.8090
 2139SOL     OW18049   3.122   1.547   4.138 -0.1543 -0.4314  0.5886
 2139SOL    HW118050   3.160   1.461   4.120 -0.6193 -0.7515  1.1456
 2139SOL    HW218051   3.177   1.599   4.078  1.7340 -2.4076  0.6072
 2140SOL     OW18052   3.682   3.159  10.791  0.2084 -0.2953  0.0845
 2140SOL    HW118053   3.714   3.249  10.796  1.5621 -0.7530 -0.4514
 2140SOL    HW218054   3.743   3.111  10.847 -0.7432  0.0375  1.4128
 2141SOL     OW18055   2.306   0.479   2.326 -0.3662 -0.0876 -0.5282
 2141SOL    HW118056   2.286   0.548   2.390  0.8675 -0.7333  0.5471
 2141SOL    HW218057   2.219   0.437   2.324 -0.6090  0.3486  0.6469
 2142SOL     OW18058   4.683   2.896  16.440  0.3415  0.2381  0.0991
 2142SOL    HW118059   0.018   2.832  16.445 -0.8899 -1.2058 -0.8382
 2142SOL    HW218060   4.686   2.936  16.527 -1.5756 -1.1623  0.7979
 2143SOL     OW18061   4.656   2.921   0.340  0.0517  0.0602 -0.2051
 2143SOL    HW118062   4.566   2.930   0.372  1.0985  1.7432  2.2589
 2143SOL    HW218063   4.696   2.918   0.427 -1.6178  1.2661  0.6094
 2144SOL     OW18064   2.490   3.048   2.176 -0.1688 -0.0470  0.0208
 2144SOL    HW118065   2.507   3.020   2.086  2.2096  1.6534 -0.0666
 2144SOL    HW218066   2.555   3.116   2.193  1.4068 -1.0393 -2.0921
 2145SOL     OW18067   2.707   1.999   3.848 -0.2130 -0.0057 -0.1032
 2145SOL    HW118068   2.631   2.051   3.872 -0.0484 -0.3614  1.1762
 2145SOL    HW218069   2.771   2.041   3.905  1.4434 -2.9586  0.2413
 2146SOL     OW18070   3.759   2.843   3.929 -0.4583  0.2380 -0.0466
 2146SOL    HW118071   3.793   2.929   3.904 -1.5990  0.5477 -0.5407
 2146SOL    HW218072   3.755   2.791   3.849  0.7057  2.0073 -1.2513
 2147SOL     OW18073   1.033   2.437   0.404  0.3741 -0.2170 -0.0692
 2147SOL    HW118074   1.112   2.472   0.362  0.0156  0.9233  0.1952
 2147SOL    HW218075   1.007   2.372   0.340  2.0911 -0.9122 -0.0673
 2148SOL     OW18076   0.197   4.457   4.418  0.1336  0.6449  0.1327
 2148SOL    HW118077   0.290   4.434   4.407  0.6339  2.8414 -0.3451
 2148SOL    HW218078   0.188   4.452   4.514 -2.5952 -2.1522 -0.2692
 2149SOL     OW18079   1.192   4.228   2.723  0.0462  0.3362  0.4303
 2149SOL    HW118080   1.213   4.302   2.781  0.2566 -0.5785  1.5307
 2149SOL    HW218081   1.170   4.272   2.642 -1.5489  1.9773  1.7508
 2150SOL     OW18082   1.938   3.963   5.164  0.0966  0.5594  0.0047
 2150SOL    HW118083   1.875   3.902   5.126  0.5060  0.7022 -0.8983
 2150SOL    HW218084   1.901   4.044   5.131 -3.1822 -0.2048  1.8349
 2151SOL     OW18085   0.070   0.867   5.187  0.4787  0.1950 -0.0964
 2151SOL    HW118086   0.150   0.896   5.142  1.3020 -1.6473  0.1689
 2151SOL    HW218087   0.011   0.939   5.164 -1.2087 -0.9970  0.5859
 2152SOL     OW18088   3.321   1.902   1.993 -0.7362 -0.4283  0.0285
 2152SOL    HW118089   3.234   1.895   2.031 -0.9063  0.0556 -0.2766
 2152SOL    HW218090   3.304   1.988   1.954  2.3801  0.1278 -0.1210
 2153SOL     OW18091   0.209   1.769   5.800 -0.6273  0.2484  0.5126
 2153SOL    HW118092   0.172   1.830   5.865 -0.3687 -1.1885  2.0120
 2153SOL    HW218093   0.161   1.690   5.827 -0.6519  0.3361  0.7279
 2154SOL     OW18094   1.159   4.050   8.557 -0.3380  0.2221 -0.0587
 2154SOL    HW118095   1.072   4.057   8.596 -0.2013  0.4945  0.2019
 2154SOL    HW218096   1.139   4.075   8.466  0.4410 -0.1860 -0.3433
 2155SOL     OW18097   0.141   0.100   8.684  1.0539 -0.7235 -0.0252
 2155SOL    HW118098   0.163   0.175   8.738  0.3827  0.4459 -1.3686
 2155SOL    HW218099   0.073   0.067   8.742 -0.4957  1.7899 -0.4393
 2156SOL     OW18100   1.801   0.363  14.594  0.3259  0.1742  0.3524
 2156SOL    HW118101   1.813   0.454  14.568 -2.4491  0.9677  1.7600
 2156SOL    HW218102   1.890   0.332  14.577 -0.1877 -0.5769 -0.9324
 2157SOL     OW18103   2.835   3.471   8.761  0.5313  0.3739  0.0972
 2157SOL    HW118104   2.789   3.449   8.679  1.9901  2.0501 -1.1589
 2157SOL    HW218105   2.895   3.532   8.718  2.4270 -1.2663  0.4321
 2158SOL     OW18106   2.831   1.559   4.032  0.1033  0.0407 -0.3211
 2158SOL    HW118107   2.873   1.586   3.950  0.2586 -1.9516 -0.8891
 2158SOL    HW218108   2.908   1.539   4.086  0.3516  1.3620 -0.1708
 2159SOL     OW18109   4.661   2.547   4.078 -0.2305  0.2534  0.5207
 2159SOL    HW118110   4.673   2.452   4.072 -1.4193  0.0741  0.8762
 2159SOL    HW218111   4.651   2.563   3.984  2.6476  2.9900  0.6812
 2160SOL     OW18112   2.984   4.474  10.424 -0.0730  0.0982 -0.4612
 2160SOL    HW118113   2.971   4.432  10.509  0.6724  0.3724 -0.2122
 2160SOL    HW218114   2.933   4.414  10.370 -1.6919  0.0574  1.1262
 2161SOL     OW18115   0.706   3.807   3.404  0.7586  0.2823  0.1707
 2161SOL    HW118116   0.750   3.723   3.391 -0.2281  0.0017 -1.2173
 2161SOL    HW218117   0.735   3.829   3.493 -1.5492  0.2024  0.9458
 2162SOL     OW18118   0.066   3.531   1.826 -0.1591  0.5140 -0.0961
 2162SOL    HW118119   0.024   3.452   1.859 -1.2957 -0.6928 -4.4826
 2162SOL    HW218120   0.027   3.598   1.881  0.6635 -0.3587  1.5656
 2163SOL     OW18121   3.974   1.937   9.158 -0.0621 -0.0535  0.7459
 2163SOL    HW118122   3.902   2.000   9.166  0.4604  0.4743  1.2679
 2163SOL    HW218123   3.984   1.909   9.249 -4.7617  1.9629  1.8989
 2164SOL     OW18124   3.548   1.013  10.764 -0.0505 -0.0623 -0.0282
 2164SOL    HW118125   3.535   0.968  10.848  0.1737  0.9007  0.5183
 2164SOL    HW218126   3.487   1.087  10.766 -0.2008 -0.1810 -0.1441
 2165SOL     OW18127   4.443   1.375   1.432  0.2960 -0.1182 -0.0528
 2165SOL    HW118128   4.490   1.382   1.516  1.6182  1.2172 -0.9143
 2165SOL    HW218129   4.409   1.464   1.421  1.2006  0.3078  0.5604
 2166SOL     OW18130   1.779   2.522   9.307 -0.7201  0.3826 -0.2510
 2166SOL    HW118131   1.699   2.470   9.313 -0.3331 -0.1889 -0.0259
 2166SOL    HW218132   1.740   2.592   9.255  1.6325  0.2277 -2.2379
 2167SOL     OW18133   0.422   1.519   4.448  0.3991 -0.6413 -0.3752
 2167SOL    HW118134   0.504   1.500   4.402  0.3904 -0.8542 -0.3034
 2167SOL    HW218135   0.373   1.526   4.365  1.6958  1.9443 -0.9303
 2168SOL     OW18136   1.995   1.272   2.722 -0.3359  0.4937 -0.0918
 2168SOL    HW118137   2.030   1.299   2.807  2.0500 -0.4185 -0.7660
 2168SOL    HW218138   1.908   1.242   2.747  0.9910 -0.9905  2.7419
 2169SOL     OW18139   3.652   1.127   2.318 -0.2256  0.1491 -0.3824
 2169SOL    HW118140   3.590   1.186   2.276 -1.4197 -0.9330 -0.1241
 2169SOL    HW218141   3.730   1.174   2.287  1.4760 -1.5819  1.1893
 2170SOL     OW18142   3.824   1.897   6.441 -0.0383 -0.2322  0.4857
 2170SOL    HW118143   3.822   1.987   6.408  0.8831 -1.1386 -2.0289
 2170SOL    HW218144   3.769   1.851   6.377  1.0679 -0.4825 -0.2848
 2171SOL     OW18145   3.497   1.114   6.735 -0.2020  0.3491 -0.4937
 2171SOL    HW118146   3.423   1.094   6.792  0.7480  0.1956  0.6957
 2171SOL    HW218147   3.552   1.144   6.808  1.5719 -0.6804 -1.4059
 2172SOL     OW18148   3.235   3.492   3.864 -0.4081  0.5745  0.4054
 2172SOL    HW118149   3.291   3.552   3.813 -2.1537 -0.6235 -2.9071
 2172SOL    HW218150   3.250   3.531   3.950 -0.4688 -1.6431  1.4078
 2173SOL     OW18151   2.160   2.164   6.928  0.4775 -0.2707 -0.1099
 2173SOL    HW118152   2.170   2.145   6.835  0.4074 -1.3184  0.0987
 2173SOL    HW218153   2.202   2.249   6.942 -0.0045 -0.2251  1.0942
 2174SOL     OW18154   0.471   0.400   4.924 -0.5308 -0.0578  0.5235
 2174SOL    HW118155   0.564   0.417   4.941 -1.1851  1.6848  2.4112
 2174SOL    HW218156   0.480   0.330   4.860 -0.1853  1.1151 -0.7146
 2175SOL     OW18157   4.274   3.135   2.555 -0.0458 -0.0799  0.0357
 2175SOL    HW118158   4.191   3.146   2.600  1.3837  0.8987  2.4581
 2175SOL    HW218159   4.303   3.226   2.561  1.8661 -0.6463 -0.4128
 2176SOL     OW18160   3.033   2.695  16.351 -0.2921  0.1976 -0.6065
 2176SOL    HW118161   3.101   2.763  16.347  0.6297 -0.6180  1.0587
 2176SOL    HW218162   3.036   2.664  16.441  0.3084  0.2686 -0.5988
 2177SOL     OW18163   2.106   4.690   0.840 -0.5809  0.0262  0.0093
 2177SOL    HW118164   2.174   4.630   0.871  0.0339  0.7586  0.0747
 2177SOL    HW218165   2.056   4.635   0.779 -0.8656  1.9406 -1.4751
 2178SOL     OW18166   1.992   1.891   8.499 -0.4875  0.2597 -0.2164
 2178SOL    HW118167   2.039   1.849   8.571  1.3304 -0.4459 -1.8264
 2178SOL    HW218168   2.041   1.862   8.422 -0.7318 -0.9536  0.0856
 2179SOL     OW18169   4.263   4.305   4.437  0.5754 -0.6135  0.1591
 2179SOL    HW118170   4.245   4.361   4.361  0.9881 -1.0507 -0.2631
 2179SOL    HW218171   4.309   4.234   4.392  1.6542  0.3919 -0.3227
 2180SOL     OW18172   1.012   0.540   6.125 -0.4351 -0.0549  0.1944
 2180SOL    HW118173   1.069   0.613   6.150 -0.8454  0.0219  0.9245
 2180SOL    HW218174   1.073   0.468   6.110 -0.4264  0.7180 -3.4226
 2181SOL     OW18175   2.810   4.433  16.613  0.1534  0.0905  0.4115
 2181SOL    HW118176   2.755   4.469  16.682  0.7778 -0.0729  0.9919
 2181SOL    HW218177   2.745   4.436  16.542 -1.0930  0.4117  1.5543
 2182SOL     OW18178   2.240   2.665   6.114  0.0345  0.1684 -0.9063
 2182SOL    HW118179   2.236   2.586   6.168 -0.6358  1.7424  1.3391
 2182SOL    HW218180   2.155   2.650   6.073 -1.0176 -0.2874  1.4630
 2183SOL     OW18181   0.137   0.729   5.997  0.3676 -0.5395  0.5782
 2183SOL    HW118182   0.185   0.810   6.014 -0.8167 -0.1126  1.8855
 2183SOL    HW218183   0.060   0.738   6.053 -0.3917  1.3450 -0.8047
 2184SOL     OW18184   2.662   3.063   8.803  0.3788  0.0377  0.4761
 2184SOL    HW118185   2.737   3.079   8.860  0.5197 -1.8450  0.8219
 2184SOL    HW218186   2.711   3.012   8.738 -1.1946  1.8757 -2.1556
 2185SOL     OW18187   1.587   3.821   8.773  0.6434 -0.6438  0.0316
 2185SOL    HW118188   1.585   3.916   8.778  1.3945 -0.6632  0.8415
 2185SOL    HW218189   1.514   3.810   8.834  1.7573  2.7516  2.0029
 2186SOL     OW18190   2.381   2.943   7.792 -0.3255 -0.2847  0.0540
 2186SOL    HW118191   2.450   3.007   7.777  0.6445 -1.8157 -1.9806
 2186SOL    HW218192   2.356   2.972   7.880 -1.6306  1.1931 -0.8162
 2187SOL     OW18193   0.123   4.679   4.252 -0.3291  0.1479 -0.0696
 2187SOL    HW118194   0.131   4.601   4.306  0.7952  0.9368  0.9124
 2187SOL    HW218195   0.137   0.010   4.320 -2.0314 -0.7092  1.1182
 2188SOL     OW18196   2.706   2.008   3.508 -0.2657  0.1977  0.0167
 2188SOL    HW118197   2.765   2.070   3.551  2.7084 -3.5656  1.3887
 2188SOL    HW218198   2.772   1.967   3.452 -0.5514 -0.1013 -0.1026
 2189SOL     OW18199   1.944   3.284   1.931  0.0365 -0.2745  0.0544
 2189SOL    HW118200   1.896   3.238   1.999 -0.7821  1.8393  0.9018
 2189SOL    HW218201   1.881   3.341   1.888 -1.3768 -1.6624  0.2734
 2190SOL     OW18202   0.197   2.306   2.979 -0.3446 -0.6457 -0.0131
 2190SOL    HW118203   0.103   2.324   2.985  0.1699  0.7791  3.9091
 2190SOL    HW218204   0.196   2.225   3.030  0.0147 -1.8212 -1.8634
 2191SOL     OW18205   0.963   1.294   8.422  0.0656  0.4584  0.7282
 2191SOL    HW118206   0.961   1.278   8.327  0.2631  1.1131  0.6091
 2191SOL    HW218207   1.030   1.362   8.432 -0.3592  1.1028 -0.7404
 2192SOL     OW18208   3.916   0.992   8.831  0.1568 -0.0890 -0.3611
 2192SOL    HW118209   3.969   1.035   8.764  2.4424 -1.5325  0.5361
 2192SOL    HW218210   3.979   0.974   8.900 -1.2238  1.5212  1.3098
 2193SOL     OW18211   0.444   3.048   4.311  0.2451 -0.1065  0.1331
 2193SOL    HW118212   0.531   3.088   4.303  1.0868 -1.9239  0.1763
 2193SOL    HW218213   0.440   3.025   4.404  0.9803 -4.1038 -0.7939
 2194SOL     OW18214   0.364   3.216   2.129 -0.2502 -0.5331  0.0527
 2194SOL    HW118215   0.271   3.196   2.113 -0.0419 -0.5406 -1.1002
 2194SOL    HW218216   0.393   3.242   2.042 -0.5271 -0.6395 -0.0703
 2195SOL     OW18217   0.107   4.667  13.815  0.1641 -0.4226  0.0916
 2195SOL    HW118218   0.109   0.017  13.858 -1.4493  0.2279 -1.1317
 2195SOL    HW218219   0.198   4.639  13.814  0.1861 -0.3082 -1.1981
 2196SOL     OW18220   0.650   3.987  13.920  0.1327 -0.0472  0.0435
 2196SOL    HW118221   0.652   4.064  13.978  3.0640  0.6661 -0.9925
 2196SOL    HW218222   0.579   4.002  13.858  1.7841  2.2464 -1.3234
 2197SOL     OW18223   0.240   0.647   5.716  0.2385  0.2160 -0.2709
 2197SOL    HW118224   0.245   0.552   5.708  1.2781  0.2441  0.1057
 2197SOL    HW218225   0.180   0.658   5.790  0.5080 -0.6950  0.0820
 2198SOL     OW18226   2.554   2.685   3.330  0.0839 -0.4805 -0.4041
 2198SOL    HW118227   2.570   2.773   3.364  0.1560 -0.2487 -1.0385
 2198SOL    HW218228   2.536   2.713   3.240 -0.3652 -1.0364 -0.4865
 2199SOL     OW18229   1.607   4.002   2.203  0.5784 -0.7719  0.2962
 2199SOL    HW118230   1.554   3.924   2.191 -1.1109  0.5347 -0.7507
 2199SOL    HW218231   1.690   3.959   2.184  0.5155 -0.4501 -0.7254
 2200SOL     OW18232   2.199   0.022   1.957 -0.3303  0.0703 -0.1958
 2200SOL    HW118233   2.275   4.706   1.982  1.9170  2.7739 -1.4305
 2200SOL    HW218234   2.191   4.723   1.868 -2.1366 -0.7829  0.2916
 2201SOL     OW18235   1.279   2.772   4.605  0.2145  0.1729  0.1316
 2201SOL    HW118236   1.245   2.689   4.570 -0.5418  0.6454 -0.2501
 2201SOL    HW218237   1.200   2.811   4.644  0.9870  0.5835  1.2892
 2202SOL     OW18238   3.708   2.938   0.853 -0.5945 -0.0444  0.4861
 2202SOL    HW118239   3.656   2.957   0.931 -1.7890 -0.1870 -0.2763
 2202SOL    HW218240   3.799   2.948   0.883  0.0971  1.9919 -2.2590
 2203SOL     OW18241   1.362   1.804   6.949 -0.1195 -0.2825  0.1994
 2203SOL    HW118242   1.386   1.891   6.915  1.1602 -0.6421  0.1747
 2203SOL    HW218243   1.376   1.816   7.043  3.2480  0.2122 -0.3633
 2204SOL     OW18244   2.489   2.008   5.107 -0.0295 -0.1335  0.6119
 2204SOL    HW118245   2.460   2.035   5.194  1.6803 -0.2098  1.2083
 2204SOL    HW218246   2.406   2.027   5.064  1.4952  1.1185 -1.7660
 2205SOL     OW18247   0.371   1.547  15.354  0.3622 -0.3860  0.1749
 2205SOL    HW118248   0.461   1.556  15.322 -0.4302 -0.9826 -2.3049
 2205SOL    HW218249   0.321   1.610  15.302  0.5544  0.6667  1.2692
 2206SOL     OW18250   2.433   1.942   7.265  0.1995 -0.4929 -0.0110
 2206SOL    HW118251   2.483   1.977   7.191  0.1709 -0.8196 -0.1813
 2206SOL    HW218252   2.343   1.963   7.241 -0.2632 -1.8158  0.6077
 2207SOL     OW18253   1.197   4.226  15.489 -0.0192  0.1026 -0.0007
 2207SOL    HW118254   1.139   4.302  15.493 -0.4419 -0.1354 -1.5532
 2207SOL    HW218255   1.278   4.273  15.471 -0.3009  0.1495 -1.1416
 2208SOL     OW18256   2.061   4.370   6.768  0.0124 -0.1974  0.2030
 2208SOL    HW118257   2.155   4.350   6.774  0.5177  2.0982  0.3022
 2208SOL    HW218258   2.025   4.287   6.796  2.5493 -0.0879  3.8123
 2209SOL     OW18259   0.404   1.164  11.101 -0.1874  0.1711 -0.4854
 2209SOL    HW118260   0.420   1.070  11.113 -1.7333  0.1242  1.2095
 2209SOL    HW218261   0.404   1.195  11.192  0.9787  0.2361 -0.5131
 2210SOL     OW18262   0.160   4.190   3.410  0.1667 -0.1822 -0.0715
 2210SOL    HW118263   0.215   4.227   3.341 -0.1123  2.0049  0.8674
 2210SOL    HW218264   0.109   4.268   3.434  0.7962  0.4607 -0.8385
 2211SOL     OW18265   3.155   0.486   5.665  0.3103  0.2134  0.4699
 2211SOL    HW118266   3.214   0.438   5.724 -1.1912  1.3081  2.8425
 2211SOL    HW218267   3.174   0.437   5.585  0.3668  2.1609 -0.6926
 2212SOL     OW18268   3.513   1.247   2.938  0.0179 -0.6899 -0.5147
 2212SOL    HW118269   3.478   1.159   2.922 -1.3377  0.0161 -1.4917
 2212SOL    HW218270   3.553   1.235   3.024  2.5233  0.8961 -1.4661
 2213SOL     OW18271   2.904   3.251  10.852  0.0886  0.7371 -0.0429
 2213SOL    HW118272   2.974   3.288  10.799 -0.0495  0.2063 -0.5996
 2213SOL    HW218273   2.940   3.264  10.939 -0.1958  0.1762  0.1606
 2214SOL     OW18274   3.894   2.363   4.114 -0.0583 -0.4884 -0.2946
 2214SOL    HW118275   3.904   2.320   4.029  0.0617 -1.8177  0.3939
 2214SOL    HW218276   3.883   2.452   4.083  0.5692  0.0275  0.9608
 2215SOL     OW18277   1.510   2.306   2.369 -0.9216  0.1490  0.1594
 2215SOL    HW118278   1.594   2.303   2.415 -1.1511 -1.1322  0.5148
 2215SOL    HW218279   1.546   2.339   2.287 -0.5633 -1.3124 -0.2774
 2216SOL     OW18280   3.093   3.787   2.277  0.2314 -0.2124  0.1821
 2216SOL    HW118281   3.119   3.831   2.358  1.2631 -0.4175 -0.0378
 2216SOL    HW218282   2.999   3.796   2.291  0.3020  1.8099 -0.6945
 2217SOL     OW18283   3.441   2.873   5.742 -0.1969 -0.0941  0.1114
 2217SOL    HW118284   3.393   2.926   5.806 -0.7726 -1.5260  0.8783
 2217SOL    HW218285   3.532   2.902   5.745  0.0512 -0.9743  1.4152
 2218SOL     OW18286   0.951   1.491   7.910 -0.2275  0.8107  0.3564
 2218SOL    HW118287   0.888   1.562   7.915 -2.2467 -0.8920 -1.1340
 2218SOL    HW218288   0.952   1.471   7.817 -4.9911  2.4734 -0.0187
 2219SOL     OW18289   2.672   2.576   2.470 -0.0850 -0.7027 -0.4345
 2219SOL    HW118290   2.678   2.549   2.379  0.8435 -0.1915 -0.5177
 2219SOL    HW218291   2.609   2.518   2.514 -1.8477  0.8558 -0.9333
 2220SOL     OW18292   2.786   2.963  17.115 -0.4989  0.3692 -0.5836
 2220SOL    HW118293   2.839   2.897  17.070 -0.1313 -0.6004  1.2936
 2220SOL    HW218294   2.717   2.974  17.050 -0.6226  0.6510 -0.4037
 2221SOL     OW18295   2.780   0.506   4.663 -0.0019 -0.5545 -0.3635
 2221SOL    HW118296   2.687   0.527   4.654 -0.3770 -1.8471  0.5217
 2221SOL    HW218297   2.826   0.580   4.623  0.2585 -0.1436  0.6861
 2222SOL     OW18298   3.479   3.466   1.835  0.5225 -0.0725 -0.1780
 2222SOL    HW118299   3.454   3.529   1.902 -0.5862  0.1192 -0.7795
 2222SOL    HW218300   3.502   3.388   1.886  2.2744  0.4497 -0.1711
 2223SOL     OW18301   1.667   2.660  12.720  0.3958  0.0636  0.0553
 2223SOL    HW118302   1.670   2.635  12.812  1.0251 -2.0198 -0.5161
 2223SOL    HW218303   1.657   2.572  12.683  2.3554 -0.0124 -0.2764
 2224SOL     OW18304   2.593   3.419   6.893 -0.0513 -0.8330 -0.3093
 2224SOL    HW118305   2.578   3.334   6.850  4.4236 -2.0692  0.5923
 2224SOL    HW218306   2.646   3.392   6.968 -1.1927 -0.4200  0.6356
 2225SOL     OW18307   3.763   3.673  13.928 -0.4724  0.2553  0.1281
 2225SOL    HW118308   3.759   3.639  13.838 -2.2388 -0.6406  0.5422
 2225SOL    HW218309   3.698   3.742  13.915  0.3000  0.8092 -0.8246
 2226SOL     OW18310   0.351   2.765   7.510  0.1710 -0.0510  0.3995
 2226SOL    HW118311   0.293   2.697   7.475  1.0705 -0.4297 -0.3396
 2226SOL    HW218312   0.316   2.841   7.462  0.1245  0.3376  1.0440
 2227SOL     OW18313   2.467   1.171   2.287 -0.2057  0.7808 -0.0463
 2227SOL    HW118314   2.504   1.122   2.213  0.0557 -1.7893  1.7906
 2227SOL    HW218315   2.446   1.255   2.246 -0.8251  0.4978 -0.3153
 2228SOL     OW18316   2.967   1.139   7.872 -0.4564  0.3393  0.1567
 2228SOL    HW118317   2.961   1.208   7.937 -0.0194 -0.1955  0.7696
 2228SOL    HW218318   3.032   1.177   7.814 -2.1707  1.6555 -0.8722
 2229SOL     OW18319   2.679   1.155  13.008 -0.0822 -0.0427  0.1889
 2229SOL    HW118320   2.763   1.156  13.053 -1.4179 -0.6767  2.6586
 2229SOL    HW218321   2.650   1.245  13.021  1.5069  0.6917 -1.3614
 2230SOL     OW18322   0.142   2.232   6.047  0.2188  0.5700  0.2774
 2230SOL    HW118323   0.084   2.276   5.985 -1.2874 -2.4935 -0.4924
 2230SOL    HW218324   0.232   2.246   6.017  0.8506 -2.4433  0.7705
 2231SOL     OW18325   1.965   0.912   3.047  0.6565  0.2369 -0.1483
 2231SOL    HW118326   1.947   0.842   2.985  0.8135  2.2311 -2.4280
 2231SOL    HW218327   2.055   0.943   3.041  0.2004  1.2265 -1.7842
 2232SOL     OW18328   3.605   3.612  16.638  0.3823  0.2818 -0.8889
 2232SOL    HW118329   3.655   3.580  16.712 -2.7266  1.7722  1.8516
 2232SOL    HW218330   3.533   3.550  16.623 -0.2496  0.5699  0.9014
 2233SOL     OW18331   3.190   1.046   5.414  0.7200 -0.3998 -0.3717
 2233SOL    HW118332   3.243   0.966   5.414 -0.8607 -1.4500  0.4224
 2233SOL    HW218333   3.181   1.059   5.509 -0.8835  0.3332 -0.6229
 2234SOL     OW18334   1.213   1.419   3.811 -0.1976 -0.2692  0.1721
 2234SOL    HW118335   1.232   1.329   3.837 -2.3511 -0.2686  1.7155
 2234SOL    HW218336   1.221   1.392   3.720 -2.7170  0.3633 -0.2288
 2235SOL     OW18337   3.757   2.459   5.367 -0.5151  0.1996 -0.6172
 2235SOL    HW118338   3.808   2.379   5.353 -0.1171  0.5057 -0.9299
 2235SOL    HW218339   3.797   2.492   5.448 -4.4054 -1.0228  1.7719
 2236SOL     OW18340   0.712   2.177  11.760 -0.0176  0.0611 -0.1872
 2236SOL    HW118341   0.681   2.267  11.770  3.2197  1.4626 -2.5211
 2236SOL    HW218342   0.751   2.164  11.846  1.7211  0.0668 -0.9682
 2237SOL     OW18343   4.665   3.566   9.842  0.2953  0.0745  0.1457
 2237SOL    HW118344   4.648   3.510   9.766  2.8763 -2.7558  1.6828
 2237SOL    HW218345   0.007   3.514   9.865 -0.0170 -0.8119 -0.8177
 2238SOL     OW18346   3.323   2.729   9.532 -0.0415 -0.4466  0.0555
 2238SOL    HW118347   3.390   2.776   9.582 -0.5782 -1.4532  1.7298
 2238SOL    HW218348   3.374   2.698   9.458  0.5951  1.9082 -0.4761
 2239SOL     OW18349   1.180   0.407   8.617 -0.1012 -0.2819 -0.6624
 2239SOL    HW118350   1.267   0.373   8.596  0.0285 -0.4064  0.0609
 2239SOL    HW218351   1.119   0.363   8.558 -1.2060 -0.2963  0.4799
 2240SOL     OW18352   2.764   2.294   6.960 -0.1783 -0.2882  0.3169
 2240SOL    HW118353   2.859   2.285   6.966 -0.1669  0.1853  0.8376
 2240SOL    HW218354   2.739   2.201   6.969  1.2025 -0.6612  0.2551
 2241SOL     OW18355   2.427   0.565   4.317 -0.3621  0.5677 -0.2885
 2241SOL    HW118356   2.337   0.537   4.331  0.4554 -1.9241  0.0947
 2241SOL    HW218357   2.414   0.644   4.265 -1.1503 -0.1786 -1.2232
 2242SOL     OW18358   2.362   0.078  12.676  0.0922 -0.1056 -0.1700
 2242SOL    HW118359   2.371   0.127  12.758  0.4447  1.9647 -1.4280
 2242SOL    HW218360   2.449   0.086  12.638 -0.1894  1.7783 -0.4514
 2243SOL     OW18361   0.240   1.003   7.403 -0.3390  0.1539  0.8115
 2243SOL    HW118362   0.310   0.938   7.413 -1.2015 -0.8017  0.6221
 2243SOL    HW218363   0.196   1.002   7.488 -2.7504  1.4399 -0.4221
 2244SOL     OW18364   0.789   3.391  16.509  0.3257 -0.4916  0.3714
 2244SOL    HW118365   0.731   3.316  16.519 -0.3557 -0.0348 -0.1192
 2244SOL    HW218366   0.760   3.448  16.581 -0.5577 -0.4228 -0.0365
 2245SOL     OW18367   0.729   1.454   6.704  0.3736  1.0910  0.2943
 2245SOL    HW118368   0.686   1.390   6.647  3.9246  0.0168 -1.1558
 2245SOL    HW218369   0.722   1.414   6.791  0.3055  0.6632  0.0944
 2246SOL     OW18370   0.930   0.848   2.399 -0.1346  0.2246 -0.3676
 2246SOL    HW118371   0.973   0.765   2.377 -1.8424 -1.3199  2.0996
 2246SOL    HW218372   0.895   0.843   2.488  1.6427 -1.2158  0.2627
 2247SOL     OW18373   2.890   1.154   7.171 -0.0493 -0.5254  0.2393
 2247SOL    HW118374   2.882   1.224   7.237 -1.5167 -0.9946  0.5680
 2247SOL    HW218375   2.824   1.093   7.205 -2.2915  1.2974 -0.8081
 2248SOL     OW18376   3.272   0.120  15.285  0.6486  0.0964 -0.3029
 2248SOL    HW118377   3.330   0.048  15.309  1.4401  1.2341  1.2111
 2248SOL    HW218378   3.200   0.066  15.254 -0.0274  1.3912 -0.9561
 2249SOL     OW18379   1.715   2.860   1.868 -0.6728 -0.1793 -0.0707
 2249SOL    HW118380   1.625   2.851   1.837 -0.3661 -0.8576 -0.7888
 2249SOL    HW218381   1.750   2.943   1.836  0.3975 -0.0604  1.4027
 2250SOL     OW18382   4.638   3.697   3.127  0.1588 -0.0130 -0.0513
 2250SOL    HW118383   4.681   3.660   3.050 -1.9135 -0.3682 -1.0235
 2250SOL    HW218384   4.700   3.765   3.155 -0.3229  0.5783 -0.4394
 2251SOL     OW18385   2.363   1.187   6.287  0.7441 -0.6677 -0.4773
 2251SOL    HW118386   2.371   1.093   6.301  1.0880 -0.7307 -1.0948
 2251SOL    HW218387   2.291   1.185   6.223  1.5948 -0.2730 -1.4524
 2252SOL     OW18388   2.675   0.323   3.822  0.6411  0.6586 -0.5727
 2252SOL    HW118389   2.717   0.237   3.820  1.6626  1.1112  1.3856
 2252SOL    HW218390   2.751   0.377   3.845 -0.6236  1.6511  1.3174
 2253SOL     OW18391   3.700   4.491   6.495 -0.1204  0.0808 -0.0904
 2253SOL    HW118392   3.688   4.436   6.572 -0.3181 -0.2786 -0.3794
 2253SOL    HW218393   3.789   4.475   6.466 -0.8447 -1.4038 -1.4568
 2254SOL     OW18394   4.233   3.853   2.880 -0.6739 -0.1902  0.1208
 2254SOL    HW118395   4.308   3.794   2.890 -1.0713 -0.9138 -1.1392
 2254SOL    HW218396   4.226   3.894   2.966  0.0222  2.6608 -1.2072
 2255SOL     OW18397   3.223   1.684   1.377  0.2367 -0.4158 -0.3535
 2255SOL    HW118398   3.144   1.728   1.347 -0.0909 -1.0470 -0.4169
 2255SOL    HW218399   3.193   1.665   1.466  0.2090 -0.8801 -0.4615
 2256SOL     OW18400   4.628   4.422  14.836  0.2167  0.0067 -0.6414
 2256SOL    HW118401   4.652   4.503  14.790  0.9958  0.2853  0.2514
 2256SOL    HW218402   4.534   4.435  14.837  0.3030  0.2043  2.4456
 2257SOL     OW18403   3.011   1.487   3.253 -0.6145  0.3028 -0.0305
 2257SOL    HW118404   3.033   1.501   3.161 -1.2545 -0.4567 -0.2957
 2257SOL    HW218405   3.009   1.392   3.256 -1.8505  0.2873 -1.0197
 2258SOL     OW18406   4.616   4.650   9.491 -1.0618  0.1846 -0.1262
 2258SOL    HW118407   4.568   4.641   9.409 -0.8757  2.1957 -0.4579
 2258SOL    HW218408   4.624   0.010   9.494  0.2786  0.1243 -1.7483
 2259SOL     OW18409   1.761   0.904   6.111  0.2270 -0.3702 -0.4120
 2259SOL    HW118410   1.811   0.984   6.095  1.8374 -1.1093  0.8745
 2259SOL    HW218411   1.724   0.907   6.199 -0.1691 -1.0529 -0.5540
 2260SOL     OW18412   2.250   0.382   1.639 -0.4123  0.3596 -0.1431
 2260SOL    HW118413   2.278   0.315   1.702  0.7267  1.4036  0.4532
 2260SOL    HW218414   2.329   0.395   1.588  0.8307  0.2496  1.7599
 2261SOL     OW18415   1.306   1.228  12.340  0.9888 -0.4552 -0.4113
 2261SOL    HW118416   1.242   1.260  12.404  0.3059 -1.4354 -0.5934
 2261SOL    HW218417   1.376   1.175  12.377  1.6190  0.6834  0.0219
 2262SOL     OW18418   4.453   1.388  12.953  0.2025 -0.0827 -0.2015
 2262SOL    HW118419   4.520   1.338  12.907  0.6939  0.0959  0.3000
 2262SOL    HW218420   4.376   1.344  12.919 -0.2028 -0.4573  1.2084
 2263SOL     OW18421   3.996   4.420   5.303  0.2597  0.3246  0.2494
 2263SOL    HW118422   4.013   4.326   5.294 -3.7164 -0.3792  0.4080
 2263SOL    HW218423   4.081   4.436   5.343  1.3439 -0.7443 -1.5832
 2264SOL     OW18424   1.703   0.677   4.722  0.0085  0.0825 -0.1363
 2264SOL    HW118425   1.660   0.611   4.669 -0.8679  0.5116  0.0391
 2264SOL    HW218426   1.632   0.741   4.717  1.2809  1.3836 -1.7489
 2265SOL     OW18427   0.788   3.521  17.646  0.3958  0.9518 -0.4523
 2265SOL    HW118428   0.705   3.565  17.661 -1.1846 -2.2726  0.3792
 2265SOL    HW218429   0.831   3.600  17.614 -0.1774  0.5873 -2.1663
 2266SOL     OW18430   0.107   4.437  10.791 -0.1629 -0.3946  0.2198
 2266SOL    HW118431   0.026   4.458  10.838 -0.3159  1.1258 -0.7259
 2266SOL    HW218432   0.147   4.524  10.800 -3.1713  0.6660  3.7142
 2267SOL     OW18433   4.518   2.642  12.614 -0.1031  0.6935 -0.4697
 2267SOL    HW118434   4.558   2.690  12.542  1.2209  0.0470 -0.1643
 2267SOL    HW218435   4.425   2.662  12.600 -0.2300 -0.3225 -1.0712
 2268SOL     OW18436   2.710   4.432   2.350 -0.1100 -0.0367 -0.0247
 2268SOL    HW118437   2.644   4.460   2.413  1.6654  0.2916  1.6670
 2268SOL    HW218438   2.780   4.472   2.402 -0.6980 -1.9788  2.2779
 2269SOL     OW18439   1.854   4.169   9.101 -0.4262 -0.8340 -0.2280
 2269SOL    HW118440   1.794   4.130   9.165 -1.3083  1.3830  0.2807
 2269SOL    HW218441   1.935   4.135   9.140 -0.2203 -0.6054 -0.4558
 2270SOL     OW18442   4.125   1.246  15.164  0.2120  0.0604 -0.3297
 2270SOL    HW118443   4.150   1.309  15.097 -0.6937  0.1873 -0.5568
 2270SOL    HW218444   4.054   1.194  15.127  1.0554 -1.0503 -0.3787
 2271SOL     OW18445   0.784   3.122  14.386  0.0808 -0.0407  0.6288
 2271SOL    HW118446   0.745   3.150  14.469  0.8642  0.9155  0.6682
 2271SOL    HW218447   0.708   3.133  14.328  0.2807 -3.3660 -0.2794
 2272SOL     OW18448   0.445   1.582  14.257  0.0474 -0.3503 -0.0885
 2272SOL    HW118449   0.404   1.497  14.243  0.0186 -0.3489 -0.0120
 2272SOL    HW218450   0.368   1.627  14.293 -0.7004 -1.0654 -0.7866
 2273SOL     OW18451   2.096   4.334  16.833  0.1611 -0.3058 -0.0174
 2273SOL    HW118452   2.144   4.291  16.904  1.9917  1.8850  0.0769
 2273SOL    HW218453   2.043   4.400  16.879 -0.6150  0.5452 -2.1690
 2274SOL     OW18454   2.500   4.560   4.896 -0.5750 -0.0323  0.1248
 2274SOL    HW118455   2.548   4.487   4.935  0.2928 -0.3453 -1.5210
 2274SOL    HW218456   2.427   4.506   4.865 -0.1937  0.4947 -1.7197
 2275SOL     OW18457   2.137   0.869  17.250  0.0691 -0.0272 -0.3303
 2275SOL    HW118458   2.126   0.929  17.323 -0.0842 -1.2609  0.6531
 2275SOL    HW218459   2.157   0.794  17.306  1.6356 -0.0369 -0.8873
 2276SOL     OW18460   3.141   3.824   1.648  0.0946 -0.0763  0.3361
 2276SOL    HW118461   3.081   3.804   1.719  1.3766  0.8111  1.6802
 2276SOL    HW218462   3.204   3.754   1.633 -0.1127  0.2428 -2.0098
 2277SOL     OW18463   1.642   0.303   4.469  0.6023  0.1240 -0.3386
 2277SOL    HW118464   1.732   0.271   4.468  0.3093 -0.5864 -2.8899
 2277SOL    HW218465   1.590   0.231   4.435 -1.8901  2.7006 -2.0015
 2278SOL     OW18466   1.047   1.412   8.720 -0.0709  0.7036  0.6211
 2278SOL    HW118467   1.031   1.415   8.815  1.9879  1.0343  0.9584
 2278SOL    HW218468   1.080   1.500   8.704 -0.9036  0.9601  0.3081
 2279SOL     OW18469   2.651   3.967   9.170  0.0148  0.1048 -0.1653
 2279SOL    HW118470   2.586   4.033   9.147  0.6588 -0.1618 -2.7108
 2279SOL    HW218471   2.608   3.921   9.243 -2.0821  3.1861  0.5720
 2280SOL     OW18472   0.051   1.589  11.684  0.2018 -0.7069 -0.0364
 2280SOL    HW118473   4.697   1.616  11.664  1.1051  2.3262 -0.0636
 2280SOL    HW218474   0.044   1.494  11.685 -0.0286 -0.7149 -1.6664
 2281SOL     OW18475   0.239   4.524   2.046 -0.0210  0.2303 -0.2315
 2281SOL    HW118476   0.209   4.576   1.971 -0.7236  2.0875  1.3273
 2281SOL    HW218477   0.171   4.460   2.064 -0.2781  0.6214  0.1924
 2282SOL     OW18478   1.139   2.174   1.610  0.3745 -0.5601 -0.2683
 2282SOL    HW118479   1.213   2.201   1.664  0.0188 -0.1655  0.0136
 2282SOL    HW218480   1.192   2.181   1.530 -0.6378  0.9772 -0.8005
 2283SOL     OW18481   3.915   3.750   5.644  0.5273  0.5026  0.5158
 2283SOL    HW118482   3.940   3.842   5.652 -1.9450  0.9921  2.4909
 2283SOL    HW218483   3.959   3.712   5.568 -1.7665 -0.6668 -0.2229
 2284SOL     OW18484   3.556   2.360  12.402  0.1252  0.2443 -0.1820
 2284SOL    HW118485   3.520   2.293  12.459 -1.2395  1.9393  0.9341
 2284SOL    HW218486   3.502   2.336  12.327  0.5026 -1.1804 -0.0099
 2285SOL     OW18487   4.001   0.439   8.416 -0.5003  0.1339  0.2264
 2285SOL    HW118488   3.966   0.445   8.327 -0.7735 -0.4552  0.2935
 2285SOL    HW218489   3.926   0.438   8.475 -1.2429 -1.3299 -0.7339
 2286SOL     OW18490   1.529   2.896   3.811 -0.1038  0.7164 -0.1660
 2286SOL    HW118491   1.615   2.937   3.804  0.4903 -0.1396  2.0165
 2286SOL    HW218492   1.479   2.938   3.881 -1.6389 -1.0681 -0.1953
 2287SOL     OW18493   2.197   1.502   4.025  0.0954 -0.6687 -0.0063
 2287SOL    HW118494   2.223   1.593   4.014  1.9093 -1.4249 -1.9933
 2287SOL    HW218495   2.107   1.497   3.990  0.4659 -1.7654 -0.8243
 2288SOL     OW18496   1.788   0.233   7.867 -0.1747 -0.3218  0.0678
 2288SOL    HW118497   1.700   0.210   7.838  0.3355 -2.1660 -0.0475
 2288SOL    HW218498   1.797   0.328   7.861  0.7509 -0.3031  1.6258
 2289SOL     OW18499   1.479   3.819  11.825 -0.2779  0.0761  0.2431
 2289SOL    HW118500   1.436   3.733  11.829 -0.0598 -0.0726 -0.6068
 2289SOL    HW218501   1.537   3.807  11.750 -0.6247  1.3983 -0.2303
 2290SOL     OW18502   1.730   1.774   8.324 -0.1313 -0.6574 -0.2489
 2290SOL    HW118503   1.639   1.761   8.352  0.3840  1.4726  2.4468
 2290SOL    HW218504   1.768   1.788   8.411 -2.1141 -0.2543  0.5636
 2291SOL     OW18505   3.097   0.347   5.401  0.2497 -0.0514 -0.1818
 2291SOL    HW118506   3.016   0.397   5.393  0.2366 -0.0079  0.2311
 2291SOL    HW218507   3.079   0.278   5.337  0.1834  1.5058 -1.8447
 2292SOL     OW18508   3.607   2.098  16.581 -0.2391 -0.1063  0.8788
 2292SOL    HW118509   3.622   2.009  16.550  0.9538  0.0056  1.1564
 2292SOL    HW218510   3.694   2.130  16.559 -1.3701  2.0687 -0.4137
 2293SOL     OW18511   0.508   3.234   3.874  0.2140 -0.0743 -0.4737
 2293SOL    HW118512   0.413   3.241   3.881  0.4133 -0.0958  1.9465
 2293SOL    HW218513   0.533   3.162   3.816 -0.5357 -1.0371  0.3969
 2294SOL     OW18514   3.942   0.236  11.386 -0.3567  0.3615  0.6812
 2294SOL    HW118515   4.005   0.174  11.422  0.0113  0.5779  0.4088
 2294SOL    HW218516   3.879   0.248  11.458  0.1568  0.0647  1.1838
 2295SOL     OW18517   0.323   3.688   7.981 -0.0497  0.3429 -0.2541
 2295SOL    HW118518   0.351   3.711   7.893 -1.5207  0.7390 -0.6239
 2295SOL    HW218519   0.329   3.593   7.980 -0.3267  0.3408 -1.7540
 2296SOL     OW18520   4.244   0.199  10.777 -0.2935 -0.1794 -0.1168
 2296SOL    HW118521   4.256   0.239  10.863  2.7999 -0.2926 -0.4774
 2296SOL    HW218522   4.333   0.172  10.753 -0.4510 -0.4865 -0.3655
 2297SOL     OW18523   3.148   2.571   5.790 -0.1536  0.0828 -0.2024
 2297SOL    HW118524   3.182   2.636   5.729  3.2227 -0.2262  1.3521
 2297SOL    HW218525   3.195   2.494   5.757 -1.2861 -1.3563  1.5170
 2298SOL     OW18526   4.606   3.249   8.567  0.1151  0.1196 -0.3580
 2298SOL    HW118527   4.685   3.302   8.564  0.6581 -0.6854 -0.5289
 2298SOL    HW218528   4.548   3.311   8.611  0.9647  0.8927 -0.3309
 2299SOL     OW18529   4.528   0.890   5.315  0.0034  0.1317 -0.6131
 2299SOL    HW118530   4.537   0.980   5.282  2.5751 -0.3697 -1.2484
 2299SOL    HW218531   4.440   0.870   5.283 -0.8817  0.6665  1.4682
 2300SOL     OW18532   1.733   2.974   6.312  0.6687  0.0071  0.2790
 2300SOL    HW118533   1.822   2.938   6.318  0.3690 -0.8509 -0.4426
 2300SOL    HW218534   1.706   2.934   6.229  1.5537  1.8791 -0.9298
 2301SOL     OW18535   0.391   0.084   9.241 -0.1967  0.2668 -0.2180
 2301SOL    HW118536   0.302   0.061   9.212  0.6048 -1.8279 -1.0500
 2301SOL    HW218537   0.367   0.150   9.306  1.0763 -1.1875  1.7440
 2302SOL     OW18538   1.622   3.914   6.938  0.1123 -0.4343 -0.6780
 2302SOL    HW118539   1.671   3.867   6.871  0.3995 -0.0158 -0.7633
 2302SOL    HW218540   1.656   3.872   7.017  2.2459  3.6058  0.5349
 2303SOL     OW18541   2.627   1.521   2.532  0.3378 -0.2261 -0.4405
 2303SOL    HW118542   2.609   1.427   2.542 -2.2022  0.2289 -0.7967
 2303SOL    HW218543   2.610   1.533   2.439 -0.0510 -3.6437 -0.7979
 2304SOL     OW18544   1.251   3.774   8.548 -0.1963 -0.0166 -0.2046
 2304SOL    HW118545   1.165   3.742   8.573 -0.4088 -0.5833 -1.7176
 2304SOL    HW218546   1.225   3.865   8.563 -1.0458 -0.8675  3.5529
 2305SOL     OW18547   0.446   3.001  16.592 -0.3606  0.4099 -0.6585
 2305SOL    HW118548   0.395   2.977  16.515 -1.2844 -2.2414  0.7772
 2305SOL    HW218549   0.469   2.912  16.619  0.1561  0.5361 -0.6771
 2306SOL     OW18550   2.024   1.033   7.143  0.3560 -0.5588 -0.0478
 2306SOL    HW118551   2.027   1.123   7.173  0.2893 -0.7613  0.5631
 2306SOL    HW218552   1.933   1.018   7.166 -0.1328  1.0632 -0.9908
 2307SOL     OW18553   3.238   0.517   4.930  0.1744  0.8242 -0.1686
 2307SOL    HW118554   3.289   0.530   4.850  0.1035  1.5571 -0.0937
 2307SOL    HW218555   3.185   0.596   4.933  1.0681  1.4525 -1.1728
 2308SOL     OW18556   2.775   2.327   8.906 -0.5114 -0.1287 -0.3939
 2308SOL    HW118557   2.813   2.257   8.854  2.0401  1.9536 -1.3327
 2308SOL    HW218558   2.840   2.332   8.976 -1.1866 -1.4467  0.3466
 2309SOL     OW18559   0.882   1.185   6.820  0.3335 -0.1165  0.1030
 2309SOL    HW118560   0.955   1.140   6.776  0.3393  0.4835 -0.5031
 2309SOL    HW218561   0.923   1.204   6.904 -1.6518  4.1202  0.1148
 2310SOL     OW18562   3.693   3.702  15.369  0.2999 -0.5829 -0.2473
 2310SOL    HW118563   3.780   3.696  15.329  1.1082 -1.6361  1.6422
 2310SOL    HW218564   3.669   3.609  15.365 -0.3420 -0.2573 -3.3936
 2311SOL     OW18565   4.099   3.211   4.313  0.0711 -0.6104  0.1435
 2311SOL    HW118566   4.151   3.162   4.377  0.3613 -2.0217 -1.1652
 2311SOL    HW218567   4.015   3.225   4.357  0.8203 -1.7721  1.9732
 2312SOL     OW18568   4.013   4.104  10.630  0.3431 -0.0168  0.1969
 2312SOL    HW118569   4.056   4.117  10.545 -2.0964 -0.6636 -1.1362
 2312SOL    HW218570   3.920   4.102  10.608  0.5707 -1.6855 -0.6226
 2313SOL     OW18571   1.921   2.434   5.523 -0.0989  0.1344  0.9066
 2313SOL    HW118572   1.911   2.352   5.474  0.6930  0.4539  0.2225
 2313SOL    HW218573   1.968   2.484   5.457 -1.7409 -0.2596 -0.5508
 2314SOL     OW18574   3.374   0.613   4.709  0.3004  0.1204  0.0270
 2314SOL    HW118575   3.416   0.696   4.730  2.0665 -1.1485  1.4145
 2314SOL    HW218576   3.320   0.653   4.641  0.7573 -0.9865 -0.9958
 2315SOL     OW18577   0.080   0.277   2.349 -0.3315 -0.2626 -0.8217
 2315SOL    HW118578   0.059   0.366   2.323 -0.2659 -0.3077 -1.0281
 2315SOL    HW218579   0.035   0.211   2.296 -1.6271 -0.2861  0.2816
 2316SOL     OW18580   3.895   1.911  11.884  0.1775 -0.0777 -0.3017
 2316SOL    HW118581   3.871   1.977  11.819  0.3530  2.0396  1.7937
 2316SOL    HW218582   3.975   1.881  11.841  0.0725 -0.9267  0.0790
 2317SOL     OW18583   0.326   2.857   6.398  0.5743 -0.3681  0.3977
 2317SOL    HW118584   0.289   2.945   6.389 -0.4929 -0.6890  1.6508
 2317SOL    HW218585   0.256   2.795   6.418  0.4077 -0.0423  0.8148
 2318SOL     OW18586   1.903   0.746  13.730 -0.1442 -0.0830  0.0280
 2318SOL    HW118587   1.949   0.830  13.727 -1.4633  0.6840  1.4631
 2318SOL    HW218588   1.825   0.772  13.779 -1.5327  1.6826 -3.1324
 2319SOL     OW18589   0.890   2.022   1.797  0.2170  0.8169 -0.1404
 2319SOL    HW118590   0.973   1.986   1.827  0.6629  0.2479 -2.0984
 2319SOL    HW218591   0.831   1.947   1.790  0.5253  0.7263 -1.7301
 2320SOL     OW18592   0.416   1.622   2.785  0.2179 -0.6749 -0.5795
 2320SOL    HW118593   0.403   1.576   2.702  2.2558 -0.9923 -0.7145
 2320SOL    HW218594   0.498   1.587   2.820  0.5221 -0.1587 -0.7774
 2321SOL     OW18595   1.511   0.342   6.982  0.1733 -0.2609  0.1325
 2321SOL    HW118596   1.567   0.273   7.019 -0.1420 -0.3241  0.4856
 2321SOL    HW218597   1.453   0.287   6.929 -0.0431 -1.1210  1.2482
 2322SOL     OW18598   2.741   3.463   1.311  0.1175 -0.2522 -0.1635
 2322SOL    HW118599   2.729   3.409   1.233  1.8394 -1.7321  0.6175
 2322SOL    HW218600   2.831   3.494   1.299 -0.1730  1.0558  0.9694
 2323SOL     OW18601   2.487   1.327   2.987  0.6078  0.4247 -0.3522
 2323SOL    HW118602   2.459   1.398   2.930  2.0194  1.6932  0.5389
 2323SOL    HW218603   2.521   1.375   3.062  2.0615 -0.2167 -0.5834
 2324SOL     OW18604   3.544   3.436   5.721 -0.4318 -0.0282  0.3779
 2324SOL    HW118605   3.532   3.343   5.741 -1.0113 -0.1075 -0.3401
 2324SOL    HW218606   3.621   3.438   5.664 -1.6412 -0.9830 -1.2833
 2325SOL     OW18607   4.733   4.701  10.335  0.0596 -0.4571  0.1698
 2325SOL    HW118608   4.726   4.608  10.317  1.5833 -0.6563  0.6771
 2325SOL    HW218609   0.050   4.690  10.413 -0.9057 -0.6672  0.7891
 2326SOL     OW18610   0.713   0.327   2.592 -0.1373 -0.1482  0.0720
 2326SOL    HW118611   0.690   0.303   2.502 -1.4908 -1.7992  0.8653
 2326SOL    HW218612   0.808   0.315   2.587 -0.1707 -0.1321 -0.5862
 2327SOL     OW18613   3.911   0.364  11.130  0.2064  0.1291  0.1104
 2327SOL    HW118614   3.991   0.416  11.140  0.2840  0.5195 -2.7102
 2327SOL    HW218615   3.902   0.333  11.220 -2.1695  0.5340  0.0190
 2328SOL     OW18616   2.483   3.341   3.509 -0.2046 -0.0466  0.3806
 2328SOL    HW118617   2.575   3.314   3.504  0.3208  1.7743  0.5385
 2328SOL    HW218618   2.449   3.303   3.427  0.2527 -0.7834  0.5262
 2329SOL     OW18619   3.239   4.252   1.182 -0.4408 -0.1463  0.4218
 2329SOL    HW118620   3.293   4.304   1.123  0.6928  0.1104  1.6934
 2329SOL    HW218621   3.223   4.312   1.254  0.7673 -0.2267  0.7612
 2330SOL     OW18622   3.647   0.583   1.805 -0.3594 -0.6342 -0.1250
 2330SOL    HW118623   3.590   0.507   1.793 -1.8394  0.0226  2.7847
 2330SOL    HW218624   3.719   0.545   1.754 -1.0820 -0.4750 -1.2651
 2331SOL     OW18625   3.623   4.627   7.817 -0.3957 -0.3791  0.1266
 2331SOL    HW118626   3.586   4.653   7.901  1.6053  0.8819  0.6215
 2331SOL    HW218627   3.624   4.532   7.809  0.9777 -0.0665 -3.5131
 2332SOL     OW18628   3.810   3.480   2.131 -0.4160 -0.3882  0.0884
 2332SOL    HW118629   3.775   3.394   2.109  0.0197 -0.4381 -0.4085
 2332SOL    HW218630   3.838   3.474   2.223  1.4424 -2.3158 -0.6015
 2333SOL     OW18631   3.916   3.621  10.502 -0.0569  0.0540 -0.2868
 2333SOL    HW118632   3.992   3.669  10.471  0.5598  0.1082  1.3084
 2333SOL    HW218633   3.903   3.680  10.576 -0.2004 -1.4632  0.9213
 2334SOL     OW18634   3.228   1.908   3.969 -0.3049 -0.0158  0.7222
 2334SOL    HW118635   3.162   1.899   4.038  1.3577 -0.4528  2.2460
 2334SOL    HW218636   3.244   1.818   3.940  1.5787  0.1261  1.2910
 2335SOL     OW18637   0.416   4.292   7.260  0.0830  0.2253  0.1146
 2335SOL    HW118638   0.361   4.216   7.278  0.5303 -0.2372 -0.4531
 2335SOL    HW218639   0.480   4.257   7.197 -0.4892 -0.8444  0.1334
 2336SOL     OW18640   3.634   1.821   4.900 -0.0011  0.5943 -0.3805
 2336SOL    HW118641   3.563   1.801   4.839 -0.1086  1.7725 -0.6486
 2336SOL    HW218642   3.644   1.732   4.934 -0.1222  0.0427 -1.8146
 2337SOL     OW18643   0.391   3.358   0.492 -0.3295 -0.4957 -0.0142
 2337SOL    HW118644   0.397   3.437   0.546 -1.7207 -1.1277  1.0772
 2337SOL    HW218645   0.475   3.313   0.499 -0.9849 -1.7353  0.0374
 2338SOL     OW18646   0.487   0.539   2.820 -0.7296 -0.3154 -0.2885
 2338SOL    HW118647   0.479   0.544   2.725 -0.8450 -0.0607 -0.2672
 2338SOL    HW218648   0.395   0.539   2.845 -0.6342  1.0911  0.0640
 2339SOL     OW18649   0.227   1.703  10.436 -0.3418 -0.9043 -0.5481
 2339SOL    HW118650   0.257   1.622  10.396  0.7977 -0.6576 -0.2131
 2339SOL    HW218651   0.134   1.680  10.436  0.1055 -2.6514 -1.3147
 2340SOL     OW18652   4.054   2.034   6.289  0.6359 -0.1702  0.0234
 2340SOL    HW118653   4.133   1.993   6.324  0.3929  0.2686  1.0644
 2340SOL    HW218654   3.985   1.973   6.315  1.0109 -0.8251 -0.5272
 2341SOL     OW18655   0.475   1.366  10.250  0.6967 -0.4474  0.1490
 2341SOL    HW118656   0.437   1.441  10.204  1.0250 -0.9931 -1.0174
 2341SOL    HW218657   0.400   1.309  10.264  0.0280  1.1443  3.1586
 2342SOL     OW18658   4.727   1.295   4.016  0.3210 -0.0789  0.9070
 2342SOL    HW118659   0.038   1.280   3.933  0.5807 -0.5455  1.1342
 2342SOL    HW218660   4.667   1.365   3.992 -0.7922 -0.8691  1.4224
 2343SOL     OW18661   4.483   4.480   4.011  0.1684 -0.0824 -0.1355
 2343SOL    HW118662   4.473   4.569   4.045 -1.8369 -1.1456  2.0395
 2343SOL    HW218663   4.404   4.452   3.964  0.4484 -0.3577 -0.4460
 2344SOL     OW18664   1.026   0.236   8.341  0.1069  0.4064  0.7194
 2344SOL    HW118665   0.974   0.156   8.329  0.7630  0.2540 -1.0566
 2344SOL    HW218666   0.982   0.255   8.424  0.2648 -2.1755  1.3830
 2345SOL     OW18667   0.944   3.002  14.188 -0.5941 -0.1945 -0.4928
 2345SOL    HW118668   0.896   3.048  14.257 -0.6407 -0.2086 -0.5156
 2345SOL    HW218669   1.024   3.053  14.199 -1.2122  0.5653  0.5316
 2346SOL     OW18670   0.479   4.041   8.793  0.1969 -0.3847  0.2075
 2346SOL    HW118671   0.518   3.985   8.725  0.6985  0.3008 -0.0733
 2346SOL    HW218672   0.543   4.013   8.859 -0.2152 -1.0708  0.3158
 2347SOL     OW18673   1.758   0.434   4.250 -0.4012  0.2712  0.4131
 2347SOL    HW118674   1.695   0.437   4.322 -2.0824  3.3209 -1.1463
 2347SOL    HW218675   1.768   0.340   4.236 -0.5752  0.2406  0.4873
 2348SOL     OW18676   1.883   2.847   3.782 -0.0851  0.1231  0.4698
 2348SOL    HW118677   1.910   2.804   3.700 -0.4473 -1.2446  1.0580
 2348SOL    HW218678   1.821   2.786   3.824 -0.1126 -0.1684  0.0061
 2349SOL     OW18679   0.062   2.788   7.783 -0.5381  0.0853  0.3524
 2349SOL    HW118680   0.076   2.701   7.746 -0.3782  0.2474  0.0347
 2349SOL    HW218681   4.702   2.801   7.790 -0.6108  0.5970 -1.4745
 2350SOL     OW18682   2.138   1.915  11.136  0.0991 -0.0645  0.1041
 2350SOL    HW118683   2.118   1.823  11.118 -0.1246  0.3089 -1.5485
 2350SOL    HW218684   2.089   1.967  11.072 -0.4579 -0.4909  0.1794
 2351SOL     OW18685   4.235   0.210   2.240  0.1754 -0.0124 -0.6968
 2351SOL    HW118686   4.205   0.279   2.298 -0.5379  1.4932 -2.8663
 2351SOL    HW218687   4.283   0.263   2.177  0.6017 -0.1341 -0.4783
 2352SOL     OW18688   3.018   3.474  17.368  0.8859  0.0003 -0.0534
 2352SOL    HW118689   3.018   3.422  17.287 -1.3591  0.9752 -0.6780
 2352SOL    HW218690   3.106   3.510  17.356  0.6977  0.0626 -1.2470
 2353SOL     OW18691   0.434   1.225  16.697  0.0398  0.0887 -0.1925
 2353SOL    HW118692   0.447   1.131  16.711 -4.4036 -0.9473 -3.2404
 2353SOL    HW218693   0.512   1.239  16.644  0.6706 -1.9122  0.2022
 2354SOL     OW18694   2.903   1.600   4.872 -0.0402  0.6541  0.0408
 2354SOL    HW118695   2.808   1.614   4.869  0.0005  1.1169  1.0250
 2354SOL    HW218696   2.929   1.640   4.789  0.0376 -2.4928 -1.4628
 2355SOL     OW18697   4.645   0.655  16.226  0.7377  0.0914 -0.0233
 2355SOL    HW118698   4.687   0.727  16.180 -1.4189  1.5219  0.2324
 2355SOL    HW218699   4.671   0.670  16.317  0.7974  2.5708 -0.4539
 2356SOL     OW18700   2.165   1.799  15.807  0.0285  0.3727  0.5374
 2356SOL    HW118701   2.258   1.809  15.783 -0.0635  1.8868  0.7814
 2356SOL    HW218702   2.143   1.878  15.856 -2.9103 -0.5867  0.7428
 2357SOL     OW18703   0.159   1.130   5.299  0.1247  0.1382  0.2822
 2357SOL    HW118704   0.212   1.205   5.272  1.3469 -0.8477 -0.0693
 2357SOL    HW218705   0.177   1.073   5.224 -2.0644  0.5695 -0.5381
 2358SOL     OW18706   1.225   0.268   9.327  0.1311  0.0823  0.3855
 2358SOL    HW118707   1.138   0.298   9.353 -0.0810  0.7493 -1.1420
 2358SOL    HW218708   1.268   0.353   9.318 -1.5560  0.8031 -0.7596
 2359SOL     OW18709   0.463   0.508  14.921  0.1875 -0.0969 -0.1973
 2359SOL    HW118710   0.496   0.521  15.010  0.5102 -1.1897 -0.1547
 2359SOL    HW218711   0.368   0.501  14.927  0.1462 -1.4203 -2.2234
 2360SOL     OW18712   3.185   3.306   5.236  0.2572 -0.1995 -0.3340
 2360SOL    HW118713   3.280   3.309   5.248  0.2849  1.9671 -1.0483
 2360SOL    HW218714   3.156   3.365   5.306  1.4383 -0.4017  0.3187
 2361SOL     OW18715   0.548   2.837   8.825  0.0029  0.3000  0.2191
 2361SOL    HW118716   0.467   2.842   8.876 -0.1524  0.6273 -0.0581
 2361SOL    HW218717   0.532   2.752   8.785 -1.8996 -0.1458  1.9128
 2362SOL     OW18718   4.495   4.043   8.505  0.1775 -0.5770 -0.0637
 2362SOL    HW118719   4.478   4.096   8.582 -0.1685 -0.2580 -0.3641
 2362SOL    HW218720   4.585   4.071   8.487 -0.1429 -0.1138 -0.9180
 2363SOL     OW18721   4.020   3.987   3.232 -0.5486  0.0520  0.0002
 2363SOL    HW118722   4.075   4.064   3.221  0.8814 -0.8360  0.9764
 2363SOL    HW218723   4.082   3.915   3.229  0.0728  0.7495 -3.8906
 2364SOL     OW18724   2.083   4.008   1.961  0.1391  0.0601  0.1886
 2364SOL    HW118725   2.138   4.032   2.036  0.3281 -0.8227  0.3345
 2364SOL    HW218726   2.057   3.918   1.982  0.8833  0.5329  3.2073
 2365SOL     OW18727   1.814   3.137  12.235  0.0212 -0.1169 -0.2499
 2365SOL    HW118728   1.796   3.222  12.195 -0.6706  0.2950  0.9434
 2365SOL    HW218729   1.726   3.101  12.241 -1.3557  3.3238  0.3608
 2366SOL     OW18730   0.439   2.768  16.728  0.6586  0.3420  0.1012
 2366SOL    HW118731   0.401   2.689  16.765 -0.7871  0.1538 -1.8147
 2366SOL    HW218732   0.395   2.828  16.788 -0.4584 -0.1833 -0.1988
 2367SOL     OW18733   2.780   1.695   1.455  0.2964 -0.1781  0.1306
 2367SOL    HW118734   2.772   1.726   1.364  1.4094  1.1980  0.4947
 2367SOL    HW218735   2.870   1.665   1.468  0.3544 -0.2116 -0.3452
 2368SOL     OW18736   4.498   3.185   5.232 -0.9357 -0.6127  0.4373
 2368SOL    HW118737   4.516   3.153   5.143 -0.8878 -0.4536  0.3883
 2368SOL    HW218738   4.556   3.126   5.279 -0.4448 -0.9710 -0.6022
 2369SOL     OW18739   0.800   3.556   6.615  0.0165 -0.0656 -0.4828
 2369SOL    HW118740   0.875   3.540   6.558  0.0114  0.4512 -0.6365
 2369SOL    HW218741   0.852   3.608   6.677 -0.7337 -1.7708  1.5675
 2370SOL     OW18742   0.884   1.831   5.000 -0.2431 -0.3050  0.2125
 2370SOL    HW118743   0.858   1.916   5.033  0.0756 -0.3037  0.4582
 2370SOL    HW218744   0.969   1.854   4.962 -1.6207  0.3670 -2.4547
 2371SOL     OW18745   2.049   0.661  13.511 -0.9292  0.5445 -0.1852
 2371SOL    HW118746   2.006   0.672  13.595  0.1790 -0.8370  0.5776
 2371SOL    HW218747   1.996   0.712  13.450 -0.7206  1.6872  0.5911
 2372SOL     OW18748   1.140   3.138   7.999  0.2934 -0.0333  0.4605
 2372SOL    HW118749   1.059   3.161   7.953 -0.1050  0.8915  1.6338
 2372SOL    HW218750   1.167   3.221   8.038  1.3547 -0.2332  0.1351
 2373SOL     OW18751   0.333   2.578   1.892  0.1763  0.3957 -0.2048
 2373SOL    HW118752   0.384   2.619   1.823  0.4454  0.0980 -0.1823
 2373SOL    HW218753   0.318   2.489   1.860  0.4754 -0.0057  0.7678
 2374SOL     OW18754   2.455   1.764   3.198  0.6292 -0.0600 -0.3320
 2374SOL    HW118755   2.482   1.694   3.137  1.9815 -0.1868  0.4093
 2374SOL    HW218756   2.534   1.818   3.195  1.1721 -0.9976 -3.1267
 2375SOL     OW18757   1.801   1.704   3.687  0.0018  0.3495 -0.3603
 2375SOL    HW118758   1.736   1.768   3.717 -0.8668  0.7921 -3.2041
 2375SOL    HW218759   1.748   1.655   3.624 -1.0798  0.6187  0.3406
 2376SOL     OW18760   1.098   1.333   9.254 -0.3794 -0.3624 -0.2411
 2376SOL    HW118761   1.051   1.256   9.284  0.9683 -0.8135  0.6987
 2376SOL    HW218762   1.059   1.399   9.311 -1.1906 -0.1087 -1.0782
 2377SOL     OW18763   2.279   4.191  14.605  0.1789 -0.1738 -0.1331
 2377SOL    HW118764   2.362   4.211  14.648  1.2592 -5.6161  0.2988
 2377SOL    HW218765   2.302   4.120  14.544 -1.8225 -0.4198 -0.5851
 2378SOL     OW18766   3.787   4.064   9.184 -1.0209 -0.1035 -0.4465
 2378SOL    HW118767   3.730   4.015   9.242 -0.1928  0.9266  1.2128
 2378SOL    HW218768   3.752   4.042   9.097  0.6389 -0.6256 -0.9876
 2379SOL     OW18769   1.076   0.991   4.323 -0.5224 -0.1323  0.1498
 2379SOL    HW118770   1.062   1.084   4.337  3.2381 -0.1689  4.2346
 2379SOL    HW218771   1.151   0.982   4.382 -0.9655 -1.1678  0.5593
 2380SOL     OW18772   2.107   2.236   3.826 -0.2765 -0.1576 -0.1226
 2380SOL    HW118773   2.141   2.310   3.876  0.4667 -0.5643 -0.0260
 2380SOL    HW218774   2.162   2.161   3.849 -0.7895 -1.1093 -2.0239
 2381SOL     OW18775   3.057   0.509   4.206  0.5402 -0.4228 -0.2829
 2381SOL    HW118776   2.977   0.559   4.219  0.9816  0.6297 -1.6663
 2381SOL    HW218777   3.098   0.520   4.292  0.4930  0.3974 -0.3660
 2382SOL     OW18778   3.542   2.051  12.505  0.2799  0.2739  0.4777
 2382SOL    HW118779   3.483   2.096  12.565 -1.3434 -1.2830  0.0539
 2382SOL    HW218780   3.549   1.969  12.554 -1.6665  0.2040  0.6379
 2383SOL     OW18781   0.716   2.854   3.903  0.2283  0.2593 -0.8622
 2383SOL    HW118782   0.724   2.903   3.984 -2.3273 -1.1448  0.2426
 2383SOL    HW218783   0.687   2.914   3.834 -0.6525  1.7128  0.7585
 2384SOL     OW18784   4.470   1.337   0.018 -0.1869 -0.0785  0.0637
 2384SOL    HW118785   4.488   1.275   0.089  2.9108  0.3629 -0.3273
 2384SOL    HW218786   4.550   1.330  17.705 -0.5139  5.8749 -1.2243
 2385SOL     OW18787   4.320   2.731   7.477 -0.4576  0.5801 -0.3244
 2385SOL    HW118788   4.246   2.776   7.517 -1.2718 -1.6741  0.7271
 2385SOL    HW218789   4.289   2.641   7.463 -0.1113  0.2600  0.9522
 2386SOL     OW18790   2.066   3.822  10.766  0.0999  0.0528  0.5622
 2386SOL    HW118791   2.148   3.775  10.750 -0.3307  1.1121 -4.9688
 2386SOL    HW218792   2.102   3.910  10.756  1.9849 -0.8614 -0.9077
 2387SOL     OW18793   4.497   2.103  15.726 -0.5233  0.3843  0.1371
 2387SOL    HW118794   4.571   2.138  15.675 -0.9993 -0.8841 -1.4524
 2387SOL    HW218795   4.537   2.026  15.767  1.8508  0.3107 -2.2934
 2388SOL     OW18796   4.504   4.625   4.637  0.8556 -0.6705 -0.3760
 2388SOL    HW118797   4.506   4.533   4.613 -0.5534 -0.8042 -0.0004
 2388SOL    HW218798   4.456   4.610   4.718  0.4990 -0.5516 -0.5653
 2389SOL     OW18799   2.998   1.363  15.747  0.7694  0.0722 -0.1133
 2389SOL    HW118800   3.017   1.301  15.817  3.1117  2.0723  1.0370
 2389SOL    HW218801   3.080   1.362  15.696  0.4584  1.8305 -0.6436
 2390SOL     OW18802   4.524   0.895  16.576 -0.0847 -0.2381  0.4031
 2390SOL    HW118803   4.438   0.887  16.618 -0.8024  1.6568 -0.7144
 2390SOL    HW218804   4.534   0.990  16.578  0.2198 -0.2881  1.2926
 2391SOL     OW18805   2.303   4.231   8.405  0.0276 -0.0366 -0.4387
 2391SOL    HW118806   2.356   4.226   8.485  1.6908 -0.8196 -1.5854
 2391SOL    HW218807   2.271   4.141   8.399 -0.0491  0.0698 -1.5666
 2392SOL     OW18808   0.611   2.987  13.585 -0.6703 -0.5298  0.1557
 2392SOL    HW118809   0.625   2.893  13.594 -1.3191 -0.6637 -0.2454
 2392SOL    HW218810   0.653   3.018  13.665 -2.5935 -0.4048  1.1365
 2393SOL     OW18811   2.176   4.027   5.434  0.1418  0.0817  0.6262
 2393SOL    HW118812   2.082   4.045   5.429  0.8428  2.6585 -4.1871
 2393SOL    HW218813   2.184   3.962   5.504 -2.5527 -0.9403 -0.0086
 2394SOL     OW18814   0.999   2.086   3.877 -0.4941 -0.8700  0.1151
 2394SOL    HW118815   0.933   2.152   3.899  2.4508  2.4295 -1.0468
 2394SOL    HW218816   1.078   2.139   3.876 -0.0539 -1.5479 -0.8396
 2395SOL     OW18817   0.339   3.668   6.334 -0.7508 -0.0875  0.2518
 2395SOL    HW118818   0.327   3.748   6.385 -0.2353  0.0337  0.1792
 2395SOL    HW218819   0.429   3.675   6.303 -0.8554  2.5360  0.5237
 2396SOL     OW18820   1.505   0.283   2.619  0.0667 -0.0690 -0.1439
 2396SOL    HW118821   1.597   0.256   2.625 -0.3699 -1.2474  1.2121
 2396SOL    HW218822   1.518   0.375   2.595  1.8826 -0.0004  1.0786
 2397SOL     OW18823   2.503   1.328   4.607  0.0479 -0.6191  0.1637
 2397SOL    HW118824   2.480   1.386   4.679 -1.6608  0.0913 -0.9488
 2397SOL    HW218825   2.573   1.380   4.568 -1.0035  0.5637 -0.1439
 2398SOL     OW18826   0.669   0.476  10.168  0.5375 -0.0520  0.4314
 2398SOL    HW118827   0.612   0.496  10.093  1.2195 -1.6537 -0.5046
 2398SOL    HW218828   0.740   0.428  10.126  0.5257 -0.2673  0.6572
 2399SOL     OW18829   1.558   3.322   5.585  0.3163  0.0600  0.6369
 2399SOL    HW118830   1.578   3.415   5.594  1.4656  0.1253 -2.8434
 2399SOL    HW218831   1.640   3.286   5.619 -0.4636 -2.7278 -0.4265
 2400SOL     OW18832   2.598   3.878   0.216  0.3698 -0.1053  0.2288
 2400SOL    HW118833   2.609   3.970   0.191 -0.1487 -0.2963 -0.6833
 2400SOL    HW218834   2.627   3.879   0.307  1.7434  0.6344 -0.2215
 2401SOL     OW18835   2.121   1.874  16.730  0.1007  0.5307 -0.2087
 2401SOL    HW118836   2.181   1.922  16.673  1.4500  0.7125  1.3473
 2401SOL    HW218837   2.060   1.846  16.662  1.3648  0.7314 -1.4289
 2402SOL     OW18838   1.595   2.259   6.696  0.1629 -0.1701 -0.2705
 2402SOL    HW118839   1.610   2.345   6.734  1.0338  1.0820 -3.4188
 2402SOL    HW218840   1.521   2.222   6.744  0.2478 -2.3590 -1.8225
 2403SOL     OW18841   1.432   2.831   1.284  0.0970 -0.4832  0.1004
 2403SOL    HW118842   1.382   2.763   1.238  0.4310 -0.6455 -0.0184
 2403SOL    HW218843   1.382   2.845   1.365 -1.4586  2.2211 -1.2977
 2404SOL     OW18844   3.754   2.089   0.888 -0.8273 -0.4682  0.4336
 2404SOL    HW118845   3.818   2.071   0.820 -1.0740 -3.6289  1.0612
 2404SOL    HW218846   3.751   2.185   0.882 -0.9802 -0.4476  0.8309
 2405SOL     OW18847   0.789   4.109   5.504 -0.2766 -0.9969 -0.1271
 2405SOL    HW118848   0.762   4.085   5.416  2.0557  2.7919 -1.8930
 2405SOL    HW218849   0.846   4.186   5.502 -0.8351 -0.4978  3.0327
 2406SOL     OW18850   4.613   3.079  15.874 -0.1201  0.4465  0.2133
 2406SOL    HW118851   4.524   3.070  15.842 -0.3485 -0.5878  1.1705
 2406SOL    HW218852   4.638   3.163  15.835  2.0261 -1.2372 -2.0849
 2407SOL     OW18853   2.378   4.264   5.180 -0.0606 -0.0811  0.0519
 2407SOL    HW118854   2.314   4.195   5.164 -0.2709  0.2420 -0.4920
 2407SOL    HW218855   2.323   4.342   5.178 -0.4468 -0.3668 -0.4698
 2408SOL     OW18856   2.751   4.498   5.166  0.3190 -0.5386  0.7337
 2408SOL    HW118857   2.752   4.511   5.261 -0.6390  0.6404  0.5799
 2408SOL    HW218858   2.844   4.519   5.160  0.4898 -1.4663  0.1504
 2409SOL     OW18859   0.260   3.253   3.996 -0.2508  0.2739  0.7000
 2409SOL    HW118860   0.179   3.242   3.945  1.1871  0.6634 -1.6448
 2409SOL    HW218861   0.271   3.348   4.002 -0.5672  0.2123  2.5086
 2410SOL     OW18862   4.018   4.255   3.826  0.1412  0.2372 -0.2345
 2410SOL    HW118863   3.963   4.333   3.821 -0.4262 -0.1471 -0.0421
 2410SOL    HW218864   4.009   4.241   3.920 -1.1410  2.1330 -0.0729
 2411SOL     OW18865   2.724   0.209  11.332  0.5743 -0.7987  0.0841
 2411SOL    HW118866   2.733   0.287  11.388 -0.1824 -0.5005 -0.2058
 2411SOL    HW218867   2.712   0.148  11.405 -1.1134 -1.7059 -0.9530
 2412SOL     OW18868   2.748   2.563   6.270  0.6906 -0.2534 -0.5916
 2412SOL    HW118869   2.665   2.573   6.317 -0.3184  1.2062 -2.6885
 2412SOL    HW218870   2.787   2.489   6.316 -0.4604 -0.7757 -0.4638
 2413SOL     OW18871   3.443   0.591   7.936  0.4792  0.0065  0.4882
 2413SOL    HW118872   3.367   0.552   7.979  2.1713 -2.1462  1.5398
 2413SOL    HW218873   3.474   0.656   7.999 -0.8828 -1.6000  2.8144
 2414SOL     OW18874   2.647   0.080   9.392 -0.0359  0.1345 -0.4533
 2414SOL    HW118875   2.580   0.075   9.323  1.7636 -1.4776 -2.0844
 2414SOL    HW218876   2.589   0.064   9.466 -0.8182  0.7782 -0.9313
 2415SOL     OW18877   3.156   3.735   4.766 -0.0773 -0.3956 -0.0518
 2415SOL    HW118878   3.105   3.666   4.724 -0.0255 -0.5476  0.1353
 2415SOL    HW218879   3.213   3.679   4.819 -1.2401 -1.2052  0.3399
 2416SOL     OW18880   2.318   2.665   8.543  0.3725 -0.2601 -0.0610
 2416SOL    HW118881   2.260   2.716   8.486  1.0923 -0.7521 -1.2216
 2416SOL    HW218882   2.398   2.676   8.491 -0.7109  2.0142 -1.2674
 2417SOL     OW18883   1.000   4.413   8.054  0.2778 -0.3283  0.2082
 2417SOL    HW118884   1.001   4.410   8.150  0.3053 -0.9488  0.1856
 2417SOL    HW218885   0.906   4.424   8.040  0.1646 -0.7928  0.6026
 2418SOL     OW18886   4.381   1.305   3.648  0.9157 -0.1982 -0.3939
 2418SOL    HW118887   4.425   1.228   3.611  0.1777 -0.3168 -1.0093
 2418SOL    HW218888   4.288   1.282   3.647  0.5910  0.9778  1.6780
 2419SOL     OW18889   1.055   4.031   5.837 -0.1500  0.4496 -0.3305
 2419SOL    HW118890   1.064   3.955   5.780 -1.1242  0.9210 -1.1133
 2419SOL    HW218891   1.145   4.064   5.840  0.0874 -0.1745 -0.5045
 2420SOL     OW18892   2.173   2.476   8.968 -0.7131 -0.2668  0.1851
 2420SOL    HW118893   2.221   2.396   8.947  0.8546  1.2978 -2.2024
 2420SOL    HW218894   2.085   2.439   8.972 -0.7863 -0.1546 -0.3425
 2421SOL     OW18895   2.883   0.294  13.806 -0.0752  0.4214 -0.1012
 2421SOL    HW118896   2.922   0.381  13.815  0.0476  0.3780 -0.2214
 2421SOL    HW218897   2.791   0.314  13.824  0.1918  0.5785  1.0614
 2422SOL     OW18898   0.541   3.087   9.944 -0.2150 -0.5645 -0.1074
 2422SOL    HW118899   0.609   3.130   9.996  1.6584 -2.7375 -0.7634
 2422SOL    HW218900   0.581   3.000   9.931  1.1896  0.0173  0.3278
 2423SOL     OW18901   3.078   4.030   3.412  0.1175  0.0267 -0.1225
 2423SOL    HW118902   3.041   4.089   3.477 -4.2479 -1.1778 -1.5056
 2423SOL    HW218903   2.999   3.976   3.401 -0.4749  0.8248  0.2291
 2424SOL     OW18904   2.443   3.716   2.667  0.2363 -0.4098 -0.3222
 2424SOL    HW118905   2.448   3.681   2.578 -0.9577  0.6019 -0.7867
 2424SOL    HW218906   2.535   3.704   2.690  0.0003 -2.0459 -0.1748
 2425SOL     OW18907   2.407   4.605  12.968  0.3644  0.1499 -0.1342
 2425SOL    HW118908   2.355   4.528  12.992 -0.4609  0.4894 -0.8350
 2425SOL    HW218909   2.338   4.642  12.913 -0.7860 -0.2185  1.0675
 2426SOL     OW18910   4.467   0.987   2.665 -0.0357 -0.7096 -0.1935
 2426SOL    HW118911   4.420   1.067   2.687  0.6163  0.1050 -1.7559
 2426SOL    HW218912   4.398   0.927   2.693 -3.7779  1.9876 -3.6014
 2427SOL     OW18913   1.750   0.432   2.365 -0.2219 -0.0192  0.3532
 2427SOL    HW118914   1.757   0.337   2.376  0.4855  0.0095  0.1446
 2427SOL    HW218915   1.819   0.453   2.303  0.5464  2.0526  1.9188
 2428SOL     OW18916   0.201   1.224  10.929 -0.0349  0.1467 -0.1448
 2428SOL    HW118917   0.258   1.194  11.001  0.1921 -0.7174 -0.6871
 2428SOL    HW218918   0.246   1.304  10.902 -1.2057  0.5251 -0.9689
 2429SOL     OW18919   0.463   3.268   7.673 -0.4215 -0.0575  0.1201
 2429SOL    HW118920   0.521   3.253   7.748 -3.7083 -4.0413  1.8937
 2429SOL    HW218921   0.494   3.355   7.647  2.4496 -1.0943  0.1420
 2430SOL     OW18922   0.070   2.479   6.999 -0.5045 -0.0555 -0.3934
 2430SOL    HW118923   0.013   2.488   6.922 -0.8444 -1.9369 -0.3675
 2430SOL    HW218924   4.731   2.465   7.057  1.2569 -2.8079  1.1627
 2431SOL     OW18925   3.544   0.670  11.510  0.3067 -0.3680  0.1813
 2431SOL    HW118926   3.598   0.746  11.488  2.1399 -1.2896  1.5198
 2431SOL    HW218927   3.557   0.617  11.432 -0.7639 -0.1324 -0.1673
 2432SOL     OW18928   0.229   0.907   7.979 -0.0199 -0.0973 -0.0217
 2432SOL    HW118929   0.302   0.958   8.012  0.4132 -1.8542  1.7628
 2432SOL    HW218930   0.224   0.826   8.030 -2.3046  0.5066  0.7043
 2433SOL     OW18931   0.053   1.448   5.236  0.1156 -0.1103  0.2580
 2433SOL    HW118932   0.145   1.426   5.250 -0.2631 -2.3305 -0.6628
 2433SOL    HW218933   0.015   1.460   5.323 -1.4431  0.1410 -0.4581
 2434SOL     OW18934   3.775   3.360   4.691  0.4095 -0.0384  0.6463
 2434SOL    HW118935   3.729   3.434   4.652  1.9864  0.8594  0.5050
 2434SOL    HW218936   3.697   3.319   4.730 -0.9352  0.3187 -1.6873
 2435SOL     OW18937   1.919   4.310  13.015  0.3096  0.0200  0.2352
 2435SOL    HW118938   1.991   4.253  12.989  0.5580  0.5433 -0.2194
 2435SOL    HW218939   1.920   4.297  13.110 -0.6274  2.6286  0.6020
 2436SOL     OW18940   1.239   4.303  10.947  0.3509  0.1441  0.4297
 2436SOL    HW118941   1.256   4.367  11.017 -0.4026  1.4653 -0.5843
 2436SOL    HW218942   1.250   4.358  10.869  1.3106  2.0591  1.9175
 2437SOL     OW18943   4.297   1.291   1.807 -0.4710 -0.2732  0.3918
 2437SOL    HW118944   4.341   1.219   1.762 -1.5806  0.2907 -1.5776
 2437SOL    HW218945   4.265   1.349   1.738  0.6929 -1.8034 -1.4153
 2438SOL     OW18946   3.672   0.100   1.236 -0.3859  0.5887  0.2137
 2438SOL    HW118947   3.599   0.048   1.270  2.4332 -2.6121  1.3661
 2438SOL    HW218948   3.731   0.112   1.310 -0.1829 -0.9485  0.2932
 2439SOL     OW18949   0.219   2.933  14.023 -0.3655  0.2044 -0.0938
 2439SOL    HW118950   0.249   2.950  13.934 -0.6640 -1.4212 -0.4953
 2439SOL    HW218951   0.194   3.022  14.049 -0.6144  0.2135 -0.3619
 2440SOL     OW18952   3.673   3.445   3.238  0.2588  0.2880 -0.3778
 2440SOL    HW118953   3.613   3.505   3.194 -0.1506 -0.0983 -0.3428
 2440SOL    HW218954   3.633   3.445   3.325 -1.1410  0.2450 -1.0237
 2441SOL     OW18955   3.192   1.553   0.238  0.2362  0.3369  0.4294
 2441SOL    HW118956   3.179   1.473   0.289  2.0707 -1.1703 -1.4751
 2441SOL    HW218957   3.136   1.533   0.163 -0.0702  0.3965  0.6380
 2442SOL     OW18958   3.872   4.174   0.700 -0.0046  0.4540 -0.0902
 2442SOL    HW118959   3.937   4.170   0.770  0.6757  1.0358 -0.6923
 2442SOL    HW218960   3.925   4.113   0.649  0.7661 -0.4276  1.7550
 2443SOL     OW18961   4.041   0.044   4.242  0.4613  0.3801 -0.1525
 2443SOL    HW118962   3.969   0.064   4.301  0.6875 -0.1543  0.2986
 2443SOL    HW218963   4.092   0.124   4.251  0.9100  0.2600 -1.6412
 2444SOL     OW18964   3.629   2.613   8.910 -0.3804  0.3656 -0.1243
 2444SOL    HW118965   3.578   2.643   8.835  2.8519  4.1398 -0.7790
 2444SOL    HW218966   3.604   2.679   8.975  0.9203 -0.7830  1.5413
 2445SOL     OW18967   2.215   4.600   1.704  0.2275 -0.3729 -0.7122
 2445SOL    HW118968   2.282   4.537   1.729 -1.6455 -2.2878 -0.4733
 2445SOL    HW218969   2.240   4.631   1.617  2.6379 -0.3752 -0.0229
 2446SOL     OW18970   2.927   1.628   5.667 -0.1098 -0.4097  0.2193
 2446SOL    HW118971   2.989   1.555   5.673 -0.9040 -1.1078 -0.1628
 2446SOL    HW218972   2.941   1.658   5.577 -0.3718 -2.6942 -0.5779
 2447SOL     OW18973   4.240   0.852   1.724  0.1656  0.5028 -0.2398
 2447SOL    HW118974   4.247   0.878   1.816 -0.8255 -0.4005  0.0862
 2447SOL    HW218975   4.305   0.911   1.684  1.4000 -0.5109  0.2512
 2448SOL     OW18976   4.091   0.916   5.657  0.0816  0.0884  0.5865
 2448SOL    HW118977   4.123   0.894   5.744 -0.5056 -0.8948  0.5521
 2448SOL    HW218978   4.070   0.832   5.615  1.0091 -0.2816  0.8575
 2449SOL     OW18979   0.689   0.674  10.869 -0.1683 -0.2341  0.0487
 2449SOL    HW118980   0.754   0.624  10.819  0.3916  1.5277 -0.9887
 2449SOL    HW218981   0.731   0.759  10.857 -0.1757 -0.4845 -1.8609
 2450SOL     OW18982   3.850   0.203   4.686  0.2286 -0.0665  0.0204
 2450SOL    HW118983   3.883   0.235   4.770  1.8857 -1.3252 -0.1519
 2450SOL    HW218984   3.855   0.281   4.631  1.6787  0.5677  1.0438
 2451SOL     OW18985   0.452   2.000   7.815  0.2357 -0.8324 -0.0665
 2451SOL    HW118986   0.424   1.913   7.786 -0.4092 -0.6846  0.1103
 2451SOL    HW218987   0.442   2.047   7.732 -0.2271 -0.8253 -0.0077
 2452SOL     OW18988   0.689   3.729  13.886  0.1400 -0.5562  0.0856
 2452SOL    HW118989   0.664   3.809  13.931  1.6754 -0.0815  0.0726
 2452SOL    HW218990   0.775   3.758  13.857  0.3656 -1.2817  0.0140
 2453SOL     OW18991   2.634   0.414   5.282  0.5132 -0.4945  0.7548
 2453SOL    HW118992   2.629   0.505   5.253  0.9073 -0.7881 -0.2519
 2453SOL    HW218993   2.547   0.407   5.320  1.2781 -0.7668  2.4792
 2454SOL     OW18994   1.651   3.668   2.500  0.6017  0.1181  0.1725
 2454SOL    HW118995   1.592   3.732   2.541  0.2365  0.9517 -1.6743
 2454SOL    HW218996   1.695   3.621   2.571  0.4655 -0.8832 -0.4150
 2455SOL     OW18997   4.140   1.868   7.732  0.0288 -0.4771  0.7877
 2455SOL    HW118998   4.151   1.775   7.714  0.2163 -0.4651  0.8473
 2455SOL    HW218999   4.059   1.879   7.681  0.4869  0.5327  0.2760
 2456SOL     OW19000   1.113   3.878   9.812  0.1662  0.0171 -0.1707
 2456SOL    HW119001   1.092   3.924   9.730  0.5888  1.1243  0.3539
 2456SOL    HW219002   1.207   3.881   9.794  0.4441 -0.3830  1.2817
 2457SOL     OW19003   3.296   2.797   7.952 -0.4011  0.2999  0.3918
 2457SOL    HW119004   3.372   2.792   8.011 -1.3534 -1.8143  1.4241
 2457SOL    HW219005   3.298   2.706   7.923  1.8977  0.7640 -0.9201
 2458SOL     OW19006   4.639   0.660  16.492 -0.7241  0.2102  0.1614
 2458SOL    HW119007   4.694   0.626  16.563  1.1180  2.4941 -0.1794
 2458SOL    HW219008   4.617   0.742  16.538 -0.1335  0.2126  0.4350
 2459SOL     OW19009   0.658   2.460   5.795 -0.0063 -0.5919 -0.2940
 2459SOL    HW119010   0.620   2.541   5.762  0.5889 -0.4098 -0.5341
 2459SOL    HW219011   0.650   2.399   5.722 -0.0540 -1.6234  0.5641
 2460SOL     OW19012   0.126   1.876  15.317 -0.0685 -0.1868 -0.1792
 2460SOL    HW119013   0.191   1.940  15.290  0.8327 -1.7719 -1.7800
 2460SOL    HW219014   0.181   1.835  15.384 -0.2312  1.5210  0.9954
 2461SOL     OW19015   4.411   3.812   5.368 -0.0499 -0.3581 -0.1590
 2461SOL    HW119016   4.478   3.847   5.310 -1.7006  1.4153 -1.0082
 2461SOL    HW219017   4.455   3.731   5.393  0.4470 -0.3553 -1.0281
 2462SOL     OW19018   2.018   3.493   3.976  0.5177 -0.0045 -0.1713
 2462SOL    HW119019   1.956   3.420   3.979 -0.5913  1.0123  2.4133
 2462SOL    HW219020   1.968   3.558   3.928  1.1515 -0.2619 -1.1743
 2463SOL     OW19021   1.653   1.533   6.108 -0.2401  0.0351  0.4177
 2463SOL    HW119022   1.572   1.526   6.058  0.5407  0.5532 -0.9179
 2463SOL    HW219023   1.649   1.463   6.173 -1.5937  0.6181  0.9610
 2464SOL     OW19024   1.824   1.544   3.281  0.0292  0.2828 -0.4282
 2464SOL    HW119025   1.801   1.520   3.191  3.1934  1.0496 -1.4620
 2464SOL    HW219026   1.822   1.639   3.272 -0.0343  0.2424 -0.8128
 2465SOL     OW19027   2.687   0.357   7.648  0.3751 -0.0871 -0.6688
 2465SOL    HW119028   2.639   0.274   7.649 -0.8365  0.6569  2.0444
 2465SOL    HW219029   2.728   0.347   7.562  2.1164  3.2851 -0.2176
 2466SOL     OW19030   1.721   0.077   7.327  0.4080  0.1124 -0.0294
 2466SOL    HW119031   1.777   0.147   7.360  0.8278 -1.0185  1.6271
 2466SOL    HW219032   1.695   0.026   7.403 -1.3420 -0.6414 -1.1164
 2467SOL     OW19033   4.247   1.987   2.459 -0.2000 -0.6352  0.0266
 2467SOL    HW119034   4.335   1.968   2.425  0.8996  2.9475  0.8886
 2467SOL    HW219035   4.197   1.962   2.381 -2.1203  1.4689  0.5916
 2468SOL     OW19036   0.400   2.996   4.045  0.0212  0.1451 -0.8168
 2468SOL    HW119037   0.394   3.007   4.140 -0.4768  0.7155 -0.9213
 2468SOL    HW219038   0.371   3.077   4.003  0.1681  0.8830  0.5037
 2469SOL     OW19039   0.549   0.379   1.865  0.4462  0.1173  0.4589
 2469SOL    HW119040   0.467   0.329   1.857  0.9008 -0.4442 -0.6530
 2469SOL    HW219041   0.611   0.327   1.815 -0.5673 -1.4110  0.7741
 2470SOL     OW19042   4.217   3.753   3.950  0.0893 -0.0805 -0.6196
 2470SOL    HW119043   4.241   3.797   3.869 -2.3638 -0.4504 -1.5334
 2470SOL    HW219044   4.290   3.698   3.978  0.6239  0.8418 -0.1709
 2471SOL     OW19045   3.730   3.079   3.326  0.8474 -0.5129  0.3204
 2471SOL    HW119046   3.782   3.075   3.245  0.5926 -2.0376  0.2228
 2471SOL    HW219047   3.642   3.091   3.290  0.1940  2.1096  2.8318
 2472SOL     OW19048   2.238   0.895   4.703 -0.0138 -0.2159 -0.0455
 2472SOL    HW119049   2.159   0.896   4.757  0.2303 -0.5077  0.3161
 2472SOL    HW219050   2.285   0.971   4.737  2.0880 -1.3984 -0.3030
 2473SOL     OW19051   0.228   3.309   6.810  0.3814  0.5482  0.8299
 2473SOL    HW119052   0.303   3.345   6.763  0.7288 -1.8394 -0.4590
 2473SOL    HW219053   0.266   3.227   6.842  1.8968  0.7107 -0.5016
 2474SOL     OW19054   0.236   0.320  11.165 -0.1503  0.0723 -0.0806
 2474SOL    HW119055   0.181   0.333  11.088  1.0407 -0.3020 -0.9941
 2474SOL    HW219056   0.298   0.257  11.129  1.6326  1.0094  1.3282
 2475SOL     OW19057   4.649   3.865   1.336 -0.2242  0.3690  0.0764
 2475SOL    HW119058   4.575   3.835   1.388 -0.1997  0.2228  0.0274
 2475SOL    HW219059   4.604   3.930   1.282 -1.1124 -0.6141 -0.3783
 2476SOL     OW19060   2.163   1.478   7.934  0.5512  0.4901 -0.0605
 2476SOL    HW119061   2.156   1.565   7.974 -0.1493  0.1181  0.5980
 2476SOL    HW219062   2.094   1.483   7.868  0.9618 -0.5735 -0.5697
 2477SOL     OW19063   3.082   0.251  17.504 -0.2107 -0.3141 -0.6764
 2477SOL    HW119064   3.115   0.340  17.494 -3.2439  0.9125  0.3524
 2477SOL    HW219065   3.151   0.202  17.459 -1.3595 -2.9448  0.4089
 2478SOL     OW19066   0.091   1.655  13.101 -0.1287  0.4506 -0.9469
 2478SOL    HW119067   0.106   1.686  13.012 -0.9141  0.0968 -1.1989
 2478SOL    HW219068   0.015   1.597  13.100  0.9230 -0.8907 -2.5404
 2479SOL     OW19069   0.747   2.250   1.199  0.2029 -0.1175  0.7405
 2479SOL    HW119070   0.786   2.168   1.168 -2.1730 -0.8139 -0.4447
 2479SOL    HW219071   0.656   2.227   1.221 -0.3474  2.0255  0.7363
 2480SOL     OW19072   0.265   3.864   3.867  0.0615 -0.3173 -0.4583
 2480SOL    HW119073   0.205   3.819   3.926  0.6182  0.6012  0.8119
 2480SOL    HW219074   0.330   3.794   3.855  0.2102 -0.0638 -1.1222
 2481SOL     OW19075   0.561   2.064  17.668 -0.2040  0.0094 -0.0031
 2481SOL    HW119076   0.520   2.103  17.591  0.0829 -2.4773 -1.4080
 2481SOL    HW219077   0.539   1.973  17.648  0.5988  0.4084 -2.6868
 2482SOL     OW19078   2.350   3.467  17.048  0.2368  0.1801 -0.2625
 2482SOL    HW119079   2.306   3.387  17.020 -2.7295  1.3499  1.1141
 2482SOL    HW219080   2.388   3.482  16.962  1.0321 -0.9756 -0.1218
 2483SOL     OW19081   1.384   1.801   9.386 -0.5018  0.3371 -0.0474
 2483SOL    HW119082   1.342   1.721   9.356  0.0913  0.0717 -0.1855
 2483SOL    HW219083   1.435   1.822   9.307  0.0643  0.6744  0.4041
 2484SOL     OW19084   1.728   0.398   8.447  0.8492 -0.1194 -0.1893
 2484SOL    HW119085   1.654   0.447   8.411  0.8339  2.1417  2.9305
 2484SOL    HW219086   1.709   0.310   8.415  1.0177  0.7710 -2.7826
 2485SOL     OW19087   3.800   3.810   8.701 -0.1609  0.2400 -0.5680
 2485SOL    HW119088   3.733   3.817   8.633  0.4587  1.6439 -1.0465
 2485SOL    HW219089   3.753   3.777   8.778  0.3199 -0.3389 -0.5252
 2486SOL     OW19090   3.330   3.505   5.889 -0.2129  0.5636 -0.0717
 2486SOL    HW119091   3.358   3.448   5.960 -2.6144 -0.8804 -0.2964
 2486SOL    HW219092   3.381   3.468   5.817  2.0574  1.8035  0.8698
 2487SOL     OW19093   4.255   1.360  17.591  0.3522  0.3950  0.5501
 2487SOL    HW119094   4.333   1.339  17.642 -0.1755 -0.1759  1.1194
 2487SOL    HW219095   4.296   1.372  17.505 -0.0708 -1.0480  0.1447
 2488SOL     OW19096   1.681   2.660   0.385 -0.3773  0.1800 -0.2405
 2488SOL    HW119097   1.592   2.692   0.373 -0.9594 -1.3557  0.0188
 2488SOL    HW219098   1.725   2.732   0.431 -0.7463  1.6671 -2.1916
 2489SOL     OW19099   2.452   0.221   2.300  0.2319 -0.4710 -0.3761
 2489SOL    HW119100   2.516   0.270   2.249  1.3235  1.1859  2.5523
 2489SOL    HW219101   2.391   0.289   2.331  1.5969  0.4665  0.2786
 2490SOL     OW19102   2.927   0.897   7.505 -0.1007 -0.5840  0.4657
 2490SOL    HW119103   2.961   0.871   7.590  1.7015 -0.6225 -0.2632
 2490SOL    HW219104   2.989   0.856   7.443 -2.0474 -1.0708 -1.1776
 2491SOL     OW19105   1.719   0.531   8.726 -0.3325  0.7112  0.0888
 2491SOL    HW119106   1.764   0.607   8.689 -0.7468 -0.0806 -2.0676
 2491SOL    HW219107   1.723   0.485   8.642 -0.9515  2.6677 -1.0083
 2492SOL     OW19108   0.087   3.695   3.434  0.4577  0.0671  0.1298
 2492SOL    HW119109   0.097   3.744   3.516 -2.3562  2.8663 -1.2180
 2492SOL    HW219110   0.083   3.767   3.371  1.7523 -0.3171 -0.4013
 2493SOL     OW19111   2.033   3.043  12.076  0.3219  0.3402 -0.1750
 2493SOL    HW119112   2.047   3.128  12.035  1.2303  0.0275 -0.5013
 2493SOL    HW219113   1.962   3.067  12.135  0.3832 -0.3879  0.1984
 2494SOL     OW19114   3.987   1.161   7.737 -0.1761 -0.0373  0.9517
 2494SOL    HW119115   3.905   1.209   7.725 -0.8825 -1.1795  1.1958
 2494SOL    HW219116   3.963   1.090   7.678  2.2308 -0.5425  0.5979
 2495SOL     OW19117   4.717   2.107   9.422 -0.2052  0.0432 -0.1391
 2495SOL    HW119118   4.640   2.094   9.366 -0.8532  2.9216  0.1164
 2495SOL    HW219119   4.694   2.066   9.506  0.0718 -0.9422 -0.5426
 2496SOL     OW19120   2.209   3.140   4.497 -0.7424 -0.0955 -0.2406
 2496SOL    HW119121   2.283   3.201   4.496  0.6842 -1.7961  2.2240
 2496SOL    HW219122   2.251   3.069   4.546  0.6575 -0.1063 -1.4593
 2497SOL     OW19123   0.740   0.100   0.604  0.0638 -0.2674 -0.1864
 2497SOL    HW119124   0.817   0.126   0.655 -1.9451  1.4851  1.9356
 2497SOL    HW219125   0.687   0.178   0.618  2.5658  1.6641 -1.3552
 2498SOL     OW19126   2.633   1.396   5.241 -0.5682 -0.0118  0.3828
 2498SOL    HW119127   2.594   1.481   5.223 -0.1773  0.2391  0.7295
 2498SOL    HW219128   2.635   1.412   5.336 -1.8761  0.1965  0.3786
 2499SOL     OW19129   0.264   2.419   7.181 -0.4916  0.1854  0.4338
 2499SOL    HW119130   0.195   2.464   7.131 -0.4182 -0.3848 -0.1788
 2499SOL    HW219131   0.208   2.343   7.196  0.2969 -0.8375 -1.7933
 2500SOL     OW19132   0.615   1.204   6.312  0.4143  0.0366 -0.2815
 2500SOL    HW119133   0.631   1.222   6.220 -4.6944  1.6902 -0.8387
 2500SOL    HW219134   0.698   1.239   6.344 -0.1727  1.3741 -0.2174
 2501SOL     OW19135   2.237   2.873   9.349  0.0558 -0.1806 -0.0192
 2501SOL    HW119136   2.238   2.923   9.268 -0.7059 -0.3361 -0.1236
 2501SOL    HW219137   2.288   2.930   9.407 -1.0695  0.3161  0.4809
 2502SOL     OW19138   0.276   1.723   1.269 -0.5518 -0.2163  0.2454
 2502SOL    HW119139   0.349   1.781   1.248 -0.4303 -1.0244 -1.5990
 2502SOL    HW219140   0.196   1.774   1.258  0.2156  1.1251  0.8496
 2503SOL     OW19141   0.878   0.511   6.662  0.4182  0.3772  0.0155
 2503SOL    HW119142   0.951   0.478   6.609 -0.8122 -1.2764 -0.6649
 2503SOL    HW219143   0.904   0.590   6.709  1.6410 -0.7487  1.2555
 2504SOL     OW19144   1.532   0.771   2.377 -0.0048 -0.4503 -1.1574
 2504SOL    HW119145   1.568   0.833   2.440 -2.0588 -2.4309  2.0166
 2504SOL    HW219146   1.554   0.810   2.293 -0.9149 -0.2664 -1.3094
 2505SOL     OW19147   2.768   1.855   9.364  0.0268  0.1833  0.0622
 2505SOL    HW119148   2.715   1.934   9.372  0.6710  0.7810 -1.5761
 2505SOL    HW219149   2.716   1.788   9.409  0.3910  1.7181  2.7356
 2506SOL     OW19150   4.536   0.172  10.726 -0.0041 -0.1483 -0.1926
 2506SOL    HW119151   4.556   0.167  10.633  0.0605 -1.2267 -0.1224
 2506SOL    HW219152   4.591   0.100  10.757  1.1682  1.6549  1.8855
 2507SOL     OW19153   3.294   1.788   8.074  0.3637 -0.7133 -0.0732
 2507SOL    HW119154   3.237   1.856   8.039  2.7811 -0.1968 -2.9781
 2507SOL    HW219155   3.233   1.730   8.120 -0.7071  0.5384  0.0932
 2508SOL     OW19156   4.075   3.207  12.433  0.2842  0.7680  0.6155
 2508SOL    HW119157   4.040   3.297  12.435  1.5565  1.2953 -1.1442
 2508SOL    HW219158   4.166   3.234  12.418  0.3431  1.1406  1.5927
 2509SOL     OW19159   1.321   1.273  12.637 -0.1138 -0.4012  0.1578
 2509SOL    HW119160   1.375   1.200  12.667  1.1980  1.0694  1.3585
 2509SOL    HW219161   1.355   1.354  12.675  1.1119 -0.3303 -1.0828
 2510SOL     OW19162   1.907   2.232   7.090  0.1799 -0.4362  0.2738
 2510SOL    HW119163   1.955   2.307   7.054 -2.0347  0.0217 -1.7007
 2510SOL    HW219164   1.974   2.163   7.089  1.8517  1.1628  1.3428
 2511SOL     OW19165   2.409   4.221   2.632 -0.2785  0.2448  0.7443
 2511SOL    HW119166   2.345   4.193   2.566  0.1110 -0.3844  0.6351
 2511SOL    HW219167   2.365   4.194   2.713  0.4696  1.2885  1.4924
 2512SOL     OW19168   3.421   2.937   2.317  0.1163  0.2281 -0.5411
 2512SOL    HW119169   3.412   3.033   2.320  0.0077  0.1966  0.1703
 2512SOL    HW219170   3.339   2.913   2.275 -0.5023  0.6108  0.4280
 2513SOL     OW19171   3.743   3.674   3.961 -0.1849 -0.5956 -0.8972
 2513SOL    HW119172   3.759   3.753   4.013 -3.2932 -0.2951 -0.4014
 2513SOL    HW219173   3.830   3.636   3.962  0.1716  0.2355  0.9445
 2514SOL     OW19174   0.325   3.451   2.538  0.4725 -0.2537 -0.8010
 2514SOL    HW119175   0.239   3.409   2.541  0.1711  0.3099 -1.8027
 2514SOL    HW219176   0.361   3.396   2.608 -2.2289 -0.7848  0.1710
 2515SOL     OW19177   2.061   4.170   3.428 -0.2545  0.2524 -0.7196
 2515SOL    HW119178   2.077   4.146   3.337  1.6713  0.3850 -0.4227
 2515SOL    HW219179   2.028   4.259   3.416 -2.8574 -0.6141 -0.0393
 2516SOL     OW19180   1.859   4.498   3.632  0.5859  0.4372 -0.7507
 2516SOL    HW119181   1.887   4.552   3.558 -0.8241 -0.3529 -1.8348
 2516SOL    HW219182   1.769   4.477   3.609 -0.0990  0.2371  2.0479
 2517SOL     OW19183   2.470   4.529   8.011 -0.3090 -0.4120 -0.1343
 2517SOL    HW119184   2.414   4.607   8.016 -0.8957 -0.7839 -0.9291
 2517SOL    HW219185   2.424   4.449   8.035 -0.6615  0.7229  2.9753
 2518SOL     OW19186   2.853   2.655  16.157  0.2511 -0.1150  0.3240
 2518SOL    HW119187   2.918   2.690  16.217  0.2458  0.6172 -0.0892
 2518SOL    HW219188   2.849   2.736  16.105 -1.4884 -1.4049 -1.5462
 2519SOL     OW19189   1.043   2.475  14.328  0.1202 -0.1879  0.5454
 2519SOL    HW119190   0.987   2.421  14.383  0.7302 -0.3222  1.0337
 2519SOL    HW219191   0.974   2.511  14.271 -0.2287 -0.7942  0.5913
 2520SOL     OW19192   2.784   3.748   1.137 -0.7215 -0.0867 -0.6675
 2520SOL    HW119193   2.712   3.714   1.084 -0.3238  2.8006 -3.0101
 2520SOL    HW219194   2.838   3.669   1.136 -2.7389 -1.5172  0.5277
 2521SOL     OW19195   1.609   3.205   7.992  0.2278 -0.2976  0.0069
 2521SOL    HW119196   1.649   3.173   7.911  0.3397  0.9871 -0.4590
 2521SOL    HW219197   1.574   3.285   7.951  1.8352  0.4395  0.0696
 2522SOL     OW19198   0.401   3.056   6.809  0.2886 -0.7348 -0.2768
 2522SOL    HW119199   0.468   3.030   6.746 -0.0026  0.5235 -1.1051
 2522SOL    HW219200   0.460   3.097   6.872 -2.9311  0.3695  2.0671
 2523SOL     OW19201   0.796   4.171   8.257 -0.7053 -0.0297  0.5615
 2523SOL    HW119202   0.803   4.258   8.297 -1.0902  0.7359 -1.0400
 2523SOL    HW219203   0.858   4.186   8.185 -1.3728 -0.8465 -0.1845
 2524SOL     OW19204   2.613   1.840   7.023  0.5585 -0.4942  0.6424
 2524SOL    HW119205   2.642   1.916   6.972  1.7391 -1.6127 -0.3542
 2524SOL    HW219206   2.696   1.794   7.025  0.7069 -0.3093 -0.7314
 2525SOL     OW19207   2.653   3.787  16.445 -0.2129  0.3297 -0.0346
 2525SOL    HW119208   2.643   3.750  16.357  0.5651 -1.0279  0.4523
 2525SOL    HW219209   2.608   3.720  16.496 -0.7926  0.5263 -0.2866
 2526SOL     OW19210   2.348   4.672  16.957 -0.5166 -0.4829  0.1632
 2526SOL    HW119211   2.423   4.681  16.898 -0.9775  0.2112 -0.3141
 2526SOL    HW219212   2.283   4.631  16.900  0.1332 -0.8748 -0.2915
 2527SOL     OW19213   2.538   3.220  10.585 -0.4272 -0.3756  0.4209
 2527SOL    HW119214   2.474   3.150  10.570 -2.0906  0.8859  1.6232
 2527SOL    HW219215   2.546   3.213  10.680 -1.0218 -0.5849  0.4560
 2528SOL     OW19216   0.362   3.218  12.694 -0.1038 -0.0109  0.2045
 2528SOL    HW119217   0.441   3.247  12.648  1.3497 -1.6540  1.6871
 2528SOL    HW219218   0.357   3.138  12.641 -1.3324  2.7483 -3.7898
 2529SOL     OW19219   2.048   2.726   8.663 -0.1674 -0.5251  0.3379
 2529SOL    HW119220   2.082   2.756   8.578 -0.4691 -0.4035  0.2629
 2529SOL    HW219221   2.084   2.798   8.715  1.3579 -0.5289 -0.6897
 2530SOL     OW19222   0.601   0.150   5.339  0.6849  0.1624  0.2055
 2530SOL    HW119223   0.516   0.106   5.339 -0.3719  2.1521 -1.0092
 2530SOL    HW219224   0.597   0.205   5.417 -0.4055  0.1567  0.1582
 2531SOL     OW19225   2.567   3.189   0.730 -0.4590 -0.2644 -0.4972
 2531SOL    HW119226   2.539   3.103   0.761  2.0452 -0.5700  0.9159
 2531SOL    HW219227   2.529   3.184   0.642 -1.4688  0.2315 -0.0868
 2532SOL     OW19228   0.513   0.677   7.951 -0.6986  0.3401  0.3019
 2532SOL    HW119229   0.512   0.764   7.913 -2.3900 -0.8693 -2.4268
 2532SOL    HW219230   0.441   0.674   8.014 -1.2571  2.3051 -0.2771
 2533SOL     OW19231   3.123   2.565   0.684  0.4948  0.2802 -0.1490
 2533SOL    HW119232   3.157   2.489   0.731 -2.8957 -0.2566  1.4253
 2533SOL    HW219233   3.063   2.515   0.629 -0.8876 -1.2441  2.7849
 2534SOL     OW19234   3.777   1.447   3.314  0.2180 -0.2401  0.6489
 2534SOL    HW119235   3.721   1.385   3.268 -0.5979  0.6839  0.3975
 2534SOL    HW219236   3.722   1.516   3.352  0.3314  0.3454 -0.2599
 2535SOL     OW19237   1.718   0.752   9.603  0.1292 -0.1612 -0.7458
 2535SOL    HW119238   1.739   0.675   9.657 -0.7757  1.0357  1.2731
 2535SOL    HW219239   1.627   0.736   9.578 -0.0392  1.1362 -0.9653
 2536SOL     OW19240   4.617   3.541   3.874 -0.2926  0.1398 -0.1850
 2536SOL    HW119241   4.585   3.482   3.942 -0.7496  0.7107  0.0968
 2536SOL    HW219242   4.557   3.511   3.806  0.0134 -4.2171  1.4960
 2537SOL     OW19243   4.405   3.380   2.179  0.2630 -0.3427 -1.0396
 2537SOL    HW119244   4.469   3.328   2.227  0.8771  1.8298  0.5173
 2537SOL    HW219245   4.373   3.441   2.245  0.7998 -1.5248  0.2912
 2538SOL     OW19246   3.634   1.017  14.473 -0.4668 -0.6257  0.0363
 2538SOL    HW119247   3.665   1.106  14.487 -0.3614 -0.6611  0.0245
 2538SOL    HW219248   3.659   0.991  14.384 -0.0623 -1.8358  0.5038
 2539SOL     OW19249   1.471   0.760   6.342 -0.4723 -0.1912  0.7062
 2539SOL    HW119250   1.450   0.707   6.419 -5.5731 -1.8466 -1.8455
 2539SOL    HW219251   1.415   0.717   6.278  1.4592 -0.6573 -0.6740
 2540SOL     OW19252   0.047   1.543   1.413  0.1514 -0.3827 -0.9986
 2540SOL    HW119253   4.717   1.612   1.403 -1.0122 -1.4339 -0.6408
 2540SOL    HW219254   4.728   1.475   1.453  0.7245  0.0319  0.4988
 2541SOL     OW19255   0.405   3.002   5.562 -0.3268 -0.0291 -0.2251
 2541SOL    HW119256   0.322   2.986   5.517 -0.4399 -1.5372  0.5172
 2541SOL    HW219257   0.375   3.036   5.646 -0.8743  1.4798 -1.0284
 2542SOL     OW19258   1.125   3.254   9.267 -0.1412 -0.2505  0.0425
 2542SOL    HW119259   1.171   3.286   9.189 -0.9020  0.5958 -0.0538
 2542SOL    HW219260   1.068   3.184   9.234 -2.6283  1.4297  0.8023
 2543SOL     OW19261   1.817   0.975  11.320  0.5965  0.2486 -0.1632
 2543SOL    HW119262   1.736   0.971  11.372  2.2264 -2.6739  2.1077
 2543SOL    HW219263   1.838   1.068  11.326 -0.9128  0.7667 -2.6916
 2544SOL     OW19264   2.665   3.547  16.593  0.0312 -0.2644  0.7008
 2544SOL    HW119265   2.696   3.560  16.682  0.4679 -3.2451  0.9744
 2544SOL    HW219266   2.693   3.459  16.568  1.4195  0.5647 -0.6734
 2545SOL     OW19267   0.036   2.640  12.244 -0.1190 -0.5770  0.5582
 2545SOL    HW119268   0.100   2.590  12.294 -1.9350 -2.2268  1.2274
 2545SOL    HW219269   0.027   2.584  12.168 -0.8921  2.8900 -1.9195
 2546SOL     OW19270   0.859   3.686   2.738  0.0635 -0.3533 -0.1895
 2546SOL    HW119271   0.792   3.726   2.681  0.9453 -1.3225 -1.8903
 2546SOL    HW219272   0.940   3.706   2.691  1.2864 -2.6958  0.9213
 2547SOL     OW19273   1.620   2.549  12.970 -0.9072 -0.0213 -0.1844
 2547SOL    HW119274   1.674   2.475  12.999 -1.1011 -0.5036 -1.0326
 2547SOL    HW219275   1.558   2.572  13.039 -0.1676  0.1510  0.4265
 2548SOL     OW19276   0.318   3.775   5.141  0.1745 -0.1846  0.2564
 2548SOL    HW119277   0.342   3.709   5.206 -0.8045  1.6833  2.5186
 2548SOL    HW219278   0.331   3.716   5.067 -1.0970 -0.4166  0.2191
 2549SOL     OW19279   3.053   0.746   5.623  0.2172  0.1054 -0.0193
 2549SOL    HW119280   3.125   0.800   5.591  0.3526 -0.8890 -1.4256
 2549SOL    HW219281   3.098   0.668   5.654 -1.1482 -0.0534  1.5794
 2550SOL     OW19282   1.805   3.831   2.137  0.4483 -0.4628 -0.1490
 2550SOL    HW119283   1.876   3.801   2.081  1.4862  0.7574  0.5298
 2550SOL    HW219284   1.747   3.758   2.159 -0.3342 -0.1475 -1.1715
 2551SOL     OW19285   0.678   1.315   5.373 -0.4361 -0.2789  0.1509
 2551SOL    HW119286   0.663   1.222   5.387 -2.2389 -0.1593 -0.8883
 2551SOL    HW219287   0.649   1.334   5.283  1.5603  2.2582  0.0123
 2552SOL     OW19288   4.314   0.350  15.638  0.0571  0.1403 -0.1094
 2552SOL    HW119289   4.409   0.348  15.629  0.2611 -1.7572  2.4342
 2552SOL    HW219290   4.300   0.284  15.706  0.1789  0.3961  0.1669
 2553SOL     OW19291   0.143   0.064   9.180  0.1196 -0.4605 -0.4335
 2553SOL    HW119292   0.059   0.094   9.214 -0.3907  0.9704 -2.9703
 2553SOL    HW219293   0.151   4.722   9.236 -0.1644 -1.1559 -1.3514
 2554SOL     OW19294   0.944   2.426   6.287  0.5148 -0.1522  0.1813
 2554SOL    HW119295   0.859   2.470   6.283  1.0258  0.9141  1.3279
 2554SOL    HW219296   0.950   2.395   6.377 -0.4987  1.3438  0.7468
 2555SOL     OW19297   0.845   2.414   3.761 -0.6894  0.1742 -0.2962
 2555SOL    HW119298   0.898   2.473   3.814 -3.1732  2.2820 -0.1785
 2555SOL    HW219299   0.772   2.468   3.791 -2.1334 -2.3334  0.6962
 2556SOL     OW19300   1.609   4.559   5.276 -0.0849  0.0744 -0.1617
 2556SOL    HW119301   1.591   4.630   5.214 -0.6143  1.8496  1.9962
 2556SOL    HW219302   1.525   4.514   5.282 -1.0512  1.6077 -2.1055
 2557SOL     OW19303   2.028   4.388   7.039  0.2105  0.3768  0.2676
 2557SOL    HW119304   2.037   4.403   6.945 -0.1197  1.1687  0.3606
 2557SOL    HW219305   2.072   4.463   7.078 -0.7931  0.9500  0.3031
 2558SOL     OW19306   3.829   3.635  10.884 -0.1027  0.5337  0.3407
 2558SOL    HW119307   3.877   3.552  10.879 -0.3149  0.5278 -1.8667
 2558SOL    HW219308   3.752   3.602  10.838  0.0544  1.3647 -0.5243
 2559SOL     OW19309   0.687   4.485   7.784  0.1387 -0.1924  0.7376
 2559SOL    HW119310   0.684   4.560   7.844  0.7613  1.0607 -0.7970
 2559SOL    HW219311   0.749   4.429   7.830  1.4069 -1.0469 -2.0337
 2560SOL     OW19312   1.855   1.501   8.672 -0.6389 -0.1706  0.4244
 2560SOL    HW119313   1.851   1.434   8.741 -0.2216  0.6304  1.2287
 2560SOL    HW219314   1.794   1.566   8.705 -0.4687  0.3561 -0.3149
 2561SOL     OW19315   0.893   1.859  11.567  0.0716 -0.4231 -0.3305
 2561SOL    HW119316   0.978   1.814  11.562  0.5256  0.1369  2.9650
 2561SOL    HW219317   0.868   1.855  11.474  3.2540  0.2530 -1.2265
 2562SOL     OW19318   1.836   4.502   2.570 -0.1174 -0.1200  0.2641
 2562SOL    HW119319   1.855   4.552   2.650  0.7009  0.0267 -0.0250
 2562SOL    HW219320   1.740   4.502   2.566 -0.1096  1.7290  0.2878
 2563SOL     OW19321   2.823   2.415   6.046  0.0440 -0.0274 -0.1087
 2563SOL    HW119322   2.813   2.481   6.115  3.4958 -0.2615  0.6251
 2563SOL    HW219323   2.730   2.417   6.025 -0.2244 -0.0532  1.0857
 2564SOL     OW19324   4.118   0.840   9.321  0.1117 -0.8085  0.4843
 2564SOL    HW119325   4.212   0.841   9.338  0.0243  1.4097  0.7757
 2564SOL    HW219326   4.094   0.747   9.322  0.1110 -0.8180 -0.4375
 2565SOL     OW19327   2.781   4.514  12.361 -0.4094  0.2925  0.3374
 2565SOL    HW119328   2.811   4.504  12.271 -1.6724  0.1964 -0.0787
 2565SOL    HW219329   2.834   4.587  12.393 -0.0032 -0.6583  1.8491
 2566SOL     OW19330   1.831   1.940   0.267 -0.1833  0.0477 -0.0942
 2566SOL    HW119331   1.747   1.985   0.276 -0.5246 -0.1382 -2.2346
 2566SOL    HW219332   1.801   1.868   0.211  0.5782  1.5609 -2.4459
 2567SOL     OW19333   3.527   0.312   7.825  0.0998  0.0582 -0.1351
 2567SOL    HW119334   3.500   0.343   7.912  0.5942 -0.7997  0.3263
 2567SOL    HW219335   3.619   0.292   7.844  1.0840  3.4909 -1.3127
 2568SOL     OW19336   2.679   1.471  10.700  0.4009  0.0302  0.5873
 2568SOL    HW119337   2.623   1.404  10.739  1.8703 -1.1111  0.7438
 2568SOL    HW219338   2.665   1.536  10.768 -0.7950 -0.0059  0.3763
 2569SOL     OW19339   2.882   2.402   2.115 -0.1234 -0.2105  0.5433
 2569SOL    HW119340   2.847   2.341   2.050 -1.8158  1.4836 -0.1674
 2569SOL    HW219341   2.928   2.463   2.056  0.5679  0.9671  2.3176
 2570SOL     OW19342   1.781   0.869   8.227 -0.0580 -0.2031  0.1991
 2570SOL    HW119343   1.810   0.814   8.154  1.4869  0.0235  0.6545
 2570SOL    HW219344   1.829   0.952   8.218 -0.3573 -0.1055 -0.5516
 2571SOL     OW19345   2.252   2.063  11.760 -0.0632 -0.1614 -0.3308
 2571SOL    HW119346   2.199   2.096  11.687  0.2340 -0.0163 -0.4834
 2571SOL    HW219347   2.339   2.077  11.723  0.0313  2.1987  0.8374
 2572SOL     OW19348   4.652   3.132  13.626  0.5902  0.0717  0.3797
 2572SOL    HW119349   4.662   3.082  13.545  0.6180  0.0149  0.4183
 2572SOL    HW219350   4.617   3.213  13.588 -0.0006  0.0969  0.9676
 2573SOL     OW19351   0.150   0.399   5.934  0.0676 -0.6034 -0.1527
 2573SOL    HW119352   0.223   0.429   5.989  0.2207 -0.9292 -0.1752
 2573SOL    HW219353   0.125   0.317   5.977 -0.1699  0.1544  1.1498
 2574SOL     OW19354   0.539   1.130   8.431 -0.0031  0.0082  0.0547
 2574SOL    HW119355   0.573   1.171   8.511  2.1187 -1.2612 -0.2092
 2574SOL    HW219356   0.594   1.053   8.419 -1.4545 -1.0076 -0.0982
 2575SOL     OW19357   1.286   0.412   5.442  0.0210 -0.3959  0.0041
 2575SOL    HW119358   1.328   0.488   5.483  1.3607 -1.0885 -0.0697
 2575SOL    HW219359   1.342   0.344   5.480  2.1663  0.5672 -1.4777
 2576SOL     OW19360   2.097   3.421   1.545  0.4541  0.1082  0.1482
 2576SOL    HW119361   2.163   3.490   1.536 -0.4179  0.6767 -1.8692
 2576SOL    HW219362   2.146   3.345   1.576 -0.0738 -0.3569 -0.1646
 2577SOL     OW19363   2.738   3.475  16.884  0.1113 -0.2194  0.7754
 2577SOL    HW119364   2.806   3.413  16.908  0.3035  0.0254  0.8686
 2577SOL    HW219365   2.755   3.548  16.943 -1.9764  1.1553 -0.3177
 2578SOL     OW19366   1.816   2.395   7.316  1.0310  0.3822 -0.4463
 2578SOL    HW119367   1.900   2.439   7.330  1.4105 -0.6228  0.3782
 2578SOL    HW219368   1.844   2.310   7.283  0.4119  0.5428 -1.4071
 2579SOL     OW19369   1.025   2.815  13.573  1.2582  0.3535 -0.0491
 2579SOL    HW119370   0.958   2.765  13.526 -0.9301  0.9181  2.4441
 2579SOL    HW219371   1.049   2.759  13.647 -0.8031 -1.8019 -1.0075
 2580SOL     OW19372   2.739   1.587   6.280  0.4244 -0.1426 -0.2483
 2580SOL    HW119373   2.791   1.653   6.235 -0.1829  0.3457 -0.2393
 2580SOL    HW219374   2.791   1.511   6.255  0.9954  0.5263 -1.0621
 2581SOL     OW19375   1.122   0.225   5.309  0.3709  0.2594  0.3223
 2581SOL    HW119376   1.158   0.293   5.366  0.1332  1.0230 -0.4318
 2581SOL    HW219377   1.096   0.157   5.370 -0.0557 -0.0657 -0.2229
 2582SOL     OW19378   3.479   0.718   8.412 -0.1531  0.5393  0.3654
 2582SOL    HW119379   3.534   0.696   8.488 -3.0893 -4.1861  1.1101
 2582SOL    HW219380   3.536   0.732   8.337  0.1480 -0.9262  0.3290
 2583SOL     OW19381   1.450   3.706   7.296  0.5027  0.3505 -0.2026
 2583SOL    HW119382   1.434   3.700   7.202 -0.5006 -3.1621  0.1750
 2583SOL    HW219383   1.537   3.667   7.311 -0.8340 -2.3161  0.5618
 2584SOL     OW19384   2.905   1.289  13.874 -0.2863 -0.9604  0.1472
 2584SOL    HW119385   2.868   1.223  13.816 -0.2591 -0.2794 -0.6479
 2584SOL    HW219386   2.827   1.344  13.879  0.4919  0.1294  0.3436
 2585SOL     OW19387   2.593   2.137   6.246  0.4588 -0.6504  0.3071
 2585SOL    HW119388   2.673   2.125   6.195  0.1112 -0.7335 -0.2251
 2585SOL    HW219389   2.524   2.117   6.182 -0.4870  2.4079  0.3576
 2586SOL     OW19390   1.436   1.597   2.550  0.1443  0.2649  0.1369
 2586SOL    HW119391   1.468   1.635   2.468  1.3159 -3.4167 -1.1383
 2586SOL    HW219392   1.404   1.517   2.508  1.2245 -1.0292  1.7885
 2587SOL     OW19393   0.650   0.268   2.855 -0.1699 -0.4685 -0.7480
 2587SOL    HW119394   0.640   0.308   2.768 -0.0047 -0.7853 -0.9151
 2587SOL    HW219395   0.560   0.286   2.881  0.0464 -0.2321 -0.1815
 2588SOL     OW19396   2.663   1.289   5.754  0.4591 -0.5851 -0.1635
 2588SOL    HW119397   2.645   1.205   5.795  0.9678  0.3513  1.9669
 2588SOL    HW219398   2.599   1.274   5.684 -1.1708  1.3082  0.9198
 2589SOL     OW19399   2.449   2.922  12.912 -0.1587 -0.0317 -0.7958
 2589SOL    HW119400   2.533   2.912  12.957 -0.4170  0.1512 -0.2692
 2589SOL    HW219401   2.464   2.910  12.818  0.2850 -0.3920 -0.6805
 2590SOL     OW19402   0.088   0.291   4.232 -0.3926 -0.7112 -0.0544
 2590SOL    HW119403   0.012   0.305   4.288  0.5339 -2.2769  1.6261
 2590SOL    HW219404   0.130   0.219   4.281  2.5122 -0.2030 -1.7754
 2591SOL     OW19405   1.440   0.393   7.995 -0.4506 -0.4939  0.6540
 2591SOL    HW119406   1.364   0.360   8.043 -0.7223 -0.1268  0.4758
 2591SOL    HW219407   1.404   0.413   7.909  0.9422  0.6550  0.3348
 2592SOL     OW19408   2.830   2.974   4.448 -0.0545  0.7099 -0.2267
 2592SOL    HW119409   2.917   2.936   4.433  0.3174  2.0813 -1.5257
 2592SOL    HW219410   2.789   2.992   4.363  0.5086  1.2583 -0.3798
 2593SOL     OW19411   3.285   3.338   4.418  0.0225 -0.4082  0.2425
 2593SOL    HW119412   3.207   3.361   4.469  0.5899 -1.1865  1.4634
 2593SOL    HW219413   3.357   3.381   4.463 -0.4290  0.8116 -0.2030
 2594SOL     OW19414   4.462   1.082   3.488  0.7326  0.0146  0.0921
 2594SOL    HW119415   4.432   1.128   3.410 -0.1283 -0.2888  0.2413
 2594SOL    HW219416   4.440   0.990   3.471  3.5671 -0.4720 -1.0319
 2595SOL     OW19417   2.673   2.635   1.446 -0.8937 -0.5759 -0.4761
 2595SOL    HW119418   2.763   2.645   1.414 -0.5329 -0.1925  0.6400
 2595SOL    HW219419   2.647   2.725   1.428 -0.4501 -0.0337  1.5543
 2596SOL     OW19420   0.080   2.088   5.526 -0.4527 -0.3859 -0.0189
 2596SOL    HW119421   0.007   2.074   5.465  0.0184 -1.5644 -0.3308
 2596SOL    HW219422   0.151   2.077   5.462  0.5163  0.9776  0.8227
 2597SOL     OW19423   3.792   0.077  12.809  0.6567 -0.4400  0.1475
 2597SOL    HW119424   3.879   0.118  12.818  0.5197 -0.3409  0.9876
 2597SOL    HW219425   3.810   0.052  12.718 -0.9172 -1.0723  0.0212
 2598SOL     OW19426   0.502   1.595   7.338  0.0966  0.4091  0.2484
 2598SOL    HW119427   0.567   1.569   7.273 -3.4095  0.4819 -3.2632
 2598SOL    HW219428   0.522   1.688   7.348  0.1507  0.4927 -0.6700
 2599SOL     OW19429   2.057   4.366  13.542 -0.1025 -0.3162  0.3442
 2599SOL    HW119430   1.980   4.406  13.582  0.6479  1.9320 -0.4469
 2599SOL    HW219431   2.118   4.440  13.540  0.7878 -1.0147  1.3632
 2600SOL     OW19432   4.195   4.669   9.178  0.1327  0.5899  0.1212
 2600SOL    HW119433   4.133   4.622   9.233  0.2215  0.4028  0.0591
 2600SOL    HW219434   4.196   4.614   9.100 -3.4706 -0.5923  0.8818
 2601SOL     OW19435   2.228   2.841  14.438  0.2394 -0.3341 -0.4361
 2601SOL    HW119436   2.297   2.819  14.501 -0.4767  0.8446  0.7535
 2601SOL    HW219437   2.254   2.788  14.363 -0.2653  0.9894 -1.5621
 2602SOL     OW19438   1.250   0.272   1.539 -0.1099 -0.3469 -0.1452
 2602SOL    HW119439   1.291   0.186   1.537 -0.6587 -0.5933 -0.6210
 2602SOL    HW219440   1.187   0.269   1.467 -0.1962 -0.2773 -0.0748
 2603SOL     OW19441   2.225   2.153   2.489  0.4245  0.1833 -0.3146
 2603SOL    HW119442   2.234   2.232   2.435 -1.9117  1.4722  1.2310
 2603SOL    HW219443   2.310   2.113   2.467  0.5077 -0.7260  1.7114
 2604SOL     OW19444   1.227   2.312   7.411 -0.3348 -0.6874  0.8491
 2604SOL    HW119445   1.285   2.250   7.366  0.0442  1.3834 -1.4958
 2604SOL    HW219446   1.236   2.288   7.503 -1.4904  2.4075  1.7548
 2605SOL     OW19447   3.289   3.944   1.844  0.5206  0.0122 -0.2822
 2605SOL    HW119448   3.259   3.886   1.914  0.3544 -1.1665 -1.3351
 2605SOL    HW219449   3.239   3.912   1.769  0.6943  1.8295 -1.1759
 2606SOL     OW19450   2.915   2.418   5.783 -0.2088 -0.0313  0.0410
 2606SOL    HW119451   2.879   2.415   5.872 -2.0733  0.3445 -0.7026
 2606SOL    HW219452   3.000   2.458   5.798 -0.3815 -0.0668  1.0865
 2607SOL     OW19453   1.920   4.240  10.619 -0.0327 -0.0640  0.1098
 2607SOL    HW119454   1.972   4.273  10.692 -1.5718 -1.5394  1.8692
 2607SOL    HW219455   1.886   4.159  10.656 -1.4963  1.8760  3.0354
 2608SOL     OW19456   3.147   0.567   3.922 -0.1090 -0.3967 -0.1836
 2608SOL    HW119457   3.094   0.644   3.944 -0.6600 -1.1907  1.3383
 2608SOL    HW219458   3.150   0.517   4.004  2.2450  0.8757  0.4793
 2609SOL     OW19459   1.459   1.684   0.828  0.2891 -0.8789  0.3066
 2609SOL    HW119460   1.519   1.690   0.754  0.3208 -1.5632  0.2845
 2609SOL    HW219461   1.495   1.614   0.883  1.1226 -0.2298  0.5941
 2610SOL     OW19462   3.211   0.621   3.648 -0.6818  0.2489 -0.2536
 2610SOL    HW119463   3.195   0.619   3.743  1.7954 -1.4246  0.1293
 2610SOL    HW219464   3.306   0.623   3.642 -0.7850 -0.8401 -2.0755
 2611SOL     OW19465   4.006   4.291  15.095  0.4822 -0.5580  0.6981
 2611SOL    HW119466   3.996   4.374  15.142  0.4390 -0.9370  1.3688
 2611SOL    HW219467   3.998   4.318  15.004 -1.3033  3.2362  2.0123
 2612SOL     OW19468   3.491   0.593   5.615  0.3982 -0.6291 -0.5076
 2612SOL    HW119469   3.479   0.518   5.673  1.2918 -0.5381 -0.2185
 2612SOL    HW219470   3.500   0.666   5.675  0.9275  0.1371 -1.5216
 2613SOL     OW19471   3.113   3.303   7.126  0.3339 -0.0383 -0.6312
 2613SOL    HW119472   3.089   3.221   7.082 -0.4630  0.2428 -0.7139
 2613SOL    HW219473   3.026   3.342   7.126  0.6734  0.7333 -1.6525
 2614SOL     OW19474   3.136   1.895   1.625 -0.3427  0.0662 -0.5124
 2614SOL    HW119475   3.121   1.933   1.539 -2.1509 -0.8090 -0.5940
 2614SOL    HW219476   3.231   1.905   1.626 -0.8343  4.4905 -0.3838
 2615SOL     OW19477   2.020   2.286   0.822 -0.0026  0.1248  0.0591
 2615SOL    HW119478   2.068   2.268   0.903 -2.6158 -1.4044  1.2670
 2615SOL    HW219479   2.094   2.299   0.763 -0.1983 -0.9437 -0.4152
 2616SOL     OW19480   0.860   2.842   1.485 -0.5262 -0.0456  0.6106
 2616SOL    HW119481   0.801   2.779   1.444 -0.9454  1.2645 -0.8435
 2616SOL    HW219482   0.831   2.918   1.434  0.5226 -0.6985 -0.9721
 2617SOL     OW19483   3.603   0.927   7.373 -0.3041 -0.2661  0.3430
 2617SOL    HW119484   3.691   0.890   7.365 -0.5560 -0.9894  0.9156
 2617SOL    HW219485   3.617   1.022   7.365  1.1186 -0.4369  0.7885
 2618SOL     OW19486   0.260   0.913   7.116 -0.1932  0.1883 -0.2416
 2618SOL    HW119487   0.302   0.831   7.141  0.5120  0.3616 -0.8984
 2618SOL    HW219488   0.220   0.936   7.201  0.8517 -0.9938  0.5752
 2619SOL     OW19489   2.612   4.088   6.469  0.3009  0.1813 -0.0848
 2619SOL    HW119490   2.522   4.117   6.455 -0.6027 -2.3638  0.3824
 2619SOL    HW219491   2.611   4.059   6.561  0.8664 -1.8322 -0.7124
 2620SOL     OW19492   3.437   0.375   1.115  0.1938  0.3613  0.0672
 2620SOL    HW119493   3.511   0.349   1.060 -1.9761 -0.9312 -2.2520
 2620SOL    HW219494   3.475   0.389   1.202 -2.7031  1.3499  1.1834
 2621SOL     OW19495   2.557   2.353  16.441  0.4975 -0.0212 -0.1035
 2621SOL    HW119496   2.652   2.337  16.444  0.6274  0.4906 -1.8048
 2621SOL    HW219497   2.531   2.395  16.359  1.4104  0.5107 -0.1245
 2622SOL     OW19498   2.900   1.289   1.571 -0.3973 -0.3763 -0.1788
 2622SOL    HW119499   2.826   1.325   1.521 -1.0528 -1.1758  0.2232
 2622SOL    HW219500   2.882   1.200   1.543 -1.4939  0.1932 -1.3060
 2623SOL     OW19501   1.585   0.552   2.565  1.3415 -0.6780  0.2669
 2623SOL    HW119502   1.536   0.614   2.512  0.6999 -1.8281 -0.4783
 2623SOL    HW219503   1.653   0.529   2.502  1.9619 -0.0618  0.7026
 2624SOL     OW19504   4.419   3.088   4.653 -0.2374  0.0945 -0.5171
 2624SOL    HW119505   4.494   3.124   4.700 -1.3834  0.2114  1.2609
 2624SOL    HW219506   4.444   2.997   4.636 -1.4780 -0.4360  0.4693
 2625SOL     OW19507   2.072   1.132  16.774 -0.2576  0.2510 -0.0000
 2625SOL    HW119508   2.091   1.089  16.858 -0.8744 -0.3188 -0.1458
 2625SOL    HW219509   2.136   1.076  16.730 -1.4714 -1.0274 -0.1583
 2626SOL     OW19510   3.010   1.864   0.516 -0.4000 -0.1241 -0.4235
 2626SOL    HW119511   3.065   1.843   0.441  0.6466  2.2163 -0.3286
 2626SOL    HW219512   2.918   1.855   0.491 -0.8697  1.6759  0.5980
 2627SOL     OW19513   4.011   1.432   4.698 -0.5816 -0.0095 -0.7149
 2627SOL    HW119514   3.972   1.407   4.782  0.6685  1.3501  0.2595
 2627SOL    HW219515   3.934   1.454   4.647 -1.8195 -2.0361  0.2882
 2628SOL     OW19516   3.618   4.154   5.211  0.2088 -0.9988  0.2728
 2628SOL    HW119517   3.638   4.112   5.295 -1.3671 -1.8861  0.1929
 2628SOL    HW219518   3.690   4.119   5.157  0.1090  0.2512 -0.6752
 2629SOL     OW19519   2.852   4.353  15.041  0.0821 -0.4183  0.2331
 2629SOL    HW119520   2.934   4.311  15.015  0.2859 -0.2602  0.6248
 2629SOL    HW219521   2.876   4.409  15.114  0.0082 -1.0417  0.7393
 2630SOL     OW19522   0.470   1.956  14.246  0.2414 -0.1345  0.5464
 2630SOL    HW119523   0.516   2.022  14.195  2.4695 -1.6975  0.5140
 2630SOL    HW219524   0.535   1.890  14.270 -2.5444 -1.7694  3.6678
 2631SOL     OW19525   2.422   3.893   8.875 -0.2461  0.8872  0.7401
 2631SOL    HW119526   2.409   3.854   8.961  0.8495  1.1415  1.0216
 2631SOL    HW219527   2.339   3.939   8.862 -0.5787 -0.4359 -1.7790
 2632SOL     OW19528   2.674   2.406   4.228 -0.1771 -0.1685 -0.2591
 2632SOL    HW119529   2.742   2.469   4.203 -1.6801  1.7528  0.5054
 2632SOL    HW219530   2.612   2.425   4.157 -0.3390 -0.2930 -0.1521
 2633SOL     OW19531   1.941   3.458   8.604  0.0889  0.2376  0.4876
 2633SOL    HW119532   1.929   3.523   8.534  3.1045 -0.2659 -0.5031
 2633SOL    HW219533   1.986   3.386   8.559  0.8165 -0.4988  2.4126
 2634SOL     OW19534   3.136   0.201   2.023  0.2309  0.0901 -0.1215
 2634SOL    HW119535   3.224   0.166   2.011  0.3729  1.3322 -2.6560
 2634SOL    HW219536   3.154   0.287   2.061  0.1014 -0.6840  1.6873
 2635SOL     OW19537   2.098   2.086  16.185  0.6218  0.5853  0.4465
 2635SOL    HW119538   2.068   2.128  16.266  2.5619  3.0488 -0.1038
 2635SOL    HW219539   2.083   2.156  16.122  0.3254  1.8388  1.9091
 2636SOL     OW19540   0.479   4.192   8.107  0.4279 -0.2787  0.2354
 2636SOL    HW119541   0.443   4.157   8.189  0.3947 -0.5984  0.0820
 2636SOL    HW219542   0.431   4.275   8.096 -2.1733 -1.8596 -0.3950
 2637SOL     OW19543   2.808   0.572   1.712 -0.0592  0.1568 -0.0477
 2637SOL    HW119544   2.768   0.635   1.652 -2.6221 -1.5940 -0.1475
 2637SOL    HW219545   2.847   0.517   1.644  0.7638  0.1168  0.4551
 2638SOL     OW19546   2.692   1.628   8.538 -0.0266  0.5312  0.4040
 2638SOL    HW119547   2.781   1.597   8.552 -0.1367 -0.6544 -1.5098
 2638SOL    HW219548   2.702   1.720   8.563  1.6914  0.3029  0.5578
 2639SOL     OW19549   0.696   4.621   1.770  0.1902  0.4515  0.1906
 2639SOL    HW119550   0.753   4.657   1.702  0.2753  0.5682  0.3222
 2639SOL    HW219551   0.753   4.545   1.781 -0.9938 -0.4174  0.1967
 2640SOL     OW19552   0.773   2.689   7.034  0.0307  0.2154  0.0147
 2640SOL    HW119553   0.820   2.651   7.108 -0.5165 -0.5929 -0.0530
 2640SOL    HW219554   0.740   2.770   7.073 -0.9616 -0.1646 -0.0487
 2641SOL     OW19555   0.280   3.891  12.031 -0.7087  0.5327 -0.1847
 2641SOL    HW119556   0.212   3.840  12.074 -0.7635 -0.0140 -0.9179
 2641SOL    HW219557   0.351   3.891  12.096 -1.6978  2.4316  0.8815
 2642SOL     OW19558   0.902   0.628   3.468 -0.6398  0.0505 -0.7486
 2642SOL    HW119559   0.896   0.708   3.415 -2.8006 -0.6099 -1.5163
 2642SOL    HW219560   0.993   0.628   3.495 -0.7421 -2.2698 -0.3629
 2643SOL     OW19561   0.671   1.521   1.790  0.5779  0.2114  0.0846
 2643SOL    HW119562   0.675   1.521   1.694  0.0686  1.5550  0.0697
 2643SOL    HW219563   0.681   1.428   1.812  1.3908  0.2826  0.0084
 2644SOL     OW19564   2.053   0.428   4.907 -0.1286 -0.6275  0.1629
 2644SOL    HW119565   2.022   0.367   4.841  0.1416 -0.0897 -0.4532
 2644SOL    HW219566   2.019   0.506   4.863  2.1818  0.7304  0.7974
 2645SOL     OW19567   2.386   0.364   9.369  0.6104  0.5044  0.1693
 2645SOL    HW119568   2.414   0.442   9.320  1.6339 -0.2527 -0.4413
 2645SOL    HW219569   2.449   0.361   9.441  0.6112  0.8740  0.1847
 2646SOL     OW19570   2.279   1.876   7.811  0.4703  0.3391  0.8321
 2646SOL    HW119571   2.351   1.924   7.769  0.7222 -1.6400 -0.9509
 2646SOL    HW219572   2.223   1.953   7.822  0.3173  0.3622 -0.0939
 2647SOL     OW19573   4.638   2.229  16.582  0.2426  0.3994 -0.2248
 2647SOL    HW119574   4.626   2.138  16.554 -2.4074  0.7876 -0.3819
 2647SOL    HW219575   4.691   2.271  16.514 -0.4698 -0.4034 -1.2629
 2648SOL     OW19576   1.860   2.822  14.863 -0.0661  0.0574 -0.6040
 2648SOL    HW119577   1.902   2.807  14.947  0.0766  1.6057 -0.4036
 2648SOL    HW219578   1.930   2.850  14.804  0.8130  0.0662  0.4415
 2649SOL     OW19579   0.176   1.868   3.543  0.4200  1.2007  0.2307
 2649SOL    HW119580   0.187   1.852   3.449 -0.6065  0.4239  0.2408
 2649SOL    HW219581   0.267   1.859   3.572  0.1994  0.9017  0.8343
 2650SOL     OW19582   3.394   4.350   5.442  0.4738 -0.0284 -0.0434
 2650SOL    HW119583   3.349   4.268   5.463 -0.5534  0.7432  0.7887
 2650SOL    HW219584   3.443   4.368   5.522 -1.4781 -0.1515  1.1868
 2651SOL     OW19585   0.525   1.171   4.191 -0.2090 -0.4033  0.4743
 2651SOL    HW119586   0.516   1.233   4.118  3.4688  1.1794  1.3184
 2651SOL    HW219587   0.619   1.152   4.183 -0.4507 -1.6005  0.4998
 2652SOL     OW19588   2.031   2.485   9.397  0.0292 -0.4755  0.3737
 2652SOL    HW119589   1.939   2.497   9.374  0.5705  0.1729 -1.4521
 2652SOL    HW219590   2.055   2.434   9.320  1.6134  2.2359 -0.9222
 2653SOL     OW19591   0.515   3.540   4.131 -1.0553 -0.4525  0.1145
 2653SOL    HW119592   0.451   3.569   4.066 -1.0703 -0.7485 -0.0060
 2653SOL    HW219593   0.457   3.507   4.200 -1.7613  0.4411 -0.0595
 2654SOL     OW19594   2.840   0.244   4.205  0.0911 -0.0902  0.5561
 2654SOL    HW119595   2.824   0.295   4.285 -1.5986 -0.6888  0.5950
 2654SOL    HW219596   2.810   0.158   4.233 -0.9487 -0.2024 -0.9242
 2655SOL     OW19597   1.455   0.339   2.249  0.6081 -0.0368 -0.5413
 2655SOL    HW119598   1.518   0.379   2.308 -0.0669 -0.4165  0.4289
 2655SOL    HW219599   1.373   0.337   2.298  1.1930 -0.5172  0.4123
 2656SOL     OW19600   3.794   4.521   4.313  0.3111 -0.6797  0.4735
 2656SOL    HW119601   3.714   4.474   4.335 -1.3190  0.7490 -2.3784
 2656SOL    HW219602   3.783   4.604   4.359  0.8093 -1.7973  2.5913
 2657SOL     OW19603   2.541   2.394   2.628  0.4989 -0.5369 -0.0508
 2657SOL    HW119604   2.583   2.308   2.626  1.0881 -0.1954 -2.3481
 2657SOL    HW219605   2.515   2.390   2.720  1.5581  0.5193  0.2950
 2658SOL     OW19606   2.582   2.428  12.654 -0.5070  0.5181 -0.1010
 2658SOL    HW119607   2.521   2.408  12.583 -0.1995 -0.3847 -0.1123
 2658SOL    HW219608   2.604   2.517  12.629  3.3512 -0.4492 -0.2462
 2659SOL     OW19609   3.274   1.437   6.711 -0.2892  0.0841 -0.0055
 2659SOL    HW119610   3.345   1.436   6.775  0.0423  0.0741 -0.3780
 2659SOL    HW219611   3.319   1.401   6.635  0.1916 -1.1650  0.8655
 2660SOL     OW19612   3.878   2.603   2.367  0.0403 -0.3924 -0.3574
 2660SOL    HW119613   3.828   2.599   2.449  1.2799 -0.3946  0.4104
 2660SOL    HW219614   3.805   2.605   2.305 -0.3282 -0.7451  0.0667
 2661SOL     OW19615   0.290   1.128  14.070 -0.1465  0.3048  0.2563
 2661SOL    HW119616   0.364   1.108  14.012  0.3625  0.4574  0.8593
 2661SOL    HW219617   0.339   1.186  14.127 -0.8011  0.8824  0.2326
 2662SOL     OW19618   1.359   3.580   3.434  0.1168  0.1620  0.0008
 2662SOL    HW119619   1.319   3.543   3.512 -1.3831  1.4574 -0.1649
 2662SOL    HW219620   1.281   3.617   3.394 -0.3005 -0.5327  0.1866
 2663SOL     OW19621   0.716   0.785   4.642 -0.0059  0.1781  0.5610
 2663SOL    HW119622   0.722   0.846   4.569 -1.5448  1.1073  1.2152
 2663SOL    HW219623   0.661   0.716   4.605  3.1562 -1.3077 -1.3132
 2664SOL     OW19624   1.583   3.492   6.818  0.7261  0.1062 -0.5540
 2664SOL    HW119625   1.659   3.488   6.759  1.2845 -0.8934  0.2318
 2664SOL    HW219626   1.517   3.468   6.753  0.2140  1.7969 -0.6399
 2665SOL     OW19627   4.062   0.350   9.434  0.4607  0.2809 -0.4888
 2665SOL    HW119628   4.026   0.287   9.497 -1.7340  0.6831 -1.3221
 2665SOL    HW219629   4.064   0.296   9.355  0.2586 -0.7381  0.2040
 2666SOL     OW19630   2.844   3.395  11.607 -0.1099  0.1483  0.1279
 2666SOL    HW119631   2.860   3.339  11.683  0.3528  1.5279  1.0495
 2666SOL    HW219632   2.883   3.480  11.629 -0.6951  0.4213  0.1224
 2667SOL     OW19633   1.402   3.789   2.989 -0.0310 -0.2146 -0.0063
 2667SOL    HW119634   1.489   3.773   3.025 -0.4988 -1.0439  0.7548
 2667SOL    HW219635   1.350   3.723   3.036 -1.1153  0.3281 -0.4395
 2668SOL     OW19636   0.824   1.151   4.216  0.3179  0.0377  0.2728
 2668SOL    HW119637   0.885   1.172   4.146  0.1390 -0.6804 -0.0957
 2668SOL    HW219638   0.839   1.225   4.275  1.2422  0.4909 -0.5283
 2669SOL     OW19639   3.450   2.644   4.856  0.3490 -0.3254  0.2199
 2669SOL    HW119640   3.528   2.605   4.817 -0.4225 -0.6547 -1.0075
 2669SOL    HW219641   3.486   2.731   4.866 -0.3672  0.1744 -1.6203
 2670SOL     OW19642   1.149   1.858  12.275  0.1103 -0.0250  0.4232
 2670SOL    HW119643   1.091   1.930  12.299 -0.4836 -0.3752  0.0438
 2670SOL    HW219644   1.148   1.867  12.180 -2.0932  0.6443  0.5133
 2671SOL     OW19645   2.781   3.082   6.515 -0.3379 -0.1323  0.0238
 2671SOL    HW119646   2.826   3.053   6.594 -0.7748 -0.8350  0.0032
 2671SOL    HW219647   2.830   3.058   6.436 -0.9800 -2.2502  0.2699
 2672SOL     OW19648   2.293   2.210   8.933  0.1461  0.2014 -0.0357
 2672SOL    HW119649   2.340   2.146   8.987 -0.8896  0.2045  0.8678
 2672SOL    HW219650   2.371   2.264   8.918  1.2038 -1.0668  0.9253
 2673SOL     OW19651   4.295   2.567   2.370  0.3990  0.2295 -0.8585
 2673SOL    HW119652   4.258   2.655   2.374 -0.3475 -0.1227  0.0371
 2673SOL    HW219653   4.322   2.542   2.459 -2.7007  0.3184  0.0780
 2674SOL     OW19654   4.182   4.158   8.090  0.0920  0.0739 -0.2212
 2674SOL    HW119655   4.251   4.108   8.133  1.4626  3.3427  1.3794
 2674SOL    HW219656   4.228   4.241   8.100  2.8049 -1.8979  3.3826
 2675SOL     OW19657   1.633   2.525   6.814  0.3839  0.1100  0.2757
 2675SOL    HW119658   1.584   2.582   6.754  1.2132 -0.9598 -1.4448
 2675SOL    HW219659   1.696   2.587   6.850 -0.2088  1.5171 -1.1132
 2676SOL     OW19660   0.817   4.275   2.368  0.3385 -0.0470  0.5199
 2676SOL    HW119661   0.848   4.358   2.334  1.2737  0.3125  2.2401
 2676SOL    HW219662   0.770   4.313   2.443  0.1400 -1.1410  0.9503
 2677SOL     OW19663   3.416   2.384   8.031 -0.4103 -0.3862 -0.3617
 2677SOL    HW119664   3.399   2.453   7.967  1.0530  2.4032  2.2913
 2677SOL    HW219665   3.335   2.391   8.083  0.6413  3.7504  0.6627
 2678SOL     OW19666   3.405   2.108   7.533  0.3168 -0.0948  0.0826
 2678SOL    HW119667   3.454   2.123   7.452 -3.2974 -2.5792 -2.5669
 2678SOL    HW219668   3.359   2.024   7.528  0.1556 -0.0447  0.7798
 2679SOL     OW19669   3.986   1.919   3.229  0.2696 -0.0727  0.3418
 2679SOL    HW119670   3.967   1.826   3.218  1.0440 -0.4005  1.7874
 2679SOL    HW219671   4.036   1.935   3.149 -1.6886 -0.2575 -0.9322
 2680SOL     OW19672   3.090   1.894   6.988  0.3788 -0.2509  0.0808
 2680SOL    HW119673   3.090   1.807   6.949 -0.4317 -0.4861  0.5992
 2680SOL    HW219674   3.146   1.873   7.063  0.4681 -1.1940 -0.2521
 2681SOL     OW19675   2.312   1.505   9.733  0.3575 -0.1365  0.0964
 2681SOL    HW119676   2.384   1.554   9.774  1.5589 -0.8743 -1.1207
 2681SOL    HW219677   2.260   1.477   9.808 -0.0510 -1.5011 -0.7086
 2682SOL     OW19678   4.340   3.246   5.817  0.4408 -0.6180 -0.7379
 2682SOL    HW119679   4.341   3.306   5.891 -4.8996 -1.9093  0.4342
 2682SOL    HW219680   4.433   3.234   5.799  0.8486 -0.0710  0.9982
 2683SOL     OW19681   0.023   0.898  11.035 -0.0604 -0.0974  0.8685
 2683SOL    HW119682   4.679   0.936  10.999  1.6986  1.0031 -1.8937
 2683SOL    HW219683   0.035   0.814  10.990 -1.2196  1.2721 -1.9613
 2684SOL     OW19684   0.487   3.488   2.276 -0.6440 -0.0866  0.3487
 2684SOL    HW119685   0.400   3.479   2.237 -1.1676 -2.0438  2.0289
 2684SOL    HW219686   0.479   3.510   2.369  1.3112 -2.0498  0.9846
 2685SOL     OW19687   0.645   2.588   7.760  0.4816  0.2627 -0.1289
 2685SOL    HW119688   0.686   2.534   7.692  0.8472 -1.8132  1.7385
 2685SOL    HW219689   0.730   2.607   7.800 -0.5106  3.1855  0.5465
 2686SOL     OW19690   0.807   0.062   2.822  0.5274 -0.1339 -0.0787
 2686SOL    HW119691   0.742   0.131   2.830  1.8197  0.7929  2.3774
 2686SOL    HW219692   0.827   0.065   2.728 -0.9892  2.1241 -0.3487
 2687SOL     OW19693   3.594   2.435   1.938  0.7301 -0.4092  0.3647
 2687SOL    HW119694   3.676   2.457   1.982 -1.3243  1.0211  3.5020
 2687SOL    HW219695   3.631   2.391   1.862  0.2383 -1.1797  0.5721
 2688SOL     OW19696   0.024   3.956   8.668 -0.5074  0.1029 -0.5298
 2688SOL    HW119697   0.037   4.024   8.601  1.5525 -0.3275 -0.5513
 2688SOL    HW219698   0.111   3.955   8.708 -0.4649  2.8801 -0.5520
 2689SOL     OW19699   2.320   4.275   8.954  0.3773 -0.3381 -0.2597
 2689SOL    HW119700   2.385   4.256   9.021  1.1495 -0.8796 -1.1540
 2689SOL    HW219701   2.278   4.190   8.939 -0.7576 -0.0395  1.2867
 2690SOL     OW19702   1.545   3.616   0.152  0.5817  0.8842 -0.3441
 2690SOL    HW119703   1.454   3.644   0.163  1.1033  2.8017 -0.9627
 2690SOL    HW219704   1.565   3.606   0.245 -1.0998  1.3292  0.0587
 2691SOL     OW19705   4.661   2.104   8.618  0.4522  0.4596 -0.7456
 2691SOL    HW119706   4.708   2.151   8.686 -1.0923  0.4056  0.3584
 2691SOL    HW219707   4.712   2.023   8.625  1.4009  1.1618  0.4799
 2692SOL     OW19708   0.547   3.341  17.703 -0.3508  0.3062 -0.2603
 2692SOL    HW119709   0.562   3.286   0.040  0.2955  0.7331 -0.0784
 2692SOL    HW219710   0.638   3.356  17.676  0.5087 -2.8186  0.8198
 2693SOL     OW19711   0.546   1.054   5.442 -0.5649 -0.2237  0.1492
 2693SOL    HW119712   0.576   0.980   5.495  0.9723  1.1614  1.1975
 2693SOL    HW219713   0.504   1.005   5.371 -0.1746 -0.0384 -0.2057
 2694SOL     OW19714   1.975   4.242  13.291 -0.3424  0.2002  0.1750
 2694SOL    HW119715   2.023   4.290  13.359 -0.3744  1.2488 -0.5554
 2694SOL    HW219716   1.885   4.255  13.319 -0.5596  1.1791 -0.9618
 2695SOL     OW19717   1.669   0.162   8.336  0.1837  0.2675 -0.2590
 2695SOL    HW119718   1.581   0.147   8.303 -0.5349  1.1192  1.2605
 2695SOL    HW219719   1.720   0.091   8.297 -1.8717 -1.3367  0.0111
 2696SOL     OW19720   1.842   4.127  16.481  0.1637 -0.3830 -0.3800
 2696SOL    HW119721   1.755   4.147  16.447 -0.6301  1.9470  3.0206
 2696SOL    HW219722   1.845   4.032  16.483 -1.4401 -0.3674  2.2155
 2697SOL     OW19723   1.151   0.316   4.477  0.1892  0.1922 -0.3853
 2697SOL    HW119724   1.190   0.264   4.407 -1.3324  0.6456 -1.5558
 2697SOL    HW219725   1.103   0.254   4.532  3.9706 -1.4805  1.0701
 2698SOL     OW19726   0.715   4.525  16.193  0.0132 -0.1542 -0.0257
 2698SOL    HW119727   0.732   4.571  16.275 -1.7386  0.2629  0.0981
 2698SOL    HW219728   0.637   4.571  16.163 -0.9045 -2.0678 -0.5609
 2699SOL     OW19729   3.765   3.670  16.411 -0.5809 -0.8546  0.0758
 2699SOL    HW119730   3.725   3.586  16.387 -0.6379 -0.1481 -2.3192
 2699SOL    HW219731   3.742   3.678  16.503  0.6695 -0.7868  0.3875
 2700SOL     OW19732   0.421   3.349   5.998 -0.3495 -0.2011  0.3438
 2700SOL    HW119733   0.391   3.316   5.914 -0.0315 -0.5579  0.3691
 2700SOL    HW219734   0.365   3.427   6.000 -0.1884 -0.0722 -0.2384
 2701SOL     OW19735   0.915   1.886   7.263  0.0434 -0.3566  0.6099
 2701SOL    HW119736   0.872   1.932   7.335 -2.5269  0.4547 -1.4286
 2701SOL    HW219737   0.848   1.873   7.196 -0.4472  1.5381  0.7343
 2702SOL     OW19738   0.828   4.626  15.930  0.2641  0.3519  0.2574
 2702SOL    HW119739   0.911   4.579  15.925 -1.6223 -2.9114 -0.2000
 2702SOL    HW219740   0.793   4.586  16.010 -0.7095  0.9762  0.1501
 2703SOL     OW19741   0.818   1.221  11.141  0.2048 -0.0133  0.1714
 2703SOL    HW119742   0.866   1.195  11.220 -0.7074  0.6540  0.9548
 2703SOL    HW219743   0.841   1.139  11.097 -1.9619 -0.3222 -0.4095
 2704SOL     OW19744   0.698   1.101  11.688 -0.0448  0.6148  0.0082
 2704SOL    HW119745   0.726   1.075  11.600  1.3889 -1.0878  0.9728
 2704SOL    HW219746   0.755   1.044  11.739  0.8789  0.9457 -0.6595
 2705SOL     OW19747   4.453   0.284   6.714 -0.0175  0.2561  0.0878
 2705SOL    HW119748   4.394   0.345   6.758  0.9009  0.6334  0.7972
 2705SOL    HW219749   4.535   0.332   6.722  0.9363 -1.5251  0.9008
 2706SOL     OW19750   0.481   3.188   4.815  0.4016  0.0370  0.0707
 2706SOL    HW119751   0.486   3.206   4.909  2.7862  0.0140 -0.0721
 2706SOL    HW219752   0.400   3.235   4.795  0.0859 -0.1435  0.9011
 2707SOL     OW19753   0.710   2.418   6.059  0.0938 -0.3625 -0.0642
 2707SOL    HW119754   0.707   2.422   5.963  0.8394 -1.6590 -0.1405
 2707SOL    HW219755   0.632   2.472   6.073 -0.7028 -1.3798 -0.5625
 2708SOL     OW19756   2.199   1.255   2.003 -0.7457 -0.3920 -0.2613
 2708SOL    HW119757   2.133   1.316   1.970  0.5707  0.8291 -0.6137
 2708SOL    HW219758   2.205   1.207   1.920  1.6900  1.0673 -0.9151
 2709SOL     OW19759   1.579   4.721  12.311 -0.2344 -0.6625  0.3367
 2709SOL    HW119760   1.615   4.667  12.240  1.9715  1.9308 -0.5341
 2709SOL    HW219761   1.551   4.656  12.375 -0.9533 -2.8043 -2.1289
 2710SOL     OW19762   1.174   3.046   1.496  0.2907  0.8323  0.3887
 2710SOL    HW119763   1.123   3.030   1.416  1.0467 -2.5245  0.5882
 2710SOL    HW219764   1.145   3.133   1.524 -0.3677  0.4628  0.8450
 2711SOL     OW19765   2.186   1.324   1.307  0.1633 -0.1717 -0.0610
 2711SOL    HW119766   2.232   1.240   1.304  1.2432  0.3944  0.7803
 2711SOL    HW219767   2.116   1.308   1.244  0.7672  1.1240 -1.0449
 2712SOL     OW19768   0.684   3.344   4.055  0.3362 -0.2358  0.9932
 2712SOL    HW119769   0.628   3.416   4.083  0.3074  0.0635  0.1717
 2712SOL    HW219770   0.627   3.287   4.003  1.1821  1.6661 -1.9888
 2713SOL     OW19771   1.781   3.466   7.927  0.2397 -0.1045 -0.1371
 2713SOL    HW119772   1.694   3.490   7.897 -0.1746 -1.7590 -0.2585
 2713SOL    HW219773   1.788   3.493   8.018  1.4581 -2.3329  0.4381
 2714SOL     OW19774   3.210   0.821   3.104  0.2797 -0.0940 -0.4256
 2714SOL    HW119775   3.197   0.735   3.145  0.2951  0.6132  1.0742
 2714SOL    HW219776   3.182   0.879   3.175 -0.3818  0.4869 -1.1657
 2715SOL     OW19777   3.030   3.229   6.785  0.2129  0.3142 -0.5931
 2715SOL    HW119778   3.107   3.286   6.776  0.6507  0.1188  1.8559
 2715SOL    HW219779   3.022   3.196   6.695  1.5004 -0.0471 -0.5763
 2716SOL     OW19780   1.738   1.913   8.600  0.3595  0.0053  0.0475
 2716SOL    HW119781   1.833   1.906   8.594  0.3356 -2.0545  1.9577
 2716SOL    HW219782   1.735   1.991   8.654 -2.4110  0.8288 -1.2610
 2717SOL     OW19783   0.756   0.363  14.978  0.5058  0.5508  0.0923
 2717SOL    HW119784   0.698   0.322  14.914  0.2320 -1.0821  1.3902
 2717SOL    HW219785   0.725   0.453  14.966  1.7218  1.1908  1.6898
 2718SOL     OW19786   2.157   4.191   7.220  0.6454  0.0203 -0.6346
 2718SOL    HW119787   2.085   4.205   7.281  1.3169 -1.2041  0.4314
 2718SOL    HW219788   2.138   4.251   7.147  0.5229  0.2893 -0.3788
 2719SOL     OW19789   1.994   3.049   2.986 -0.2691  0.4750  0.4090
 2719SOL    HW119790   1.903   3.026   3.003 -0.0407 -1.9900 -1.7590
 2719SOL    HW219791   2.038   2.968   3.011  2.5420  1.4208 -1.4789
 2720SOL     OW19792   1.831   2.303   4.614 -0.1352 -0.2596 -0.1723
 2720SOL    HW119793   1.841   2.239   4.685 -2.2306 -1.8665 -1.3257
 2720SOL    HW219794   1.904   2.362   4.632  1.0421 -0.9533 -2.7480
 2721SOL     OW19795   0.850   4.668  11.205  0.2943 -0.0667 -0.8395
 2721SOL    HW119796   0.774   4.624  11.244 -0.0377  2.4236  1.3423
 2721SOL    HW219797   0.907   4.595  11.227  0.1978  0.2715  0.5156
 2722SOL     OW19798   4.407   0.110   0.596 -0.7778  0.2065 -0.1866
 2722SOL    HW119799   4.428   0.186   0.542  2.0438 -1.2909 -1.1932
 2722SOL    HW219800   4.313   0.093   0.598 -0.7617  0.3143  2.0383
 2723SOL     OW19801   2.820   1.308   9.164 -0.0278  0.2281 -0.1310
 2723SOL    HW119802   2.824   1.214   9.179  2.7102  0.1519 -1.2839
 2723SOL    HW219803   2.726   1.319   9.179  0.0366 -0.5489  0.8745
 2724SOL     OW19804   2.382   3.273   1.970  0.1310  0.1030  0.2591
 2724SOL    HW119805   2.325   3.205   1.936  0.1485  0.3255 -0.2187
 2724SOL    HW219806   2.472   3.258   1.942 -0.0295 -0.0974 -0.1476
 2725SOL     OW19807   3.118   3.804  17.148 -0.5195 -0.1105 -0.0449
 2725SOL    HW119808   3.188   3.743  17.171 -0.1633 -0.2299 -1.4287
 2725SOL    HW219809   3.083   3.827  17.234 -0.6183  2.3615 -0.7290
 2726SOL     OW19810   3.125   3.727   8.992  0.5909  0.4387 -0.0799
 2726SOL    HW119811   3.148   3.720   8.900  0.9819 -1.4665  0.1575
 2726SOL    HW219812   3.043   3.777   8.984  1.0101  1.3320  1.1134
 2727SOL     OW19813   3.303   3.031   4.487  0.1898  0.3166  0.5805
 2727SOL    HW119814   3.379   3.035   4.544  2.1912 -1.6341 -1.9304
 2727SOL    HW219815   3.294   3.126   4.479  1.1915  0.4918  1.7167
 2728SOL     OW19816   0.110   1.175   6.495  0.5811 -0.3888 -0.0689
 2728SOL    HW119817   0.115   1.147   6.586 -0.2661 -1.8403 -0.4561
 2728SOL    HW219818   0.043   1.111   6.470  0.4632 -0.3113  0.0541
 2729SOL     OW19819   3.253   3.319   7.418  0.2642 -0.0643 -0.8849
 2729SOL    HW119820   3.212   3.317   7.332  0.0041  1.8798 -0.8049
 2729SOL    HW219821   3.337   3.279   7.394  0.4909 -0.0925 -0.0312
 2730SOL     OW19822   0.496   3.819   6.576  0.0987  0.0444 -0.1207
 2730SOL    HW119823   0.458   3.841   6.661 -0.1341 -1.5823  0.1891
 2730SOL    HW219824   0.590   3.834   6.588 -0.4917  2.7148  1.1776
 2731SOL     OW19825   1.980   1.241   5.804 -0.5058  0.2678  0.4664
 2731SOL    HW119826   1.981   1.307   5.874 -1.0406  1.3851 -0.5773
 2731SOL    HW219827   1.930   1.288   5.738 -0.6786 -1.6531 -0.7480
 2732SOL     OW19828   1.398   0.604   6.853 -0.3362 -0.7133  0.0706
 2732SOL    HW119829   1.490   0.578   6.850 -0.2065 -0.5680  3.0890
 2732SOL    HW219830   1.354   0.519   6.856  0.9905 -1.3446  1.4872
 2733SOL     OW19831   1.219   0.197   8.811  0.8717  0.3405 -0.0313
 2733SOL    HW119832   1.232   0.263   8.743 -1.7141 -0.7364 -1.6215
 2733SOL    HW219833   1.292   0.205   8.871  0.7535 -1.9501  0.3998
 2734SOL     OW19834   0.043   2.909   5.046 -0.2707 -0.0466 -0.3271
 2734SOL    HW119835   0.067   2.838   4.986 -0.2338 -1.1687  1.0114
 2734SOL    HW219836   0.049   2.856   5.125 -0.5314 -1.0821 -0.9945
 2735SOL     OW19837   1.048   0.218   2.127 -0.4208  0.4042  0.4241
 2735SOL    HW119838   1.010   0.186   2.045  0.7804  1.3528 -0.5293
 2735SOL    HW219839   1.121   0.156   2.133 -1.2311 -0.2739  3.1562
 2736SOL     OW19840   4.674   1.936   5.099 -0.0748 -0.1884 -0.2200
 2736SOL    HW119841   4.694   1.842   5.094 -2.2490 -0.6175 -1.0913
 2736SOL    HW219842   4.726   1.968   5.025  0.1449 -1.4813 -0.6296
 2737SOL     OW19843   2.917   2.270   9.311  0.1395  0.0285  0.2367
 2737SOL    HW119844   2.991   2.267   9.371  1.1206 -2.7584 -1.1122
 2737SOL    HW219845   2.857   2.224   9.370 -0.0392  0.7504  0.6155
 2738SOL     OW19846   4.678   1.319   6.258  0.0377 -0.3778 -1.2098
 2738SOL    HW119847   4.662   1.231   6.223  0.4492 -1.6345  1.7417
 2738SOL    HW219848   0.034   1.311   6.284 -1.0013 -1.7184  2.0758
 2739SOL     OW19849   3.081   0.968   4.555  0.0280  0.1017 -0.2846
 2739SOL    HW119850   3.047   0.986   4.642  0.0253  2.0577 -0.6835
 2739SOL    HW219851   3.008   1.013   4.511 -1.1734 -1.5083  0.0921
 2740SOL     OW19852   2.287   1.544   6.346 -0.7549  0.4488  0.8559
 2740SOL    HW119853   2.352   1.512   6.409 -0.8291  1.4511  1.4309
 2740SOL    HW219854   2.336   1.575   6.270 -0.3387  0.0238  0.9474
 2741SOL     OW19855   4.340   0.622  16.445  0.3187 -0.0124 -0.7718
 2741SOL    HW119856   4.432   0.599  16.441  0.7375  1.1356  2.2810
 2741SOL    HW219857   4.337   0.677  16.523  1.1624 -1.3943  0.2278
 2742SOL     OW19858   1.642   2.226   9.333 -0.0592 -0.3186  0.6497
 2742SOL    HW119859   1.701   2.173   9.386  0.1374 -2.4650 -1.6913
 2742SOL    HW219860   1.688   2.239   9.250  1.0897 -0.1409  1.3114
 2743SOL     OW19861   3.919   3.362   3.119 -0.1033 -0.3853  0.4963
 2743SOL    HW119862   3.952   3.283   3.161  2.2309  0.8932  1.0952
 2743SOL    HW219863   3.845   3.383   3.176 -0.5015  0.1831 -0.2239
 2744SOL     OW19864   2.758   4.447   1.580 -0.0911  0.0679  0.1475
 2744SOL    HW119865   2.748   4.352   1.589  1.6826 -0.1864 -0.5105
 2744SOL    HW219866   2.823   4.462   1.648 -0.0350 -1.6186  0.4674
 2745SOL     OW19867   2.030   1.838   4.254 -0.1058 -0.0037 -0.2831
 2745SOL    HW119868   2.044   1.900   4.325  2.5159 -1.7266  0.6905
 2745SOL    HW219869   1.998   1.889   4.179  0.3902  1.6080  0.6008
 2746SOL     OW19870   3.386   1.329   7.599 -0.2132  0.3111  0.3011
 2746SOL    HW119871   3.459   1.389   7.581  0.9068 -0.7811  1.1857
 2746SOL    HW219872   3.442   1.254   7.618  2.8115  1.9237 -2.3448
 2747SOL     OW19873   1.680   1.639   5.396  0.3106  0.6172  0.2014
 2747SOL    HW119874   1.600   1.596   5.427  1.8846 -1.0032  2.0494
 2747SOL    HW219875   1.678   1.658   5.303 -1.1054 -0.2352  0.0620
 2748SOL     OW19876   2.237   0.956  15.162  0.4318  0.1021  0.2981
 2748SOL    HW119877   2.268   0.892  15.098  0.0976 -0.0699  0.3101
 2748SOL    HW219878   2.321   0.971  15.206  1.2978 -0.9260 -0.9992
 2749SOL     OW19879   0.885   4.697   3.796  0.0672 -0.0018  0.2533
 2749SOL    HW119880   0.838   4.665   3.873  1.3827 -0.4660  0.8654
 2749SOL    HW219881   0.954   4.631   3.802  1.0557  1.1594  1.6475
 2750SOL     OW19882   2.479   2.541   3.548 -0.1587  0.2124 -0.0652
 2750SOL    HW119883   2.539   2.472   3.575  0.2057  1.1838  1.5532
 2750SOL    HW219884   2.527   2.589   3.481  0.7773 -1.8432 -0.8867
 2751SOL     OW19885   1.185   2.224   9.333 -0.1225  0.0302 -0.6929
 2751SOL    HW119886   1.264   2.204   9.384  0.2336  1.2682 -0.7568
 2751SOL    HW219887   1.163   2.135   9.308 -1.2851  0.0202  0.3607
 2752SOL     OW19888   2.179   0.967   7.741  0.1327 -0.5767  0.0205
 2752SOL    HW119889   2.143   1.007   7.662 -0.3592 -1.4191 -0.1848
 2752SOL    HW219890   2.273   0.983   7.730  0.3460 -1.6231  0.2972
 2753SOL     OW19891   0.583   0.616   4.178 -0.6599 -0.3261 -0.0915
 2753SOL    HW119892   0.574   0.521   4.186  0.0133 -0.3550  0.3157
 2753SOL    HW219893   0.548   0.637   4.091  1.0709 -1.5294 -1.0748
 2754SOL     OW19894   0.469   2.899  17.433 -0.1748 -0.3266  0.3563
 2754SOL    HW119895   0.516   2.817  17.420  0.4736  0.1569 -0.3292
 2754SOL    HW219896   0.449   2.889  17.526 -1.6337  1.2811  0.2279
 2755SOL     OW19897   1.166   4.366   6.026  0.1297 -0.3381 -0.0022
 2755SOL    HW119898   1.212   4.445   6.053 -0.9634  0.7482 -1.2964
 2755SOL    HW219899   1.230   4.306   5.989 -1.6711 -1.6803 -0.9268
 2756SOL     OW19900   0.700   0.138   4.801 -1.0330 -0.3394  0.1150
 2756SOL    HW119901   0.625   0.172   4.752  0.7925  0.1178 -2.3754
 2756SOL    HW219902   0.671   0.151   4.891  1.5960 -2.2411  1.2650
 2757SOL     OW19903   4.650   3.683   2.482 -0.3708 -0.6338  0.2235
 2757SOL    HW119904   4.653   3.649   2.572  3.3063  0.5230  0.5286
 2757SOL    HW219905   4.670   3.775   2.499 -0.0403 -0.9478  1.5759
 2758SOL     OW19906   2.991   2.811   1.058  0.0534  0.4623 -0.8165
 2758SOL    HW119907   3.052   2.825   1.131 -0.1309  1.3468 -0.8271
 2758SOL    HW219908   3.055   2.781   0.994  0.8957 -0.2189  0.3401
 2759SOL     OW19909   4.199   0.682  14.494  0.4164 -0.1225  0.4451
 2759SOL    HW119910   4.255   0.611  14.462  0.9460  0.5764 -0.2086
 2759SOL    HW219911   4.113   0.651  14.468 -0.4764  3.2093 -0.6458
 2760SOL     OW19912   3.684   0.173  16.654  0.4133 -0.1646  0.0489
 2760SOL    HW119913   3.625   0.214  16.717 -0.1330  1.9215 -1.8226
 2760SOL    HW219914   3.615   0.119  16.615 -1.1800  0.5577  1.8525
 2761SOL     OW19915   4.478   3.103   0.636 -0.4508 -0.0164 -0.3126
 2761SOL    HW119916   4.498   3.197   0.639  0.4469 -0.3108  2.8969
 2761SOL    HW219917   4.543   3.072   0.699 -1.2482 -1.6241 -0.2988
 2762SOL     OW19918   4.002   1.415   6.882 -0.1846  0.5703 -0.1857
 2762SOL    HW119919   4.035   1.453   6.964  0.3812  0.4430 -0.3563
 2762SOL    HW219920   4.081   1.406   6.829 -0.9681 -1.2459 -1.0215
 2763SOL     OW19921   3.271   4.395  12.013  0.1061 -0.2444  0.2003
 2763SOL    HW119922   3.360   4.428  12.031 -0.0320  0.6492 -0.7484
 2763SOL    HW219923   3.284   4.301  12.005  1.5995 -0.0545  0.3776
 2764SOL     OW19924   2.082   3.472   5.756  0.0525 -0.2301 -0.3710
 2764SOL    HW119925   2.086   3.421   5.675  0.2297  0.8561 -1.0531
 2764SOL    HW219926   2.123   3.417   5.822  0.1759 -0.3025 -0.5098
 2765SOL     OW19927   1.519   3.624   4.518  0.0722  0.4638 -0.8633
 2765SOL    HW119928   1.567   3.623   4.435  0.8111 -1.3497 -0.4108
 2765SOL    HW219929   1.534   3.540   4.562  1.7333  1.1464 -0.1226
 2766SOL     OW19930   2.282   3.745   3.815  0.1558  0.2441 -0.0591
 2766SOL    HW119931   2.218   3.746   3.886  0.0410  2.0901 -0.1722
 2766SOL    HW219932   2.273   3.655   3.785 -1.1930  0.2110  0.4519
 2767SOL     OW19933   2.873   1.603   0.611 -0.1571  0.0634  0.5329
 2767SOL    HW119934   2.951   1.658   0.605  0.0868 -0.1950  1.3029
 2767SOL    HW219935   2.809   1.670   0.635 -1.0570 -0.6805  0.2257
 2768SOL     OW19936   0.075   0.064  12.396 -0.2236 -0.2253 -0.2861
 2768SOL    HW119937   0.119   0.085  12.479  0.2055  0.3461 -0.6554
 2768SOL    HW219938   0.058   0.151  12.360 -0.2481  0.5696  1.6386
 2769SOL     OW19939   0.490   4.283  17.518  0.3622 -0.4444  0.0396
 2769SOL    HW119940   0.476   4.217  17.450 -0.2552 -0.5259  0.2509
 2769SOL    HW219941   0.433   4.355  17.492  2.5196  1.0863 -0.4228
 2770SOL     OW19942   4.573   2.021   7.348 -0.1768  0.2531 -0.0542
 2770SOL    HW119943   4.560   2.001   7.255 -0.3988 -2.4737  0.5704
 2770SOL    HW219944   4.483   2.043   7.372 -0.6196 -0.7867 -0.7642
 2771SOL     OW19945   4.063   3.794  10.354  0.8142  0.0992 -0.2320
 2771SOL    HW119946   4.055   3.717  10.297  2.3313 -0.6915  0.6303
 2771SOL    HW219947   4.113   3.855  10.301  0.2307 -1.1685 -2.2426
 2772SOL     OW19948   3.489   3.860  15.698 -0.3842 -0.0004 -0.5472
 2772SOL    HW119949   3.526   3.917  15.630  1.4272 -0.4937  0.0304
 2772SOL    HW219950   3.469   3.784  15.644  0.1438 -0.9787  0.6444
 2773SOL     OW19951   2.282   3.319   6.538 -0.6284  0.2337  0.8995
 2773SOL    HW119952   2.372   3.289   6.551 -1.1918 -1.7071  0.4498
 2773SOL    HW219953   2.246   3.294   6.623  0.9227 -2.0055  0.9139
 2774SOL     OW19954   0.414   1.440   1.974  0.1232  0.2866  0.2479
 2774SOL    HW119955   0.499   1.433   2.019  0.1776 -0.1966  0.0738
 2774SOL    HW219956   0.445   1.420   1.886  1.1045  2.1027  0.1686
 2775SOL     OW19957   3.720   4.118  10.574  0.0502  0.1046 -0.2612
 2775SOL    HW119958   3.650   4.055  10.556 -0.8990  0.9187  0.5951
 2775SOL    HW219959   3.687   4.194  10.527  0.1569  0.4395  0.2026
 2776SOL     OW19960   4.718   3.684  14.064 -0.0932  0.1298 -0.2451
 2776SOL    HW119961   4.687   3.595  14.085 -2.5545  1.0319 -0.0833
 2776SOL    HW219962   4.713   3.731  14.147 -0.1263  0.3201 -0.3561
 2777SOL     OW19963   3.228   2.645   5.270 -0.5003  0.3242  0.1113
 2777SOL    HW119964   3.184   2.630   5.186  2.0345  0.0436 -1.1639
 2777SOL    HW219965   3.296   2.578   5.277 -1.5434 -0.6069  1.4741
 2778SOL     OW19966   2.016   4.272   6.031 -0.0714 -0.5450  0.3275
 2778SOL    HW119967   2.083   4.209   6.054  0.0910 -0.2706  0.6077
 2778SOL    HW219968   1.938   4.221   6.050 -1.4423  0.9281 -1.3299
 2779SOL     OW19969   2.893   1.467   2.538 -0.1842 -0.1039 -0.0052
 2779SOL    HW119970   2.807   1.503   2.558 -0.4765 -0.2683 -0.9587
 2779SOL    HW219971   2.948   1.545   2.550  0.3356 -0.8147  2.3008
 2780SOL     OW19972   1.934   0.766   5.630  0.2399 -0.5640  0.2946
 2780SOL    HW119973   1.845   0.748   5.660  0.2928 -0.4690  0.5107
 2780SOL    HW219974   1.969   0.678   5.616  0.8158 -0.1627 -0.8005
 2781SOL     OW19975   2.258   0.558   3.651 -0.0112 -0.6003 -0.4363
 2781SOL    HW119976   2.226   0.594   3.569  0.7394  1.7812  0.2943
 2781SOL    HW219977   2.181   0.554   3.707 -0.6840 -1.9880 -1.4590
 2782SOL     OW19978   0.625   2.268   7.463  0.5639 -0.9912  0.5117
 2782SOL    HW119979   0.567   2.325   7.414  0.8600 -2.1153 -1.1431
 2782SOL    HW219980   0.683   2.339   7.491  1.0073 -0.8874 -0.6889
 2783SOL     OW19981   0.502   2.916  17.710 -0.5650 -0.2825  0.1896
 2783SOL    HW119982   0.444   2.843  17.732 -1.3802 -0.3036 -2.0610
 2783SOL    HW219983   0.461   2.986   0.020 -3.1243 -2.3216  0.9437
 2784SOL     OW19984   2.507   1.050   5.331 -0.4716 -0.3189  0.3884
 2784SOL    HW119985   2.585   1.037   5.277 -0.9389 -1.3686 -0.0322
 2784SOL    HW219986   2.429   1.046   5.275  0.0146  0.7357 -0.3807
 2785SOL     OW19987   2.497   4.123   2.213 -0.0576 -0.2274 -0.6840
 2785SOL    HW119988   2.538   4.056   2.267 -1.0949 -0.3324 -0.0372
 2785SOL    HW219989   2.569   4.143   2.152 -1.8745  3.2349 -1.7318
 2786SOL     OW19990   1.257   4.286   8.285 -0.5238  0.2721  0.2391
 2786SOL    HW119991   1.196   4.214   8.276 -1.0297  0.7244  0.0375
 2786SOL    HW219992   1.222   4.327   8.365 -0.5686 -0.4561  0.5870
 2787SOL     OW19993   2.833   0.169  14.044 -0.7227  0.2109  0.0008
 2787SOL    HW119994   2.851   0.199  13.955  1.1170  0.2121  0.3813
 2787SOL    HW219995   2.876   0.085  14.029 -1.7723  0.4153 -4.0755
 2788SOL     OW19996   3.530   3.473   6.756  0.8879 -0.0569 -0.5692
 2788SOL    HW119997   3.462   3.430   6.808 -0.6608 -0.7595 -3.2145
 2788SOL    HW219998   3.500   3.461   6.666 -0.3160  0.8040 -0.2760
 2789SOL     OW19999   2.591   2.721   7.357  0.2666 -0.1029  0.0570
 2789SOL    HW120000   2.506   2.727   7.402  0.6343 -2.0848  1.0177
 2789SOL    HW220001   2.634   2.792   7.405 -0.7069  1.3112 -1.1787
 2790SOL     OW20002   1.429   4.314  15.350 -0.7662  0.3343  0.0102
 2790SOL    HW120003   1.505   4.263  15.320 -0.8250  0.7178 -0.7944
 2790SOL    HW220004   1.390   4.326  15.263 -0.1885 -3.0501 -0.7445
 2791SOL     OW20005   2.582   0.360  17.133  0.1412  0.5358 -0.2951
 2791SOL    HW120006   2.549   0.447  17.113 -0.2382  0.8192  1.5738
 2791SOL    HW220007   2.571   0.366  17.228 -0.1966  0.2617 -0.3156
 2792SOL     OW20008   2.398   0.443   3.399  0.3107  0.1325 -0.0438
 2792SOL    HW120009   2.303   0.433   3.405  0.3608 -0.3714 -0.1202
 2792SOL    HW220010   2.414   0.536   3.415 -0.6887  0.1891  0.6261
 2793SOL     OW20011   4.095   1.740   5.322  0.0990 -0.2173  0.0060
 2793SOL    HW120012   4.140   1.671   5.371 -0.8601 -1.2803 -0.6239
 2793SOL    HW220013   4.010   1.756   5.361 -1.3151 -0.9371 -2.8042
 2794SOL     OW20014   2.511   4.263   9.167  0.5572 -0.4606  0.5725
 2794SOL    HW120015   2.445   4.311   9.217  0.3375 -0.5303  0.3526
 2794SOL    HW220016   2.592   4.307   9.192  0.4551  0.4324 -0.6628
 2795SOL     OW20017   2.092   3.312   8.418 -0.7263  0.0246 -0.3919
 2795SOL    HW120018   2.104   3.373   8.345  0.9193 -1.0659 -1.0353
 2795SOL    HW220019   2.176   3.282   8.451  0.5164  0.5469 -3.0271
 2796SOL     OW20020   4.119   2.747   1.392 -0.4203  0.5597 -0.5668
 2796SOL    HW120021   4.173   2.668   1.384  0.5593  1.1493  0.0718
 2796SOL    HW220022   4.175   2.818   1.360 -0.5886  0.5353 -0.9038
 2797SOL     OW20023   1.768   2.096   2.957  0.2855  0.3931 -0.3743
 2797SOL    HW120024   1.852   2.122   2.995  0.9218  0.5086 -1.8925
 2797SOL    HW220025   1.730   2.184   2.958 -1.7990 -0.5119 -1.8045
 2798SOL     OW20026   2.380   0.687   8.652 -0.3942  0.1075 -0.1138
 2798SOL    HW120027   2.364   0.751   8.583  1.5056 -0.1452 -0.7772
 2798SOL    HW220028   2.445   0.730   8.707  0.9519 -1.3214 -0.6151
 2799SOL     OW20029   4.288   1.948   1.865 -0.1709  0.1845 -0.5648
 2799SOL    HW120030   4.299   1.942   1.960  0.8146  2.2905 -0.5550
 2799SOL    HW220031   4.291   2.042   1.851  0.8648  0.3579  0.8013
 2800SOL     OW20032   2.604   1.251   2.520  0.2495  0.1187  0.6510
 2800SOL    HW120033   2.540   1.229   2.451 -0.6212  2.4713  0.7049
 2800SOL    HW220034   2.554   1.217   2.594  0.6917 -2.8571 -0.3895
 2801SOL     OW20035   0.933   0.588   2.449 -0.2231  0.1844 -0.4239
 2801SOL    HW120036   0.933   0.503   2.492 -0.2846  0.0274 -0.7370
 2801SOL    HW220037   0.907   0.567   2.360 -0.9238  0.9765 -0.4122
 2802SOL     OW20038   1.126   1.643   6.510 -0.1784  0.2518 -0.6579
 2802SOL    HW120039   1.203   1.649   6.566  0.8424 -0.4555 -1.9857
 2802SOL    HW220040   1.068   1.709   6.549 -0.9398  0.5955 -2.4005
 2803SOL     OW20041   0.840   0.619   8.471 -0.3757 -0.0599  0.3178
 2803SOL    HW120042   0.837   0.534   8.514  0.2602 -0.0798  0.3330
 2803SOL    HW220043   0.817   0.682   8.539 -2.4866 -0.7904  0.2480
 2804SOL     OW20044   1.102   2.749   6.403 -0.1846  0.0653  0.0479
 2804SOL    HW120045   1.165   2.818   6.422  0.5562 -0.2704 -1.1449
 2804SOL    HW220046   1.030   2.801   6.367  0.9117  0.1747 -1.9872
 2805SOL     OW20047   2.420   0.017  10.041 -0.0281  0.0353 -0.0365
 2805SOL    HW120048   2.500   0.027  10.092 -1.5463  0.8213  2.1877
 2805SOL    HW220049   2.394   4.660  10.049 -1.2758  0.2672 -1.2161
 2806SOL     OW20050   4.591   1.790   5.884  0.1078 -0.0290  0.1713
 2806SOL    HW120051   4.518   1.742   5.846  0.2371 -1.3032  1.5223
 2806SOL    HW220052   4.610   1.859   5.820 -0.5116 -0.9566 -1.0320
 2807SOL     OW20053   4.007   3.419   5.643 -0.1486  0.6601  0.3957
 2807SOL    HW120054   4.010   3.490   5.707  0.5490  0.6978  0.3136
 2807SOL    HW220055   4.085   3.424   5.588  0.5960  0.3769  1.4325
 2808SOL     OW20056   2.516   2.497   4.011  0.3675  0.2696  0.6405
 2808SOL    HW120057   2.529   2.547   3.930 -0.4765 -1.1949 -0.3839
 2808SOL    HW220058   2.461   2.551   4.069 -0.5731  0.0300 -0.0381
 2809SOL     OW20059   1.641   3.935   9.408  1.1792  0.1696  0.0734
 2809SOL    HW120060   1.702   3.874   9.449  0.3802 -0.3157  0.5321
 2809SOL    HW220061   1.657   3.915   9.316 -1.2162 -0.3971 -0.2136
 2810SOL     OW20062   2.360   1.124   5.923  0.3883  0.0433 -0.9394
 2810SOL    HW120063   2.311   1.106   5.842 -0.1278  0.4999 -0.7299
 2810SOL    HW220064   2.359   1.219   5.916  0.3146  0.0657 -0.6432
 2811SOL     OW20065   2.917   4.322   7.428 -0.3111 -0.1247 -0.2493
 2811SOL    HW120066   2.824   4.299   7.430 -0.7372  1.6021  0.5880
 2811SOL    HW220067   2.960   4.246   7.467  1.9479  1.0876 -0.4069
 2812SOL     OW20068   3.565   0.119   0.019 -0.0264 -0.2345  0.0287
 2812SOL    HW120069   3.561   0.215   0.024 -1.0306 -0.1882 -1.8012
 2812SOL    HW220070   3.575   0.091   0.110 -0.0129 -0.0720  0.0768
 2813SOL     OW20071   1.427   1.992   6.043 -0.2643  0.2494  0.7343
 2813SOL    HW120072   1.477   2.070   6.067  2.5909 -1.0346 -1.1129
 2813SOL    HW220073   1.432   1.933   6.118 -0.6182 -0.6823  0.0309
 2814SOL     OW20074   1.989   3.555   4.487  0.1481  0.4673 -0.1124
 2814SOL    HW120075   1.940   3.531   4.409 -0.6346  0.7914  0.2858
 2814SOL    HW220076   1.922   3.573   4.554 -0.6492  0.7042 -0.9810
 2815SOL     OW20077   4.409   1.470   5.859 -0.5394  0.1170 -0.3856
 2815SOL    HW120078   4.473   1.446   5.926  0.0876  0.8035 -0.7472
 2815SOL    HW220079   4.437   1.547   5.811 -1.6068  0.7343 -0.0095
 2816SOL     OW20080   2.657   4.194  11.593 -0.7271  0.5500  0.3493
 2816SOL    HW120081   2.732   4.242  11.628 -0.8374 -0.3688  1.8570
 2816SOL    HW220082   2.674   4.106  11.627 -0.2654  0.9440  1.1539
 2817SOL     OW20083   1.269   0.504   6.267 -0.0310 -0.2388  0.1386
 2817SOL    HW120084   1.292   0.435   6.329  0.2742  0.8124  1.2134
 2817SOL    HW220085   1.330   0.476   6.199  0.8764 -0.2297  0.9467
 2818SOL     OW20086   1.511   3.281   9.072  0.4777  0.7844 -0.5044
 2818SOL    HW120087   1.565   3.352   9.106  1.3292  0.6235 -1.5236
 2818SOL    HW220088   1.437   3.339   9.059 -1.0536 -1.3759 -1.4497
 2819SOL     OW20089   3.164   3.359   6.331  0.1892 -0.0148 -0.0585
 2819SOL    HW120090   3.078   3.338   6.295 -0.4834 -1.0452  2.1586
 2819SOL    HW220091   3.161   3.453   6.311 -0.0207 -0.4535 -2.1620
 2820SOL     OW20092   4.727   0.155   9.494 -0.0979  0.1431 -0.2898
 2820SOL    HW120093   0.062   0.100   9.528 -0.9074 -1.2684 -0.9033
 2820SOL    HW220094   0.041   0.230   9.463  1.4115  0.5355  3.0857
 2821SOL     OW20095   4.326   2.256  15.593 -0.4507  0.3136 -0.3103
 2821SOL    HW120096   4.379   2.257  15.514  1.7780  3.0647  1.2456
 2821SOL    HW220097   4.355   2.177  15.640  0.0085 -0.4047 -1.7878
 2822SOL     OW20098   3.400   0.887   4.698 -0.1696  0.0051  0.3398
 2822SOL    HW120099   3.390   0.969   4.651 -0.2841 -0.8301 -1.1116
 2822SOL    HW220100   3.453   0.901   4.776  0.5966 -1.1719  0.0432
 2823SOL     OW20101   2.035   3.788   6.610 -0.3233  0.4889 -0.1562
 2823SOL    HW120102   2.116   3.745   6.583  0.4441  1.7908  0.0929
 2823SOL    HW220103   2.040   3.779   6.705 -1.3608 -2.0256 -0.3274
 2824SOL     OW20104   1.013   2.297   4.082 -0.0427 -0.3476 -0.1280
 2824SOL    HW120105   1.024   2.384   4.043  0.6706  0.7326  2.4832
 2824SOL    HW220106   0.936   2.314   4.136  0.1872 -0.8605  0.3520
 2825SOL     OW20107   1.290   2.833   1.977  0.2806  0.0175  0.1473
 2825SOL    HW120108   1.341   2.863   2.052 -0.1575 -1.9578  1.2380
 2825SOL    HW220109   1.275   2.741   1.997 -1.6804 -0.2268 -2.4076
 2826SOL     OW20110   3.069   0.212   8.772 -0.0371  0.0398  0.2134
 2826SOL    HW120111   3.001   0.258   8.822 -1.9494  0.3660 -2.7034
 2826SOL    HW220112   3.013   0.189   8.698 -1.3667 -0.2400  1.2976
 2827SOL     OW20113   2.412   3.774   8.624  0.2815  0.4119  0.0907
 2827SOL    HW120114   2.324   3.750   8.598  0.5441 -0.7576  0.2626
 2827SOL    HW220115   2.396   3.820   8.707  0.2640 -1.3505  1.0722
 2828SOL     OW20116   2.991   3.587   2.100  0.0450  0.1446 -0.1020
 2828SOL    HW120117   3.037   3.596   2.183 -2.0858 -2.0412  1.3365
 2828SOL    HW220118   2.996   3.492   2.091  2.2040  0.3110 -0.4939
 2829SOL     OW20119   2.737   3.550   2.041  0.5395  0.4617 -0.1196
 2829SOL    HW120120   2.828   3.576   2.051  0.7291 -0.6037  1.0217
 2829SOL    HW220121   2.752   3.459   2.015  0.4246  0.0455  1.2540
 2830SOL     OW20122   2.177   3.495   5.204  0.0178 -0.1006  0.4018
 2830SOL    HW120123   2.122   3.423   5.172 -1.2299 -0.0547  2.4298
 2830SOL    HW220124   2.179   3.547   5.123 -0.2319  0.9097  1.0507
 2831SOL     OW20125   3.257   1.648   5.572  0.1151 -0.2852  0.0127
 2831SOL    HW120126   3.257   1.566   5.622 -0.5568 -0.4209 -0.2102
 2831SOL    HW220127   3.253   1.610   5.484 -0.4261 -0.2138  0.0065
 2832SOL     OW20128   1.500   4.596   8.352 -0.4080 -0.1711  0.3542
 2832SOL    HW120129   1.413   4.635   8.355 -0.5214 -0.5667  2.1840
 2832SOL    HW220130   1.529   4.634   8.270 -1.3032 -2.2764 -0.9428
 2833SOL     OW20131   3.696   2.944   5.759  0.2141  0.1150 -0.2518
 2833SOL    HW120132   3.748   2.941   5.839  0.5951 -2.7791 -0.6269
 2833SOL    HW220133   3.738   2.879   5.703 -2.2609 -1.1478 -0.6163
 2834SOL     OW20134   3.263   0.266   5.087  0.1378  0.4768  0.4064
 2834SOL    HW120135   3.298   0.309   5.165  3.5976 -2.0242  0.2237
 2834SOL    HW220136   3.262   0.332   5.018 -0.0128  0.1627  0.1083
 2835SOL     OW20137   0.335   3.702   8.811  0.0670  0.2812  0.6357
 2835SOL    HW120138   0.287   3.623   8.784 -0.6628  1.2364 -0.8310
 2835SOL    HW220139   0.341   3.753   8.730  2.0101 -0.6069  0.2204
 2836SOL     OW20140   4.289   1.103   8.276 -0.0097  0.2893  0.3494
 2836SOL    HW120141   4.381   1.084   8.298 -0.2572  0.2170  1.3524
 2836SOL    HW220142   4.283   1.190   8.237  0.1915 -0.9888 -2.5246
 2837SOL     OW20143   1.941   2.080   4.399 -0.4281 -0.2781  0.1618
 2837SOL    HW120144   1.853   2.046   4.415  0.2242 -1.0261  2.1994
 2837SOL    HW220145   1.968   2.069   4.490  0.2908 -0.9171 -0.1327
 2838SOL     OW20146   4.706   0.374   7.051  0.0374 -0.8655  0.3710
 2838SOL    HW120147   0.023   0.342   7.125 -1.9614 -0.4745  1.9592
 2838SOL    HW220148   4.640   0.305   7.046  1.0654 -1.8812  0.5594
 2839SOL     OW20149   4.613   4.417   5.988 -0.3907 -0.7563 -0.0382
 2839SOL    HW120150   4.568   4.334   5.973 -1.7537  0.1309 -0.7924
 2839SOL    HW220151   4.699   4.388   5.957  0.8863  2.1145  0.8890
 2840SOL     OW20152   3.854   3.933   7.823 -0.1511 -0.2693 -0.4573
 2840SOL    HW120153   3.875   3.865   7.887  1.7954  2.0955  1.4489
 2840SOL    HW220154   3.929   3.992   7.838 -0.7612  0.0541  1.2921
 2841SOL     OW20155   4.655   3.278   5.751  0.3278  0.3056 -1.1176
 2841SOL    HW120156   4.701   3.196   5.769 -3.1617 -1.3943  0.0249
 2841SOL    HW220157   4.664   3.284   5.656 -2.0912 -0.5939 -1.3874
 2842SOL     OW20158   4.696   1.832   1.772  0.0755  0.3849  0.1975
 2842SOL    HW120159   0.019   1.797   1.838  0.7523 -2.5006 -1.9254
 2842SOL    HW220160   4.631   1.762   1.779  2.5102 -2.1139 -2.1722
 2843SOL     OW20161   1.468   3.105   0.883  0.6095  0.1647  0.2402
 2843SOL    HW120162   1.476   3.025   0.832 -1.0459 -0.6204  1.2193
 2843SOL    HW220163   1.501   3.172   0.824  0.2415  0.6011  0.5271
 2844SOL     OW20164   2.035   1.725   1.864 -0.3326 -0.3754  0.0168
 2844SOL    HW120165   1.984   1.718   1.783 -0.2822 -0.7399  0.0150
 2844SOL    HW220166   2.122   1.751   1.834 -0.4991  1.1689  0.8735
 2845SOL     OW20167   0.176   1.362   7.849 -0.2388  0.5409 -0.4390
 2845SOL    HW120168   0.249   1.340   7.790  0.4479  1.2886  0.1195
 2845SOL    HW220169   0.223   1.420   7.909  1.8473  0.2318 -1.7413
 2846SOL     OW20170   3.049   3.414   4.528  0.2523  0.0503  0.8047
 2846SOL    HW120171   3.004   3.337   4.492  0.2339  0.5543 -0.2672
 2846SOL    HW220172   3.070   3.379   4.614 -0.9345 -2.8633 -0.0724
 2847SOL     OW20173   2.270   0.604   4.679  0.1635  0.2829 -0.1401
 2847SOL    HW120174   2.176   0.605   4.696  0.1113 -0.4716 -0.4102
 2847SOL    HW220175   2.285   0.696   4.657 -1.2093  1.2874  3.1278
 2848SOL     OW20176   2.275   4.017  16.600 -0.0035 -1.1790 -0.1283
 2848SOL    HW120177   2.215   4.090  16.618  1.0127 -0.0798 -1.1966
 2848SOL    HW220178   2.293   4.022  16.507  2.8090  0.4410  0.5153
 2849SOL     OW20179   3.293   2.288   1.305  0.4065 -0.6580 -0.0689
 2849SOL    HW120180   3.204   2.321   1.296  0.4057 -0.3807  0.9111
 2849SOL    HW220181   3.300   2.253   1.216 -0.8142  1.5602 -1.0238
 2850SOL     OW20182   0.103   0.812   2.352 -0.2510 -0.0975 -0.0534
 2850SOL    HW120183   0.142   0.729   2.381 -1.4741  1.0235  4.8119
 2850SOL    HW220184   0.021   0.816   2.402 -0.2543 -1.3722  0.0642
 2851SOL     OW20185   0.190   2.292   7.510  0.1518  0.6067  0.4841
 2851SOL    HW120186   0.150   2.205   7.510 -0.3728  0.8341 -1.1359
 2851SOL    HW220187   0.124   2.340   7.460  0.0593 -0.9483 -0.9203
 2852SOL     OW20188   3.488   4.364  10.621 -0.4579 -0.1266 -0.2438
 2852SOL    HW120189   3.420   4.301  10.594  0.7671 -1.6594  0.2615
 2852SOL    HW220190   3.474   4.353  10.715  0.2239  1.4420  0.0392
 2853SOL     OW20191   4.500   1.660   1.854 -0.1726  0.4016  0.1845
 2853SOL    HW120192   4.481   1.610   1.934  1.6052 -2.6413 -1.3030
 2853SOL    HW220193   4.423   1.641   1.800 -1.8998  0.1167  2.7539
 2854SOL     OW20194   0.822   2.062   7.455 -0.1375  0.0496  0.2852
 2854SOL    HW120195   0.889   2.105   7.508  2.1944  0.0640 -2.6824
 2854SOL    HW220196   0.764   2.135   7.431 -1.3085 -1.1365 -0.4588
 2855SOL     OW20197   1.759   1.414   8.309  0.5727  0.2812  0.0778
 2855SOL    HW120198   1.723   1.455   8.230 -0.3502 -0.7251 -0.0225
 2855SOL    HW220199   1.845   1.456   8.306  0.2192  0.9002 -1.4547
 2856SOL     OW20200   3.774   0.221  14.099 -0.3730 -0.1044  0.0936
 2856SOL    HW120201   3.707   0.280  14.134  0.0242  0.5995 -0.3447
 2856SOL    HW220202   3.841   0.286  14.079 -0.3841 -0.7547 -2.0159
 2857SOL     OW20203   2.972   1.835   6.541 -0.0103  0.0776  0.0631
 2857SOL    HW120204   2.917   1.796   6.608 -0.4151  1.9116  0.8063
 2857SOL    HW220205   2.927   1.799   6.464  2.1668  2.6694 -2.4202
 2858SOL     OW20206   2.061   0.484   7.777 -0.3377  0.4749 -0.3452
 2858SOL    HW120207   2.035   0.462   7.866 -0.9920  3.9628  0.3262
 2858SOL    HW220208   1.975   0.490   7.735  0.1045 -0.2804 -1.3698
 2859SOL     OW20209   3.409   3.950   5.926 -0.0026 -0.4130  0.3915
 2859SOL    HW120210   3.451   4.036   5.917 -2.4882  0.7400 -0.2983
 2859SOL    HW220211   3.465   3.898   5.869 -0.8577 -0.5255 -0.3452
 2860SOL     OW20212   3.928   3.826  10.658  0.3428  0.4044 -0.3022
 2860SOL    HW120213   3.945   3.919  10.639  2.8847  0.1784  0.8902
 2860SOL    HW220214   3.942   3.831  10.752 -0.1449 -2.3430 -0.1049
 2861SOL     OW20215   3.865   3.375  10.831  0.1259 -0.1868  0.7442
 2861SOL    HW120216   3.875   3.375  10.736  0.2814  1.7240  0.7626
 2861SOL    HW220217   3.930   3.305  10.840  1.3828  0.8282 -0.5712
 2862SOL     OW20218   1.570   0.554   4.534  0.1616  0.4327  0.2536
 2862SOL    HW120219   1.487   0.560   4.487  0.8095  1.5410 -0.7609
 2862SOL    HW220220   1.594   0.462   4.523  1.8061  0.9286 -0.2515
 2863SOL     OW20221   0.864   3.013   6.592 -0.1987 -0.2360 -0.5177
 2863SOL    HW120222   0.805   2.979   6.659 -0.8214  0.8670 -0.5134
 2863SOL    HW220223   0.875   2.937   6.535  1.1565 -0.0137 -0.5567
 2864SOL     OW20224   3.114   4.377   9.376  0.3527 -0.1210  0.8057
 2864SOL    HW120225   3.176   4.395   9.306  0.3041  0.1071  0.8222
 2864SOL    HW220226   3.128   4.284   9.392 -0.2860  0.0460  2.3842
 2865SOL     OW20227   1.688   2.371   7.787  0.4153 -0.5571 -0.4078
 2865SOL    HW120228   1.669   2.456   7.747  2.1498 -0.7117 -1.5465
 2865SOL    HW220229   1.634   2.359   7.865 -0.2142 -1.6580 -1.0067
 2866SOL     OW20230   4.192   3.025  12.168 -0.0012  0.4377 -0.4099
 2866SOL    HW120231   4.259   3.003  12.104  1.6887  0.8011  1.2423
 2866SOL    HW220232   4.119   2.989  12.118 -0.2027  2.8671 -1.8791
 2867SOL     OW20233   1.784   1.939   7.096  0.3733  0.6267 -0.3481
 2867SOL    HW120234   1.717   1.958   7.163 -0.3730  0.6925 -1.1154
 2867SOL    HW220235   1.732   1.930   7.016  0.7991 -1.4298 -0.3919
 2868SOL     OW20236   1.395   1.489   5.987  0.0579  0.1298  0.7214
 2868SOL    HW120237   1.339   1.557   6.025  0.4197  1.2588 -0.7629
 2868SOL    HW220238   1.374   1.414   6.043  1.8672 -1.8801 -1.3314
 2869SOL     OW20239   0.758   3.284  10.064  0.2072  0.0293 -0.3030
 2869SOL    HW120240   0.745   3.378  10.053  2.4199  0.6157  2.2617
 2869SOL    HW220241   0.807   3.280  10.146 -1.1461 -1.9026  0.4096
 2870SOL     OW20242   1.503   4.477   7.930 -0.1263 -0.0060 -0.3069
 2870SOL    HW120243   1.586   4.519   7.949 -2.1945  3.5814  0.9128
 2870SOL    HW220244   1.523   4.413   7.862 -1.2831 -1.0923  0.3686
 2871SOL     OW20245   2.575   2.374   8.573  0.6179 -0.1159  0.1974
 2871SOL    HW120246   2.542   2.374   8.663  0.9398 -2.4776  0.3258
 2871SOL    HW220247   2.491   2.372   8.527  0.0585 -1.1005  1.2448
 2872SOL     OW20248   0.610   2.193   1.504 -0.1263  0.1207  0.1824
 2872SOL    HW120249   0.702   2.170   1.514 -0.2058  0.2607  1.2096
 2872SOL    HW220250   0.575   2.123   1.558 -0.1716  0.2791  0.3591
 2873SOL     OW20251   3.779   3.740   5.914 -0.1883  0.0638  0.1846
 2873SOL    HW120252   3.803   3.688   5.837 -0.6826 -0.5272  0.4341
 2873SOL    HW220253   3.685   3.748   5.897 -0.2890 -0.4756  0.4779
 2874SOL     OW20254   2.350   1.255   3.371 -0.1829  0.7297  0.4178
 2874SOL    HW120255   2.423   1.314   3.351 -0.9364  0.7985 -2.1862
 2874SOL    HW220256   2.287   1.253   3.299  1.9336  0.2225 -1.4302
 2875SOL     OW20257   4.354   1.436  15.647  0.3618  0.2080 -0.1235
 2875SOL    HW120258   4.269   1.429  15.605  1.4100  1.1642 -2.3658
 2875SOL    HW220259   4.417   1.440  15.575 -0.4465  0.1492 -0.8287
 2876SOL     OW20260   1.440   1.968   4.213  0.6722 -0.6157 -0.0636
 2876SOL    HW120261   1.389   1.950   4.292 -0.2860 -1.0893 -0.8017
 2876SOL    HW220262   1.379   2.012   4.154  1.3794 -1.9732 -1.7879
 2877SOL     OW20263   3.826   2.616   1.374  0.1214  0.0400  0.1890
 2877SOL    HW120264   3.895   2.587   1.435  0.5764  2.1425  0.6684
 2877SOL    HW220265   3.874   2.646   1.297  0.4536  0.8867  0.7179
 2878SOL     OW20266   4.064   0.990   2.223 -0.4476 -0.0801  0.2427
 2878SOL    HW120267   4.105   0.915   2.180  0.4235  0.8435 -0.5343
 2878SOL    HW220268   4.133   1.016   2.284 -0.3207 -0.0263  0.0758
 2879SOL     OW20269   0.685   4.667  10.132  0.0749 -0.0667  0.1797
 2879SOL    HW120270   0.765   4.719  10.144  0.2344 -0.1118 -0.7320
 2879SOL    HW220271   0.658   4.704  10.049  0.3687  0.2124  0.2052
 2880SOL     OW20272   3.009   2.591   4.617  0.6162 -0.3109  0.3465
 2880SOL    HW120273   2.982   2.499   4.617 -1.3157  0.2600  0.6171
 2880SOL    HW220274   2.933   2.649   4.613  1.2640  0.4041 -1.7103
 2881SOL     OW20275   0.933   4.090   1.813  0.1608  0.2231  0.0569
 2881SOL    HW120276   0.880   4.120   1.887  0.4851  1.0645 -0.0474
 2881SOL    HW220277   0.878   4.034   1.758  0.2433  1.1328 -0.9538
 2882SOL     OW20278   2.566   0.144   4.520 -0.1015  0.2182 -0.1363
 2882SOL    HW120279   2.498   0.094   4.564  0.9821 -1.9843 -0.9791
 2882SOL    HW220280   2.514   0.224   4.510 -1.5633 -0.7052 -0.0028
 2883SOL     OW20281   3.393   0.252   4.387 -0.0532  0.0089  0.0549
 2883SOL    HW120282   3.393   0.303   4.306  2.0422  0.5036  0.3668
 2883SOL    HW220283   3.435   0.306   4.453 -2.4289  1.3621  0.4487
 2884SOL     OW20284   1.242   3.154   5.350 -0.3734  0.4716 -0.5010
 2884SOL    HW120285   1.282   3.162   5.264  0.2303 -0.5422 -0.3222
 2884SOL    HW220286   1.165   3.097   5.349 -1.5110  2.0051  0.7975
 2885SOL     OW20287   0.787   4.199   3.545 -0.3604 -0.2381  0.1822
 2885SOL    HW120288   0.819   4.225   3.631  0.0547 -0.3561  0.0649
 2885SOL    HW220289   0.867   4.203   3.493  0.1530  0.5432  1.0365
 2886SOL     OW20290   3.015   4.223   8.037  0.2018  0.7687 -0.1829
 2886SOL    HW120291   2.961   4.217   8.116  0.2401 -1.8500 -0.3485
 2886SOL    HW220292   2.989   4.312   8.011 -0.4707  0.5194 -0.3612
 2887SOL     OW20293   2.591   3.947   2.441 -0.3265  0.1293  0.0362
 2887SOL    HW120294   2.522   3.898   2.485  0.7441 -1.4750 -0.0943
 2887SOL    HW220295   2.626   4.001   2.511 -0.4385  1.6529 -1.0743
 2888SOL     OW20296   1.571   2.848   2.393  0.5659  0.2121  0.2906
 2888SOL    HW120297   1.544   2.769   2.346 -0.2418 -0.3000  1.6056
 2888SOL    HW220298   1.495   2.872   2.446  2.1749  0.1746  2.5876
 2889SOL     OW20299   3.740   1.137   3.579 -0.1507  0.2637  0.3303
 2889SOL    HW120300   3.781   1.221   3.562 -0.2651  0.1475 -0.5214
 2889SOL    HW220301   3.759   1.134   3.673  0.1920 -1.0732  0.2191
 2890SOL     OW20302   4.214   3.796   3.214  0.0604 -0.2261 -0.0242
 2890SOL    HW120303   4.290   3.824   3.266  1.4607 -0.7023 -1.8065
 2890SOL    HW220304   4.193   3.719   3.266  0.8090 -0.3797  0.0509
 2891SOL     OW20305   3.559   1.533   4.287 -1.0800  1.0467  0.2296
 2891SOL    HW120306   3.536   1.617   4.327  0.8195  1.0644  1.2930
 2891SOL    HW220307   3.638   1.563   4.241 -0.1315 -2.6024 -0.5482
 2892SOL     OW20308   3.565   1.651   3.742 -0.9685  0.1425  0.3014
 2892SOL    HW120309   3.583   1.603   3.823 -0.3111 -2.3681 -1.3430
 2892SOL    HW220310   3.531   1.594   3.673  0.1952 -0.7554  0.4586
 2893SOL     OW20311   1.733   4.721   2.968  0.3741  0.4767  0.1684
 2893SOL    HW120312   1.735   4.631   3.001  0.8156  0.1733 -0.6686
 2893SOL    HW220313   1.656   0.024   3.009 -0.1692 -1.5625  1.0453
 2894SOL     OW20314   3.901   2.370   0.772  0.8023 -0.1764  0.6319
 2894SOL    HW120315   3.918   2.357   0.679  1.9737  0.7910  0.7147
 2894SOL    HW220316   3.806   2.374   0.774  0.7385 -0.9026 -1.2419
 2895SOL     OW20317   3.529   2.848   3.444 -0.4556 -0.2322  0.2541
 2895SOL    HW120318   3.601   2.852   3.507 -0.9239 -1.1365  0.8599
 2895SOL    HW220319   3.520   2.942   3.429  1.0442  0.0547  1.1540
 2896SOL     OW20320   0.912   3.151   2.576  0.1470  0.6173  0.7970
 2896SOL    HW120321   0.859   3.132   2.498  1.2424  0.3269  0.1233
 2896SOL    HW220322   0.968   3.074   2.579 -0.6852  0.1936  5.1659
 2897SOL     OW20323   1.802   4.085  12.232  0.2960  0.0046 -0.2380
 2897SOL    HW120324   1.852   4.004  12.242 -1.0857 -0.6543  1.2560
 2897SOL    HW220325   1.839   4.113  12.148  1.3255  1.8969  0.8413
 2898SOL     OW20326   1.764   4.682   9.766  0.1943 -0.1049 -0.5266
 2898SOL    HW120327   1.812   4.679   9.683  2.6916  0.4498  0.8979
 2898SOL    HW220328   1.836   4.682   9.829 -2.0458 -1.1001  2.0463
 2899SOL     OW20329   0.493   2.592   8.730 -0.3426 -0.4067  0.0470
 2899SOL    HW120330   0.526   2.605   8.641 -3.3295 -0.9458 -1.1383
 2899SOL    HW220331   0.406   2.554   8.715 -1.0512  1.9838 -1.7947
 2900SOL     OW20332   2.851   1.378   6.608 -0.3281 -0.0728 -0.3099
 2900SOL    HW120333   2.823   1.349   6.695 -0.6567 -0.6059 -0.5944
 2900SOL    HW220334   2.877   1.295   6.569  0.0740 -0.9495  1.8151
 2901SOL     OW20335   2.255   2.680  11.469 -0.5010  0.2575  0.0802
 2901SOL    HW120336   2.293   2.660  11.384  0.3259 -2.8580  1.1748
 2901SOL    HW220337   2.326   2.721  11.518 -1.6826  0.1186  1.9267
 2902SOL     OW20338   1.353   2.619   7.220 -0.0355  0.3636  0.3273
 2902SOL    HW120339   1.447   2.608   7.207  0.1309  2.2508 -0.0014
 2902SOL    HW220340   1.355   2.700   7.271 -1.2287  0.9414 -0.5541
 2903SOL     OW20341   3.267   2.530   1.518 -0.0995 -0.1046  0.6436
 2903SOL    HW120342   3.273   2.502   1.426  2.1708 -0.0215  0.7540
 2903SOL    HW220343   3.182   2.488   1.533 -0.5825  1.2209  1.5638
 2904SOL     OW20344   0.080   2.092  11.030  0.1468 -0.0859  0.1735
 2904SOL    HW120345   0.141   2.062  10.963  1.2372  4.1566 -0.7425
 2904SOL    HW220346   0.120   2.047  11.104  1.2487  0.9932  0.2361
 2905SOL     OW20347   0.980   3.840   5.066 -0.4232 -0.3329  0.8060
 2905SOL    HW120348   1.007   3.929   5.089 -0.8379  0.0882 -0.3323
 2905SOL    HW220349   0.884   3.848   5.068 -0.4003 -0.2199  1.7025
 2906SOL     OW20350   3.913   1.276   5.142 -0.5953 -0.2690  0.1132
 2906SOL    HW120351   3.827   1.261   5.182 -0.9903 -0.9795 -0.9730
 2906SOL    HW220352   3.896   1.277   5.047  0.8288  3.0693 -0.1047
 2907SOL     OW20353   4.623   4.429  11.690  0.4290  0.4045  0.5275
 2907SOL    HW120354   4.708   4.390  11.710 -0.0489 -2.2334 -2.7318
 2907SOL    HW220355   4.633   4.463  11.602  0.3651 -1.3142 -0.1354
 2908SOL     OW20356   3.909   0.816   3.331 -0.5353  0.0726  0.3730
 2908SOL    HW120357   3.991   0.811   3.380  0.3184 -1.4512 -1.1998
 2908SOL    HW220358   3.912   0.723   3.305 -0.2958 -0.1195  1.0915
 2909SOL     OW20359   4.604   2.963   6.501 -0.3157 -0.0546 -0.2049
 2909SOL    HW120360   4.640   3.050   6.519 -2.0077  1.0056 -1.9393
 2909SOL    HW220361   4.667   2.921   6.560  2.2433  1.2532 -2.0169
 2910SOL     OW20362   2.451   0.369   8.880 -0.3130 -0.0380  0.5239
 2910SOL    HW120363   2.374   0.342   8.929 -0.8026  1.3371  0.5142
 2910SOL    HW220364   2.420   0.349   8.791  0.9948  1.2815 -0.2330
 2911SOL     OW20365   0.909   0.280   5.112  0.2000  0.1263  0.3301
 2911SOL    HW120366   0.937   0.257   5.201 -0.6506  0.0195  0.5758
 2911SOL    HW220367   0.931   0.373   5.103  0.0758 -0.3179 -4.6314
 2912SOL     OW20368   3.498   3.325  11.484 -0.3895  0.9779  0.3711
 2912SOL    HW120369   3.457   3.411  11.498  0.1673  0.8126  3.0837
 2912SOL    HW220370   3.563   3.342  11.415 -0.6669  0.7965  0.0685
 2913SOL     OW20371   3.511   3.882  16.543 -0.8783  0.0259  0.4305
 2913SOL    HW120372   3.549   3.809  16.592  1.6768  0.0359 -1.5197
 2913SOL    HW220373   3.433   3.845  16.501 -1.3365 -0.3303  1.6027
 2914SOL     OW20374   2.247   3.124  12.649 -0.4619 -0.5064  0.6405
 2914SOL    HW120375   2.339   3.137  12.672 -0.6354 -1.1661  1.7232
 2914SOL    HW220376   2.211   3.212  12.658  1.1039  0.0921  1.1092
 2915SOL     OW20377   4.447   4.047   6.378  0.8955 -0.5148 -0.5951
 2915SOL    HW120378   4.358   4.073   6.402  0.0651 -1.8449 -2.1793
 2915SOL    HW220379   4.492   4.045   6.462 -0.2933 -2.7899 -0.0247
 2916SOL     OW20380   0.795   1.070  15.118 -0.4297 -0.5084  0.1884
 2916SOL    HW120381   0.720   1.108  15.073  0.0202 -1.6136 -1.5105
 2916SOL    HW220382   0.770   1.068  15.210  2.5512 -0.5710  0.9904
 2917SOL     OW20383   1.714   1.167   8.457  0.3500 -0.1227  0.3384
 2917SOL    HW120384   1.736   1.239   8.397 -0.5439 -0.1771 -0.0541
 2917SOL    HW220385   1.630   1.203   8.486  0.1770  1.2080 -1.7737
 2918SOL     OW20386   0.088   3.930   9.078 -0.0723 -0.2398 -0.0896
 2918SOL    HW120387   0.019   3.877   9.040 -0.3989 -0.8114  1.3152
 2918SOL    HW220388   0.156   3.864   9.091 -0.5349 -0.4766  1.1361
 2919SOL     OW20389   0.347   0.518  15.816 -0.1985 -0.4642  0.1102
 2919SOL    HW120390   0.383   0.430  15.824  0.1501 -0.2078  1.4142
 2919SOL    HW220391   0.304   0.513  15.731  2.0147 -0.1177 -1.0176
 2920SOL     OW20392   1.438   1.418  17.724 -0.0058 -0.1659  0.2961
 2920SOL    HW120393   1.422   1.325  17.712  0.6357 -0.6064  2.8156
 2920SOL    HW220394   1.424   1.459  17.639  0.1998 -0.0917  0.2976
 2921SOL     OW20395   2.100   1.728   2.311 -0.1455 -0.0801  0.0735
 2921SOL    HW120396   2.098   1.795   2.243  0.9438  1.2438  1.3439
 2921SOL    HW220397   2.123   1.652   2.258  0.1875  0.0836 -0.0148
 2922SOL     OW20398   1.035   2.284   0.615  0.0085  0.0750  0.0548
 2922SOL    HW120399   1.049   2.340   0.539 -0.3755 -0.1127 -0.1496
 2922SOL    HW220400   1.020   2.354   0.679  0.2336 -1.9541  2.3139
 2923SOL     OW20401   3.195   3.684   7.607 -0.9533  0.8583  0.4768
 2923SOL    HW120402   3.190   3.692   7.512  0.7465 -0.7275  0.2598
 2923SOL    HW220403   3.291   3.683   7.613 -0.9242 -2.7352 -0.8372
 2924SOL     OW20404   0.216   4.114  11.881  0.5628  0.5651 -0.1303
 2924SOL    HW120405   0.293   4.156  11.917 -0.3619  0.2247  2.2179
 2924SOL    HW220406   0.239   4.023  11.899  1.8616  0.9479  0.1136
 2925SOL     OW20407   1.078   3.192   8.548  0.1433 -0.0689 -0.0925
 2925SOL    HW120408   1.150   3.236   8.503  0.6069 -1.7316 -0.9983
 2925SOL    HW220409   1.120   3.144   8.620 -0.2972  0.4067  0.4796
 2926SOL     OW20410   3.943   3.566   8.925 -0.2896  0.1329  0.3264
 2926SOL    HW120411   4.020   3.604   8.968 -2.1511  3.2909  0.8454
 2926SOL    HW220412   3.937   3.488   8.981  0.7021  1.9686  2.9921
 2927SOL     OW20413   1.518   0.023  16.629  0.5990  0.4342  0.1177
 2927SOL    HW120414   1.472   4.676  16.647 -1.2800  1.3612 -0.3819
 2927SOL    HW220415   1.513   0.034  16.534 -2.3478 -0.5655  0.1634
 2928SOL     OW20416   1.536   3.194  16.884 -0.2354  0.1638  0.5592
 2928SOL    HW120417   1.540   3.121  16.946 -1.6742  1.5962  2.3646
 2928SOL    HW220418   1.616   3.244  16.901 -0.6415  1.7446 -2.2735
 2929SOL     OW20419   1.345   2.596   2.934 -0.0029  0.2794  0.4135
 2929SOL    HW120420   1.389   2.656   2.873 -1.5233 -1.1429 -2.0829
 2929SOL    HW220421   1.285   2.657   2.976  0.4809  1.2664 -0.3080
 2930SOL     OW20422   2.951   1.667   5.355  0.1894  0.5634 -0.8653
 2930SOL    HW120423   2.990   1.652   5.269 -1.4984  0.1825 -1.5490
 2930SOL    HW220424   2.900   1.744   5.330  1.5366  2.3652  1.9262
 2931SOL     OW20425   1.059   3.062   2.216  0.0793 -0.4054 -0.1859
 2931SOL    HW120426   0.969   3.056   2.249 -0.7832 -0.6754 -2.5921
 2931SOL    HW220427   1.063   2.985   2.159 -1.1449 -0.4873 -0.1672
 2932SOL     OW20428   1.043   0.810  11.589 -0.2955  0.2622  0.8534
 2932SOL    HW120429   0.954   0.815  11.553 -0.0957 -3.6066 -0.1531
 2932SOL    HW220430   1.065   0.717  11.578  0.6426  0.6525 -0.5182
 2933SOL     OW20431   2.808   0.485  13.591 -0.7208 -0.5714  0.0242
 2933SOL    HW120432   2.737   0.516  13.534  0.4413  1.1734 -0.4793
 2933SOL    HW220433   2.787   0.531  13.672  2.4757 -0.1953  0.6323
 2934SOL     OW20434   2.202   0.197   9.244 -0.6892  1.0677  0.5693
 2934SOL    HW120435   2.263   0.257   9.286 -0.5423  2.8442 -2.1419
 2934SOL    HW220436   2.192   0.237   9.158 -0.4470  1.5886  0.7818
 2935SOL     OW20437   1.364   3.539   2.557 -0.7638 -0.2056 -0.2407
 2935SOL    HW120438   1.433   3.606   2.549 -1.2543  0.3455  0.1137
 2935SOL    HW220439   1.398   3.469   2.502  1.2975 -0.8379  1.8216
 2936SOL     OW20440   2.871   4.472   3.529 -0.0767 -0.4243 -0.2116
 2936SOL    HW120441   2.892   4.515   3.611 -1.2646 -1.0524  0.4239
 2936SOL    HW220442   2.908   4.523   3.457 -0.8591  1.8718  1.0104
 2937SOL     OW20443   3.742   2.285   8.709  0.0127  0.2921 -0.8904
 2937SOL    HW120444   3.772   2.342   8.638  1.0572 -0.3261 -0.9372
 2937SOL    HW220445   3.816   2.284   8.769 -1.8263 -0.0900  1.3457
 2938SOL     OW20446   2.799   1.416   1.799  0.2351 -0.4076  0.1526
 2938SOL    HW120447   2.844   1.369   1.729 -1.1342  0.1824 -1.1037
 2938SOL    HW220448   2.872   1.471   1.829  0.7022  0.3329 -2.3575
 2939SOL     OW20449   0.514   4.039  11.735 -0.3756 -0.1475 -0.5321
 2939SOL    HW120450   0.543   4.115  11.685  0.0660 -0.1149 -0.2228
 2939SOL    HW220451   0.485   4.080  11.817  1.3082  2.2636 -1.1498
 2940SOL     OW20452   4.025   4.236   1.125  0.3560  0.4240 -0.2695
 2940SOL    HW120453   4.026   4.188   1.208 -1.1641  0.3862 -0.2693
 2940SOL    HW220454   3.945   4.282   1.152 -0.5452 -1.5281  0.3845
 2941SOL     OW20455   0.769   1.364   9.407 -0.1894 -0.4251 -0.4443
 2941SOL    HW120456   0.792   1.440   9.353 -0.3753 -1.0826 -1.4593
 2941SOL    HW220457   0.701   1.321   9.355 -1.2147  0.0854  0.4851
 2942SOL     OW20458   3.330   1.569   8.490 -0.0683 -0.3302 -0.5297
 2942SOL    HW120459   3.283   1.649   8.465  0.7884  0.6764  1.0418
 2942SOL    HW220460   3.419   1.591   8.460 -0.1151 -3.5698 -2.9695
 2943SOL     OW20461   0.445   0.956  16.619  0.1302 -0.3404 -0.4336
 2943SOL    HW120462   0.439   0.884  16.682 -0.2889  1.0419  1.0998
 2943SOL    HW220463   0.448   0.907  16.536 -1.2830  1.3928 -1.4997
 2944SOL     OW20464   0.800   0.104   6.982 -0.3035  0.2641 -0.5504
 2944SOL    HW120465   0.729   0.082   6.921 -1.9063  2.5496  0.4943
 2944SOL    HW220466   0.792   0.199   6.974  0.8276  0.4587  0.7628
 2945SOL     OW20467   1.160   3.263  12.460  0.0973 -0.1460 -0.8007
 2945SOL    HW120468   1.079   3.218  12.484 -0.7517  2.1243  0.6504
 2945SOL    HW220469   1.202   3.275  12.545 -2.4935  1.2508  0.2799
 2946SOL     OW20470   2.650   0.791   4.111 -0.0859 -0.8177  0.0356
 2946SOL    HW120471   2.561   0.778   4.145 -0.7359 -2.6319 -2.3898
 2946SOL    HW220472   2.646   0.881   4.081 -1.8987 -0.3591  1.6421
 2947SOL     OW20473   4.565   1.505   3.375  0.7158 -0.3263  0.3923
 2947SOL    HW120474   4.561   1.438   3.442 -2.3348 -0.7276 -0.1662
 2947SOL    HW220475   4.642   1.474   3.328  0.4738 -2.0412  1.1553
 2948SOL     OW20476   1.693   4.214  14.969 -0.0323 -0.1074  0.5886
 2948SOL    HW120477   1.707   4.266  15.048  2.4585 -1.2018  0.8500
 2948SOL    HW220478   1.756   4.252  14.908 -2.2875  2.9443  0.1739
 2949SOL     OW20479   3.058   4.257  17.115 -0.0096 -0.6613  0.6370
 2949SOL    HW120480   2.964   4.259  17.099  0.3147  2.1080 -1.0019
 2949SOL    HW220481   3.049   4.186  17.178 -0.3599 -0.0045  1.3295
 2950SOL     OW20482   4.076   1.469   4.192 -0.0233 -0.0757 -0.1287
 2950SOL    HW120483   4.154   1.524   4.204 -0.1173 -0.0644  0.4410
 2950SOL    HW220484   4.083   1.463   4.097  2.9795  3.0335 -0.1334
 2951SOL     OW20485   0.269   3.017   9.957  0.3977  0.5605  0.1278
 2951SOL    HW120486   0.235   3.073   9.887 -1.4630  0.9013  1.3050
 2951SOL    HW220487   0.360   3.042   9.971  0.3695 -0.0404  1.3441
 2952SOL     OW20488   1.019   4.307   3.427 -0.4334 -0.4944 -0.2665
 2952SOL    HW120489   0.993   4.385   3.475  1.7925 -0.0636  0.2273
 2952SOL    HW220490   1.103   4.342   3.397 -0.7543  0.5993  0.1160
 2953SOL     OW20491   3.530   1.864   8.649 -0.1841 -0.1435 -0.1994
 2953SOL    HW120492   3.572   1.780   8.634 -0.2313 -0.3963  1.0554
 2953SOL    HW220493   3.556   1.874   8.741  2.8265 -1.6300 -0.8816
 2954SOL     OW20494   1.284   4.110   6.946  0.6041  0.1391  0.3213
 2954SOL    HW120495   1.210   4.051   6.932  1.0985 -0.1830 -0.8858
 2954SOL    HW220496   1.253   4.186   6.897 -1.4731 -1.1712 -0.3697
 2955SOL     OW20497   2.020   4.419   0.721  0.0252 -0.5191  0.3743
 2955SOL    HW120498   1.931   4.385   0.712  0.3015 -0.8039 -1.2233
 2955SOL    HW220499   2.068   4.338   0.706 -0.6382 -1.1401  1.6190
 2956SOL     OW20500   3.966   4.236   6.613 -0.0519 -0.3055 -0.0261
 2956SOL    HW120501   3.901   4.175   6.648  0.0622 -2.0783 -2.9374
 2956SOL    HW220502   3.962   4.305   6.680 -0.7165 -1.8759  1.5489
 2957SOL     OW20503   3.914   2.050  10.774  0.0840 -0.4913  0.4315
 2957SOL    HW120504   3.903   2.129  10.826  0.1208 -0.2963  0.1431
 2957SOL    HW220505   3.966   2.095  10.707 -0.7354 -0.1134  0.0526
 2958SOL     OW20506   2.884   0.307   3.499 -0.4834  0.6204  0.2010
 2958SOL    HW120507   2.835   0.389   3.504  0.3118  1.0246  1.2802
 2958SOL    HW220508   2.953   0.326   3.562 -0.2128 -0.3970  0.2041
 2959SOL     OW20509   1.866   0.354   6.817 -0.2634  0.0759 -0.6143
 2959SOL    HW120510   1.917   0.411   6.759  0.3007  0.7109  0.4908
 2959SOL    HW220511   1.937   0.292   6.833  0.6499  1.1161 -0.6546
 2960SOL     OW20512   1.097   2.012   0.627 -0.3266  0.2379 -0.2057
 2960SOL    HW120513   1.093   2.107   0.633 -1.8894  0.2682 -2.0665
 2960SOL    HW220514   1.096   1.987   0.720 -1.6418  1.3617  0.0790
 2961SOL     OW20515   1.438   3.535   8.188 -0.8422  0.3184 -0.0893
 2961SOL    HW120516   1.455   3.624   8.221 -0.2577  0.4531 -0.7424
 2961SOL    HW220517   1.492   3.482   8.245 -1.4936 -1.0263 -0.7365
 2962SOL     OW20518   3.580   2.581  16.092 -0.0006 -0.2262 -0.0032
 2962SOL    HW120519   3.623   2.637  16.027  2.0464  0.9805  2.3629
 2962SOL    HW220520   3.500   2.633  16.106 -0.6881 -0.7900 -1.9155
 2963SOL     OW20521   3.768   2.241   7.875  0.0461  0.3480 -0.4343
 2963SOL    HW120522   3.787   2.287   7.793  0.1282 -0.4251 -0.8433
 2963SOL    HW220523   3.835   2.291   7.922 -0.2899  0.4412 -0.0493
 2964SOL     OW20524   1.384   4.323   6.576 -0.7292 -0.0912 -0.1796
 2964SOL    HW120525   1.331   4.403   6.582 -2.2260 -1.0846 -0.0083
 2964SOL    HW220526   1.471   4.358   6.559 -1.5537  2.4065  0.8058
 2965SOL     OW20527   2.195   3.076   1.900  0.7141  0.1738  0.3744
 2965SOL    HW120528   2.115   3.129   1.905  0.4772 -0.2418  0.9093
 2965SOL    HW220529   2.182   3.013   1.970  0.5678  0.4399  0.5884
 2966SOL     OW20530   0.226   4.097   8.852  0.1349 -0.0608 -0.3830
 2966SOL    HW120531   0.220   4.072   8.944  0.7275 -0.3949 -0.4320
 2966SOL    HW220532   0.316   4.066   8.837 -0.2497 -0.7594 -1.2888
 2967SOL     OW20533   2.246   4.541   7.423 -0.4507  0.1693 -0.1060
 2967SOL    HW120534   2.268   4.535   7.330  2.7176 -0.2759  0.6739
 2967SOL    HW220535   2.151   4.538   7.414 -0.5915  1.3103  1.0704
 2968SOL     OW20536   1.870   4.005   0.845  0.1261 -0.1024 -0.2669
 2968SOL    HW120537   1.915   3.926   0.815  0.8197  0.4524 -0.6873
 2968SOL    HW220538   1.941   4.061   0.875  0.6328 -0.1620 -1.3763
 2969SOL     OW20539   3.901   0.392   4.500  0.2457 -0.1160  0.6683
 2969SOL    HW120540   3.847   0.466   4.528 -0.7387 -0.4677 -0.2980
 2969SOL    HW220541   3.902   0.422   4.409  0.3994  0.1993  0.7745
 2970SOL     OW20542   3.766   1.027   4.781  0.1078 -0.0726  0.9868
 2970SOL    HW120543   3.792   0.935   4.780  0.0947 -0.0611 -0.2933
 2970SOL    HW220544   3.726   1.031   4.868 -0.0836  0.5594  0.8719
 2971SOL     OW20545   1.479   0.110   7.798  0.2156  0.1632 -0.7398
 2971SOL    HW120546   1.408   0.150   7.748  2.0508  0.9364 -2.7301
 2971SOL    HW220547   1.431   0.050   7.855  0.6145  0.1507 -0.4196
 2972SOL     OW20548   2.076   1.254   7.274  0.5309  0.8066 -0.0663
 2972SOL    HW120549   2.096   1.346   7.256  0.3762  0.6437 -1.0775
 2972SOL    HW220550   1.990   1.271   7.311 -1.4522 -2.3917 -3.1997
 2973SOL     OW20551   3.195   4.372   7.827 -0.1240  0.4842 -0.0185
 2973SOL    HW120552   3.166   4.362   7.736  2.2576 -1.2242 -0.5987
 2973SOL    HW220553   3.110   4.355   7.867 -0.6453 -0.2019 -1.3921
 2974SOL     OW20554   2.330   3.926   0.916 -0.2559  0.3525  0.5271
 2974SOL    HW120555   2.260   3.919   0.851 -0.5916 -1.2043  1.0446
 2974SOL    HW220556   2.288   3.884   0.991 -0.3942  0.8663  0.7343
 2975SOL     OW20557   3.533   3.743   5.785 -0.1113  0.5469  0.0028
 2975SOL    HW120558   3.537   3.653   5.753 -2.6647  0.5336 -0.2742
 2975SOL    HW220559   3.581   3.789   5.716  1.4901  0.2989  0.9416
 2976SOL     OW20560   0.063   1.368  10.663 -0.1788 -0.1327  0.4605
 2976SOL    HW120561   0.016   1.451  10.658  0.2526  0.0828 -0.0044
 2976SOL    HW220562   0.086   1.371  10.756 -0.5777 -1.4776  0.5979
 2977SOL     OW20563   0.153   4.209   7.569 -0.1588 -0.4228  0.2405
 2977SOL    HW120564   0.183   4.149   7.637 -2.3034  0.8700  2.3611
 2977SOL    HW220565   0.140   4.293   7.612  0.1795 -0.2895  0.0753
 2978SOL     OW20566   4.145   0.537   5.806 -0.4419 -0.0987 -0.0637
 2978SOL    HW120567   4.081   0.574   5.867 -1.4825 -1.8275 -0.1053
 2978SOL    HW220568   4.225   0.529   5.858 -0.1362  2.5977 -0.1005
 2979SOL     OW20569   1.491   0.682   3.324  0.2856  0.1166  0.5085
 2979SOL    HW120570   1.554   0.638   3.381  1.7348  1.1588 -0.2936
 2979SOL    HW220571   1.418   0.620   3.327  0.3068  0.0655 -0.2333
 2980SOL     OW20572   1.972   3.803   4.136 -0.4732 -0.3455 -0.0305
 2980SOL    HW120573   1.938   3.832   4.220  0.0763 -1.2731  0.5166
 2980SOL    HW220574   1.907   3.820   4.067  1.2780  0.9250 -1.3736
 2981SOL     OW20575   0.613   3.629   1.905  0.2858 -0.4298 -0.6606
 2981SOL    HW120576   0.635   3.553   1.960 -2.3009 -0.2232  0.6674
 2981SOL    HW220577   0.566   3.586   1.834  0.5276  0.4380 -1.3483
 2982SOL     OW20578   0.303   3.859   2.288 -0.0640  0.7743  0.1726
 2982SOL    HW120579   0.314   3.813   2.371  1.5219 -1.1678 -1.0978
 2982SOL    HW220580   0.396   3.865   2.266 -0.0350  0.4990  0.2128
 2983SOL     OW20581   4.205   4.150   6.470 -0.2475 -0.0935 -0.1689
 2983SOL    HW120582   4.138   4.124   6.407  0.1163 -2.2656  0.3393
 2983SOL    HW220583   4.157   4.184   6.545 -0.2413 -0.1264 -0.1503
 2984SOL     OW20584   0.094   1.258   7.312 -0.1031  0.3854 -0.3721
 2984SOL    HW120585   0.162   1.194   7.330  0.5803  1.6875  1.6414
 2984SOL    HW220586   0.035   1.270   7.386  0.6858 -1.3078  0.5454
 2985SOL     OW20587   1.248   2.181   7.026 -0.2660  0.1056 -0.2275
 2985SOL    HW120588   1.159   2.146   7.018  0.6911 -2.5362  0.7478
 2985SOL    HW220589   1.274   2.177   7.118 -0.0610 -0.8638 -0.3285
 2986SOL     OW20590   3.433   0.662   6.184 -0.0553 -0.0479 -0.1576
 2986SOL    HW120591   3.392   0.588   6.139 -0.7104  0.2686 -0.0805
 2986SOL    HW220592   3.359   0.722   6.173 -0.5472 -0.4806  0.8230
 2987SOL     OW20593   1.851   3.890   8.268 -0.3888 -0.4448  0.0827
 2987SOL    HW120594   1.851   3.981   8.297 -0.8854 -0.5125  0.3037
 2987SOL    HW220595   1.898   3.884   8.185  1.7878 -0.0033  1.3018
 2988SOL     OW20596   0.603   1.808   5.123 -0.5643  0.0341  0.2391
 2988SOL    HW120597   0.523   1.768   5.089 -0.3891  1.3247 -1.6844
 2988SOL    HW220598   0.665   1.804   5.050 -1.0218  0.1328 -0.1532
 2989SOL     OW20599   2.023   3.934  17.079 -0.5172 -0.3597  0.0208
 2989SOL    HW120600   2.039   4.016  17.126  0.8914 -0.0271 -1.0396
 2989SOL    HW220601   2.002   3.973  16.994  1.0637  0.0193 -0.2035
 2990SOL     OW20602   4.205   1.626   7.406  0.0589  0.1367 -0.4252
 2990SOL    HW120603   4.123   1.638   7.357  1.1681  1.4235 -1.9743
 2990SOL    HW220604   4.273   1.638   7.340  0.3597  0.7933  0.0036
 2991SOL     OW20605   1.507   3.681   5.241  0.2234  0.3768  0.4261
 2991SOL    HW120606   1.534   3.773   5.247  1.1618  0.1014  0.4745
 2991SOL    HW220607   1.430   3.687   5.298 -0.4849 -2.6260 -0.2262
 2992SOL     OW20608   1.453   2.556   9.184 -0.2899 -0.2472 -0.0274
 2992SOL    HW120609   1.365   2.517   9.186 -1.0565  1.4813 -0.1920
 2992SOL    HW220610   1.429   2.648   9.195 -1.0338 -0.5874  1.2625
 2993SOL     OW20611   0.040   2.070  17.059 -0.0639  0.3709 -0.4875
 2993SOL    HW120612   0.060   2.152  17.103  0.5275  0.9697 -1.8850
 2993SOL    HW220613   0.129   2.034  17.052 -0.1318 -0.0475  0.9420
 2994SOL     OW20614   2.032   1.431   8.992 -0.1212 -0.2949 -0.1993
 2994SOL    HW120615   1.975   1.397   8.923  1.4964 -1.3271 -1.0149
 2994SOL    HW220616   2.113   1.388   8.966 -0.3510 -0.4642 -0.6185
 2995SOL     OW20617   0.772   2.183  12.036 -0.4574  0.1226 -0.1578
 2995SOL    HW120618   0.706   2.129  12.079  0.0315 -1.3253 -1.2102
 2995SOL    HW220619   0.743   2.272  12.055  0.4117  0.0920  1.3159
 2996SOL     OW20620   2.810   1.960   2.713 -0.2108  0.1919 -0.4912
 2996SOL    HW120621   2.842   1.904   2.643  1.0620 -0.3981  0.5479
 2996SOL    HW220622   2.892   1.958   2.763 -0.7412  2.3396  0.4768
 2997SOL     OW20623   4.229   2.786   6.734 -0.1757  0.1664 -0.2150
 2997SOL    HW120624   4.293   2.857   6.740 -1.1388  0.9823  0.4681
 2997SOL    HW220625   4.258   2.753   6.649 -0.4024  1.6119 -0.8498
 2998SOL     OW20626   3.272   1.757   7.152  0.5070  0.2308 -0.1162
 2998SOL    HW120627   3.225   1.735   7.232 -1.6591  0.1731 -1.4118
 2998SOL    HW220628   3.311   1.674   7.125  1.1979  0.1475  1.1661
 2999SOL     OW20629   0.727   4.146   6.540 -0.8830 -0.6809 -0.2272
 2999SOL    HW120630   0.694   4.068   6.496  0.2913 -1.9638  1.1993
 2999SOL    HW220631   0.795   4.166   6.476 -0.1304 -0.4182  0.6550
 3000SOL     OW20632   1.302   2.422  11.145 -0.4697  0.2080 -0.2892
 3000SOL    HW120633   1.384   2.456  11.182  0.3544 -2.0840 -0.0409
 3000SOL    HW220634   1.292   2.339  11.191 -1.3824 -0.7442 -2.2073
 3001SOL     OW20635   4.019   1.176   8.072  0.1267  0.1689  0.2809
 3001SOL    HW120636   4.057   1.243   8.128  0.6591  1.1360 -1.2163
 3001SOL    HW220637   3.939   1.213   8.035 -0.7450 -1.8334  0.1852
 3002SOL     OW20638   4.726   1.117  10.771  0.5916 -0.0030  0.2129
 3002SOL    HW120639   4.677   1.121  10.853 -0.1307  1.4123 -0.2934
 3002SOL    HW220640   0.061   1.171  10.807 -0.8852  0.9885  1.5891
 3003SOL     OW20641   0.426   3.098   6.146  0.0110 -0.4214  0.0464
 3003SOL    HW120642   0.429   3.176   6.090 -0.9935 -0.0596  0.4943
 3003SOL    HW220643   0.379   3.121   6.226 -0.1392  1.7881 -0.6666
 3004SOL     OW20644   4.274   0.871   5.875  0.0255 -0.0526  0.1001
 3004SOL    HW120645   4.311   0.805   5.934  0.0508  0.5531  0.7523
 3004SOL    HW220646   4.348   0.880   5.815 -0.3899 -0.3676 -0.4631
 3005SOL     OW20647   3.188   0.085   9.816 -0.0148  0.3829 -0.4466
 3005SOL    HW120648   3.265   0.140   9.801 -0.0661  0.8073  0.8415
 3005SOL    HW220649   3.128   0.152   9.849 -0.7463 -1.0339  1.1080
 3006SOL     OW20650   4.205   1.684   1.800  0.0192 -0.0736 -0.5310
 3006SOL    HW120651   4.174   1.716   1.715 -0.5517 -0.7105 -0.5646
 3006SOL    HW220652   4.182   1.763   1.848  0.4940 -0.2889  0.0550
 3007SOL     OW20653   2.592   0.673   7.346 -0.2555 -0.1832 -0.0590
 3007SOL    HW120654   2.566   0.707   7.432  0.7332  0.3532  0.0188
 3007SOL    HW220655   2.517   0.616   7.325 -0.6210  0.1745  0.2738
 3008SOL     OW20656   1.740   4.502   4.069 -0.1010  0.3712  0.1628
 3008SOL    HW120657   1.772   4.412   4.070  1.1364  0.8055 -1.3729
 3008SOL    HW220658   1.821   4.542   4.040 -0.7166  2.1037  0.8103
 3009SOL     OW20659   1.593   3.586  10.028  0.0485  0.0724 -0.1087
 3009SOL    HW120660   1.597   3.677  10.059  3.1033 -0.0954 -0.0318
 3009SOL    HW220661   1.563   3.596   9.937  0.8254 -0.8749 -0.4595
 3010SOL     OW20662   1.861   2.525   6.279  0.3982  0.1834  0.5480
 3010SOL    HW120663   1.769   2.519   6.304  0.3959  0.2458  0.5542
 3010SOL    HW220664   1.905   2.528   6.365  2.2563  2.6536 -0.4745
 3011SOL     OW20665   3.799   1.741  12.086 -0.2550 -0.2240 -0.1301
 3011SOL    HW120666   3.849   1.778  12.013  0.5104  3.3974  2.1858
 3011SOL    HW220667   3.830   1.785  12.166 -0.2908 -0.2706 -0.0907
 3012SOL     OW20668   4.503   2.113   9.272 -0.3970 -0.0102  0.4782
 3012SOL    HW120669   4.421   2.095   9.319 -0.2033  1.9812  1.6060
 3012SOL    HW220670   4.468   2.136   9.186 -0.9448  0.5676  0.8524
 3013SOL     OW20671   4.017   3.705   2.776  0.2465  0.5608 -0.3927
 3013SOL    HW120672   3.985   3.674   2.861  0.3565  1.4227 -0.0359
 3013SOL    HW220673   4.102   3.742   2.802  0.4188 -0.3170  0.2832
 3014SOL     OW20674   2.516   2.887   3.089 -0.0204 -0.1642  0.0458
 3014SOL    HW120675   2.527   2.981   3.106 -0.4800  0.2509 -1.9438
 3014SOL    HW220676   2.538   2.884   2.996 -0.9266  2.2075 -0.2528
 3015SOL     OW20677   1.729   2.943   3.004  0.3880  0.4743 -0.3162
 3015SOL    HW120678   1.669   2.993   2.949 -1.0462 -1.8903 -0.8688
 3015SOL    HW220679   1.708   2.850   3.000 -1.3804  0.9647 -2.4321
 3016SOL     OW20680   1.085   0.087   1.304 -0.3444 -0.5200  0.7528
 3016SOL    HW120681   1.104   4.729   1.303  2.0278  0.0151 -3.1651
 3016SOL    HW220682   1.015   0.093   1.239  1.0217 -0.7986 -0.7375
 3017SOL     OW20683   1.800   4.453   8.984 -0.0307 -0.4158 -0.2084
 3017SOL    HW120684   1.834   4.371   9.019 -0.2704 -0.7989 -0.8831
 3017SOL    HW220685   1.743   4.483   9.055 -0.7310 -0.8429 -0.5881
 3018SOL     OW20686   3.714   4.052   2.356  0.0965  0.1095  0.3440
 3018SOL    HW120687   3.800   4.093   2.367 -0.2006  1.0150 -0.6772
 3018SOL    HW220688   3.675   4.115   2.296  1.2444  0.4758 -0.0135
 3019SOL     OW20689   4.154   2.632   9.294 -0.0711  0.5301  0.8474
 3019SOL    HW120690   4.062   2.621   9.316 -0.2884  3.2398  1.2993
 3019SOL    HW220691   4.192   2.545   9.308 -1.4632 -0.6866 -3.1485
 3020SOL     OW20692   0.466   3.519   9.263  0.0681 -0.0859  0.5660
 3020SOL    HW120693   0.523   3.595   9.260 -1.6243  1.1092 -1.5140
 3020SOL    HW220694   0.480   3.483   9.175  0.3509  1.7606 -0.1415
 3021SOL     OW20695   1.251   1.378   3.552 -0.2198  0.8223 -0.5169
 3021SOL    HW120696   1.225   1.463   3.517  1.3769  0.6763 -2.0752
 3021SOL    HW220697   1.313   1.349   3.485  0.0441  0.1908 -0.0017
 3022SOL     OW20698   4.044   1.272   6.089 -0.4453  0.1328 -0.2375
 3022SOL    HW120699   4.074   1.182   6.077 -0.6988  0.3020 -2.1834
 3022SOL    HW220700   4.082   1.311   6.011  2.3596 -0.0876  1.0170
 3023SOL     OW20701   1.895   1.263   4.883  0.5292  0.0398  0.1457
 3023SOL    HW120702   1.900   1.256   4.978 -0.9563 -1.4227  0.1132
 3023SOL    HW220703   1.969   1.323   4.870  1.4774 -1.4950 -1.4855
 3024SOL     OW20704   2.111   3.447   6.125 -0.1529  0.5330  0.1106
 3024SOL    HW120705   2.100   3.382   6.194 -0.6829  0.5667  0.0587
 3024SOL    HW220706   2.205   3.433   6.121 -0.2065  0.1645  0.1964
 3025SOL     OW20707   1.002   4.157   2.915 -0.1970  0.4063  0.4218
 3025SOL    HW120708   0.982   4.240   2.959 -2.4415  0.8885 -1.5181
 3025SOL    HW220709   1.068   4.190   2.855  0.9893  0.2046  1.6236
 3026SOL     OW20710   2.533   0.283   1.888 -0.2275  0.3028 -0.3575
 3026SOL    HW120711   2.565   0.197   1.914 -1.3834 -0.1038 -0.2707
 3026SOL    HW220712   2.462   0.299   1.951 -2.1785 -1.3955 -2.1389
 3027SOL     OW20713   3.529   0.043  12.900 -0.2838 -0.3834 -0.1129
 3027SOL    HW120714   3.472   0.030  12.824  3.9043 -1.4075 -3.1170
 3027SOL    HW220715   3.619   0.068  12.878 -0.9712  0.6663 -1.7515
 3028SOL     OW20716   0.117   2.803   4.082 -0.4946  0.1386  0.1358
 3028SOL    HW120717   0.161   2.842   4.006 -0.1511  0.0737  0.3010
 3028SOL    HW220718   0.035   2.767   4.048  0.4048 -0.7372 -1.0721
 3029SOL     OW20719   1.581   4.284   4.853  0.3407  0.5307  0.4803
 3029SOL    HW120720   1.641   4.211   4.836  0.5995  1.0816 -0.9424
 3029SOL    HW220721   1.645   4.354   4.844 -1.0892  2.0111  1.9214
 3030SOL     OW20722   4.312   0.322  16.082 -0.2744  0.4721  0.1991
 3030SOL    HW120723   4.400   0.354  16.101 -0.3026 -1.7568  4.2291
 3030SOL    HW220724   4.256   0.390  16.118  0.3935  1.0512  0.1421
 3031SOL     OW20725   0.429   1.979   9.268 -0.3964  0.9617  0.1812
 3031SOL    HW120726   0.373   1.903   9.257  0.4148  0.1740  1.4630
 3031SOL    HW220727   0.380   2.049   9.225 -1.3051  0.9966  1.2621
 3032SOL     OW20728   2.184   2.626  17.373 -0.2369  0.2273 -0.3471
 3032SOL    HW120729   2.152   2.704  17.418  0.0290 -0.0379  0.3005
 3032SOL    HW220730   2.118   2.570  17.414 -0.4053  0.9685  0.3948
 3033SOL     OW20731   3.143   4.439   2.876 -0.1723  0.1348 -0.5253
 3033SOL    HW120732   3.148   4.478   2.963 -2.7413  2.1608 -1.2776
 3033SOL    HW220733   3.097   4.511   2.831 -1.1001 -0.3287 -0.3225
 3034SOL     OW20734   1.572   1.382   8.570 -0.5873  0.4658  0.0300
 3034SOL    HW120735   1.568   1.406   8.662  2.2352  1.5006 -0.0989
 3034SOL    HW220736   1.632   1.450   8.538  2.2437 -0.9181  2.4388
 3035SOL     OW20737   3.878   2.464   7.327  0.5166  0.1418  0.8248
 3035SOL    HW120738   3.899   2.540   7.273 -2.9704 -1.0677 -2.2294
 3035SOL    HW220739   3.940   2.400   7.292 -0.2661 -0.6168  0.8240
 3036SOL     OW20740   0.570   0.211   6.204  0.2653  0.2165 -0.3767
 3036SOL    HW120741   0.491   0.266   6.202 -0.6559 -0.9904  2.7275
 3036SOL    HW220742   0.630   0.284   6.216  0.6217  0.2193 -2.1535
 3037SOL     OW20743   4.028   0.167   5.767 -0.1908  0.0156  0.4207
 3037SOL    HW120744   4.107   0.194   5.814 -0.7861 -0.2545  1.5819
 3037SOL    HW220745   4.055   0.167   5.675  0.0931 -1.4270  0.5153
 3038SOL     OW20746   4.703   2.761   5.905  0.0137  0.2724 -0.0230
 3038SOL    HW120747   4.674   2.806   5.984  0.7164 -0.8336  0.8737
 3038SOL    HW220748   4.655   2.813   5.840 -1.0307  2.0595  2.1864
 3039SOL     OW20749   3.521   0.058   3.314 -0.3457 -0.3267 -0.3913
 3039SOL    HW120750   3.608   0.083   3.282  1.4968 -2.8446  2.6586
 3039SOL    HW220751   3.540   0.039   3.406  0.3788  1.7822 -0.1124
 3040SOL     OW20752   3.947   3.203   0.984 -0.4620  0.0897 -0.4472
 3040SOL    HW120753   3.859   3.176   1.011  0.0770 -2.3151 -1.0777
 3040SOL    HW220754   3.958   3.274   1.047 -1.8912 -0.1949  0.1259
 3041SOL     OW20755   2.942   1.455   9.769  0.1736  0.0368  0.0095
 3041SOL    HW120756   2.862   1.410   9.796 -0.2345  0.3810 -0.6207
 3041SOL    HW220757   2.917   1.494   9.685  0.0084  0.1555  0.1142
 3042SOL     OW20758   0.448   1.828  17.660  0.2034 -0.4645  0.2333
 3042SOL    HW120759   0.420   1.739  17.642  2.1921 -0.9922 -0.2356
 3042SOL    HW220760   0.385   1.859  17.726 -0.7060 -0.4914 -0.6308
 3043SOL     OW20761   3.360   4.138   2.686 -0.1432  0.1662  0.0255
 3043SOL    HW120762   3.451   4.164   2.672  0.4060 -1.8213  0.0482
 3043SOL    HW220763   3.358   4.100   2.773 -0.3174 -0.6860 -0.3510
 3044SOL     OW20764   0.576   3.597   8.217  0.5674  0.5133  0.2025
 3044SOL    HW120765   0.644   3.657   8.189  1.0612 -0.5336 -0.8282
 3044SOL    HW220766   0.591   3.523   8.159 -1.2552  1.1166 -1.0297
 3045SOL     OW20767   1.156   0.779   5.852  0.0527  0.1814  0.3466
 3045SOL    HW120768   1.246   0.781   5.821 -0.8839  1.6692 -2.1833
 3045SOL    HW220769   1.186   0.795   5.942 -0.2863 -0.4341  0.5732
 3046SOL     OW20770   0.598   0.166  13.053 -0.3174 -0.0682  0.2762
 3046SOL    HW120771   0.508   0.134  13.057 -1.1333  2.3777  1.4973
 3046SOL    HW220772   0.600   0.212  12.968 -0.5976 -0.2115  0.1927
 3047SOL     OW20773   1.285   2.549   2.053  0.7329  0.1447 -0.0250
 3047SOL    HW120774   1.200   2.521   2.088  0.3169 -0.4019 -1.4413
 3047SOL    HW220775   1.274   2.526   1.960 -1.1048 -0.5370  0.3638
 3048SOL     OW20776   0.784   2.646   3.555 -0.3825  0.0802  1.0277
 3048SOL    HW120777   0.720   2.624   3.623 -2.6894  1.9460 -0.5286
 3048SOL    HW220778   0.860   2.591   3.573  1.5246  1.8056 -1.7987
 3049SOL     OW20779   1.022   0.089   4.088 -0.5096 -0.3442 -0.1215
 3049SOL    HW120780   0.977   0.162   4.130  2.3191  0.7023  1.1577
 3049SOL    HW220781   0.995   0.013   4.139 -0.7490 -0.1465  0.0475
 3050SOL     OW20782   0.817   3.043   2.339 -0.5920  0.1497 -0.0934
 3050SOL    HW120783   0.754   2.971   2.335  0.8408 -1.0405 -1.2429
 3050SOL    HW220784   0.788   3.106   2.273 -2.5200  1.1781  1.7465
 3051SOL     OW20785   0.121   1.703  17.498 -0.0219  0.0390  0.0262
 3051SOL    HW120786   0.059   1.775  17.484  0.9766  0.9019  0.0750
 3051SOL    HW220787   0.082   1.670  17.579  1.7262 -0.8600  0.4941
 3052SOL     OW20788   2.181   4.593   7.133 -0.0262  0.1714 -0.0674
 3052SOL    HW120789   2.235   4.515   7.117 -0.5502  0.3745 -2.9408
 3052SOL    HW220790   2.206   4.645   7.056  1.1020  2.2513  1.7071
 3053SOL     OW20791   0.527   2.809   1.506  0.5755  0.2347 -0.0252
 3053SOL    HW120792   0.590   2.742   1.479  2.1895  1.0586  1.7162
 3053SOL    HW220793   0.534   2.793   1.600 -1.2846  1.2935  0.2994
 3054SOL     OW20794   4.525   2.205   2.275  0.6306  0.0902 -0.1219
 3054SOL    HW120795   4.554   2.160   2.195 -2.6093  0.1520 -1.3388
 3054SOL    HW220796   4.499   2.292   2.244 -0.0899  1.1115  3.3697
 3055SOL     OW20797   0.428   4.404   5.151 -0.1223 -0.3639 -0.0883
 3055SOL    HW120798   0.509   4.447   5.124  0.5751 -1.1104  0.8357
 3055SOL    HW220799   0.395   4.481   5.197 -0.4980 -1.3558  1.2812
 3056SOL     OW20800   2.835   1.713  10.526 -0.0084  0.2554 -0.1125
 3056SOL    HW120801   2.835   1.717  10.622  0.7100  0.4296 -0.1202
 3056SOL    HW220802   2.779   1.782  10.489 -0.3729  0.4581  0.7926
 3057SOL     OW20803   2.670   2.316   3.646  0.0248  0.1007  0.0800
 3057SOL    HW120804   2.710   2.373   3.711 -2.9933  0.0436  2.0074
 3057SOL    HW220805   2.620   2.255   3.700 -1.7063 -0.4576 -2.1514
 3058SOL     OW20806   2.714   0.293   1.431 -0.0790  0.2168 -0.0747
 3058SOL    HW120807   2.655   0.259   1.498 -0.6297  0.2312 -0.5517
 3058SOL    HW220808   2.715   0.219   1.371 -0.0842 -0.8592  1.2675
 3059SOL     OW20809   4.648   1.231   4.262 -0.5314  0.1720  0.3792
 3059SOL    HW120810   4.704   1.274   4.198 -1.0226  0.5356  0.1966
 3059SOL    HW220811   4.599   1.307   4.292  1.2624  1.8712 -1.0636
 3060SOL     OW20812   0.812   3.982   2.821 -0.2750  0.0358 -0.3288
 3060SOL    HW120813   0.871   4.038   2.872 -1.8373  0.1701  1.3365
 3060SOL    HW220814   0.876   3.918   2.789 -1.5064 -1.5506  0.3785
 3061SOL     OW20815   1.849   2.133   6.856 -0.3400  0.4977  0.2404
 3061SOL    HW120816   1.759   2.129   6.824 -0.8675 -1.9419  1.9904
 3061SOL    HW220817   1.848   2.160   6.947 -2.0280  1.2915 -0.0281
 3062SOL     OW20818   1.971   2.982   7.937 -0.0909  0.7006  0.1849
 3062SOL    HW120819   1.902   3.004   8.000 -0.3624 -0.7474  0.3820
 3062SOL    HW220820   1.952   3.039   7.863 -0.7782  0.0285 -0.1391
 3063SOL     OW20821   0.695   2.564   6.389 -0.8065 -0.3290  0.0087
 3063SOL    HW120822   0.728   2.573   6.478  2.3776 -0.7221 -1.1015
 3063SOL    HW220823   0.607   2.531   6.406 -0.6859 -0.9541 -0.5818
 3064SOL     OW20824   1.236   1.709   6.107  0.3926 -0.6282  0.2022
 3064SOL    HW120825   1.319   1.746   6.136 -0.2747 -0.2498  1.6005
 3064SOL    HW220826   1.171   1.757   6.157 -0.9990 -1.7263 -0.5540
 3065SOL     OW20827   1.379   4.677   2.769  0.4253 -0.3520 -0.3229
 3065SOL    HW120828   1.411   0.005   2.834  1.2279  0.0132 -1.0650
 3065SOL    HW220829   1.290   4.705   2.748  0.6690  0.7749  0.1437
 3066SOL     OW20830   0.579   2.976  14.168 -0.1042  0.1445 -0.5791
 3066SOL    HW120831   0.574   3.070  14.150 -4.1654 -0.2366 -1.5789
 3066SOL    HW220832   0.487   2.950  14.157  0.6457 -2.3261 -0.8332
 3067SOL     OW20833   3.228   3.739   5.953  0.0913  0.7340 -0.0248
 3067SOL    HW120834   3.289   3.812   5.960  0.4406  0.2885  1.4561
 3067SOL    HW220835   3.280   3.674   5.907 -0.0070  0.7062 -0.0983
 3068SOL     OW20836   4.631   1.978   5.357 -0.3942  0.1989  0.0174
 3068SOL    HW120837   4.630   1.884   5.374  2.0440  0.5870  2.2602
 3068SOL    HW220838   4.652   1.968   5.264 -0.8739 -2.9616  0.2377
 3069SOL     OW20839   1.596   2.081   1.638 -0.3833  0.0282 -0.1238
 3069SOL    HW120840   1.549   2.147   1.688 -2.9523 -1.1509 -0.9541
 3069SOL    HW220841   1.675   2.072   1.692  0.1136  0.4858 -0.7782
 3070SOL     OW20842   3.785   2.791   4.343 -0.3594  0.2122  0.0425
 3070SOL    HW120843   3.779   2.784   4.438 -0.1007 -1.1553 -0.0454
 3070SOL    HW220844   3.722   2.863   4.334 -1.2523 -0.1030  3.6482
 3071SOL     OW20845   2.884   1.236   2.697  0.1293 -0.2894 -0.6880
 3071SOL    HW120846   2.834   1.275   2.769 -1.5071 -0.3181 -1.8137
 3071SOL    HW220847   2.898   1.315   2.647  2.4125 -0.8503 -0.9071
 3072SOL     OW20848   2.137   1.590   9.175  0.1973  0.2259  0.0482
 3072SOL    HW120849   2.084   1.572   9.097  1.3917  1.3275 -1.0160
 3072SOL    HW220850   2.110   1.520   9.235  2.4390 -0.6194  0.0447
 3073SOL     OW20851   3.647   4.137   2.673  0.0709  0.2318  0.4611
 3073SOL    HW120852   3.643   4.052   2.629 -1.2199 -0.4027  1.7940
 3073SOL    HW220853   3.694   4.192   2.610  1.7176  0.0392  1.5210
 3074SOL     OW20854   4.030   2.135   7.500  0.5883  0.0194 -0.0125
 3074SOL    HW120855   4.035   2.173   7.412  1.9552  0.2972  0.1842
 3074SOL    HW220856   3.938   2.150   7.521 -0.2968 -1.7760 -2.5796
 3075SOL     OW20857   0.325   0.150   6.980 -0.5680  0.4252  0.1569
 3075SOL    HW120858   0.373   0.072   7.010  0.6444  1.0694 -0.0909
 3075SOL    HW220859   0.252   0.098   6.948 -2.1613  0.7793  3.2802
 3076SOL     OW20860   4.103   3.218  17.388  0.4819 -0.1481 -0.1644
 3076SOL    HW120861   4.189   3.257  17.366 -0.1018  1.3676  0.2261
 3076SOL    HW220862   4.128   3.129  17.411  2.4378  0.4997  0.2255
 3077SOL     OW20863   0.673   2.816   5.143  0.4515 -0.2489 -0.0546
 3077SOL    HW120864   0.694   2.752   5.210 -0.0754  1.5703  1.8357
 3077SOL    HW220865   0.739   2.812   5.074  0.1336  1.0489 -0.4433
 3078SOL     OW20866   4.468   1.036   5.038  0.1522 -0.3660  0.0998
 3078SOL    HW120867   4.424   1.082   4.966 -0.2088  0.5902  0.9277
 3078SOL    HW220868   4.559   1.057   5.016  0.5512 -1.1403  1.0091
 3079SOL     OW20869   1.703   2.843  13.700  0.8906  0.4072 -0.7969
 3079SOL    HW120870   1.796   2.831  13.680  1.6994  2.9834  1.4853
 3079SOL    HW220871   1.688   2.777  13.768 -1.8823  0.5545 -1.2556
 3080SOL     OW20872   3.712   1.765   1.716 -0.0560 -0.0812 -0.4073
 3080SOL    HW120873   3.648   1.715   1.768  0.0963 -0.1437 -0.2809
 3080SOL    HW220874   3.712   1.712   1.636  1.5259 -0.5392 -0.0881
 3081SOL     OW20875   2.873   1.243   5.134  0.1134  0.5044 -0.4989
 3081SOL    HW120876   2.802   1.300   5.165  2.6902  4.3694 -1.6519
 3081SOL    HW220877   2.878   1.185   5.210 -0.9494  0.1937 -0.6670
 3082SOL     OW20878   3.766   4.288   2.118  0.6204 -0.1800 -0.1455
 3082SOL    HW120879   3.758   4.361   2.179  1.7662  0.8381 -1.2047
 3082SOL    HW220880   3.681   4.244   2.124  0.0710  1.1749  1.9712
 3083SOL     OW20881   0.466   0.219   4.699 -0.0801  0.0106  0.2042
 3083SOL    HW120882   0.384   0.170   4.701  0.5728 -1.1425 -0.9874
 3083SOL    HW220883   0.449   0.282   4.629 -1.8138 -0.5190  0.1539
 3084SOL     OW20884   4.406   4.643   2.102  0.6844 -0.4325 -0.4233
 3084SOL    HW120885   4.318   4.641   2.064  0.8907 -0.4456 -0.9046
 3084SOL    HW220886   4.451   4.656   2.019  0.0728  0.6408 -0.5879
 3085SOL     OW20887   2.382   3.099   4.089 -0.7651 -0.0867 -0.2140
 3085SOL    HW120888   2.325   3.171   4.063 -2.9891 -2.1670 -1.0347
 3085SOL    HW220889   2.469   3.126   4.057 -0.4642  0.1004  0.7678
 3086SOL     OW20890   0.656   0.381   4.348  0.0798  0.0691  0.1569
 3086SOL    HW120891   0.608   0.326   4.286  1.9351 -1.8179  0.3905
 3086SOL    HW220892   0.746   0.355   4.326 -0.0576  0.5773 -1.0100
 3087SOL     OW20893   2.706   2.739  12.291  0.0328 -0.3441  0.3653
 3087SOL    HW120894   2.769   2.756  12.221  1.2527 -1.0896  1.2967
 3087SOL    HW220895   2.619   2.725  12.253 -1.0290  2.3598  1.8372
 3088SOL     OW20896   3.449   0.302   2.142 -0.5734 -0.3428  0.5654
 3088SOL    HW120897   3.455   0.368   2.073  1.0120 -1.6595 -0.5678
 3088SOL    HW220898   3.536   0.296   2.180 -0.2101  2.2647  0.1083
 3089SOL     OW20899   3.130   4.604   8.803  0.1215 -0.0245  0.2816
 3089SOL    HW120900   3.042   4.638   8.819  1.2797  3.5036 -0.7799
 3089SOL    HW220901   3.112   4.527   8.748  1.6818  0.9238 -1.5804
 3090SOL     OW20902   3.329   1.041  11.929 -0.0126  0.5946  0.6695
 3090SOL    HW120903   3.258   1.065  11.989  1.8120  1.6352  2.4243
 3090SOL    HW220904   3.329   0.946  11.918 -0.2887  0.3476  2.8378
 3091SOL     OW20905   4.460   3.970   4.043 -0.1656 -0.2750 -0.0270
 3091SOL    HW120906   4.496   3.891   4.083  0.4572  0.9681  1.8147
 3091SOL    HW220907   4.413   3.925   3.972 -4.2986  2.3669  1.0470
 3092SOL     OW20908   2.355   1.010   8.907  0.1894  0.0624 -0.1605
 3092SOL    HW120909   2.445   0.978   8.899  0.5203  0.8396  0.4309
 3092SOL    HW220910   2.341   1.011   9.001  0.6479 -1.8474 -0.0825
 3093SOL     OW20911   0.631   1.280   7.494 -0.2582 -0.6096  0.0887
 3093SOL    HW120912   0.615   1.202   7.547  1.3712 -0.8870  0.1789
 3093SOL    HW220913   0.725   1.282   7.472 -0.8238 -2.5419 -2.4347
 3094SOL     OW20914   3.847   1.418   4.276  0.2950 -0.8830  0.2185
 3094SOL    HW120915   3.937   1.434   4.250 -0.4941 -1.4856 -2.9410
 3094SOL    HW220916   3.802   1.366   4.209 -0.6312 -0.1180  0.2527
 3095SOL     OW20917   0.088   2.958   7.546  0.0318  0.2669 -0.0319
 3095SOL    HW120918   0.016   3.009   7.582  0.3106  1.3903 -1.0806
 3095SOL    HW220919   0.117   2.910   7.623  0.2408  0.5876  0.0909
 3096SOL     OW20920   4.106   0.904  16.414  0.1332 -0.1912  0.6343
 3096SOL    HW120921   4.039   0.836  16.411 -1.9572  1.9130 -1.4842
 3096SOL    HW220922   4.170   0.859  16.359 -0.4057  2.2621 -2.0825
 3097SOL     OW20923   3.756   4.052   6.802 -0.2710 -0.0741  0.2319
 3097SOL    HW120924   3.697   4.099   6.861 -1.1309  1.1268 -1.5746
 3097SOL    HW220925   3.826   4.039   6.866  0.2487  0.1390 -0.2940
 3098SOL     OW20926   0.170   0.235   3.297  0.6353 -0.3592  0.4456
 3098SOL    HW120927   0.241   0.294   3.320 -0.7338  0.8323  1.6559
 3098SOL    HW220928   0.108   0.305   3.273 -0.7615 -2.0541 -0.9268
 3099SOL     OW20929   1.090   0.920   6.431  0.4758 -0.2978 -0.2744
 3099SOL    HW120930   0.996   0.907   6.418  0.0956  0.4243  1.7777
 3099SOL    HW220931   1.113   0.907   6.340  1.2315  0.4527 -0.1917
 3100SOL     OW20932   2.289   2.600   4.539  0.1018 -0.4892  0.6356
 3100SOL    HW120933   2.369   2.626   4.492  1.2380  0.1542  2.8809
 3100SOL    HW220934   2.227   2.666   4.507 -0.8286 -1.8083 -0.2453
 3101SOL     OW20935   3.581   0.609  13.321 -0.7203 -0.1188 -0.0003
 3101SOL    HW120936   3.669   0.571  13.322 -0.1719  1.1649  2.1179
 3101SOL    HW220937   3.529   0.531  13.301  0.9129 -0.4608 -2.8340
 3102SOL     OW20938   2.396   0.557  15.206  0.4429  0.2140  0.2308
 3102SOL    HW120939   2.308   0.541  15.173  0.6860  0.3968 -0.4968
 3102SOL    HW220940   2.420   0.473  15.244  0.4921  1.4003  2.8101
 3103SOL     OW20941   0.614   4.429   7.052  0.0630 -0.1863 -0.3620
 3103SOL    HW120942   0.702   4.458   7.031 -0.2079  0.1483 -1.0537
 3103SOL    HW220943   0.592   4.481   7.129  2.9487 -1.1949  1.1242
 3104SOL     OW20944   2.005   4.112   9.416  0.1776 -0.1287  0.4809
 3104SOL    HW120945   2.055   4.117   9.497  0.4252  2.2301  0.1830
 3104SOL    HW220946   1.917   4.144   9.437  0.7960  2.3379 -0.6317
 3105SOL     OW20947   3.669   2.020   1.588  0.9619  0.3619 -0.4943
 3105SOL    HW120948   3.683   1.936   1.631  0.1306  0.7692  0.5965
 3105SOL    HW220949   3.690   2.075   1.664 -1.6794  0.3556  0.2325
 3106SOL     OW20950   0.692   1.112  14.678  0.5379  0.0731 -0.2465
 3106SOL    HW120951   0.701   1.024  14.714 -0.8858  0.0967  0.1415
 3106SOL    HW220952   0.753   1.154  14.739 -0.1616  0.2172  0.3457
 3107SOL     OW20953   0.184   3.343   3.667  0.4009 -0.1443  0.0683
 3107SOL    HW120954   0.144   3.425   3.638 -3.0755 -1.1104  2.1422
 3107SOL    HW220955   0.118   3.305   3.724 -0.3085 -0.4908 -0.9969
 3108SOL     OW20956   0.672   1.003   2.971 -0.1835  0.5256  0.2429
 3108SOL    HW120957   0.584   1.022   3.003 -0.8446 -1.4947 -0.3901
 3108SOL    HW220958   0.673   0.910   2.949 -1.3770  0.2424  1.3581
 3109SOL     OW20959   1.708   1.968   5.209 -0.1454  0.0150 -0.6331
 3109SOL    HW120960   1.706   2.053   5.165 -0.7096  0.9903  1.3210
 3109SOL    HW220961   1.655   1.974   5.288 -0.0224 -0.2645 -0.5299
 3110SOL     OW20962   2.232   0.793   5.526 -0.2356 -0.1821  0.1618
 3110SOL    HW120963   2.211   0.862   5.589 -0.7414 -2.0809  2.1129
 3110SOL    HW220964   2.151   0.767   5.480  0.4156 -0.5473 -0.7726
 3111SOL     OW20965   0.108   2.747   7.165  0.1168 -0.4146 -0.2315
 3111SOL    HW120966   0.194   2.741   7.123 -0.0268 -1.4622 -0.3703
 3111SOL    HW220967   0.055   2.718   7.091 -0.3611  0.0517 -0.0722
 3112SOL     OW20968   1.097   1.906  14.936  0.0706 -0.6504  0.3339
 3112SOL    HW120969   1.168   1.943  14.884  0.2544 -2.2324 -0.5321
 3112SOL    HW220970   1.095   1.976  15.001  0.0104  0.4089 -0.8097
 3113SOL     OW20971   0.278   3.904  17.469 -0.7054 -0.3089 -0.0393
 3113SOL    HW120972   0.294   3.930  17.560 -1.9542  2.7359 -0.7139
 3113SOL    HW220973   0.242   3.817  17.488  0.0550 -0.7375 -0.5607
 3114SOL     OW20974   0.011   3.781   5.009 -0.1998 -0.6882 -0.5767
 3114SOL    HW120975   0.012   3.787   4.914 -0.8332  0.6171 -0.5015
 3114SOL    HW220976   0.032   3.692   5.035  0.4949 -0.1733  0.6408
 3115SOL     OW20977   0.784   2.917   8.943 -0.3038 -0.2906 -0.3358
 3115SOL    HW120978   0.755   2.879   9.026 -1.8451  0.3624 -0.5791
 3115SOL    HW220979   0.703   2.909   8.892 -2.3333  0.9627  2.7189
 3116SOL     OW20980   3.281   2.583   6.928 -0.0961  0.6907 -0.3084
 3116SOL    HW120981   3.313   2.543   6.847  0.2686 -1.1061  0.7187
 3116SOL    HW220982   3.337   2.536   6.989 -1.1609  0.7905  0.7369
 3117SOL     OW20983   0.437   1.270   2.834  0.1949 -0.2179 -0.0260
 3117SOL    HW120984   0.437   1.197   2.896  1.2575 -0.5282 -0.3894
 3117SOL    HW220985   0.353   1.314   2.845  0.1717 -0.0289 -0.9233
 3118SOL     OW20986   1.340   2.785   4.177 -0.2379  0.2708 -0.0379
 3118SOL    HW120987   1.300   2.761   4.093  0.5197 -1.0392 -0.0345
 3118SOL    HW220988   1.394   2.705   4.181  0.0452  0.5138  0.9675
 3119SOL     OW20989   3.993   3.860   6.934  0.1600  0.6529 -0.3304
 3119SOL    HW120990   3.975   3.949   6.964  3.3839  0.7915  1.2058
 3119SOL    HW220991   3.912   3.815   6.957  0.8054 -0.4427 -0.2122
 3120SOL     OW20992   3.911   2.219   5.236 -0.6554  0.3690  0.1661
 3120SOL    HW120993   3.891   2.183   5.149  0.7494 -1.4840  0.6148
 3120SOL    HW220994   4.007   2.218   5.238 -0.6205  1.6111 -0.8507
 3121SOL     OW20995   1.655   2.401   2.152 -0.1707 -0.3565 -0.3146
 3121SOL    HW120996   1.702   2.326   2.115  0.8389  0.5215 -0.8175
 3121SOL    HW220997   1.649   2.459   2.075 -1.8634 -1.2890 -0.8887
 3122SOL     OW20998   1.402   2.490   5.182  0.2130 -0.3239 -0.3740
 3122SOL    HW120999   1.423   2.577   5.146 -1.4863  0.1612 -0.1716
 3122SOL    HW221000   1.407   2.442   5.099  1.0380 -0.0624 -0.4818
 3123SOL     OW21001   3.446   1.278  11.088 -1.0839 -0.0759  0.0590
 3123SOL    HW121002   3.530   1.314  11.060 -1.2684  1.3584  1.3333
 3123SOL    HW221003   3.406   1.271  11.002  0.3693  0.8520 -0.6853
 3124SOL     OW21004   3.115   2.056  10.048  0.3664 -0.0893 -0.4895
 3124SOL    HW121005   3.082   1.966  10.044 -1.2530  0.5001 -0.4084
 3124SOL    HW221006   3.081   2.093  10.130 -0.0733 -1.3664 -0.0968
 3125SOL     OW21007   3.549   4.361   3.501 -0.2515  0.0768 -0.5548
 3125SOL    HW121008   3.512   4.442   3.537  0.3767  0.1429 -0.0614
 3125SOL    HW221009   3.472   4.304   3.511  0.1113  0.1224  2.3835
 3126SOL     OW21010   4.199   2.131   8.374  0.4803  0.6649 -0.0097
 3126SOL    HW121011   4.146   2.194   8.326 -0.6405 -1.4805 -1.5774
 3126SOL    HW221012   4.190   2.166   8.463  3.3161 -1.1067  0.9778
 3127SOL     OW21013   2.157   1.293  17.382 -0.0688  0.1939  0.2095
 3127SOL    HW121014   2.214   1.338  17.320  1.0269  0.4297  1.3686
 3127SOL    HW221015   2.115   1.370  17.419 -0.3683 -0.4599  1.2571
 3128SOL     OW21016   0.698   4.450   8.100  0.4196 -0.7001  0.4269
 3128SOL    HW121017   0.707   4.532   8.148  0.3845 -0.3275 -0.2174
 3128SOL    HW221018   0.602   4.449   8.095  0.4731 -1.4618 -0.5168
 3129SOL     OW21019   3.233   4.447   7.039  0.0084 -0.1562 -0.5444
 3129SOL    HW121020   3.160   4.449   7.101  2.6989 -0.6193  2.6524
 3129SOL    HW221021   3.237   4.533   6.997 -1.4583 -0.3523 -1.0765
 3130SOL     OW21022   4.315   0.107  13.660  0.0902 -0.0707 -0.4638
 3130SOL    HW121023   4.310   0.056  13.579  2.4051 -2.4605  0.8875
 3130SOL    HW221024   4.409   0.116  13.678  0.1164 -0.3705 -0.4401
 3131SOL     OW21025   0.565   4.283  11.620 -0.1808  0.7350 -0.3652
 3131SOL    HW121026   0.557   4.367  11.664  0.5583  0.9164 -0.5755
 3131SOL    HW221027   0.656   4.275  11.590  0.6595 -0.0272  2.3757
 3132SOL     OW21028   3.764   2.919   8.119 -0.3349  0.4759  0.6467
 3132SOL    HW121029   3.700   2.972   8.072  0.5423  0.8631 -0.1274
 3132SOL    HW221030   3.788   2.990   8.180  0.2621  0.3107  0.6069
 3133SOL     OW21031   0.144   0.458   6.299  0.1359  0.0587 -0.0966
 3133SOL    HW121032   0.095   0.516   6.242 -1.9015 -1.1001  0.4941
 3133SOL    HW221033   0.132   0.507   6.380 -1.7931  2.5472 -1.8997
 3134SOL     OW21034   1.396   3.481  17.670 -0.0822  0.5059 -0.2526
 3134SOL    HW121035   1.439   3.540  17.733 -2.2649  1.4036  0.3860
 3134SOL    HW221036   1.305   3.509  17.673 -1.3715 -4.0250  2.4551
 3135SOL     OW21037   1.796   2.976  16.826 -0.2663 -0.3511  0.4871
 3135SOL    HW121038   1.743   2.993  16.904  0.3020 -1.1646  1.0448
 3135SOL    HW221039   1.801   2.881  16.837  0.7548 -0.1968  1.3031
 3136SOL     OW21040   3.216   0.541   1.138  0.5947  0.1195 -0.7605
 3136SOL    HW121041   3.276   0.615   1.149 -1.0195  1.2539  0.4825
 3136SOL    HW221042   3.281   0.472   1.132 -1.2076 -1.5588 -1.1288
 3137SOL     OW21043   4.374   3.472   5.978  0.4077 -0.1494  0.1754
 3137SOL    HW121044   4.340   3.560   5.958  2.7163  0.5766 -0.5185
 3137SOL    HW221045   4.468   3.485   5.963  0.2468  1.0710  0.2003
 3138SOL     OW21046   0.641   3.788  11.435 -0.3913  0.4699  0.4753
 3138SOL    HW121047   0.671   3.697  11.430  0.2181  0.7401 -0.8458
 3138SOL    HW221048   0.548   3.781  11.458 -0.5498  0.3556 -0.1989
 3139SOL     OW21049   3.722   1.275   7.718  0.6430 -0.3499 -0.0541
 3139SOL    HW121050   3.646   1.216   7.707  0.6671 -0.1645 -1.2335
 3139SOL    HW221051   3.705   1.344   7.654 -0.3071  0.1441  0.7279
 3140SOL     OW21052   0.838   1.933   4.325 -0.3599  0.6976  0.0438
 3140SOL    HW121053   0.779   1.982   4.382 -0.1024  1.2145 -0.1383
 3140SOL    HW221054   0.913   1.925   4.384  0.2771 -0.4438 -0.9025
 3141SOL     OW21055   1.202   4.661   4.716 -0.0196 -0.2682  0.0183
 3141SOL    HW121056   1.269   4.671   4.649 -0.5815  0.4804 -0.4191
 3141SOL    HW221057   1.232   4.581   4.760  2.0697 -0.1137 -1.1136
 3142SOL     OW21058   4.525   2.093   7.758  0.2057 -0.3806 -0.3411
 3142SOL    HW121059   4.576   2.012   7.766 -0.0857 -0.5246  0.0209
 3142SOL    HW221060   4.433   2.069   7.757  0.4612 -1.4103  0.9716
 3143SOL     OW21061   2.582   0.570  10.999 -0.4655 -0.2067 -0.1468
 3143SOL    HW121062   2.558   0.559  11.091  0.5091 -1.8413 -0.0774
 3143SOL    HW221063   2.611   0.660  11.009  0.8807 -0.4789 -1.5385
 3144SOL     OW21064   3.071   1.635   1.649 -0.3656 -0.4826  0.0909
 3144SOL    HW121065   3.067   1.600   1.737  1.5741  0.4230  0.5281
 3144SOL    HW221066   3.066   1.729   1.669 -0.0288 -0.4747  0.1319
 3145SOL     OW21067   1.689   4.667   6.396  0.0667 -0.4129  0.0532
 3145SOL    HW121068   1.714   4.720   6.321 -2.6979  1.5431  0.5009
 3145SOL    HW221069   1.641   4.728   6.452 -0.2459 -0.5358 -0.0788
 3146SOL     OW21070   0.456   1.888   6.153 -0.4193 -0.1936 -0.2546
 3146SOL    HW121071   0.527   1.854   6.208  1.5952  2.1039 -1.4621
 3146SOL    HW221072   0.469   1.843   6.070 -1.7146  1.1781 -1.1882
 3147SOL     OW21073   1.294   4.421   4.869  0.6778  0.7965 -0.4105
 3147SOL    HW121074   1.377   4.391   4.831 -0.1568  0.4157 -1.9610
 3147SOL    HW221075   1.291   4.380   4.955 -1.1245  0.7644 -0.4877
 3148SOL     OW21076   4.301   2.919   5.250 -0.8938  0.0056  0.1870
 3148SOL    HW121077   4.276   3.011   5.254 -0.4529  0.0791  1.4818
 3148SOL    HW221078   4.321   2.912   5.157 -0.1054  0.6148  0.3098
 3149SOL     OW21079   3.734   0.836  17.654 -0.4733  0.7783 -0.3734
 3149SOL    HW121080   3.742   0.860  17.561  0.4382  0.5919 -0.3450
 3149SOL    HW221081   3.786   0.755  17.647 -1.1802  0.2796  0.1323
 3150SOL     OW21082   0.775   1.850  16.721  0.2361  0.3211 -0.0499
 3150SOL    HW121083   0.718   1.801  16.662  1.1120 -1.7522  0.8450
 3150SOL    HW221084   0.784   1.785  16.791  1.7300 -0.8753 -1.3799
 3151SOL     OW21085   2.824   3.362   5.940  0.2179 -0.3617  0.8728
 3151SOL    HW121086   2.879   3.431   5.978  0.0421  1.1142 -1.5801
 3151SOL    HW221087   2.880   3.312   5.881  0.0884  0.6924 -0.1404
 3152SOL     OW21088   1.895   1.605   8.165  0.3357  0.5506 -0.4734
 3152SOL    HW121089   1.907   1.639   8.076 -0.0020  1.4130 -0.1871
 3152SOL    HW221090   1.850   1.673   8.215 -0.5727  2.5346 -3.9845
 3153SOL     OW21091   4.352   2.252  16.674  0.1429  0.0543 -0.1417
 3153SOL    HW121092   4.438   2.292  16.660 -0.5911  0.8057 -2.4825
 3153SOL    HW221093   4.387   2.164  16.689 -0.1910 -0.3564 -1.8738
 3154SOL     OW21094   2.644   2.128   9.384 -0.3002  0.2769 -0.3053
 3154SOL    HW121095   2.632   2.189   9.457 -2.4012  0.6417 -0.9644
 3154SOL    HW221096   2.552   2.122   9.358 -0.4436 -1.5578  0.6961
 3155SOL     OW21097   3.531   2.836   5.197 -0.6834 -0.6682  0.8246
 3155SOL    HW121098   3.551   2.745   5.173 -0.5409 -0.7069  1.0794
 3155SOL    HW221099   3.619   2.861   5.225 -0.2117 -1.1321 -0.2678
 3156SOL     OW21100   1.306   1.464  10.661  0.2491  0.5857  0.1047
 3156SOL    HW121101   1.255   1.478  10.740 -1.6498 -0.2227 -0.9605
 3156SOL    HW221102   1.242   1.438  10.595  1.6481 -2.1418 -0.1911
 3157SOL     OW21103   2.389   3.913   7.378  0.9833  0.6223 -0.9093
 3157SOL    HW121104   2.478   3.926   7.344  1.7578  0.8742  1.2467
 3157SOL    HW221105   2.404   3.900   7.471 -1.5920 -0.2535 -0.6288
 3158SOL     OW21106   0.395   0.037   3.728 -0.2704 -0.1495  1.0484
 3158SOL    HW121107   0.466   4.712   3.707  0.0396 -0.3912  2.7720
 3158SOL    HW221108   0.338   4.720   3.785 -1.4525 -1.1463 -1.0609
 3159SOL     OW21109   4.511   1.238   7.904 -0.1221 -0.0178 -0.2083
 3159SOL    HW121110   4.599   1.201   7.911 -0.0448 -0.3253 -2.7339
 3159SOL    HW221111   4.446   1.168   7.909  2.2481 -2.1656  0.2349
 3160SOL     OW21112   4.455   4.181   3.857 -0.0635  0.1239 -0.4768
 3160SOL    HW121113   4.387   4.248   3.854 -3.3074 -3.1963 -0.2166
 3160SOL    HW221114   4.433   4.122   3.929 -0.4019 -0.3260 -0.9523
 3161SOL     OW21115   2.993   0.176  10.713  0.3834  0.1393 -0.0797
 3161SOL    HW121116   3.007   0.082  10.712  3.1223  0.5437  0.3711
 3161SOL    HW221117   2.996   0.180  10.808 -3.1789  1.0680  0.0159
 3162SOL     OW21118   4.063   2.621   6.427 -0.3613 -0.3014  0.3774
 3162SOL    HW121119   4.024   2.655   6.508 -0.2014 -0.0867  0.3635
 3162SOL    HW221120   4.156   2.637   6.442 -0.2907 -0.9472  0.6282
 3163SOL     OW21121   2.236   2.594   5.511 -0.6615  0.4454 -0.3120
 3163SOL    HW121122   2.211   2.551   5.429  0.1179  0.3897 -0.5194
 3163SOL    HW221123   2.214   2.686   5.493  1.8343  1.5883  2.4771
 3164SOL     OW21124   1.554   4.039  12.273 -0.3671  0.1371 -0.4925
 3164SOL    HW121125   1.646   4.060  12.290 -0.9523  0.8894  1.7355
 3164SOL    HW221126   1.580   3.954  12.237  0.1270  0.2648 -0.4331
 3165SOL     OW21127   3.015   3.397   4.071  0.2478  0.3342  0.7305
 3165SOL    HW121128   3.097   3.442   4.095  1.9611 -1.5376 -1.5467
 3165SOL    HW221129   2.947   3.445   4.117  0.9298  0.1449  1.9350
 3166SOL     OW21130   0.586   2.729   2.952 -0.3102 -0.2194  0.4050
 3166SOL    HW121131   0.517   2.737   2.886 -0.2971  0.6153  0.5018
 3166SOL    HW221132   0.591   2.812   2.999 -1.3849  0.4889 -0.7249
 3167SOL     OW21133   0.493   2.319   0.815  0.0014  0.9456  0.2830
 3167SOL    HW121134   0.433   2.342   0.886 -0.6186 -2.0089  0.7317
 3167SOL    HW221135   0.568   2.290   0.867  0.6360 -0.9033 -1.6703
 3168SOL     OW21136   4.550   4.357   7.501 -0.6350  0.1065  0.3451
 3168SOL    HW121137   4.631   4.395   7.537  0.2763 -1.4299 -0.1101
 3168SOL    HW221138   4.541   4.389   7.411  0.1324  1.7276  0.8377
 3169SOL     OW21139   1.179   3.682   8.997 -0.2366  0.3761 -0.0591
 3169SOL    HW121140   1.215   3.660   8.911  3.5226 -0.1937  1.6348
 3169SOL    HW221141   1.085   3.687   8.977 -0.5922  1.4591  1.9597
 3170SOL     OW21142   4.186   3.316   6.998 -0.9654 -0.6077 -0.2053
 3170SOL    HW121143   4.113   3.358   6.952 -0.5262 -1.7662 -1.9477
 3170SOL    HW221144   4.258   3.369   6.963 -0.6319 -1.3326 -0.6167
 3171SOL     OW21145   4.720   3.218   7.210 -0.2565  0.4592 -0.4918
 3171SOL    HW121146   0.037   3.218   7.130  0.9144 -0.8897  0.2650
 3171SOL    HW221147   4.698   3.125   7.214  2.0859 -0.0641  0.1658
 3172SOL     OW21148   1.062   4.571   3.043 -0.1892  0.1953  0.0962
 3172SOL    HW121149   1.095   4.562   2.953 -2.4389  0.1550 -0.7426
 3172SOL    HW221150   0.998   4.500   3.051  0.0514 -0.1309 -0.8373
 3173SOL     OW21151   3.836   3.483  14.521 -0.6215  0.2878 -0.0648
 3173SOL    HW121152   3.810   3.572  14.499  0.5963  0.4158 -0.9603
 3173SOL    HW221153   3.755   3.442  14.550 -0.9033  0.4887 -0.5716
 3174SOL     OW21154   0.575   2.888   3.174 -0.2006  0.0797 -0.3082
 3174SOL    HW121155   0.503   2.846   3.222 -0.4238 -0.8233 -1.4376
 3174SOL    HW221156   0.652   2.860   3.223  0.5047 -1.4722 -2.3424
 3175SOL     OW21157   0.714   3.279   8.484  0.1762 -0.0398  0.9090
 3175SOL    HW121158   0.700   3.190   8.515 -1.3812 -0.6397 -1.5140
 3175SOL    HW221159   0.781   3.265   8.416 -3.0491 -0.0733 -2.2619
 3176SOL     OW21160   4.039   1.598  17.614 -0.1841 -0.5299  0.2154
 3176SOL    HW121161   4.079   1.566  17.694 -0.3925 -0.1129  0.4892
 3176SOL    HW221162   3.950   1.617  17.644 -1.5163 -2.3936 -2.5567
 3177SOL     OW21163   1.449   0.265   8.921  0.1152  0.0084  0.1478
 3177SOL    HW121164   1.432   0.359   8.929 -0.1202 -0.4203  4.4566
 3177SOL    HW221165   1.542   0.257   8.900  0.4254  0.4896  1.3647
 3178SOL     OW21166   0.560   0.567   0.699  0.0239 -0.1459  0.0634
 3178SOL    HW121167   0.643   0.574   0.652  0.3884  0.7387  0.8447
 3178SOL    HW221168   0.545   0.656   0.732 -0.4536  0.2155 -1.1145
 3179SOL     OW21169   4.312   3.275  13.849  0.3992 -0.0220 -0.6417
 3179SOL    HW121170   4.271   3.227  13.777  1.6575 -0.5987 -0.9747
 3179SOL    HW221171   4.254   3.266  13.925 -0.7224  0.5392 -1.4313
 3180SOL     OW21172   4.531   3.317   9.070 -0.2905  0.1653 -0.4338
 3180SOL    HW121173   4.598   3.338   9.135 -0.5108  0.1000 -0.1850
 3180SOL    HW221174   4.456   3.298   9.127 -2.1236 -0.3605 -3.0433
 3181SOL     OW21175   0.940   0.711   5.683  0.0973 -0.4878 -0.1841
 3181SOL    HW121176   0.894   0.711   5.767  0.8090  1.5885  0.2223
 3181SOL    HW221177   1.017   0.757   5.717 -1.2841  1.7871 -0.1462
 3182SOL     OW21178   0.675   2.857   9.962  0.7589  0.2007 -0.1422
 3182SOL    HW121179   0.674   2.770   9.921 -0.3486  0.6607 -1.1082
 3182SOL    HW221180   0.704   2.837  10.051 -1.4793 -0.7286  0.3670
 3183SOL     OW21181   2.390   2.108   4.366  0.1456  0.6330 -0.1210
 3183SOL    HW121182   2.477   2.084   4.336  0.3008 -1.1544  1.7376
 3183SOL    HW221183   2.411   2.198   4.391 -0.3583  0.9520 -0.8270
 3184SOL     OW21184   2.176   1.286   7.562  0.7009 -0.1797 -0.2081
 3184SOL    HW121185   2.115   1.319   7.629  1.2724 -1.7944  1.0875
 3184SOL    HW221186   2.128   1.213   7.523  0.3617 -0.2323  0.3003
 3185SOL     OW21187   3.765   1.710   6.661 -0.1734 -0.1256 -0.1377
 3185SOL    HW121188   3.778   1.771   6.588 -0.3584 -0.6451 -0.5984
 3185SOL    HW221189   3.749   1.781   6.724 -5.0242 -2.6714  1.4470
 3186SOL     OW21190   1.273   2.354   2.497 -0.0147 -0.3764 -0.1958
 3186SOL    HW121191   1.220   2.277   2.477 -0.3696  0.3873 -2.1742
 3186SOL    HW221192   1.358   2.335   2.457  1.0988  0.2388  1.8437
 3187SOL     OW21193   3.010   2.945   7.591 -0.3853  0.3249  0.4310
 3187SOL    HW121194   3.000   3.011   7.523  3.4860  1.7135  1.2324
 3187SOL    HW221195   3.099   2.916   7.572 -0.4433  0.9342 -0.7926
 3188SOL     OW21196   2.917   0.144   5.619  0.2836 -0.1307 -0.4782
 3188SOL    HW121197   2.865   0.153   5.539 -0.8574 -0.4080  0.2428
 3188SOL    HW221198   2.896   0.230   5.655  0.3867 -0.8614  1.3223
 3189SOL     OW21199   2.468   1.579  10.562 -0.0646 -0.0048  0.5408
 3189SOL    HW121200   2.558   1.570  10.592 -0.4440 -1.4757  1.2039
 3189SOL    HW221201   2.466   1.501  10.506  1.7095  0.8223 -0.6797
 3190SOL     OW21202   1.373   1.828   7.210 -0.2043 -0.0417  0.6983
 3190SOL    HW121203   1.348   1.800   7.298 -3.3409 -0.3986 -0.2981
 3190SOL    HW221204   1.465   1.804   7.216 -0.5080 -1.1245  1.0490
 3191SOL     OW21205   0.754   0.471   9.829 -0.6884  1.1751  0.0932
 3191SOL    HW121206   0.774   0.456   9.922 -2.4716  0.4576  0.3535
 3191SOL    HW221207   0.743   0.566   9.838 -1.5383  1.2100 -1.2790
 3192SOL     OW21208   0.664   4.202  14.113 -0.5453  0.7815 -0.0354
 3192SOL    HW121209   0.745   4.193  14.163 -0.8504  0.0948  0.3411
 3192SOL    HW221210   0.602   4.208  14.186 -0.4704  1.8362 -0.0584
 3193SOL     OW21211   3.772   2.751   3.187 -0.4431 -0.5241 -0.1816
 3193SOL    HW121212   3.749   2.665   3.151 -2.1423 -0.7497  1.4072
 3193SOL    HW221213   3.867   2.744   3.186 -0.4737 -1.0288  0.3553
 3194SOL     OW21214   2.743   0.150   6.614 -0.4124 -0.8278  0.6740
 3194SOL    HW121215   2.800   0.179   6.542  2.0716 -2.9834  1.7623
 3194SOL    HW221216   2.758   0.056   6.601 -0.7430 -0.6901 -0.7327
 3195SOL     OW21217   1.294   0.544   4.439  0.4672 -0.3534  0.1455
 3195SOL    HW121218   1.265   0.608   4.504  2.0187  1.7291 -1.2127
 3195SOL    HW221219   1.227   0.475   4.443  1.2458 -1.1755 -1.1690
 3196SOL     OW21220   3.480   2.210   3.680 -0.2070  0.5702  0.1489
 3196SOL    HW121221   3.426   2.192   3.604  0.2908 -0.3829  0.0121
 3196SOL    HW221222   3.555   2.153   3.662 -0.4520  0.4147 -0.3472
 3197SOL     OW21223   3.056   3.246  11.461 -0.3464  0.9894  0.3527
 3197SOL    HW121224   2.980   3.269  11.515 -0.7938 -0.7892  0.4685
 3197SOL    HW221225   3.015   3.257  11.375  0.4748  0.3351 -0.1273
 3198SOL     OW21226   1.846   3.053   8.983  0.1650 -0.3018 -0.1464
 3198SOL    HW121227   1.897   2.976   9.007 -0.1712 -0.6545 -0.5727
 3198SOL    HW221228   1.873   3.111   9.054 -1.5583  0.1906  0.1114
 3199SOL     OW21229   0.990   4.695   1.596 -0.6204  0.0322 -0.0473
 3199SOL    HW121230   0.997   4.621   1.657  1.0810  1.6121  1.7060
 3199SOL    HW221231   1.029   4.667   1.513  0.5949  1.0363  0.1839
 3200SOL     OW21232   4.430   0.738  15.661  0.4564  0.5714 -0.0078
 3200SOL    HW121233   4.417   0.810  15.723 -1.7790  1.7540 -1.8732
 3200SOL    HW221234   4.475   0.687  15.729 -0.2534  1.7341  1.3380
 3201SOL     OW21235   2.949   3.002  10.646 -0.3262  0.1535  0.3361
 3201SOL    HW121236   2.894   2.995  10.724 -0.7951  0.7980  0.0635
 3201SOL    HW221237   2.883   2.971  10.584  0.5414  0.9812 -0.9958
 3202SOL     OW21238   2.709   3.652   8.150  0.3443 -0.0586 -0.2755
 3202SOL    HW121239   2.616   3.669   8.161  0.9324  1.5050  2.2241
 3202SOL    HW221240   2.728   3.732   8.100 -2.3904  0.8695  0.1630
 3203SOL     OW21241   3.872   0.660   3.684  0.0351 -0.1142 -0.2657
 3203SOL    HW121242   3.909   0.744   3.712  0.0053  0.9704 -3.4502
 3203SOL    HW221243   3.789   0.690   3.647  1.6702  3.9986 -0.5982
 3204SOL     OW21244   3.036   2.470   1.899 -0.0206  0.2267 -0.2827
 3204SOL    HW121245   3.120   2.503   1.867 -0.1900  1.2971  0.3760
 3204SOL    HW221246   3.033   2.395   1.840  2.1088  0.4217 -0.6365
 3205SOL     OW21247   4.453   1.034   1.441  0.8965 -0.1658 -0.3623
 3205SOL    HW121248   4.414   1.095   1.379  2.2705  1.1916  0.1124
 3205SOL    HW221249   4.547   1.034   1.425  1.3630 -0.9440  2.2909
 3206SOL     OW21250   4.527   2.835   2.540 -0.5338 -0.3539  0.8207
 3206SOL    HW121251   4.601   2.888   2.512  0.5660 -2.1476  0.3304
 3206SOL    HW221252   4.457   2.879   2.494 -1.0548 -0.3399  1.6202
 3207SOL     OW21253   2.836   0.089   3.809  0.0279  0.1473  0.7104
 3207SOL    HW121254   2.908   0.074   3.748 -2.3234 -0.0936 -2.0274
 3207SOL    HW221255   2.849   0.023   3.877 -2.8074 -1.1780 -0.0341
 3208SOL     OW21256   2.257   1.085   1.800 -0.1800 -0.5190  0.0343
 3208SOL    HW121257   2.349   1.107   1.790 -0.6818  0.8328 -1.6118
 3208SOL    HW221258   2.261   0.999   1.842  0.2225 -1.3468 -1.6802
 3209SOL     OW21259   1.106   2.178  14.642 -0.8520  0.5947  0.4793
 3209SOL    HW121260   1.142   2.111  14.701  0.1788 -0.2954 -1.1738
 3209SOL    HW221261   1.097   2.249  14.706 -0.0566 -0.4769  1.7740
 3210SOL     OW21262   4.698   1.581  10.477 -0.2681 -0.1598 -0.1231
 3210SOL    HW121263   4.606   1.608  10.470 -1.0355 -2.5651  0.8427
 3210SOL    HW221264   4.682   1.507  10.419  0.1574 -0.4855  0.1841
 3211SOL     OW21265   0.200   1.573  15.045 -0.3396 -0.1649  0.1103
 3211SOL    HW121266   0.134   1.566  15.114 -2.2869  0.1790 -1.7479
 3211SOL    HW221267   0.148   1.594  14.968  1.6274  2.4687 -0.5068
 3212SOL     OW21268   3.699   2.656   4.147 -0.5887 -0.2196 -0.1243
 3212SOL    HW121269   3.743   2.700   4.219  0.7784 -0.7410 -0.6423
 3212SOL    HW221270   3.705   2.731   4.087  0.4988 -1.4968 -1.6149
 3213SOL     OW21271   4.029   2.520   8.633 -0.1417 -0.2538 -0.4102
 3213SOL    HW121272   4.069   2.594   8.680 -1.8951 -0.4764  1.4416
 3213SOL    HW221273   4.033   2.453   8.701  0.7774  0.0698 -0.1374
 3214SOL     OW21274   1.520   1.321  10.561  0.4433  0.1141 -0.0633
 3214SOL    HW121275   1.475   1.241  10.534  0.9874 -0.2324  0.0522
 3214SOL    HW221276   1.451   1.373  10.602 -1.1667 -1.5243 -0.6764
 3215SOL     OW21277   3.414   0.952   2.914 -0.1352  0.1898  0.2657
 3215SOL    HW121278   3.330   0.941   2.958 -0.3101 -3.5945 -1.0171
 3215SOL    HW221279   3.463   0.888   2.967  0.0179 -1.4790 -1.8805
 3216SOL     OW21280   0.918   0.347   4.719  0.1609 -0.2734  0.0075
 3216SOL    HW121281   0.887   0.258   4.702  0.7194 -1.3114  4.5260
 3216SOL    HW221282   0.994   0.327   4.774  0.4776 -1.5335 -0.8740
 3217SOL     OW21283   1.963   2.780  15.107  0.6518 -0.2546 -0.1593
 3217SOL    HW121284   1.945   2.789  15.201 -0.9949 -2.4426 -0.2549
 3217SOL    HW221285   2.014   2.699  15.100  2.9781  1.2066  0.2331
 3218SOL     OW21286   1.544   0.504  17.150 -0.1186  0.4978  0.0015
 3218SOL    HW121287   1.636   0.529  17.144 -0.2052  1.2153  1.5404
 3218SOL    HW221288   1.519   0.566  17.082  0.2271  0.7940  0.1468
 3219SOL     OW21289   1.995   1.200   5.225  0.4366  0.0544  0.0467
 3219SOL    HW121290   1.942   1.278   5.205  1.1914  0.5943  0.1350
 3219SOL    HW221291   2.006   1.215   5.319 -0.4418 -1.0964  0.3339
 3220SOL     OW21292   1.228   2.486   3.458  0.1320 -0.5879 -0.5964
 3220SOL    HW121293   1.222   2.490   3.362  0.8856 -0.4662 -0.6427
 3220SOL    HW221294   1.139   2.456   3.475  0.8844 -2.1129  0.6147
 3221SOL     OW21295   3.253   3.582  17.275 -0.0502 -0.6096  0.3904
 3221SOL    HW121296   3.314   3.519  17.238  0.7664 -1.3236  2.9561
 3221SOL    HW221297   3.306   3.634  17.335  0.8375 -0.0260 -0.8860
 3222SOL     OW21298   4.542   2.726  14.031  0.1405 -0.1616 -0.3038
 3222SOL    HW121299   4.568   2.796  13.971 -1.3112  0.9159  0.3249
 3222SOL    HW221300   4.452   2.715  14.000 -0.6470  1.5807  1.3510
 3223SOL     OW21301   1.956   3.788   2.819  0.1845 -0.1282  0.0901
 3223SOL    HW121302   2.001   3.711   2.855  2.8221  0.6257 -1.6203
 3223SOL    HW221303   2.026   3.825   2.766 -0.6527  0.5648 -0.5189
 3224SOL     OW21304   1.779   1.496   4.783 -0.7166 -0.2318 -0.6783
 3224SOL    HW121305   1.792   1.408   4.819  1.6519  0.0992 -0.7074
 3224SOL    HW221306   1.780   1.486   4.688 -0.4438 -1.0485 -0.5941
 3225SOL     OW21307   3.556   0.571   3.870  0.2773  0.4245 -0.0813
 3225SOL    HW121308   3.584   0.615   3.951  1.6748 -0.3094 -0.1627
 3225SOL    HW221309   3.618   0.499   3.858 -3.3496 -2.4009 -1.4615
 3226SOL     OW21310   2.830   3.573   3.463 -0.0538  0.7123  0.2768
 3226SOL    HW121311   2.750   3.565   3.515  0.8608 -1.8219  1.2994
 3226SOL    HW221312   2.891   3.525   3.519 -1.2054 -0.6756  0.3317
 3227SOL     OW21313   4.320   1.463   5.013  0.1836 -0.1573  0.4546
 3227SOL    HW121314   4.388   1.526   5.036 -1.5211  2.0648 -0.5687
 3227SOL    HW221315   4.254   1.512   4.962  1.7643 -2.2806 -3.6507
 3228SOL     OW21316   3.067   4.502   7.259 -0.3967 -0.6439 -0.2288
 3228SOL    HW121317   3.001   4.455   7.310 -1.9979  2.2332  0.3955
 3228SOL    HW221318   3.149   4.486   7.306 -1.8020 -1.1575  2.0612
 3229SOL     OW21319   0.644   3.259   6.625 -0.1079 -0.2787 -0.0087
 3229SOL    HW121320   0.645   3.179   6.572 -2.0958 -0.5835  0.3975
 3229SOL    HW221321   0.590   3.322   6.577  0.5344 -0.3008 -0.7471
 3230SOL     OW21322   2.100   1.338   9.837 -0.7768 -0.4915 -0.0838
 3230SOL    HW121323   2.044   1.288   9.897 -3.8201  2.4902 -0.4119
 3230SOL    HW221324   2.047   1.418   9.832 -0.8435 -0.5612 -0.5076
 3231SOL     OW21325   2.489   4.632   7.433 -0.7616 -0.4560 -0.1502
 3231SOL    HW121326   2.456   4.684   7.359 -0.0538 -0.5525 -0.5330
 3231SOL    HW221327   2.409   4.589   7.463  0.1241 -1.9919 -0.0215
 3232SOL     OW21328   2.420   3.997  16.826 -0.2947  0.5878 -0.0895
 3232SOL    HW121329   2.367   4.020  16.751 -0.0047  1.1299 -0.1302
 3232SOL    HW221330   2.506   3.987  16.784 -0.7219  1.6577 -1.2075
 3233SOL     OW21331   2.542   3.870   3.093  0.3932  0.2012  0.6216
 3233SOL    HW121332   2.593   3.950   3.086 -1.1647  1.0562 -0.8286
 3233SOL    HW221333   2.571   3.830   3.011  1.0707 -0.0791  0.9923
 3234SOL     OW21334   0.354   0.141   1.738  0.1177  0.1987  0.1357
 3234SOL    HW121335   0.416   0.102   1.677 -0.5493 -0.6165 -0.0357
 3234SOL    HW221336   0.284   0.147   1.673  2.2837 -0.7787 -2.2707
 3235SOL     OW21337   1.189   3.656   6.140 -0.4254 -0.5955  0.6792
 3235SOL    HW121338   1.216   3.727   6.198 -2.1573 -1.6176  2.7794
 3235SOL    HW221339   1.276   3.637   6.107 -0.8193 -0.8049 -0.2314
 3236SOL     OW21340   2.820   2.760   9.845 -1.0052 -0.3329 -0.2146
 3236SOL    HW121341   2.856   2.710   9.772  0.4443  3.0046 -1.7803
 3236SOL    HW221342   2.863   2.737   9.927 -0.5952  1.7083  0.1560
 3237SOL     OW21343   0.570   1.255   9.296 -0.1421  0.2081  0.8871
 3237SOL    HW121344   0.492   1.265   9.351 -0.7742  1.6706 -0.2661
 3237SOL    HW221345   0.529   1.245   9.210 -0.0624  1.9939  0.6474
 3238SOL     OW21346   2.606   1.392  13.120  0.2017  0.2330 -0.2944
 3238SOL    HW121347   2.657   1.473  13.120 -1.1384  1.0887 -0.2805
 3238SOL    HW221348   2.520   1.425  13.146 -0.7160  0.8793 -4.1494
 3239SOL     OW21349   4.693   4.637   2.318 -0.5204  0.1373 -0.6282
 3239SOL    HW121350   4.675   4.566   2.256 -2.8566 -0.4846  0.7589
 3239SOL    HW221351   0.047   4.657   2.290 -1.1686 -0.5985 -3.2030
 3240SOL     OW21352   1.764   4.358   7.165  0.4825 -0.6411  0.0685
 3240SOL    HW121353   1.840   4.363   7.106 -1.0042  0.8151 -1.7168
 3240SOL    HW221354   1.728   4.279   7.126  2.7376 -1.7688  0.2576
 3241SOL     OW21355   3.447   4.215   8.068 -0.2129 -0.0244 -0.1726
 3241SOL    HW121356   3.476   4.269   8.142  0.8376 -1.5700  0.5324
 3241SOL    HW221357   3.386   4.152   8.107  1.0810 -0.6567  0.8181
 3242SOL     OW21358   3.388   3.991   8.635  0.3867 -0.2802  0.3631
 3242SOL    HW121359   3.304   4.016   8.596 -0.3940  0.3265  2.4564
 3242SOL    HW221360   3.395   4.018   8.726  0.9475  1.5239 -0.2140
 3243SOL     OW21361   0.171   1.750  14.622  0.8693 -0.6581  0.0198
 3243SOL    HW121362   0.249   1.799  14.598  0.2568  0.7159  0.8361
 3243SOL    HW221363   0.129   1.730  14.538 -0.5094  3.3111 -0.2569
 3244SOL     OW21364   3.374   0.315   5.339 -0.3156  0.3099 -0.0123
 3244SOL    HW121365   3.408   0.229   5.361  1.6231  1.1258  0.2306
 3244SOL    HW221366   3.284   0.311   5.369 -1.2257 -1.2087 -2.9898
 3245SOL     OW21367   4.189   1.806   5.647  0.0733  0.5931 -0.1333
 3245SOL    HW121368   4.202   1.897   5.672 -1.1674 -0.3933  4.1807
 3245SOL    HW221369   4.143   1.826   5.565  0.1051 -3.0956 -1.0895
 3246SOL     OW21370   1.831   3.066   1.739  0.3173 -0.1939  0.0686
 3246SOL    HW121371   1.837   3.159   1.760  1.4613 -0.1536 -0.4415
 3246SOL    HW221372   1.874   3.061   1.654  2.1611 -1.8338  1.0896
 3247SOL     OW21373   2.441   1.429   8.793 -0.0384  0.2614 -0.4314
 3247SOL    HW121374   2.467   1.520   8.809  1.1802 -0.3625  1.1769
 3247SOL    HW221375   2.510   1.378   8.836 -1.8585  0.4363  2.7350
 3248SOL     OW21376   2.414   0.592   7.062  0.3411  0.2186  0.1847
 3248SOL    HW121377   2.444   0.538   7.135  0.7663 -0.2428 -0.3234
 3248SOL    HW221378   2.380   0.662   7.117 -0.5388 -2.2024  2.7402
 3249SOL     OW21379   0.499   1.055  15.939  0.2398 -0.3476  0.2927
 3249SOL    HW121380   0.458   1.020  15.860  2.0731  0.6186 -1.0944
 3249SOL    HW221381   0.424   1.103  15.972  0.0067 -0.9227  0.6051
 3250SOL     OW21382   1.360   0.628   1.971  0.3402  0.4929  0.3518
 3250SOL    HW121383   1.289   0.567   1.993  0.3551  0.3225 -0.0741
 3250SOL    HW221384   1.377   0.596   1.883  0.0268 -1.1971  0.9051
 3251SOL     OW21385   2.468   0.173   3.422 -0.8506 -0.0297 -0.4600
 3251SOL    HW121386   2.459   0.268   3.425 -0.0702  0.0294 -0.0097
 3251SOL    HW221387   2.552   0.159   3.466 -0.6011  5.9807  0.9779
 3252SOL     OW21388   4.451   0.280   8.233  0.4211 -0.4250  0.0482
 3252SOL    HW121389   4.488   0.346   8.292 -1.7925  0.1105  0.8530
 3252SOL    HW221390   4.370   0.317   8.195 -0.2968 -1.1419  0.8812
 3253SOL     OW21391   2.904   2.733   7.059  0.3504  0.0557 -0.2541
 3253SOL    HW121392   2.851   2.736   6.980 -1.6904  1.2858  1.1553
 3253SOL    HW221393   2.877   2.807   7.112  1.7878  0.4065 -0.0081
 3254SOL     OW21394   2.920   0.843  12.984 -0.3322 -0.3676  0.3277
 3254SOL    HW121395   2.846   0.807  12.936  0.6285  1.9776 -2.9164
 3254SOL    HW221396   2.893   0.821  13.073  1.6606 -2.6341  0.3704
 3255SOL     OW21397   3.541   3.244   3.987  0.0529 -0.2900 -0.9126
 3255SOL    HW121398   3.500   3.226   3.903  1.8810  0.5802 -2.0026
 3255SOL    HW221399   3.635   3.256   3.970 -0.0787  0.2876 -1.2193
 3256SOL     OW21400   1.318   4.329   1.482 -0.8563  0.0744 -0.2402
 3256SOL    HW121401   1.406   4.311   1.513  0.0795  0.8494 -2.4930
 3256SOL    HW221402   1.328   4.329   1.387 -1.2878 -1.7976 -0.2748
 3257SOL     OW21403   3.057   2.387   2.371  0.0481  0.3371  0.1606
 3257SOL    HW121404   3.137   2.355   2.330 -0.2371  2.1545 -1.7978
 3257SOL    HW221405   3.007   2.401   2.290  1.7000  0.1510 -0.8889
 3258SOL     OW21406   0.228   1.694  12.828 -0.0776 -0.3277  0.8728
 3258SOL    HW121407   0.252   1.608  12.793  0.7501  0.3473 -0.2021
 3258SOL    HW221408   0.310   1.742  12.815  1.0399 -2.1092  1.1641
 3259SOL     OW21409   3.523   3.433   3.459  0.1545 -0.0012 -0.0694
 3259SOL    HW121410   3.509   3.338   3.465 -3.1340  0.5277  0.6355
 3259SOL    HW221411   3.433   3.460   3.441  0.5194  0.8943 -0.5520
 3260SOL     OW21412   3.010   1.898   8.875 -0.4672  0.8513 -0.1028
 3260SOL    HW121413   3.041   1.831   8.814 -1.8445  1.9618 -2.0138
 3260SOL    HW221414   2.936   1.844   8.903 -0.9780  1.6377  0.0830
 3261SOL     OW21415   0.210   2.185  14.291  0.1937  0.6401 -0.0053
 3261SOL    HW121416   0.176   2.180  14.202 -1.0412 -1.4257  0.5908
 3261SOL    HW221417   0.219   2.096  14.323 -1.0348 -0.2834 -2.2247
 3262SOL     OW21418   2.080   2.769   7.823  0.7681  0.4587  0.3967
 3262SOL    HW121419   2.042   2.854   7.843 -1.3510 -0.5559  0.6572
 3262SOL    HW221420   2.171   2.792   7.842  0.9822 -0.6820  0.7838
 3263SOL     OW21421   2.019   0.027   2.287  0.2670  0.2433  0.4699
 3263SOL    HW121422   1.996   0.058   2.375 -0.8704 -2.2278  1.0720
 3263SOL    HW221423   2.109   0.002   2.307  0.0220  0.3200  1.6650
 3264SOL     OW21424   2.573   1.038   0.956 -0.5513 -0.2821  0.0922
 3264SOL    HW121425   2.495   0.996   0.992 -1.2154 -1.0011 -2.1777
 3264SOL    HW221426   2.569   1.013   0.863  0.3235  1.2284 -0.3528
 3265SOL     OW21427   1.594   0.121   2.145 -0.2583  0.3754  0.1592
 3265SOL    HW121428   1.624   0.100   2.056 -1.1197 -0.7826  0.1378
 3265SOL    HW221429   1.532   0.193   2.132  0.6027  1.1314  0.2023
 3266SOL     OW21430   4.020   0.164   9.651  0.1882 -0.1454  0.2531
 3266SOL    HW121431   4.015   0.216   9.731 -1.0337  1.6396 -0.9764
 3266SOL    HW221432   3.989   0.081   9.686 -1.4582  0.1680 -0.4174
 3267SOL     OW21433   2.100   2.497   5.300  0.3132  0.0213 -0.2541
 3267SOL    HW121434   2.116   2.413   5.258  0.5505  0.0481 -0.2166
 3267SOL    HW221435   2.074   2.551   5.225 -1.7522  0.7730  0.9975
 3268SOL     OW21436   4.407   1.935   7.101 -0.4117  0.3680  0.9855
 3268SOL    HW121437   4.354   1.877   7.156  0.1397 -1.3934 -0.3365
 3268SOL    HW221438   4.395   1.898   7.013  1.4620  0.0105  0.8800
 3269SOL     OW21439   2.206   2.586   6.575  0.6729  0.4972  0.3196
 3269SOL    HW121440   2.218   2.493   6.596 -0.5108  0.3369  0.3367
 3269SOL    HW221441   2.292   2.618   6.550  0.7186  0.5638  0.5650
 3270SOL     OW21442   3.371   2.421   9.340 -0.5350 -0.0077 -0.1574
 3270SOL    HW121443   3.356   2.502   9.291 -0.3163 -0.1134 -0.3986
 3270SOL    HW221444   3.412   2.371   9.270  2.3123  1.7301  0.2714
 3271SOL     OW21445   0.808   0.512   5.565 -0.2162 -0.2320 -0.0249
 3271SOL    HW121446   0.747   0.584   5.550  2.1177  1.8954  0.6661
 3271SOL    HW221447   0.866   0.576   5.606  1.2866 -0.4128 -1.9029
 3272SOL     OW21448   0.452   0.911   9.606 -0.4001 -0.4248  0.8066
 3272SOL    HW121449   0.388   0.931   9.538  1.5568  0.1884 -0.8746
 3272SOL    HW221450   0.438   0.817   9.606 -0.3674 -0.4277  1.7660
 3273SOL     OW21451   1.947   3.456  13.091 -0.4553 -0.6509  0.3619
 3273SOL    HW121452   1.861   3.415  13.079 -0.3400 -0.1504 -2.0854
 3273SOL    HW221453   2.004   3.379  13.089 -2.2044 -1.9203 -1.0745
 3274SOL     OW21454   2.705   4.620  16.840  0.5118  0.4200  0.3320
 3274SOL    HW121455   2.661   4.606  16.924  0.5959  1.1303  0.5028
 3274SOL    HW221456   2.789   4.589  16.873  0.1519 -0.8813 -0.0035
 3275SOL     OW21457   4.125   4.703   2.316  0.2305 -0.7571 -0.1276
 3275SOL    HW121458   4.114   0.060   2.292 -2.3278 -1.0122  0.0069
 3275SOL    HW221459   4.213   4.711   2.352 -0.4673  0.8223  1.2088
 3276SOL     OW21460   1.604   2.169  11.724  0.5438 -0.3732  0.1801
 3276SOL    HW121461   1.616   2.197  11.815  2.6586  1.8849 -0.7978
 3276SOL    HW221462   1.649   2.240  11.677  1.0714 -0.8105  0.0276
 3277SOL     OW21463   2.324   2.606   4.195  0.1148 -0.1217  0.0334
 3277SOL    HW121464   2.378   2.627   4.271 -0.6338 -2.8787  1.3049
 3277SOL    HW221465   2.256   2.671   4.208 -1.5415 -1.7707 -0.3350
 3278SOL     OW21466   2.954   4.500   1.789  0.0011  0.5086 -0.4433
 3278SOL    HW121467   3.005   4.432   1.832 -1.3727  0.8337  1.7002
 3278SOL    HW221468   3.029   4.551   1.758 -0.9732  0.0459 -3.4978
 3279SOL     OW21469   3.439   4.014  11.612 -0.2049 -0.7362  0.1329
 3279SOL    HW121470   3.410   3.973  11.693 -0.2736 -0.5598  0.1987
 3279SOL    HW221471   3.362   3.995  11.558 -0.6521  1.8503 -0.1440
 3280SOL     OW21472   1.850   4.474   8.294  0.1947 -0.2409 -0.0824
 3280SOL    HW121473   1.822   4.531   8.366  2.3840 -0.8122  1.2269
 3280SOL    HW221474   1.931   4.435   8.328 -0.0995 -2.2191 -1.6885
 3281SOL     OW21475   4.452   3.365   6.456 -0.6157  0.4599  0.4145
 3281SOL    HW121476   4.431   3.458   6.462 -3.9805 -0.2600 -0.2837
 3281SOL    HW221477   4.528   3.370   6.397 -2.8085  2.2202 -2.2886
 3282SOL     OW21478   1.678   4.454   2.991 -0.3297  0.2897 -0.1022
 3282SOL    HW121479   1.591   4.422   3.016  0.2528 -0.4885  0.9003
 3282SOL    HW221480   1.729   4.373   2.987  2.1945  1.9316 -1.5553
 3283SOL     OW21481   2.254   4.079  12.371 -0.0939 -0.0517 -0.7167
 3283SOL    HW121482   2.177   4.028  12.395 -0.5456  0.5399 -0.9156
 3283SOL    HW221483   2.237   4.092  12.278  1.7854  0.0138 -1.0696
 3284SOL     OW21484   3.031   0.378   4.810  0.2986 -0.3886 -0.6609
 3284SOL    HW121485   2.942   0.389   4.845  0.0898  0.8651 -1.5908
 3284SOL    HW221486   3.071   0.435   4.876  0.0504 -0.0554 -0.7974
 3285SOL     OW21487   3.685   1.500   3.972 -0.0732  0.3120 -0.3589
 3285SOL    HW121488   3.771   1.522   3.935  1.2541 -1.1637  1.8755
 3285SOL    HW221489   3.704   1.417   4.015  3.4465  0.2303 -2.0341
 3286SOL     OW21490   3.791   2.370  11.555  0.1384  0.5622  0.4907
 3286SOL    HW121491   3.825   2.346  11.468  0.0887  1.4550  0.2221
 3286SOL    HW221492   3.820   2.462  11.558  0.7084  0.4063 -0.1436
 3287SOL     OW21493   0.515   1.057  10.143 -0.4224  0.1742 -0.1530
 3287SOL    HW121494   0.466   1.065  10.061 -1.4329 -1.8407  0.2672
 3287SOL    HW221495   0.445   1.054  10.208  1.6187  1.1276  2.0840
 3288SOL     OW21496   1.372   0.457   1.738 -0.0922  0.1834 -0.5839
 3288SOL    HW121497   1.343   0.387   1.679  0.6133 -0.2633 -0.3886
 3288SOL    HW221498   1.369   0.409   1.820 -1.0941  0.8831 -0.2035
 3289SOL     OW21499   0.019   2.648   5.559  0.1801  0.3700 -0.0178
 3289SOL    HW121500   0.048   2.562   5.529 -0.7561 -0.0254  0.1973
 3289SOL    HW221501   4.678   2.617   5.608  0.4287  0.9226  0.7180
 3290SOL     OW21502   3.503   3.328   7.739 -0.1389  0.3824  0.1734
 3290SOL    HW121503   3.557   3.402   7.712  1.4323 -1.5322 -1.9657
 3290SOL    HW221504   3.571   3.287   7.792 -1.3641 -0.8897  0.7608
 3291SOL     OW21505   3.026   3.991  16.663 -0.4968  0.0283  0.1461
 3291SOL    HW121506   3.071   3.960  16.742  1.2152 -2.4515 -1.7923
 3291SOL    HW221507   2.951   4.047  16.684  3.1356  3.9792  2.6460
 3292SOL     OW21508   4.700   0.830   5.692 -0.3585  0.1333 -0.2005
 3292SOL    HW121509   0.003   0.762   5.636  0.3335 -0.7059  1.2819
 3292SOL    HW221510   4.675   0.893   5.625  1.0028  2.0182  1.0720
 3293SOL     OW21511   3.256   3.903   6.603  0.1220 -0.0537 -0.2510
 3293SOL    HW121512   3.350   3.915   6.613 -0.0457  0.4830  0.6734
 3293SOL    HW221513   3.241   3.892   6.509  2.7624  0.0769 -0.6947
 3294SOL     OW21514   0.366   1.787  16.866  0.2068  0.3333  0.3222
 3294SOL    HW121515   0.356   1.739  16.784 -0.0504 -1.7200  1.5379
 3294SOL    HW221516   0.393   1.870  16.829  1.8618 -0.3634 -0.0336
 3295SOL     OW21517   4.488   0.622   0.761 -0.1697  0.4446  0.5922
 3295SOL    HW121518   4.420   0.574   0.808 -0.0064 -2.4871 -2.1783
 3295SOL    HW221519   4.544   0.643   0.835  0.4119  1.1387 -0.0383
 3296SOL     OW21520   4.184   0.264  15.399 -0.3875  0.7638 -0.4594
 3296SOL    HW121521   4.231   0.283  15.480 -0.3624  0.3944 -0.3882
 3296SOL    HW221522   4.187   0.348  15.353 -1.3196  1.0160 -0.0627
 3297SOL     OW21523   2.099   4.450   5.698 -0.6729  0.3877 -0.6606
 3297SOL    HW121524   2.033   4.397   5.743 -0.1029 -0.5019 -0.8845
 3297SOL    HW221525   2.176   4.453   5.753  0.1606 -2.6185 -1.6413
 3298SOL     OW21526   3.272   1.072   4.191 -0.1615  0.3171 -0.3047
 3298SOL    HW121527   3.311   1.142   4.243 -0.0677 -0.3761  0.5585
 3298SOL    HW221528   3.182   1.102   4.197 -0.6891 -1.4316  0.6529
 3299SOL     OW21529   4.342   0.535  12.240  0.3350  0.1242 -0.6379
 3299SOL    HW121530   4.254   0.498  12.236  1.3011 -2.4017  0.9654
 3299SOL    HW221531   4.325   0.581  12.322  0.2596  3.0621 -2.2963
 3300SOL     OW21532   0.745   2.534   2.808 -0.0620 -0.7251  0.1819
 3300SOL    HW121533   0.685   2.577   2.869  0.0490  0.1613 -0.3407
 3300SOL    HW221534   0.711   2.445   2.816 -0.4618 -0.5938 -0.0894
 3301SOL     OW21535   3.122   2.603   4.329  0.2020  0.1182 -0.0440
 3301SOL    HW121536   3.108   2.561   4.414  0.1500  1.9775  0.8446
 3301SOL    HW221537   3.216   2.590   4.317  0.2892  1.4028 -0.7015
 3302SOL     OW21538   1.014   4.603  11.597 -0.5230 -0.3946 -0.0153
 3302SOL    HW121539   1.080   4.636  11.535 -0.7154  0.0699  0.0258
 3302SOL    HW221540   1.050   4.520  11.628  0.9450  0.2558  0.0531
 3303SOL     OW21541   2.095   3.328   4.946 -0.0910  0.4725 -0.1055
 3303SOL    HW121542   2.142   3.252   4.979  0.0890  1.3428  1.6901
 3303SOL    HW221543   2.059   3.296   4.864 -0.7681  3.2732 -0.9174
 3304SOL     OW21544   0.259   4.734   2.843 -0.4070  0.5725  0.5030
 3304SOL    HW121545   0.201   4.712   2.916  2.4037 -0.3783  2.4496
 3304SOL    HW221546   0.215   4.701   2.764  0.3248 -1.5467  0.9689
 3305SOL     OW21547   1.793   1.202   9.305  0.5704  0.6691 -0.0506
 3305SOL    HW121548   1.717   1.169   9.353 -0.4825  0.4335 -1.9019
 3305SOL    HW221549   1.864   1.177   9.364  0.9162  0.8836 -0.3771
 3306SOL     OW21550   1.191   0.765   3.368  0.0525 -0.1172  0.2383
 3306SOL    HW121551   1.211   0.673   3.351 -1.3184 -0.6561  1.5849
 3306SOL    HW221552   1.269   0.784   3.420  1.2379  2.3621 -2.3847
 3307SOL     OW21553   2.904   0.959   5.607  0.2201 -0.0534 -0.2780
 3307SOL    HW121554   2.950   0.880   5.637  1.8417 -0.1746 -3.1028
 3307SOL    HW221555   2.821   0.939   5.651  0.2163  3.1663  1.1817
 3308SOL     OW21556   1.678   4.008  17.044 -0.2288  0.0364  0.4493
 3308SOL    HW121557   1.718   3.992  17.129  2.1931 -0.4132 -0.7573
 3308SOL    HW221558   1.639   3.922  17.027  0.0805  0.1292 -0.7780
 3309SOL     OW21559   4.278   0.423   4.048 -0.0695 -0.6392  0.5391
 3309SOL    HW121560   4.302   0.338   4.010  1.5851  0.2899 -0.4712
 3309SOL    HW221561   4.345   0.433   4.115 -0.1898 -1.0054  0.7166
 3310SOL     OW21562   1.642   3.592   5.591  0.2139 -0.2221  0.5112
 3310SOL    HW121563   1.727   3.605   5.633 -0.6259 -0.0428  2.1219
 3310SOL    HW221564   1.605   3.680   5.588  1.0911  0.1684  1.1252
 3311SOL     OW21565   3.263   3.425   7.821  0.0094 -0.0331  0.6712
 3311SOL    HW121566   3.211   3.389   7.749  1.3292  0.1221 -0.3625
 3311SOL    HW221567   3.352   3.405   7.792 -0.1909  5.5275 -3.9472
 3312SOL     OW21568   4.711   3.515   1.537  0.4576 -0.1867 -0.4548
 3312SOL    HW121569   0.062   3.497   1.575 -0.4143 -0.1075  1.5901
 3312SOL    HW221570   4.655   3.526   1.614  1.5548 -0.6050  0.4032
 3313SOL     OW21571   3.993   1.020   2.661  0.7048  0.4282  0.1056
 3313SOL    HW121572   3.909   1.046   2.700 -0.2326  0.2021 -1.7554
 3313SOL    HW221573   4.028   1.099   2.620 -0.0842  1.0417  0.6053
 3314SOL     OW21574   4.680   3.704   7.904  0.1147 -0.2270 -0.3600
 3314SOL    HW121575   4.629   3.722   7.824 -2.3974 -1.0508  1.0696
 3314SOL    HW221576   0.028   3.748   7.884 -0.3373  1.2049  0.8842
 3315SOL     OW21577   2.405   1.784  13.027 -0.6262 -0.3472  0.0542
 3315SOL    HW121578   2.430   1.694  13.007 -1.2416 -0.6729  0.7576
 3315SOL    HW221579   2.453   1.826  12.956 -0.1683  0.9865  1.1578
 3316SOL     OW21580   0.285   3.771   8.243 -0.2262 -0.1130  0.1043
 3316SOL    HW121581   0.305   3.770   8.150 -1.6918  0.1796 -0.2011
 3316SOL    HW221582   0.303   3.679   8.263  2.9610  0.8865  1.9653
 3317SOL     OW21583   3.756   1.443  15.860  0.7495  0.4886  0.3702
 3317SOL    HW121584   3.674   1.490  15.871 -0.7017 -1.6706 -1.2284
 3317SOL    HW221585   3.789   1.499  15.789 -1.7687  1.3856 -0.0822
 3318SOL     OW21586   3.757   4.564   8.224 -0.5061 -0.4535  0.5744
 3318SOL    HW121587   3.846   4.585   8.253 -0.2968 -0.8796  0.2556
 3318SOL    HW221588   3.775   4.506   8.150 -0.1339  0.5426 -0.1205
 3319SOL     OW21589   2.071   4.553   3.115 -0.6573  0.1267 -0.0678
 3319SOL    HW121590   2.087   4.616   3.185 -0.1687 -0.3213  0.2216
 3319SOL    HW221591   2.107   4.603   3.041  0.0141  2.2332  1.7016
 3320SOL     OW21592   3.295   2.912   3.744 -0.4197  0.2328  0.5592
 3320SOL    HW121593   3.249   2.970   3.804  0.0499  0.8145  0.3486
 3320SOL    HW221594   3.339   2.846   3.798  2.0411  1.8137  0.4707
 3321SOL     OW21595   1.491   1.919   5.397  0.3127 -0.3206 -0.1597
 3321SOL    HW121596   1.540   1.962   5.467  0.9503 -0.9697 -0.2022
 3321SOL    HW221597   1.403   1.942   5.426  0.6372  1.4589 -0.5949
 3322SOL     OW21598   1.093   3.182  11.002  0.2427 -0.0980 -0.4238
 3322SOL    HW121599   1.104   3.124  11.077 -2.2805 -1.2038 -0.9006
 3322SOL    HW221600   1.096   3.259  11.059  0.6768  0.1232 -0.7443
 3323SOL     OW21601   2.554   4.545   3.556 -0.3190  0.6561  0.1887
 3323SOL    HW121602   2.603   4.467   3.531  0.8238  1.2760  0.4748
 3323SOL    HW221603   2.627   4.600   3.584  0.6067 -0.4454 -0.0921
 3324SOL     OW21604   0.325   3.274   9.217  0.6494 -0.4020  0.3964
 3324SOL    HW121605   0.387   3.279   9.145 -0.9159 -0.5966 -0.9655
 3324SOL    HW221606   0.319   3.359   9.261  0.7508  0.6074 -1.5630
 3325SOL     OW21607   0.202   1.617   8.906 -0.2530  0.1827 -0.3152
 3325SOL    HW121608   0.259   1.601   8.831 -2.7897 -1.4462 -1.9184
 3325SOL    HW221609   0.128   1.562   8.880 -0.1897  0.5250 -1.1926
 3326SOL     OW21610   0.997   0.023   8.806 -0.3903 -0.0489  0.0075
 3326SOL    HW121611   0.945   0.093   8.845 -0.0240 -0.1314  0.6405
 3326SOL    HW221612   1.087   0.057   8.803  0.0638 -0.9977  2.5746
 3327SOL     OW21613   1.234   1.343   1.027  0.5783  0.3842 -0.1472
 3327SOL    HW121614   1.278   1.418   1.066 -1.0198  2.4561 -2.3424
 3327SOL    HW221615   1.302   1.276   1.026 -0.7895 -1.0387  2.1488
 3328SOL     OW21616   0.575   3.949   3.914 -0.6774 -0.6483 -0.1683
 3328SOL    HW121617   0.634   4.008   3.960  0.7171 -1.8854 -0.3724
 3328SOL    HW221618   0.583   3.873   3.973  2.3136 -2.0278 -2.3328
 3329SOL     OW21619   1.846   1.309   8.843  0.3751 -0.6345 -0.0545
 3329SOL    HW121620   1.842   1.240   8.777  1.3348 -0.9423  0.2043
 3329SOL    HW221621   1.796   1.266   8.912 -0.1061  0.1237  0.0667
 3330SOL     OW21622   0.289   2.040   6.588 -0.1278 -0.2487 -0.5399
 3330SOL    HW121623   0.321   2.126   6.616  0.8200 -1.3764  1.8629
 3330SOL    HW221624   0.293   1.992   6.671 -0.4597 -2.9167 -2.0656
 3331SOL     OW21625   3.185   4.051   3.842  0.5714  0.0022  0.2839
 3331SOL    HW121626   3.176   3.956   3.837  0.3759  0.1181 -1.7290
 3331SOL    HW221627   3.238   4.063   3.920  0.7088 -1.2018  0.3667
 3332SOL     OW21628   4.080   4.385   8.518 -0.0519  0.1766  0.6599
 3332SOL    HW121629   4.103   4.309   8.465  1.5713  2.3054 -1.7476
 3332SOL    HW221630   4.164   4.413   8.554  0.5480 -0.8247  0.0409
 3333SOL     OW21631   4.443   2.449   6.168  0.2210  0.6944  0.0039
 3333SOL    HW121632   4.406   2.362   6.151  0.6204  0.2152  1.5556
 3333SOL    HW221633   4.523   2.457   6.115  0.7256 -1.4182  0.4451
 3334SOL     OW21634   1.578   1.978  11.968  0.4444 -0.4086  0.5397
 3334SOL    HW121635   1.540   2.012  11.887  0.9493  0.3574  0.6247
 3334SOL    HW221636   1.658   1.940  11.930  0.8363 -0.3705  1.3307
 3335SOL     OW21637   3.519   0.038   8.492 -0.6136 -0.0601 -0.4289
 3335SOL    HW121638   3.455   0.090   8.444 -2.0753 -1.5456 -0.1043
 3335SOL    HW221639   3.549   4.718   8.420 -1.7279  1.8458 -2.3627
 3336SOL     OW21640   3.522   0.391   8.395 -0.2788  0.6186  0.2712
 3336SOL    HW121641   3.543   0.410   8.487  0.0778 -1.0931  0.5419
 3336SOL    HW221642   3.445   0.447   8.381 -1.5316 -0.6481  2.0940
 3337SOL     OW21643   3.511   0.642  14.298 -0.1520 -0.3055  0.3438
 3337SOL    HW121644   3.540   0.727  14.265  0.5136 -0.9684 -0.8168
 3337SOL    HW221645   3.469   0.662  14.381  1.5061  2.4412  0.5274
 3338SOL     OW21646   0.398   1.122  11.358  0.2519  0.4525 -0.2757
 3338SOL    HW121647   0.385   1.108  11.452  2.0031 -1.1555 -0.2654
 3338SOL    HW221648   0.308   1.112  11.327 -0.1865 -2.0967  1.7969
 3339SOL     OW21649   4.350   2.683   2.012  0.1333 -0.5201  0.4330
 3339SOL    HW121650   4.371   2.755   2.071  1.1779 -0.3761 -0.1170
 3339SOL    HW221651   4.356   2.712   1.921  1.9255 -2.8594 -0.1977
 3340SOL     OW21652   4.409   3.844   5.085 -0.1115 -0.0273  0.5167
 3340SOL    HW121653   4.492   3.891   5.072  0.2848 -0.1456  2.7706
 3340SOL    HW221654   4.439   3.755   5.068  0.0804  0.0844  0.2465
 3341SOL     OW21655   4.497   2.994   8.628 -0.2648  0.1203  0.3520
 3341SOL    HW121656   4.483   3.039   8.711  1.6329  1.5367 -0.0829
 3341SOL    HW221657   4.579   3.033   8.595  0.1008  0.5401  1.7815
 3342SOL     OW21658   1.735   3.135   3.201 -0.3344  0.3335 -0.6522
 3342SOL    HW121659   1.742   3.045   3.169 -2.6518 -0.5253  1.3442
 3342SOL    HW221660   1.657   3.157   3.150 -2.5040  1.9895  3.4300
 3343SOL     OW21661   4.325   4.291   6.887 -0.2234  0.4765 -0.3652
 3343SOL    HW121662   4.235   4.288   6.921 -0.6304  0.6462 -1.4388
 3343SOL    HW221663   4.358   4.373   6.925  2.2805 -0.2402 -1.0292
 3344SOL     OW21664   0.447   2.139   5.717 -0.7775 -0.0391 -0.2012
 3344SOL    HW121665   0.420   2.052   5.688  0.1580 -1.1538  2.2690
 3344SOL    HW221666   0.537   2.117   5.743 -1.0541 -2.0597 -0.9465
 3345SOL     OW21667   2.600   4.016   6.999 -0.2656 -0.4505 -0.2393
 3345SOL    HW121668   2.514   4.057   6.998  0.0055  0.1151 -0.6304
 3345SOL    HW221669   2.626   4.001   6.908  1.4991 -3.2660  0.7041
 3346SOL     OW21670   0.492   2.003   8.466  0.0621 -0.1792  0.1086
 3346SOL    HW121671   0.424   1.972   8.526 -0.1387 -0.4112 -0.2423
 3346SOL    HW221672   0.467   2.095   8.473 -1.1575 -0.5648  0.8719
 3347SOL     OW21673   4.415   2.605   8.145  0.0408 -0.1821 -0.2419
 3347SOL    HW121674   4.385   2.671   8.208 -3.6267 -1.1230 -1.0350
 3347SOL    HW221675   4.331   2.605   8.100  0.0369 -0.0043 -0.2359
 3348SOL     OW21676   3.294   4.357   9.175 -0.1426 -0.1076  0.0751
 3348SOL    HW121677   3.372   4.302   9.178  1.3455  1.8842 -2.5141
 3348SOL    HW221678   3.332   4.438   9.142  0.5558 -1.0196 -1.3404
 3349SOL     OW21679   1.838   2.720   6.894 -0.7644  0.0564 -0.4009
 3349SOL    HW121680   1.803   2.809   6.900  0.4791  0.5858 -1.0166
 3349SOL    HW221681   1.891   2.714   6.974 -0.7355  1.2968 -0.3282
 3350SOL     OW21682   1.625   4.090   3.834  0.0147  0.7572 -0.0761
 3350SOL    HW121683   1.581   4.005   3.826  0.2970  0.5742  0.3079
 3350SOL    HW221684   1.646   4.106   3.742 -2.1518  1.8658 -0.3777
 3351SOL     OW21685   1.327   4.177  11.586 -0.0500 -0.0869  0.3428
 3351SOL    HW121686   1.316   4.083  11.598 -4.3287  0.3292 -0.2344
 3351SOL    HW221687   1.380   4.196  11.664  1.4736 -3.3143  0.0897
 3352SOL     OW21688   2.241   1.628   2.074  0.1567  0.1894  0.1355
 3352SOL    HW121689   2.210   1.654   1.987  0.3732  4.0307  1.2205
 3352SOL    HW221690   2.281   1.713   2.092  0.9718 -0.0086 -0.7192
 3353SOL     OW21691   2.883   4.282   4.591 -0.2898 -0.2623  0.1356
 3353SOL    HW121692   2.900   4.349   4.524  1.2018  1.5464  2.3132
 3353SOL    HW221693   2.913   4.201   4.551 -0.9083  0.3429 -1.5645
 3354SOL     OW21694   3.103   4.717   1.654 -0.1121  0.1249 -0.3891
 3354SOL    HW121695   3.177   4.732   1.713  0.6126  1.7895 -1.7223
 3354SOL    HW221696   3.103   0.064   1.606  0.5721 -0.0436 -0.6804
 3355SOL     OW21697   0.623   0.802  10.086 -0.2735  0.1262  0.0775
 3355SOL    HW121698   0.566   0.795  10.162 -0.3844  0.0402 -0.0147
 3355SOL    HW221699   0.629   0.898  10.081 -0.7810  0.2892  2.6607
 3356SOL     OW21700   2.240   1.247   4.491 -0.1425 -0.7385  0.7218
 3356SOL    HW121701   2.194   1.330   4.473  1.2551 -0.1031  0.0670
 3356SOL    HW221702   2.321   1.286   4.525 -1.3725  3.0406 -0.5772
 3357SOL     OW21703   3.585   1.769   6.318  0.0160 -0.0677 -0.0789
 3357SOL    HW121704   3.571   1.686   6.363 -1.1297  0.6093  0.7926
 3357SOL    HW221705   3.519   1.827   6.356  1.2306  2.7948 -2.3618
 3358SOL     OW21706   3.937   4.462  13.174  0.3181 -0.3868  0.1960
 3358SOL    HW121707   3.887   4.474  13.094 -2.2513  0.0669  1.8815
 3358SOL    HW221708   3.869   4.475  13.240  0.9786  0.1854  0.7653
 3359SOL     OW21709   3.272   1.588   5.305 -0.4954 -0.5216 -0.0277
 3359SOL    HW121710   3.214   1.544   5.243  0.1102 -1.6317  0.1937
 3359SOL    HW221711   3.345   1.620   5.251 -1.0734  1.7756  0.5490
 3360SOL     OW21712   2.498   0.467   3.958  0.3225  0.0095 -0.3370
 3360SOL    HW121713   2.543   0.455   4.042  0.9682 -0.8507 -0.8097
 3360SOL    HW221714   2.562   0.421   3.904 -0.1169 -0.1271 -0.7374
 3361SOL     OW21715   3.688   3.547   6.435 -0.2849 -0.1892  0.2013
 3361SOL    HW121716   3.722   3.539   6.524  0.0952  1.3478  0.2019
 3361SOL    HW221717   3.689   3.459   6.399 -2.1055  0.5302 -1.6097
 3362SOL     OW21718   3.706   2.508   2.995  0.0805 -0.3902 -0.3721
 3362SOL    HW121719   3.625   2.458   3.005 -1.5785  2.2227 -0.7549
 3362SOL    HW221720   3.681   2.574   2.930  2.2789  2.2997  1.5726
 3363SOL     OW21721   0.142   1.049  11.927 -1.1691 -0.1289  0.2492
 3363SOL    HW121722   0.208   0.985  11.952  0.0822  0.0227 -2.6589
 3363SOL    HW221723   0.120   1.068  12.018 -1.4308  1.5019 -0.1549
 3364SOL     OW21724   1.318   0.459   7.116  0.0995 -0.0464 -0.0364
 3364SOL    HW121725   1.403   0.419   7.094  0.9895 -0.2181  3.6951
 3364SOL    HW221726   1.354   0.515   7.184 -1.3963 -0.1060  0.7926
 3365SOL     OW21727   2.822   0.824   3.796  0.1314  0.6110 -0.4499
 3365SOL    HW121728   2.858   0.816   3.885 -0.9641 -0.0674 -0.0605
 3365SOL    HW221729   2.899   0.806   3.742 -0.5779  0.3194 -1.3691
 3366SOL     OW21730   0.144   2.960  16.737  0.6036 -0.3085  0.4354
 3366SOL    HW121731   0.076   3.022  16.762  1.2222 -0.6412  2.9481
 3366SOL    HW221732   0.188   2.964  16.822  1.0732 -0.8282  0.2178
 3367SOL     OW21733   1.221   0.142   9.666 -0.5459  0.3499 -0.3653
 3367SOL    HW121734   1.222   0.048   9.650  0.0215  0.6102 -1.7910
 3367SOL    HW221735   1.296   0.167   9.613  0.4913  1.3431  1.5571
 3368SOL     OW21736   0.185   0.136   6.040  0.1435 -0.1835  1.1987
 3368SOL    HW121737   0.147   0.049   6.046 -1.3036  0.3227 -0.7013
 3368SOL    HW221738   0.265   0.106   5.995  0.3155  0.1067  1.3122
 3369SOL     OW21739   4.386   2.474   7.593  0.1126  0.0690  0.6183
 3369SOL    HW121740   4.479   2.456   7.579  0.3574  0.6448  1.4914
 3369SOL    HW221741   4.347   2.437   7.514  0.9774  2.4477 -0.9250
 3370SOL     OW21742   1.554   3.060   4.345 -0.2112 -0.0083 -0.2315
 3370SOL    HW121743   1.482   3.027   4.398  0.1647 -1.4012 -0.6023
 3370SOL    HW221744   1.593   2.981   4.308 -0.0093 -0.5290  1.1008
 3371SOL     OW21745   1.397   2.916   1.556  0.3506 -0.1474 -0.0767
 3371SOL    HW121746   1.446   2.987   1.597  0.3004  0.1262 -0.4914
 3371SOL    HW221747   1.315   2.964   1.544 -0.1299 -1.3381 -1.5862
 3372SOL     OW21748   0.882   0.331   3.062 -0.0231 -0.3915 -0.2133
 3372SOL    HW121749   0.862   0.262   3.126 -0.3333  0.1805  0.3132
 3372SOL    HW221750   0.830   0.301   2.987 -1.2213  1.4320 -0.1332
 3373SOL     OW21751   2.730   2.916   7.528 -0.0356  0.0428 -0.5698
 3373SOL    HW121752   2.820   2.950   7.530 -0.0775  0.1040  0.7643
 3373SOL    HW221753   2.681   2.982   7.577  0.4533 -0.3508  0.4575
 3374SOL     OW21754   2.924   4.170   3.143  0.1617  0.1423  0.0550
 3374SOL    HW121755   2.900   4.178   3.051  2.2838 -1.2266 -0.6163
 3374SOL    HW221756   3.003   4.117   3.137  1.5056  1.8591  2.8039
 3375SOL     OW21757   1.301   3.389   0.665  0.2073  0.0484 -0.1228
 3375SOL    HW121758   1.296   3.343   0.581  2.4738 -1.5093  0.6024
 3375SOL    HW221759   1.286   3.482   0.652  0.9261  0.0877 -0.6484
 3376SOL     OW21760   4.460   3.539   3.662  0.2965 -0.7047 -0.3713
 3376SOL    HW121761   4.516   3.536   3.584 -0.0265 -0.1689 -0.6228
 3376SOL    HW221762   4.391   3.596   3.627  0.2514 -0.8211 -0.4720
 3377SOL     OW21763   1.174   0.832  17.693 -0.3824 -0.1491 -0.1859
 3377SOL    HW121764   1.247   0.813  17.634  1.2799  0.0968  1.8068
 3377SOL    HW221765   1.102   0.838  17.630  0.9628  0.1728 -1.6880
 3378SOL     OW21766   0.726   1.493   1.523  0.4067  0.1625  0.3270
 3378SOL    HW121767   0.816   1.470   1.499  0.3779 -0.8426  1.1385
 3378SOL    HW221768   0.678   1.448   1.455 -2.5443  2.2815  1.0260
 3379SOL     OW21769   1.024   2.829   4.723  0.1884  0.0311 -0.2054
 3379SOL    HW121770   1.062   2.867   4.802 -0.0143 -0.6068  0.2052
 3379SOL    HW221771   1.017   2.739   4.756 -0.7575  0.0545 -0.3468
 3380SOL     OW21772   0.262   3.102   5.006  0.2618 -0.1481 -0.3112
 3380SOL    HW121773   0.168   3.084   5.007  0.3749 -0.6113  1.2475
 3380SOL    HW221774   0.270   3.163   4.932 -3.0630  0.9878  0.2443
 3381SOL     OW21775   3.147   2.484  11.658  0.3155  0.0407  0.1448
 3381SOL    HW121776   3.192   2.401  11.674  0.2072 -0.1679 -0.5978
 3381SOL    HW221777   3.221   2.543  11.647 -1.6956  2.6779  0.6970
 3382SOL     OW21778   2.287   0.856   3.529  0.2003  0.3490  0.1381
 3382SOL    HW121779   2.250   0.861   3.617  0.6909  0.9653  0.3141
 3382SOL    HW221780   2.225   0.791   3.497  0.8900 -1.7446  3.0626
 3383SOL     OW21781   3.463   0.715   1.169  0.3040  0.0387 -0.1118
 3383SOL    HW121782   3.533   0.767   1.208 -0.4802  2.4040 -1.7745
 3383SOL    HW221783   3.470   0.635   1.219 -1.7662  0.3384  0.6562
 3384SOL     OW21784   1.386   4.072   8.722 -0.2418  0.1249  0.5135
 3384SOL    HW121785   1.427   4.146   8.768  0.2402  0.4084 -0.3726
 3384SOL    HW221786   1.303   4.107   8.688  0.7783 -0.5891 -2.6486
 3385SOL     OW21787   2.522   0.674   0.430  0.1889 -0.2704 -0.2132
 3385SOL    HW121788   2.516   0.578   0.440 -2.6337 -0.3643 -2.8577
 3385SOL    HW221789   2.614   0.696   0.445  0.5068 -0.7355 -1.5101
 3386SOL     OW21790   0.358   0.383   8.995  0.3488  0.2397  0.5863
 3386SOL    HW121791   0.278   0.331   8.999  0.0102  0.6970 -0.3846
 3386SOL    HW221792   0.366   0.402   8.902  3.4765  1.9419  1.1897
 3387SOL     OW21793   0.293   1.228   2.083 -0.2555 -0.0287  0.7182
 3387SOL    HW121794   0.374   1.200   2.127  0.4170  1.3217  0.3581
 3387SOL    HW221795   0.334   1.297   2.030 -1.9095 -0.4883 -1.1463
 3388SOL     OW21796   0.082   1.582   8.219 -0.3459 -0.1379  0.1986
 3388SOL    HW121797   0.042   1.650   8.273 -0.0388 -1.0838  1.6143
 3388SOL    HW221798   0.008   1.525   8.198 -0.3168 -0.2777  0.4790
 3389SOL     OW21799   2.307   0.007   2.293  0.0771 -0.4724 -0.1214
 3389SOL    HW121800   2.336   4.699   2.213  1.6257 -1.1308  0.7900
 3389SOL    HW221801   2.352   0.092   2.288 -0.0752 -0.4863 -1.5453
 3390SOL     OW21802   0.154   1.325   9.848 -0.1919  0.1792 -0.1008
 3390SOL    HW121803   0.236   1.275   9.847 -1.2833 -1.6231 -0.3594
 3390SOL    HW221804   0.127   1.335   9.757 -2.3669 -1.9018  0.3047
 3391SOL     OW21805   2.902   2.437   5.267  0.3994  0.3463 -0.3549
 3391SOL    HW121806   2.890   2.487   5.347  1.9434  1.6441 -0.9409
 3391SOL    HW221807   2.927   2.504   5.203 -0.5240  1.4667  0.4563
 3392SOL     OW21808   4.115   3.338   4.065  0.0481  0.0566  0.3043
 3392SOL    HW121809   4.116   3.300   4.153  0.8058 -1.6365 -0.4416
 3392SOL    HW221810   4.162   3.269   4.019  1.0278  0.8172  0.1744
 3393SOL     OW21811   2.095   3.712  14.987  0.1909 -0.5674  0.4849
 3393SOL    HW121812   2.059   3.653  15.053 -0.6823 -1.2159 -0.5581
 3393SOL    HW221813   2.054   3.798  15.000  3.1031  1.1880 -1.8840
 3394SOL     OW21814   2.843   1.667   7.039  0.1716 -0.5345  0.3254
 3394SOL    HW121815   2.893   1.650   7.119  0.5304 -1.7327 -0.1447
 3394SOL    HW221816   2.846   1.578   7.002  1.0016 -0.1596 -0.4999
 3395SOL     OW21817   2.813   1.379   8.031 -0.5684 -0.7735  0.1548
 3395SOL    HW121818   2.754   1.444   8.069  1.2869 -0.0154  1.7161
 3395SOL    HW221819   2.785   1.397   7.941  0.7062 -0.1233 -0.1129
 3396SOL     OW21820   3.185   4.024   6.067 -0.0771 -0.1865  0.5457
 3396SOL    HW121821   3.115   4.009   6.004  0.3917  0.2073 -0.0642
 3396SOL    HW221822   3.255   3.984   6.016 -1.9897  0.6194 -2.6991
 3397SOL     OW21823   0.998   1.678   2.025 -0.2049 -0.2148  0.0337
 3397SOL    HW121824   1.017   1.746   1.961  1.2317 -1.0970 -0.4685
 3397SOL    HW221825   1.041   1.709   2.105  1.0958  1.0805 -1.1762
 3398SOL     OW21826   4.108   3.724   7.738 -0.4963  0.2569 -0.3798
 3398SOL    HW121827   4.178   3.777   7.699  0.3407 -0.7533 -0.2318
 3398SOL    HW221828   4.044   3.794   7.724  0.9723  1.6390 -0.1778
 3399SOL     OW21829   0.231   3.152  17.444 -0.3444 -0.0019  0.3481
 3399SOL    HW121830   0.241   3.110  17.529 -0.7254 -0.8956 -0.0567
 3399SOL    HW221831   0.162   3.101  17.402 -1.3850 -0.2050  2.3034
 3400SOL     OW21832   1.213   2.628   0.264 -0.0758 -0.3957 -0.0185
 3400SOL    HW121833   1.186   2.703   0.212  2.4527  1.1640  0.9390
 3400SOL    HW221834   1.228   2.568   0.191 -1.3589  2.4664 -2.5811
 3401SOL     OW21835   0.000   3.310   7.689 -0.2246  0.4205 -0.2161
 3401SOL    HW121836   0.056   3.247   7.734 -1.0122 -0.5000 -0.5434
 3401SOL    HW221837   4.693   3.244   7.635  1.8788 -0.8220 -0.3377
 3402SOL     OW21838   4.126   2.553   7.647  0.5356  0.4266 -0.1195
 3402SOL    HW121839   4.205   2.512   7.613  1.2246  0.5435  1.3521
 3402SOL    HW221840   4.159   2.640   7.673  1.7869  0.2049 -0.9772
 3403SOL     OW21841   1.907   0.865   3.962 -0.5674 -0.5715  0.2300
 3403SOL    HW121842   1.816   0.840   3.974 -0.6793 -0.5326 -0.5406
 3403SOL    HW221843   1.909   0.941   4.020 -1.6961  0.6944 -1.3724
 3404SOL     OW21844   4.462   0.982   7.051 -0.5410  0.1424  0.0557
 3404SOL    HW121845   4.496   0.907   7.003  0.0986  0.6267 -0.2445
 3404SOL    HW221846   4.393   0.944   7.106 -0.9618 -0.9337 -1.2046
 3405SOL     OW21847   0.467   2.177   3.211 -0.6948 -0.3104  0.6479
 3405SOL    HW121848   0.410   2.249   3.183 -0.8545  0.1165  2.0698
 3405SOL    HW221849   0.539   2.218   3.259 -1.8666  0.0492  2.1066
 3406SOL     OW21850   2.397   1.542   7.805 -0.1207  0.3733 -0.5706
 3406SOL    HW121851   2.438   1.590   7.877 -1.0808 -0.4629  0.5467
 3406SOL    HW221852   2.340   1.484   7.856 -0.5433 -0.2740 -1.7820
 3407SOL     OW21853   1.959   4.216   1.832 -0.3605  0.6986  0.5245
 3407SOL    HW121854   2.051   4.229   1.810 -0.3959 -0.3153 -0.1932
 3407SOL    HW221855   1.974   4.129   1.868  0.8039  0.5050 -0.4428
 3408SOL     OW21856   0.132   0.214   8.954 -0.4983 -0.5484  0.4339
 3408SOL    HW121857   0.132   0.153   9.027  0.3356 -2.9562 -1.5772
 3408SOL    HW221858   0.048   0.192   8.913 -1.2304 -1.3610  2.3563
 3409SOL     OW21859   1.609   1.653   3.994 -0.3444  0.1765 -0.1935
 3409SOL    HW121860   1.575   1.567   3.968 -4.1180  1.6960 -0.3749
 3409SOL    HW221861   1.631   1.696   3.912 -1.7823 -1.2615 -1.3473
 3410SOL     OW21862   0.500   3.409   3.461 -0.3880 -0.0843  0.4728
 3410SOL    HW121863   0.530   3.328   3.420 -1.2840  0.1406 -0.6412
 3410SOL    HW221864   0.461   3.453   3.386 -1.9746 -0.3579  1.1308
 3411SOL     OW21865   0.586   1.054  16.194 -0.1072 -0.0272 -0.3565
 3411SOL    HW121866   0.563   1.076  16.104 -1.0820  1.6800  0.3019
 3411SOL    HW221867   0.509   1.092  16.238 -0.5292 -1.6038  0.2795
 3412SOL     OW21868   2.870   4.257  10.312  0.1401  0.2874  0.1094
 3412SOL    HW121869   2.919   4.192  10.264  1.1564 -0.0763  1.6465
 3412SOL    HW221870   2.791   4.208  10.333  0.7752 -1.8720 -2.6279
 3413SOL     OW21871   3.226   4.667   2.374 -0.5916  0.1770  0.0000
 3413SOL    HW121872   3.233   0.013   2.324  0.1178  0.0160 -0.1685
 3413SOL    HW221873   3.191   4.693   2.459 -0.5432  0.5332 -0.0924
 3414SOL     OW21874   1.009   3.772  10.516 -0.0094 -0.3754 -0.8431
 3414SOL    HW121875   1.012   3.809  10.428 -1.0313  0.9666 -0.3140
 3414SOL    HW221876   1.010   3.851  10.570  1.0962  0.0222 -1.4454
 3415SOL     OW21877   0.625   2.511   1.707  0.7337 -0.0825  0.0602
 3415SOL    HW121878   0.600   2.539   1.619  1.7142  0.2938 -0.1013
 3415SOL    HW221879   0.583   2.585   1.751 -1.0458 -1.7924  1.2040
 3416SOL     OW21880   0.774   3.377   4.466 -0.3331 -0.4437  1.0055
 3416SOL    HW121881   0.695   3.410   4.509 -1.5771  1.3700 -2.6740
 3416SOL    HW221882   0.841   3.442   4.491 -0.1251 -0.1929 -0.2169
 3417SOL     OW21883   2.440   1.888   2.495  0.0929 -0.4580 -0.7871
 3417SOL    HW121884   2.354   1.885   2.535  1.1947 -2.2623  1.4452
 3417SOL    HW221885   2.490   1.826   2.549  0.0848  0.1579 -0.0749
 3418SOL     OW21886   4.410   0.738  11.044  0.3075 -0.1319  0.5508
 3418SOL    HW121887   4.380   0.686  10.970  3.3237 -0.6009 -0.3449
 3418SOL    HW221888   4.336   0.797  11.058  0.2899 -0.5995  2.4173
 3419SOL     OW21889   1.579   4.574   1.579  0.2823  0.1774  0.1495
 3419SOL    HW121890   1.590   4.536   1.666 -2.1066 -0.0296  0.3773
 3419SOL    HW221891   1.668   4.604   1.562  0.3049 -1.0043 -1.8606
 3420SOL     OW21892   4.497   2.161   4.906 -0.1731  0.1155  0.2881
 3420SOL    HW121893   4.476   2.080   4.951  1.2192  0.7288  2.0642
 3420SOL    HW221894   4.414   2.207   4.922 -1.1604 -2.1144  1.6051
 3421SOL     OW21895   4.088   2.381   3.284  0.2331  0.1012  0.2908
 3421SOL    HW121896   4.085   2.391   3.189 -1.8647 -2.2037  0.0873
 3421SOL    HW221897   4.038   2.300   3.294  0.9097 -0.0293  2.6827
 3422SOL     OW21898   4.094   2.841  17.080 -0.2149  0.1381  0.0108
 3422SOL    HW121899   4.102   2.768  17.019  1.3861  0.6908 -0.4439
 3422SOL    HW221900   4.089   2.922  17.030 -0.0375  0.8895  1.2107
 3423SOL     OW21901   2.464   0.841   2.495  0.6916  0.4644 -0.1283
 3423SOL    HW121902   2.461   0.919   2.550 -2.0299  0.5715 -0.4244
 3423SOL    HW221903   2.387   0.791   2.523  0.4311 -0.0358 -1.7343
 3424SOL     OW21904   4.196   2.472   4.796 -0.1554  0.2781  0.0497
 3424SOL    HW121905   4.136   2.524   4.849 -0.5632 -1.7447  1.5657
 3424SOL    HW221906   4.151   2.472   4.712 -1.7653  0.4557  0.9213
 3425SOL     OW21907   1.001   4.271  13.776 -0.4536  0.0199 -0.6094
 3425SOL    HW121908   1.008   4.349  13.720 -0.0539  1.0519  0.8844
 3425SOL    HW221909   0.923   4.291  13.827  1.3792  0.1407  2.1225
 3426SOL     OW21910   4.455   0.435   2.314 -0.2653 -0.0886  0.5243
 3426SOL    HW121911   4.377   0.448   2.260  1.9222 -1.2123 -2.8455
 3426SOL    HW221912   4.528   0.470   2.264 -1.4623  1.0817 -0.4146
 3427SOL     OW21913   0.942   3.659   8.650 -0.0565 -0.2351  0.1898
 3427SOL    HW121914   0.954   3.564   8.651  0.5926 -0.1852 -2.3811
 3427SOL    HW221915   0.847   3.670   8.651  0.1419  1.7558 -2.2255
 3428SOL     OW21916   1.576   4.447   9.768 -0.2505 -0.5572  0.3882
 3428SOL    HW121917   1.656   4.401   9.742  1.0027  1.9982 -0.3585
 3428SOL    HW221918   1.598   4.540   9.772 -2.3892 -0.1496  2.4139
 3429SOL     OW21919   3.324   4.011   2.187  0.3197 -0.1787 -0.0666
 3429SOL    HW121920   3.300   3.930   2.141  1.2860  1.5005 -3.5645
 3429SOL    HW221921   3.303   3.992   2.278  0.5680 -0.7816 -0.1332
 3430SOL     OW21922   0.072   4.469   3.558  0.4180  0.4034  0.2596
 3430SOL    HW121923   0.157   4.461   3.603  0.4125  0.8054  0.3471
 3430SOL    HW221924   0.019   4.468   3.637  2.2563 -1.4965  1.4780
 3431SOL     OW21925   1.323   4.215   9.051  0.2265  0.0108  0.3168
 3431SOL    HW121926   1.326   4.166   9.134  1.9043 -0.4642 -0.0273
 3431SOL    HW221927   1.267   4.288   9.076  3.8550  2.8811  0.0333
 3432SOL     OW21928   4.095   1.270   2.560 -0.0511 -0.3546 -0.1284
 3432SOL    HW121929   4.047   1.353   2.551  0.1660 -0.2161 -0.0228
 3432SOL    HW221930   4.130   1.264   2.471  1.2776  0.5490  0.3316
 3433SOL     OW21931   2.302   1.834   8.520 -0.3735  0.5178 -0.1629
 3433SOL    HW121932   2.263   1.784   8.449  0.6067  0.1008 -0.4110
 3433SOL    HW221933   2.318   1.914   8.471 -2.8928  0.8806 -0.3814
 3434SOL     OW21934   2.911   2.213   3.559  0.5512  0.3245 -0.4133
 3434SOL    HW121935   2.827   2.259   3.563 -0.3652 -1.2565 -1.3609
 3434SOL    HW221936   2.966   2.273   3.609 -0.8954  1.2698  0.0441
 3435SOL     OW21937   0.308   0.829  11.972  0.3815 -0.1496  0.2963
 3435SOL    HW121938   0.372   0.788  11.913 -2.0156 -0.9661 -1.7350
 3435SOL    HW221939   0.359   0.844  12.051  1.7035  0.4860 -0.6720
 3436SOL     OW21940   2.902   0.351   8.924 -0.1477  0.3435  0.1096
 3436SOL    HW121941   2.828   0.332   8.867 -1.1881 -0.0531  1.5841
 3436SOL    HW221942   2.903   0.447   8.921 -1.1465  0.3993  1.2200
 3437SOL     OW21943   3.744   2.910   7.070 -0.1946 -0.5417  0.0431
 3437SOL    HW121944   3.755   2.965   6.993 -0.5981 -0.9671 -0.3219
 3437SOL    HW221945   3.817   2.949   7.119 -0.9895  2.5279 -1.1887
 3438SOL     OW21946   4.585   0.591  14.577 -0.0153 -0.1524 -0.7581
 3438SOL    HW121947   4.638   0.668  14.556 -1.0489  0.4068 -1.2929
 3438SOL    HW221948   4.640   0.555  14.647  1.3126 -1.1350 -2.3139
 3439SOL     OW21949   0.594   4.640   9.181 -0.1020  0.3024 -0.6630
 3439SOL    HW121950   0.529   4.703   9.213 -0.0123  0.5658 -1.0033
 3439SOL    HW221951   0.582   4.627   9.087  0.2338  2.0985 -0.9547
 3440SOL     OW21952   2.289   0.527   5.781 -0.0199 -0.0839  0.2465
 3440SOL    HW121953   2.218   0.536   5.717 -1.3159  0.2068  1.7268
 3440SOL    HW221954   2.252   0.566   5.861  0.5290 -2.4569  1.6461
 3441SOL     OW21955   1.103   3.468   5.882  0.2686 -0.1370  0.0514
 3441SOL    HW121956   1.155   3.453   5.803  0.4639  1.8353 -0.1787
 3441SOL    HW221957   1.077   3.378   5.901 -0.0126  0.5548  2.8835
 3442SOL     OW21958   1.246   4.547   4.342 -0.4849  0.4011 -0.2090
 3442SOL    HW121959   1.289   4.539   4.427  1.6182 -2.1794 -1.5159
 3442SOL    HW221960   1.312   4.579   4.281 -0.4048  1.3043  0.3481
 3443SOL     OW21961   0.935   1.128   2.300  0.4003 -0.7874  0.4284
 3443SOL    HW121962   0.869   1.139   2.232  0.8786  1.5022  0.3491
 3443SOL    HW221963   0.946   1.033   2.289 -2.0204 -1.2434  2.0247
 3444SOL     OW21964   2.766   2.626   0.803 -0.0628 -0.4233 -0.3394
 3444SOL    HW121965   2.721   2.685   0.742 -0.5924  0.7538  1.2035
 3444SOL    HW221966   2.728   2.670   0.879 -2.4391  0.3246 -1.9591
 3445SOL     OW21967   2.708   2.351   1.190  0.0241 -0.6019  0.1601
 3445SOL    HW121968   2.764   2.392   1.125 -0.1617 -1.9979 -0.8794
 3445SOL    HW221969   2.703   2.264   1.152  0.0386 -1.7158  2.7297
 3446SOL     OW21970   2.273   1.707  15.115 -0.2113  0.2618  0.0261
 3446SOL    HW121971   2.205   1.755  15.162  0.0272  0.9701 -0.3554
 3446SOL    HW221972   2.220   1.642  15.069  2.6765 -2.2293  0.1876
 3447SOL     OW21973   0.163   0.057   4.705 -0.1157  0.2783  0.1444
 3447SOL    HW121974   0.140   0.033   4.616 -0.9916  1.1521  0.1395
 3447SOL    HW221975   0.086   0.107   4.732 -0.1157  1.0453 -1.3018
 3448SOL     OW21976   1.813   4.321   8.083 -0.9325  0.0667  0.3255
 3448SOL    HW121977   1.750   4.384   8.048  0.8861  1.5874 -0.2670
 3448SOL    HW221978   1.839   4.378   8.156  0.2029 -2.5611  1.9681
 3449SOL     OW21979   1.592   1.878   3.823  0.1832 -0.4318 -0.3253
 3449SOL    HW121980   1.636   1.912   3.901  0.6527  0.5775 -1.0386
 3449SOL    HW221981   1.505   1.912   3.844  1.1481  0.8920  1.5520
 3450SOL     OW21982   4.671   3.677   2.023 -0.1755  0.0420 -0.2575
 3450SOL    HW121983   4.588   3.716   1.997 -0.7612 -0.6453  0.5988
 3450SOL    HW221984   4.658   3.658   2.116 -0.9139  1.7330 -0.0255
 3451SOL     OW21985   2.014   4.702   7.314 -0.2748  0.1836  0.0345
 3451SOL    HW121986   1.937   4.697   7.258  1.1834 -0.8503 -1.8873
 3451SOL    HW221987   2.079   4.704   7.244  0.3434 -0.6660  0.5847
 3452SOL     OW21988   2.808   4.447   1.234 -0.3797 -0.0241 -0.6241
 3452SOL    HW121989   2.756   4.501   1.293 -0.5896 -1.6543  0.6987
 3452SOL    HW221990   2.747   4.373   1.228  1.3254 -1.8682  4.4428
 3453SOL     OW21991   3.416   1.110  13.268  0.0408  0.0767  0.1155
 3453SOL    HW121992   3.456   1.143  13.188 -0.5962  1.1999  0.2497
 3453SOL    HW221993   3.412   1.185  13.328  0.0911 -0.2469  0.5306
 3454SOL     OW21994   1.410   0.732   7.565  0.4553  0.4450  0.2342
 3454SOL    HW121995   1.407   0.752   7.472 -0.7439 -0.2033  0.1318
 3454SOL    HW221996   1.375   0.812   7.605 -0.8860 -0.3155  0.5667
 3455SOL     OW21997   1.521   4.578  14.319  0.2594 -0.2502  0.3514
 3455SOL    HW121998   1.496   4.563  14.410 -1.1336 -1.4032 -0.2144
 3455SOL    HW221999   1.554   4.667  14.328  1.6546 -0.7683  0.3686
 3456SOL     OW22000   3.611   3.284  10.533  0.1519 -0.2772  0.3225
 3456SOL    HW122001   3.673   3.245  10.593  0.5343 -0.8189 -0.4289
 3456SOL    HW222002   3.654   3.325  10.458 -0.7109 -1.7583 -0.9831
 3457SOL     OW22003   1.007   0.631  15.438 -0.5126  0.2508  0.2131
 3457SOL    HW122004   0.986   0.639  15.345  0.9203 -0.1315 -0.1360
 3457SOL    HW222005   0.923   0.600  15.470  0.1875 -1.9210 -0.0759
 3458SOL     OW22006   0.291   1.957  17.049 -0.1857  0.5475  0.1742
 3458SOL    HW122007   0.322   1.921  17.133  0.2941  1.8513  0.5528
 3458SOL    HW222008   0.321   1.881  16.999  0.5636  1.3923 -0.6439
 3459SOL     OW22009   0.057   0.581   8.661  0.4453  0.0838  0.4309
 3459SOL    HW122010   0.041   0.663   8.615 -0.9887  0.3229  1.3617
 3459SOL    HW222011   4.714   0.531   8.638 -0.3275  1.9237 -0.9993
 3460SOL     OW22012   1.733   4.282   7.455 -0.4661  0.4942  0.3001
 3460SOL    HW122013   1.682   4.203   7.434 -1.4055  1.2712 -0.3553
 3460SOL    HW222014   1.741   4.325   7.370  4.0308 -3.9269 -1.4974
 3461SOL     OW22015   3.551   1.898  11.397  0.2812  0.2716 -0.6428
 3461SOL    HW122016   3.482   1.946  11.443 -0.0821  0.6448 -1.5896
 3461SOL    HW222017   3.501   1.823  11.367  0.9849 -0.9098  1.1225
 3462SOL     OW22018   3.515   2.578   5.642 -0.0903 -0.2748  0.1129
 3462SOL    HW122019   3.603   2.613   5.634 -0.1882  0.0680  0.5446
 3462SOL    HW222020   3.477   2.651   5.691  0.5583 -0.8518  1.4769
 3463SOL     OW22021   3.905   0.260   6.820 -0.0599 -0.6572 -0.6007
 3463SOL    HW122022   3.897   0.231   6.911 -1.3266  0.1706 -0.4482
 3463SOL    HW222023   3.836   0.205   6.783 -1.0924 -0.2160  0.6798
 3464SOL     OW22024   1.491   4.537  17.526  0.0337 -0.0479  0.5715
 3464SOL    HW122025   1.467   4.471  17.462  0.4550 -0.0090  0.3757
 3464SOL    HW222026   1.587   4.534  17.530  0.0488 -1.2944 -0.7412
 3465SOL     OW22027   1.578   0.043   5.115 -0.0598  0.7941 -0.1475
 3465SOL    HW122028   1.565   0.034   5.020 -1.5030 -2.0183  0.3318
 3465SOL    HW222029   1.492   0.064   5.151  0.2776 -3.2920  3.0240
 3466SOL     OW22030   4.369   0.290  10.377  0.0108  0.0270  0.0554
 3466SOL    HW122031   4.302   0.236  10.420 -0.0024  1.8489  2.3164
 3466SOL    HW222032   4.443   0.229  10.380  0.0344 -0.0723 -2.5312
 3467SOL     OW22033   0.823   3.433   5.040 -0.0391 -0.6734  0.0017
 3467SOL    HW122034   0.873   3.503   4.996  0.4135 -0.7145  0.4472
 3467SOL    HW222035   0.875   3.354   5.023  1.8143  0.2099  1.5499
 3468SOL     OW22036   0.571   3.424   8.017 -0.3092 -0.6503  0.4831
 3468SOL    HW122037   0.591   3.422   7.923  1.0147 -0.5373  0.7664
 3468SOL    HW222038   0.517   3.345   8.027  0.3096 -1.2402 -0.8457
 3469SOL     OW22039   1.346   3.985   7.219 -0.4273  0.0185 -0.1014
 3469SOL    HW122040   1.355   3.937   7.137 -0.4879 -1.3030  0.6657
 3469SOL    HW222041   1.366   4.072   7.184 -0.7465 -0.3201 -1.1420
 3470SOL     OW22042   1.441   3.978  16.429  0.0358  0.6849  0.2775
 3470SOL    HW122043   1.490   4.060  16.421  2.4622 -0.8053 -0.2773
 3470SOL    HW222044   1.502   3.934  16.488 -1.7192  0.4116  1.8640
 3471SOL     OW22045   0.526   3.561   1.652  0.9453 -0.2554  0.2592
 3471SOL    HW122046   0.475   3.482   1.640  0.3220  0.0419  0.9152
 3471SOL    HW222047   0.483   3.625   1.595 -2.7958  0.9366  4.3595
 3472SOL     OW22048   4.188   1.470   3.113 -0.0279  0.3320  0.1482
 3472SOL    HW122049   4.111   1.523   3.092 -1.3471 -0.8708  1.8998
 3472SOL    HW222050   4.242   1.530   3.164  0.7947 -0.2216 -0.0661
 3473SOL     OW22051   0.259   3.105   2.344  0.3553  0.2310 -0.2183
 3473SOL    HW122052   0.309   3.114   2.425  0.5663  0.3640 -0.3619
 3473SOL    HW222053   0.321   3.153   2.288 -0.1940  1.2834  0.0672
 3474SOL     OW22054   4.724   4.503   8.468 -0.3818  0.2592  0.0639
 3474SOL    HW122055   4.724   4.466   8.556 -1.3173  0.3431  0.0994
 3474SOL    HW222056   0.069   4.469   8.429 -1.5050 -3.3087  0.9276
 3475SOL     OW22057   0.066   3.594   7.469  0.3305 -0.1590  0.2269
 3475SOL    HW122058   4.721   3.572   7.516  0.1603  0.1976  0.1005
 3475SOL    HW222059   0.060   3.680   7.429 -0.6984  0.0645  0.8661
 3476SOL     OW22060   1.567   1.938   8.998  0.3956 -0.6007 -0.4493
 3476SOL    HW122061   1.502   1.994   9.040  3.7962  0.5403  3.3904
 3476SOL    HW222062   1.522   1.854   9.010  1.3708 -0.6306  3.1003
 3477SOL     OW22063   3.630   0.395   3.366 -0.3058 -0.5199 -0.1150
 3477SOL    HW122064   3.568   0.369   3.433 -1.0167  0.6099 -0.3342
 3477SOL    HW222065   3.570   0.454   3.320 -2.6141 -1.2218  2.0054
 3478SOL     OW22066   0.569   2.446   9.591 -0.4842 -0.1897  0.5376
 3478SOL    HW122067   0.516   2.396   9.529 -1.4103  0.1476  1.0583
 3478SOL    HW222068   0.645   2.388   9.597 -1.3245 -1.4039 -0.8168
 3479SOL     OW22069   0.603   2.199   6.868  0.6004 -0.3658  0.3606
 3479SOL    HW122070   0.688   2.196   6.824  1.7475 -0.7889  2.5928
 3479SOL    HW222071   0.631   2.215   6.958  1.0008  1.0556 -0.0111
 3480SOL     OW22072   1.315   4.492   3.972  0.1445 -0.3230 -0.3547
 3480SOL    HW122073   1.390   4.458   3.922 -0.2113 -2.4904  0.6091
 3480SOL    HW222074   1.359   4.554   4.031  3.0308 -0.6961 -2.0926
 3481SOL     OW22075   4.584   0.398   1.424  0.3794 -0.2498 -0.8412
 3481SOL    HW122076   4.502   0.351   1.438  1.1888 -1.5045 -0.1785
 3481SOL    HW222077   4.621   0.385   1.512 -0.1375 -2.8109 -0.9845
 3482SOL     OW22078   0.539   0.253   4.147 -0.1193 -0.2961 -0.4060
 3482SOL    HW122079   0.475   0.183   4.156 -0.5087  0.4124  2.2378
 3482SOL    HW222080   0.549   0.239   4.053 -0.6321 -0.7935 -0.3866
 3483SOL     OW22081   2.657   4.040   7.260  0.1822  0.0276 -0.3663
 3483SOL    HW122082   2.729   3.978   7.271  1.0522  1.2402  0.5987
 3483SOL    HW222083   2.649   4.032   7.165  1.5860  0.0986 -0.4936
 3484SOL     OW22084   1.641   1.869   7.983  0.0843 -0.1429  0.3165
 3484SOL    HW122085   1.605   1.813   8.052  1.5645 -0.2266  1.0247
 3484SOL    HW222086   1.611   1.822   7.905 -1.5425  3.2130 -1.0976
 3485SOL     OW22087   0.978   2.607   8.359 -0.1489  0.5112 -0.2168
 3485SOL    HW122088   1.020   2.521   8.363 -0.6084  0.2438 -1.1812
 3485SOL    HW222089   0.893   2.592   8.317 -0.0610  0.6529 -0.4439
 3486SOL     OW22090   1.725   3.961  15.803  0.4152 -0.1042 -0.4887
 3486SOL    HW122091   1.753   3.870  15.817  1.0964  0.1703 -0.0410
 3486SOL    HW222092   1.650   3.971  15.861  2.2979  1.7187  1.5947
 3487SOL     OW22093   4.160   2.899   8.839  0.9526  0.3978  0.0460
 3487SOL    HW122094   4.171   2.942   8.754 -1.1937 -1.0676 -0.9852
 3487SOL    HW222095   4.066   2.882   8.846  0.7996  0.9667 -0.5753
 3488SOL     OW22096   3.200   0.439   3.418  0.5767  0.1984  0.3072
 3488SOL    HW122097   3.210   0.446   3.323  0.4575  0.3251  0.3037
 3488SOL    HW222098   3.215   0.532   3.434 -1.9552  0.5098  0.9097
 3489SOL     OW22099   4.359   4.306   8.341 -0.8809  0.0891 -0.1397
 3489SOL    HW122100   4.394   4.329   8.255 -0.3094 -0.7918 -0.1410
 3489SOL    HW222101   4.364   4.210   8.345 -3.1376 -0.0107  0.4390
 3490SOL     OW22102   4.560   0.761   6.914 -0.0474 -0.4700  0.0904
 3490SOL    HW122103   4.615   0.721   6.981 -1.2424 -0.9068  0.8151
 3490SOL    HW222104   4.494   0.691   6.918  1.2343 -1.7573 -1.2893
 3491SOL     OW22105   1.457   2.815   9.171  0.0184 -0.0525 -0.2917
 3491SOL    HW122106   1.413   2.860   9.099  2.7670  3.7029  0.4389
 3491SOL    HW222107   1.514   2.885   9.204  2.9378 -1.2411 -2.8547
 3492SOL     OW22108   2.296   0.572  15.461 -0.2413 -0.6305 -0.5585
 3492SOL    HW122109   2.329   0.487  15.432 -1.1435 -1.0132 -0.4392
 3492SOL    HW222110   2.207   0.555  15.491 -0.1488  1.4971  0.9818
 3493SOL     OW22111   3.633   2.474   3.567 -0.9401 -0.4238 -0.2693
 3493SOL    HW122112   3.603   2.405   3.626 -0.6328  0.6818  1.1724
 3493SOL    HW222113   3.635   2.430   3.482 -3.0221 -0.7136 -0.1638
 3494SOL     OW22114   3.709   0.295   9.043  0.8156  0.2454  0.1404
 3494SOL    HW122115   3.619   0.280   9.073  0.3976  0.9212 -0.7707
 3494SOL    HW222116   3.765   0.240   9.099 -0.1629 -1.0892 -0.1771
 3495SOL     OW22117   1.715   2.836  12.084  0.1885 -0.3914 -0.2486
 3495SOL    HW122118   1.766   2.835  12.165 -0.5879  0.0626  0.2379
 3495SOL    HW222119   1.627   2.853  12.118 -0.1137  1.2480 -1.8758
 3496SOL     OW22120   0.011   1.701   2.374  0.2639 -0.3684 -0.1650
 3496SOL    HW122121   0.106   1.716   2.374  0.0980  0.6874 -1.3047
 3496SOL    HW222122   0.018   1.606   2.364  0.8307 -0.3304 -0.1223
 3497SOL     OW22123   1.895   2.917   5.111  0.0416 -0.3133 -0.0475
 3497SOL    HW122124   1.805   2.899   5.084 -0.5693  1.1364  1.0163
 3497SOL    HW222125   1.882   2.982   5.181  2.4703 -0.3284  0.4217
 3498SOL     OW22126   3.027   0.793   3.580  0.3843  0.0900 -0.0080
 3498SOL    HW122127   3.058   0.877   3.614  0.2130  0.3218 -0.4190
 3498SOL    HW222128   3.102   0.736   3.597 -0.5766 -0.8889  0.8766
 3499SOL     OW22129   3.385   4.455   1.022  0.3726  0.1784  0.1839
 3499SOL    HW122130   3.355   4.499   0.942 -0.5166 -1.5627 -0.4482
 3499SOL    HW222131   3.475   4.436   0.994 -0.1005 -0.1425 -1.1454
 3500SOL     OW22132   2.570   0.624  14.905  0.0550  0.3302  0.2325
 3500SOL    HW122133   2.481   0.598  14.882  0.7700 -2.4817  0.6084
 3500SOL    HW222134   2.573   0.717  14.882 -2.3679  0.8390  1.8860
 3501SOL     OW22135   0.440   4.175   2.557 -0.6029 -0.6228 -0.7136
 3501SOL    HW122136   0.421   4.229   2.480 -2.4215 -1.6354 -0.9849
 3501SOL    HW222137   0.506   4.234   2.594 -2.6422  0.5990  0.9387
 3502SOL     OW22138   3.037   1.122   9.189  0.0564  0.7206  0.0499
 3502SOL    HW122139   3.042   1.081   9.275 -0.8884  0.6638  0.0809
 3502SOL    HW222140   3.004   1.208   9.214  0.7674  0.8810  0.4287
 3503SOL     OW22141   1.627   2.021  13.083 -0.1909 -0.6112 -0.4926
 3503SOL    HW122142   1.660   2.110  13.098 -0.7159 -1.2285  4.0940
 3503SOL    HW222143   1.600   2.040  12.993  1.1039 -2.2259 -1.2324
 3504SOL     OW22144   1.995   2.448   2.515  0.2706 -0.1431 -1.0422
 3504SOL    HW122145   1.982   2.489   2.600 -1.9577 -0.6545 -1.1310
 3504SOL    HW222146   2.090   2.457   2.506  0.5812 -0.1314  2.5049
 3505SOL     OW22147   2.177   2.661   2.227  0.2339  0.0235 -0.5858
 3505SOL    HW122148   2.098   2.673   2.174  0.5187 -0.4431 -1.1165
 3505SOL    HW222149   2.188   2.566   2.219 -0.5802 -0.3631  2.7874
 3506SOL     OW22150   2.163   4.426   5.439 -0.6084 -0.7106  0.5302
 3506SOL    HW122151   2.147   4.508   5.392  1.7127 -0.4114  0.2445
 3506SOL    HW222152   2.118   4.437   5.523 -0.8548  3.4752 -0.1089
 3507SOL     OW22153   0.575   0.301  14.782  0.1742  0.4892  0.4842
 3507SOL    HW122154   0.534   0.374  14.828 -0.3938 -0.5837  1.6591
 3507SOL    HW222155   0.497   0.247  14.768  0.8491 -0.0743 -1.1462
 3508SOL     OW22156   4.403   4.026   8.237  0.3569 -0.0352 -0.7612
 3508SOL    HW122157   4.431   4.019   8.328  1.1250  0.3398 -0.9634
 3508SOL    HW222158   4.441   3.949   8.196 -0.8734  0.0146 -2.0142
 3509SOL     OW22159   3.791   3.093   4.205  0.3833  0.4716  0.3942
 3509SOL    HW122160   3.806   3.142   4.286 -0.5517  2.0229 -0.3585
 3509SOL    HW222161   3.705   3.054   4.223 -0.7243  3.1705  0.9940
 3510SOL     OW22162   3.382   4.338   3.188 -0.0710 -0.0990  0.2246
 3510SOL    HW122163   3.373   4.323   3.282 -1.7204  0.0871  0.0905
 3510SOL    HW222164   3.301   4.380   3.159 -1.2944 -2.2605  0.4462
 3511SOL     OW22165   1.814   0.641  15.593  0.6065 -0.2285 -0.2684
 3511SOL    HW122166   1.823   0.726  15.550  3.1062  0.7772  2.1931
 3511SOL    HW222167   1.807   0.590  15.512  0.2574 -1.8380  0.7670
 3512SOL     OW22168   3.552   0.195   7.370  0.3663 -0.0120 -0.3906
 3512SOL    HW122169   3.504   0.264   7.415  1.4492  0.3864  0.1434
 3512SOL    HW222170   3.480   0.159   7.317 -0.7439  2.2355 -0.3886
 3513SOL     OW22171   0.440   2.473   7.378  0.6116  0.0138  0.4777
 3513SOL    HW122172   0.381   2.415   7.427  0.1996  0.0706  0.0511
 3513SOL    HW222173   0.388   2.487   7.299  1.4929  0.0305 -0.1085
 3514SOL     OW22174   1.332   3.368  16.951  0.7095 -0.0080 -0.0682
 3514SOL    HW122175   1.402   3.308  16.924  1.5422  1.2683 -0.7913
 3514SOL    HW222176   1.280   3.381  16.872 -1.6200  1.2427  1.6593
 3515SOL     OW22177   3.121   1.244  11.729 -0.1651 -0.1520 -0.0337
 3515SOL    HW122178   3.106   1.277  11.817 -4.0749 -0.0722 -0.7437
 3515SOL    HW222179   3.214   1.266  11.725 -0.9157  3.3176  2.1274
 3516SOL     OW22180   4.604   0.712  15.163  0.2791  0.2981 -0.2679
 3516SOL    HW122181   4.549   0.696  15.239  0.9624  0.0004  0.1597
 3516SOL    HW222182   4.572   0.642  15.106  0.1580 -1.0786  1.5046
 3517SOL     OW22183   3.506   2.181  10.144  0.1501 -0.0420 -0.0677
 3517SOL    HW122184   3.589   2.222  10.165 -0.0498  0.0929  0.4516
 3517SOL    HW222185   3.500   2.119  10.216 -1.2354 -0.5821 -0.6382
 3518SOL     OW22186   3.534   0.173   5.723 -0.0530 -0.0422  0.3534
 3518SOL    HW122187   3.586   0.232   5.669 -0.8099  0.1196 -0.2027
 3518SOL    HW222188   3.608   0.130   5.765  1.4628  0.4501 -1.8252
 3519SOL     OW22189   4.012   2.260   1.152  0.0290  0.2576 -0.5377
 3519SOL    HW122190   4.003   2.239   1.059 -1.1935  0.6656 -0.5059
 3519SOL    HW222191   4.048   2.349   1.151  0.2729  0.1635 -0.3308
 3520SOL     OW22192   2.259   3.344   7.616  0.0401 -0.0049 -0.4902
 3520SOL    HW122193   2.269   3.360   7.523  0.3644  0.6235 -0.3462
 3520SOL    HW222194   2.209   3.422   7.640  2.7030  1.5315  0.0507
 3521SOL     OW22195   1.711   4.515  12.190  0.0898  0.2802 -0.3195
 3521SOL    HW122196   1.653   4.450  12.150 -0.0083 -0.4684  1.0258
 3521SOL    HW222197   1.774   4.451  12.222  0.7816  1.1077 -0.0335
 3522SOL     OW22198   4.669   3.519  12.203  0.3023 -0.0365 -0.4359
 3522SOL    HW122199   4.690   3.433  12.168  0.9802 -1.8499  4.4595
 3522SOL    HW222200   4.630   3.501  12.289  2.2068  0.3139  0.5020
 3523SOL     OW22201   3.067   0.008  11.857 -0.0538 -0.1385  0.3853
 3523SOL    HW122202   3.150   4.707  11.889 -0.5544 -1.6295 -0.0463
 3523SOL    HW222203   3.082   0.012  11.763 -3.8343 -2.2181 -0.2847
 3524SOL     OW22204   2.972   0.290   8.080  0.5545 -0.0131 -0.1676
 3524SOL    HW122205   2.898   0.297   8.139 -0.6571 -2.3799 -1.4159
 3524SOL    HW222206   2.934   0.250   8.002 -1.3662  1.6129 -0.0628
 3525SOL     OW22207   2.921   2.314   2.607 -0.0722 -0.1414  0.5254
 3525SOL    HW122208   2.862   2.382   2.641 -1.3712  0.2934 -2.5355
 3525SOL    HW222209   2.952   2.356   2.527 -1.0200 -0.6698 -0.1315
 3526SOL     OW22210   4.182   4.190   7.254 -0.0013 -0.1845 -0.1419
 3526SOL    HW122211   4.109   4.128   7.266  1.4849 -1.4248  2.5021
 3526SOL    HW222212   4.136   4.264   7.215 -1.2659 -0.5686  0.5776
 3527SOL     OW22213   4.058   3.351   3.514  0.2156  0.2811  0.3867
 3527SOL    HW122214   4.014   3.434   3.533 -2.1778 -0.2847 -2.6353
 3527SOL    HW222215   4.001   3.281   3.546  0.7147  0.1567  1.0030
 3528SOL     OW22216   0.837   2.336   2.303 -0.4726 -0.3351  0.8005
 3528SOL    HW122217   0.823   2.286   2.384 -0.7062 -3.6747 -1.3064
 3528SOL    HW222218   0.783   2.285   2.242  2.2197 -0.3154 -1.5700
 3529SOL     OW22219   3.251   0.394  10.294  0.3357 -0.4538  0.3146
 3529SOL    HW122220   3.219   0.316  10.248  0.8102  0.2130 -1.1377
 3529SOL    HW222221   3.238   0.365  10.384  1.4381  0.6399  0.8150
 3530SOL     OW22222   2.288   0.477   6.366  0.1299  0.6142  0.1691
 3530SOL    HW122223   2.198   0.483   6.334  0.4262 -0.7024 -0.9423
 3530SOL    HW222224   2.333   0.453   6.284 -0.9216  1.7345 -0.7300
 3531SOL     OW22225   3.477   2.156   2.768  0.2000  0.3604  0.0133
 3531SOL    HW122226   3.492   2.086   2.705  0.5645  0.9636 -0.5802
 3531SOL    HW222227   3.471   2.235   2.713 -0.5745  0.1460 -0.2155
 3532SOL     OW22228   1.217   1.367   1.359 -0.1986  0.1954 -0.0550
 3532SOL    HW122229   1.298   1.363   1.307 -0.1531  0.5873 -0.0138
 3532SOL    HW222230   1.233   1.314   1.438  0.8372  2.0893  0.9994
 3533SOL     OW22231   1.491   1.889   6.636  0.2494  0.4465  0.1576
 3533SOL    HW122232   1.562   1.865   6.576 -1.8181 -0.2782 -1.9724
 3533SOL    HW222233   1.527   1.923   6.718 -0.1138  1.6185 -0.1641
 3534SOL     OW22234   3.914   1.660   7.402 -0.7744 -0.5289  0.0651
 3534SOL    HW122235   3.964   1.719   7.458  1.4342 -1.0013 -1.4150
 3534SOL    HW222236   3.834   1.710   7.383  0.4925  1.2190 -0.6116
 3535SOL     OW22237   3.440   4.077   1.022  0.0728 -0.1449  0.4038
 3535SOL    HW122238   3.516   4.035   0.982  0.5734  1.8867 -0.7626
 3535SOL    HW222239   3.411   4.127   0.946 -0.1665 -0.1097  0.5200
 3536SOL     OW22240   0.572   3.819   4.164 -0.3779  0.3885  0.4391
 3536SOL    HW122241   0.649   3.836   4.219 -0.0333 -0.2881  0.1592
 3536SOL    HW222242   0.578   3.726   4.146  0.8778  0.8010 -1.2810
 3537SOL     OW22243   2.558   1.739  15.183  0.2845  0.6335 -0.2717
 3537SOL    HW122244   2.612   1.665  15.211 -0.2602 -0.6173 -2.4953
 3537SOL    HW222245   2.486   1.689  15.144  1.1478  0.9190 -2.2546
 3538SOL     OW22246   3.139   2.346   7.823 -0.0252  0.3642 -0.0722
 3538SOL    HW122247   3.219   2.294   7.822  0.0813  0.4989  0.8414
 3538SOL    HW222248   3.150   2.409   7.751 -0.8504 -0.1222 -0.6222
 3539SOL     OW22249   2.470   0.260   8.306  0.7469 -0.1037  0.1156
 3539SOL    HW122250   2.540   0.231   8.365  1.4614 -0.0665 -0.7181
 3539SOL    HW222251   2.473   0.353   8.326  2.1363  0.0392 -0.7150
 3540SOL     OW22252   3.341   2.255  10.389 -0.5573 -0.4283 -0.2143
 3540SOL    HW122253   3.403   2.288  10.454 -0.1120  1.4041 -1.5697
 3540SOL    HW222254   3.387   2.275  10.307 -1.9524  0.7960 -0.7148
 3541SOL     OW22255   1.364   3.225   6.396  0.1699 -0.8579 -0.3332
 3541SOL    HW122256   1.338   3.274   6.318  1.1663  2.4905  1.4460
 3541SOL    HW222257   1.300   3.154   6.400  0.5559 -1.1355  0.8032
 3542SOL     OW22258   4.068   2.125   2.646 -0.4304  0.0080 -0.3676
 3542SOL    HW122259   4.113   2.101   2.565  0.1501  2.6948 -0.8438
 3542SOL    HW222260   4.145   2.176   2.671 -1.3401  2.0566 -1.7197
 3543SOL     OW22261   4.422   0.189   3.319  0.6163 -0.1812  0.3723
 3543SOL    HW122262   4.499   0.190   3.376 -0.1970  1.6250  1.4453
 3543SOL    HW222263   4.373   0.250   3.373  0.6321  0.1709 -0.0155
 3544SOL     OW22264   1.066   0.738  17.395 -0.5224 -0.9740  0.4473
 3544SOL    HW122265   1.087   0.772  17.308  0.6655  0.5955  1.3581
 3544SOL    HW222266   1.095   0.647  17.386  2.5933 -0.0806  1.8322
 3545SOL     OW22267   2.270   2.797   8.169 -0.2297  0.1412  0.5506
 3545SOL    HW122268   2.357   2.793   8.208 -0.0174 -0.8623 -0.0381
 3545SOL    HW222269   2.267   2.722   8.109  1.5097 -1.0597  1.9961
 3546SOL     OW22270   2.434   0.916   0.420 -0.4714 -0.3797 -0.4583
 3546SOL    HW122271   2.370   0.917   0.491  0.7672 -0.2989  0.6685
 3546SOL    HW222272   2.461   0.825   0.406  2.5831  0.3705  0.5013
 3547SOL     OW22273   3.578   0.004  14.266 -0.2977 -0.0376  0.5198
 3547SOL    HW122274   3.524   4.718  14.342  0.5773 -2.1645  0.5333
 3547SOL    HW222275   3.513   4.715  14.199 -1.9062  1.3394  1.5795
 3548SOL     OW22276   2.117   3.704   5.975  0.1581 -0.3144 -0.0281
 3548SOL    HW122277   2.162   3.672   5.898  1.1063 -0.3295  0.5355
 3548SOL    HW222278   2.082   3.625   6.016  1.4188 -0.1667  1.3397
 3549SOL     OW22279   1.587   4.485   3.866  0.3118  0.6449  0.3024
 3549SOL    HW122280   1.591   4.578   3.844 -0.4713  0.0180 -2.5131
 3549SOL    HW222281   1.642   4.493   3.944 -0.2929  1.2324  0.6702
 3550SOL     OW22282   1.548   4.584   6.187 -0.6962  0.0638 -0.2835
 3550SOL    HW122283   1.620   4.606   6.246 -1.0841  1.7186 -0.4120
 3550SOL    HW222284   1.499   4.516   6.233  2.1289 -1.5401  0.3653
 3551SOL     OW22285   1.604   2.816  12.498 -0.6941  0.2890  0.5743
 3551SOL    HW122286   1.696   2.812  12.470 -1.2795 -1.7210 -1.0094
 3551SOL    HW222287   1.603   2.756  12.573 -1.2713  0.9061  1.0641
 3552SOL     OW22288   4.471   2.827   4.879  0.2432  0.4873 -0.0234
 3552SOL    HW122289   4.489   2.805   4.787 -1.3597  1.6831 -0.6208
 3552SOL    HW222290   4.491   2.744   4.921 -0.4691  0.1962 -0.2593
 3553SOL     OW22291   2.314   1.258   5.422 -0.1321 -0.5430 -0.1986
 3553SOL    HW122292   2.299   1.344   5.383  0.9916 -0.8869 -1.3536
 3553SOL    HW222293   2.401   1.233   5.392  0.2900  0.8940 -0.1945
 3554SOL     OW22294   0.736   2.486  13.666 -0.4633  0.0209 -0.3606
 3554SOL    HW122295   0.817   2.436  13.670 -0.2430  0.2492 -2.0267
 3554SOL    HW222296   0.722   2.513  13.757 -0.1371  1.2683 -0.6754
 3555SOL     OW22297   3.265   3.600  14.079  0.7150  0.1006 -0.1566
 3555SOL    HW122298   3.355   3.592  14.110  0.4170 -2.2214  0.0797
 3555SOL    HW222299   3.260   3.516  14.033 -1.8518 -0.8345  1.8518
 3556SOL     OW22300   1.577   2.295  11.981  0.1038  0.0638  0.1649
 3556SOL    HW122301   1.575   2.390  11.991 -1.6880 -0.0151  0.6152
 3556SOL    HW222302   1.485   2.279  12.004  0.0989  0.6133  0.5191
 3557SOL     OW22303   1.808   1.872   1.474 -0.4364  0.4785  0.1761
 3557SOL    HW122304   1.825   1.959   1.438 -1.0626  0.6903  0.4019
 3557SOL    HW222305   1.720   1.888   1.507 -0.3854  1.3995 -0.1247
 3558SOL     OW22306   0.021   1.123   7.947 -0.1209  0.7444  0.7856
 3558SOL    HW122307   0.089   1.056   7.938  1.0891  1.9489  0.7671
 3558SOL    HW222308   0.050   1.203   7.902  2.2347 -0.8894 -0.6375
 3559SOL     OW22309   0.901   3.598   8.944 -0.3694  0.1304 -0.0092
 3559SOL    HW122310   0.900   3.520   8.889  0.4078  1.2025 -1.5495
 3559SOL    HW222311   0.846   3.561   9.013 -1.0961  0.4923 -0.3949
 3560SOL     OW22312   3.701   3.311   6.282  0.1328 -0.4418  0.0491
 3560SOL    HW122313   3.791   3.277   6.278  0.2619  0.1188 -1.8520
 3560SOL    HW222314   3.701   3.339   6.191  0.5124  1.4876  0.6195
 3561SOL     OW22315   3.785   4.545   5.565 -0.4821 -0.0718  0.0755
 3561SOL    HW122316   3.829   4.531   5.481 -0.2614 -1.8707  0.4919
 3561SOL    HW222317   3.779   4.462   5.613  0.9393 -1.3549 -1.9776
 3562SOL     OW22318   0.533   0.114   8.450 -1.0500  0.1043 -0.4879
 3562SOL    HW122319   0.480   0.177   8.499  0.8265  0.1216  1.5222
 3562SOL    HW222320   0.502   0.132   8.361 -0.9846 -2.4431 -1.0405
 3563SOL     OW22321   0.807   0.383   6.910 -0.1307  0.1191  0.0271
 3563SOL    HW122322   0.807   0.384   6.814  4.7717  0.7237  0.0441
 3563SOL    HW222323   0.741   0.445   6.939  0.8359  2.2326 -2.3522
 3564SOL     OW22324   2.336   1.368   6.760  0.4474 -0.2596  0.0866
 3564SOL    HW122325   2.330   1.320   6.677 -0.4675  0.9170 -0.5150
 3564SOL    HW222326   2.244   1.358   6.784 -0.0792  1.5061 -1.1959
 3565SOL     OW22327   0.522   2.764  10.318 -0.0002  0.9280 -0.4521
 3565SOL    HW122328   0.555   2.789  10.404 -1.7178 -0.6705  0.6479
 3565SOL    HW222329   0.601   2.774  10.264 -0.2809  1.7080 -0.7250
 3566SOL     OW22330   3.646   3.791   2.764  0.3600 -0.2779  0.2605
 3566SOL    HW122331   3.655   3.859   2.831  0.4341  0.7611 -0.8235
 3566SOL    HW222332   3.717   3.819   2.706 -0.8978  0.1084 -1.0655
 3567SOL     OW22333   4.238   0.487   3.766 -0.0921  0.1712  1.0069
 3567SOL    HW122334   4.251   0.580   3.785  0.6348  0.3366 -0.2585
 3567SOL    HW222335   4.321   0.449   3.796 -0.1409  1.8771  3.2431
 3568SOL     OW22336   0.730   1.447  15.017 -0.0786  0.4339 -0.5314
 3568SOL    HW122337   0.770   1.533  15.004  1.6582 -0.4317 -0.9799
 3568SOL    HW222338   0.805   1.393  15.043 -1.3321 -1.6662 -1.2236
 3569SOL     OW22339   2.738   2.712   4.367 -0.1923  0.5172 -0.0280
 3569SOL    HW122340   2.789   2.666   4.301 -2.1291 -1.9146  0.1821
 3569SOL    HW222341   2.776   2.800   4.367 -0.5568  0.6814  0.7291
 3570SOL     OW22342   4.291   3.736   5.937  0.0970  0.2044  0.1300
 3570SOL    HW122343   4.305   3.795   5.863 -1.9480  0.3787 -0.1339
 3570SOL    HW222344   4.220   3.780   5.984 -0.1859  1.2479 -1.2552
 3571SOL     OW22345   1.494   4.304   5.599 -0.8713  0.0733  0.6281
 3571SOL    HW122346   1.536   4.293   5.685 -0.9899 -0.9359  0.5532
 3571SOL    HW222347   1.565   4.283   5.538  0.2576  1.2436  1.5229
 3572SOL     OW22348   0.640   1.342  11.822  0.7599 -0.5634 -0.2587
 3572SOL    HW122349   0.683   1.258  11.808 -0.2297 -1.5076  2.3771
 3572SOL    HW222350   0.617   1.373  11.734  0.5459 -0.3940 -0.1418
 3573SOL     OW22351   2.372   2.617  11.235  0.2654  0.4006  0.0196
 3573SOL    HW122352   2.415   2.534  11.254  1.0221  0.5945 -0.8934
 3573SOL    HW222353   2.381   2.633  11.141  0.4528  1.7261  0.2532
 3574SOL     OW22354   1.718   2.853   1.387  0.1647  0.3038 -0.0489
 3574SOL    HW122355   1.639   2.843   1.333  1.3168  4.7979 -2.5486
 3574SOL    HW222356   1.676   2.903   1.457  0.1287  1.4676 -0.9009
 3575SOL     OW22357   0.539   0.829   4.897 -0.2052 -0.1595  0.0936
 3575SOL    HW122358   0.505   0.821   4.808 -2.6293 -2.6903  1.2613
 3575SOL    HW222359   0.634   0.836   4.887 -0.0448  0.3046  1.8129
 3576SOL     OW22360   2.464   3.386   0.302  0.4189  0.1109  0.3210
 3576SOL    HW122361   2.513   3.464   0.276 -0.5524 -0.0751 -2.1399
 3576SOL    HW222362   2.527   3.318   0.325  1.3696  0.9476  0.1932
 3577SOL     OW22363   2.888   1.059  13.697  0.4899 -0.1920  0.1971
 3577SOL    HW122364   2.872   0.969  13.724  1.4542 -0.6655 -0.8209
 3577SOL    HW222365   2.976   1.069  13.733  0.9137 -1.1619 -0.5751
 3578SOL     OW22366   2.845   1.229   2.385 -0.7306  0.0545  0.1067
 3578SOL    HW122367   2.759   1.228   2.426 -0.5584 -0.1844  0.4673
 3578SOL    HW222368   2.883   1.300   2.438  3.5163 -1.4740 -0.8930
 3579SOL     OW22369   1.197   2.492   7.727 -0.2072 -0.1109 -0.0836
 3579SOL    HW122370   1.199   2.492   7.823  3.5688 -1.5244 -0.1669
 3579SOL    HW222371   1.262   2.423   7.714  2.5029  2.0207  2.0688
 3580SOL     OW22372   2.481   1.359   3.975 -0.7216  0.1417 -0.0114
 3580SOL    HW122373   2.450   1.315   4.054  1.6821  0.5632  1.1633
 3580SOL    HW222374   2.412   1.423   3.956  1.9695  3.0234 -0.1104
 3581SOL     OW22375   1.091   4.297   4.742  0.0265  0.0958  0.0823
 3581SOL    HW122376   1.152   4.350   4.793  0.5506 -1.2475  0.8608
 3581SOL    HW222377   1.143   4.283   4.662 -2.2398  0.2663 -1.4370
 3582SOL     OW22378   3.159   3.009   3.953 -0.2102 -0.3366 -0.0288
 3582SOL    HW122379   3.157   3.047   4.041  0.8281  3.4142 -1.6235
 3582SOL    HW222380   3.067   2.985   3.937 -0.8607  1.1747  1.3686
 3583SOL     OW22381   2.144   2.451   7.844 -0.5573  0.6125  0.9259
 3583SOL    HW122382   2.189   2.500   7.913  1.1447  0.8684 -0.3528
 3583SOL    HW222383   2.099   2.389   7.901  0.0639  0.8891  1.7233
 3584SOL     OW22384   3.265   4.435   3.789 -0.2468 -0.2635 -0.2600
 3584SOL    HW122385   3.299   4.481   3.712 -2.0681  0.5699 -0.5857
 3584SOL    HW222386   3.305   4.350   3.773  0.4432  0.2412 -1.2429
 3585SOL     OW22387   3.515   3.164  10.288 -0.6221 -0.2261  0.4137
 3585SOL    HW122388   3.524   3.081  10.240  0.3554  0.7194 -1.0429
 3585SOL    HW222389   3.596   3.169  10.338 -1.1760  0.8559  1.2052
 3586SOL     OW22390   2.963   1.872   7.366  0.4570  0.2362 -0.0209
 3586SOL    HW122391   2.892   1.912   7.416  1.0636  1.0117  0.2128
 3586SOL    HW222392   2.939   1.897   7.276 -0.1230 -1.8406 -0.4322
 3587SOL     OW22393   3.894   0.188   5.376  0.6156  0.2569  0.7110
 3587SOL    HW122394   3.912   0.142   5.294  0.3947  0.5988  0.4704
 3587SOL    HW222395   3.820   0.136   5.406 -0.6897  1.9696  0.4900
 3588SOL     OW22396   4.228   0.171  15.873 -0.2469  0.2569  0.4660
 3588SOL    HW122397   4.249   0.221  15.952 -0.7189  2.5211 -0.8598
 3588SOL    HW222398   4.137   0.146  15.889 -0.1607 -0.3561 -0.0324
 3589SOL     OW22399   1.255   2.360   9.118 -0.2378 -0.0577 -0.0975
 3589SOL    HW122400   1.211   2.313   9.189 -0.3486  1.5226  0.8672
 3589SOL    HW222401   1.200   2.438   9.120  1.9803  1.5240 -0.2131
 3590SOL     OW22402   3.102   2.889   8.418  0.4804 -0.2050  0.1838
 3590SOL    HW122403   3.051   2.809   8.414  2.0146 -1.1850  0.1557
 3590SOL    HW222404   3.124   2.903   8.326  0.5765  0.2248  0.2692
 3591SOL     OW22405   3.445   2.873   9.023  0.5492 -0.0835  0.3197
 3591SOL    HW122406   3.510   2.872   9.093  1.0161  2.9509 -0.0343
 3591SOL    HW222407   3.452   2.965   8.997 -2.4303 -0.1436 -0.6392
 3592SOL     OW22408   2.087   3.145   7.217 -0.1124  0.0463  0.2706
 3592SOL    HW122409   2.071   3.059   7.256  3.6919 -0.3428  0.9497
 3592SOL    HW222410   2.002   3.173   7.181  1.5832  0.4751 -3.3583
 3593SOL     OW22411   4.424   4.730   4.090 -0.4786  0.4825  0.6721
 3593SOL    HW122412   4.489   0.057   4.059 -0.2800 -1.7602 -3.4538
 3593SOL    HW222413   4.432   0.018   4.183  0.2894  2.9211 -0.0251
 3594SOL     OW22414   2.599   3.590  17.103 -0.4472 -0.9195  0.2878
 3594SOL    HW122415   2.506   3.604  17.085 -0.3875  0.4575  1.0051
 3594SOL    HW222416   2.613   3.500  17.073  3.1924 -1.1976  2.8632
 3595SOL     OW22417   4.133   4.484  15.424  0.2647 -0.1909  0.4705
 3595SOL    HW122418   4.212   4.443  15.386  0.3977  0.1305  0.4020
 3595SOL    HW222419   4.067   4.477  15.354  0.5904  0.9844  0.0446
 3596SOL     OW22420   3.068   3.533   5.742 -0.9788 -0.1755 -0.2616
 3596SOL    HW122421   3.020   3.450   5.735  0.9099 -1.2112 -0.9515
 3596SOL    HW222422   3.117   3.509   5.821 -1.2555 -0.0495 -0.0521
 3597SOL     OW22423   0.240   2.647  11.587  0.2908  0.2725  0.2933
 3597SOL    HW122424   0.231   2.552  11.582 -1.7342  0.4353  0.7478
 3597SOL    HW222425   0.334   2.661  11.596  0.2337  2.4756 -2.2560
 3598SOL     OW22426   3.190   0.358   4.571  0.4444  0.0986  0.4268
 3598SOL    HW122427   3.146   0.394   4.648  0.8339 -1.4777  1.3778
 3598SOL    HW222428   3.177   0.427   4.506  1.3388  1.9774  2.2360
 3599SOL     OW22429   0.653   2.365  17.107 -0.4524  0.0650  0.4371
 3599SOL    HW122430   0.678   2.457  17.102 -1.5387  0.3700  0.6312
 3599SOL    HW222431   0.675   2.336  17.196 -0.8947  0.0956  0.5554
 3600SOL     OW22432   2.978   3.556   3.235  0.6920 -0.0529  0.0576
 3600SOL    HW122433   2.979   3.461   3.237  2.4938 -0.0254  0.7972
 3600SOL    HW222434   2.917   3.566   3.308  0.8388 -2.0190  0.4485
 3601SOL     OW22435   3.854   4.712   3.755 -0.5941  0.1109 -0.7045
 3601SOL    HW122436   3.914   4.672   3.819 -1.5603 -0.7332 -0.3151
 3601SOL    HW222437   3.791   0.005   3.821 -0.1937  3.0716 -1.5881
 3602SOL     OW22438   4.209   2.929   2.756 -0.0485  0.5260  0.7634
 3602SOL    HW122439   4.261   2.978   2.692  1.6562 -1.5333  0.5988
 3602SOL    HW222440   4.270   2.869   2.798  2.0178  1.1631 -1.3004
 3603SOL     OW22441   4.475   0.338  12.125 -0.4421 -0.4891  0.3253
 3603SOL    HW122442   4.483   0.365  12.033  1.5595 -0.7895  0.4119
 3603SOL    HW222443   4.432   0.414  12.165  0.0806  0.6626 -1.2936
 3604SOL     OW22444   0.955   2.333   4.479  0.1972  0.5861 -0.1803
 3604SOL    HW122445   0.930   2.352   4.389  1.0558  0.4919 -0.4390
 3604SOL    HW222446   0.902   2.398   4.525 -0.4351  0.4167 -0.6712
 3605SOL     OW22447   4.175   3.703   9.012 -0.0760  0.3593  0.0876
 3605SOL    HW122448   4.261   3.740   9.030 -0.8213  1.9549  0.3824
 3605SOL    HW222449   4.130   3.773   9.059  0.7547 -0.0354  1.4975
 3606SOL     OW22450   4.184   2.476   4.193  0.3562 -0.0256 -0.1862
 3606SOL    HW122451   4.129   2.534   4.246 -1.1884 -0.6870 -1.0637
 3606SOL    HW222452   4.179   2.395   4.243  0.0967 -0.2638 -0.6016
 3607SOL     OW22453   4.503   0.709   0.516 -0.1757 -0.0650 -0.2790
 3607SOL    HW122454   4.516   0.672   0.604  1.4331  1.2011  0.0129
 3607SOL    HW222455   4.555   0.640   0.475 -0.0621 -0.4189  0.4468
 3608SOL     OW22456   2.358   3.565   6.388  0.0948  0.5510  0.3520
 3608SOL    HW122457   2.333   3.493   6.446 -0.9190 -1.0016 -2.0378
 3608SOL    HW222458   2.342   3.527   6.302  0.1198  0.5699  0.3390
 3609SOL     OW22459   1.593   1.013  11.482  0.4299 -0.2036 -0.0159
 3609SOL    HW122460   1.543   0.938  11.513 -0.4499  0.4388  0.1219
 3609SOL    HW222461   1.610   1.061  11.564 -2.3197 -0.4560  0.7003
 3610SOL     OW22462   0.957   1.281   2.558 -0.4719 -0.3332  0.3723
 3610SOL    HW122463   0.901   1.241   2.624 -3.2491  0.8613 -1.2621
 3610SOL    HW222464   0.978   1.208   2.500 -1.1197  0.6259 -1.0655
 3611SOL     OW22465   0.762   3.186   8.156  0.2409  0.1946  0.1584
 3611SOL    HW122466   0.688   3.127   8.141  1.5027 -1.3368 -0.0871
 3611SOL    HW222467   0.796   3.146   8.236  2.2615  1.3211 -0.1309
 3612SOL     OW22468   2.897   0.166   9.730 -0.2930 -0.0176  0.5373
 3612SOL    HW122469   2.892   0.208   9.643  0.9482  0.7327  0.8306
 3612SOL    HW222470   2.923   0.076   9.712 -1.0922 -0.0835 -0.2685
 3613SOL     OW22471   3.286   0.935  11.636 -0.1200  0.1423 -0.5001
 3613SOL    HW122472   3.345   0.899  11.702 -0.2956  0.3441 -0.2333
 3613SOL    HW222473   3.226   0.998  11.676 -1.5575  0.4338 -3.0982
 3614SOL     OW22474   2.838   3.079   5.095  0.1330  0.3590 -0.0990
 3614SOL    HW122475   2.811   3.167   5.069 -1.4942  0.6815  2.6768
 3614SOL    HW222476   2.924   3.096   5.135  0.9018 -1.1687 -1.0782
 3615SOL     OW22477   0.440   2.297   4.614 -0.2741  0.3077  0.4493
 3615SOL    HW122478   0.417   2.373   4.561 -0.6018  1.5038  2.2997
 3615SOL    HW222479   0.378   2.229   4.590 -0.3357  0.9324 -1.1972
 3616SOL     OW22480   2.484   0.264   4.899  0.3220  0.5092 -0.1273
 3616SOL    HW122481   2.415   0.247   4.834  1.1466 -0.3291 -0.7809
 3616SOL    HW222482   2.443   0.336   4.947 -0.9981  0.1364 -0.6898
 3617SOL     OW22483   4.201   1.918   3.045  0.3835 -0.6734  0.3764
 3617SOL    HW122484   4.274   1.881   3.095  2.5833  1.5661 -1.1617
 3617SOL    HW222485   4.175   1.856   2.977  1.5568  1.3948 -1.9656
 3618SOL     OW22486   2.540   2.860   1.913 -0.1517 -0.2710 -0.1818
 3618SOL    HW122487   2.530   2.810   1.994  1.2131  2.5047  1.7026
 3618SOL    HW222488   2.636   2.865   1.906 -0.1120  0.3670  0.8232
 3619SOL     OW22489   3.004   2.133   7.582  0.0601 -0.2795 -0.3443
 3619SOL    HW122490   3.039   2.142   7.670  1.1801  0.4159 -0.8537
 3619SOL    HW222491   2.982   2.040   7.578 -1.9755  0.2584 -1.7815
 3620SOL     OW22492   2.041   0.192   7.830 -0.2191  0.3625  0.0344
 3620SOL    HW122493   1.950   0.214   7.848 -0.3307  0.8346 -1.1429
 3620SOL    HW222494   2.038   0.176   7.736  0.7540  1.4572 -0.1889
 3621SOL     OW22495   1.420   3.192   2.618  0.2791  0.3046  0.3042
 3621SOL    HW122496   1.357   3.123   2.600 -0.9151  1.2454  0.9275
 3621SOL    HW222497   1.431   3.238   2.535 -0.2464 -0.2826 -0.0811
 3622SOL     OW22498   1.442   3.620   6.005 -0.4083  0.5675  0.5187
 3622SOL    HW122499   1.467   3.560   5.935  0.1917 -0.5169  1.6685
 3622SOL    HW222500   1.507   3.608   6.074 -0.0299  3.0643  0.5981
 3623SOL     OW22501   1.928   0.824   3.298 -0.8875  0.2043  0.0175
 3623SOL    HW122502   1.891   0.811   3.211  1.7380  1.9396 -1.3789
 3623SOL    HW222503   1.989   0.894   3.272 -2.4129  2.1555  1.6627
 3624SOL     OW22504   0.655   0.691  13.490  0.6421 -0.2854 -0.8319
 3624SOL    HW122505   0.618   0.731  13.411  0.4256  0.2302 -0.4747
 3624SOL    HW222506   0.593   0.711  13.561  0.9045  1.1186 -0.9833
 3625SOL     OW22507   4.521   3.476  15.561 -0.0175 -0.5241  0.0232
 3625SOL    HW122508   4.488   3.541  15.622  0.2950  0.3572 -0.7406
 3625SOL    HW222509   4.438   3.446  15.523 -0.1165  1.9655 -1.7118
 3626SOL     OW22510   3.821   1.926   2.455 -0.6085 -0.1736 -0.4475
 3626SOL    HW122511   3.838   2.004   2.403 -0.9230  0.3828  0.2799
 3626SOL    HW222512   3.830   1.855   2.392 -0.5018 -3.0436  2.7700
 3627SOL     OW22513   4.589   1.833   8.192 -0.2681 -0.4765 -0.8226
 3627SOL    HW122514   4.671   1.882   8.180  0.4871 -1.3864  0.6971
 3627SOL    HW222515   4.526   1.901   8.219 -0.6133 -1.2309  0.2686
 3628SOL     OW22516   3.845   0.238   7.084  0.3241  0.2724 -0.4447
 3628SOL    HW122517   3.763   0.288   7.090  0.2151  0.3344 -2.6783
 3628SOL    HW222518   3.821   0.156   7.129 -0.1810  0.6193 -0.0737
 3629SOL     OW22519   0.737   2.597   0.944 -0.2709  0.3711  0.2384
 3629SOL    HW122520   0.768   2.508   0.959  0.4048  0.1555 -2.3893
 3629SOL    HW222521   0.722   2.589   0.850  0.2799  1.0627  0.0944
 3630SOL     OW22522   3.930   0.432   1.914  0.3585  0.7120 -0.1447
 3630SOL    HW122523   3.870   0.358   1.916  2.0969 -0.6734  0.2383
 3630SOL    HW222524   3.980   0.422   1.833  1.6952 -0.5881  0.8621
 3631SOL     OW22525   4.620   4.005   3.688  0.3124 -0.9027 -0.3657
 3631SOL    HW122526   4.607   4.025   3.596  3.0794  0.5149 -0.4465
 3631SOL    HW222527   4.567   4.073   3.730  3.8073 -0.1333  2.8775
 3632SOL     OW22528   0.452   0.244  15.260 -0.1696  0.4697 -0.1095
 3632SOL    HW122529   0.457   0.189  15.181 -4.3070 -0.4638  0.2516
 3632SOL    HW222530   0.383   0.194  15.304  0.5644  0.1531  0.6857
 3633SOL     OW22531   1.359   1.385   2.333 -0.4942 -0.3313  0.2567
 3633SOL    HW122532   1.288   1.326   2.360  0.2104 -0.6071  1.5077
 3633SOL    HW222533   1.425   1.318   2.317  1.8643  1.5749  2.1413
 3634SOL     OW22534   0.917   4.150   7.102  0.1276  0.5967  0.1783
 3634SOL    HW122535   0.973   4.226   7.120 -0.0255  0.1906  2.4154
 3634SOL    HW222536   0.859   4.149   7.178  0.1383  2.8053  0.2055
 3635SOL     OW22537   2.090   2.817   3.241  0.2296  0.2209 -0.0929
 3635SOL    HW122538   2.137   2.747   3.196 -0.6286 -1.0896  1.0418
 3635SOL    HW222539   2.158   2.863   3.290  1.2138 -1.0549 -0.2581
 3636SOL     OW22540   3.109   3.282   9.081  0.3091  0.1438 -1.0107
 3636SOL    HW122541   3.131   3.314   8.994 -0.2035 -1.3052 -1.6673
 3636SOL    HW222542   3.013   3.290   9.077  0.2309  0.2894  1.2057
 3637SOL     OW22543   2.049   2.377   2.127 -0.1081 -0.6998  1.3870
 3637SOL    HW122544   2.053   2.360   2.033  1.2844  0.2355  1.2805
 3637SOL    HW222545   1.983   2.446   2.133  1.3569  1.0427 -2.6147
 3638SOL     OW22546   1.387   4.474   7.526  0.0867  0.1790 -0.6530
 3638SOL    HW122547   1.312   4.455   7.582  1.0981  2.9500  1.6274
 3638SOL    HW222548   1.433   4.391   7.515  2.0500  0.9542  1.5221
 3639SOL     OW22549   0.730   4.111   4.082  0.0783 -0.0563  0.3319
 3639SOL    HW122550   0.701   4.195   4.118 -0.4758 -2.0028  4.3731
 3639SOL    HW222551   0.780   4.079   4.157  0.7861  1.6023  0.5710
 3640SOL     OW22552   0.969   3.770   6.712  0.3746 -0.1440 -0.7306
 3640SOL    HW122553   1.048   3.825   6.706 -1.1103  2.1425  0.5421
 3640SOL    HW222554   0.912   3.828   6.763  2.5618 -0.7814  2.4819
 3641SOL     OW22555   4.119   3.470   5.222 -0.2436 -0.5344 -0.1928
 3641SOL    HW122556   4.213   3.488   5.231 -0.2882 -0.2301 -0.3113
 3641SOL    HW222557   4.079   3.542   5.272  0.8755  2.5425 -3.6949
 3642SOL     OW22558   0.611   3.583   6.361  0.7173 -0.2467  0.2779
 3642SOL    HW122559   0.660   3.501   6.362 -0.0818 -0.7240  0.3633
 3642SOL    HW222560   0.667   3.642   6.412  0.8278  0.4873 -0.7034
 3643SOL     OW22561   3.990   0.498   6.721  0.2619 -0.2137 -0.1961
 3643SOL    HW122562   3.914   0.552   6.700 -0.4048 -0.6711  1.0588
 3643SOL    HW222563   3.945   0.416   6.737  0.3678 -0.2068  0.1301
 3644SOL     OW22564   2.905   0.519  14.689  0.1168  0.6023  0.4039
 3644SOL    HW122565   2.861   0.491  14.609  0.0081 -1.0683  1.0617
 3644SOL    HW222566   2.908   0.438  14.740 -0.4502  0.4552  0.2118
 3645SOL     OW22567   4.692   2.029   4.262 -0.7939  0.1374 -0.1211
 3645SOL    HW122568   4.682   2.092   4.334  0.4693  1.4479 -1.0809
 3645SOL    HW222569   4.601   2.005   4.246 -1.0946  0.7505  0.6788
 3646SOL     OW22570   4.205   0.277   7.876  0.1127 -0.2059 -0.4676
 3646SOL    HW122571   4.140   0.285   7.946  0.0994  0.8404 -0.5959
 3646SOL    HW222572   4.238   0.190   7.898 -0.5162 -0.2893  0.1148
 3647SOL     OW22573   1.352   4.203   6.162  0.4968  0.6198 -0.0822
 3647SOL    HW122574   1.326   4.276   6.218 -1.0593 -0.7482  1.0027
 3647SOL    HW222575   1.271   4.150   6.158  0.3041  0.9639 -0.7859
 3648SOL     OW22576   0.875   1.797   8.907  0.1452  0.3213  0.0300
 3648SOL    HW122577   0.791   1.802   8.862 -0.1063  0.9135  0.5627
 3648SOL    HW222578   0.944   1.798   8.841  0.1121 -1.5860 -0.0456
 3649SOL     OW22579   1.539   0.885   5.184  0.3469 -0.2996 -0.0860
 3649SOL    HW122580   1.578   0.896   5.098  0.0086  2.3319  0.1035
 3649SOL    HW222581   1.494   0.801   5.176 -0.8240  0.1737  1.4222
 3650SOL     OW22582   3.993   1.514   1.913  0.7028  0.0383  0.2275
 3650SOL    HW122583   4.068   1.567   1.885 -0.0791  0.6948 -0.5954
 3650SOL    HW222584   4.037   1.452   1.972 -0.8526 -1.0630  0.2153
 3651SOL     OW22585   1.584   2.076   2.607  0.3730 -0.1461  0.2556
 3651SOL    HW122586   1.653   2.135   2.636 -0.2509  0.3037  0.8305
 3651SOL    HW222587   1.525   2.069   2.682  1.6130 -0.7053  1.1691
 3652SOL     OW22588   2.263   4.036   4.422  0.3677  0.4162 -0.1925
 3652SOL    HW122589   2.354   4.030   4.450  0.4865 -1.5019 -1.0195
 3652SOL    HW222590   2.220   3.961   4.463  1.3548  1.5912  2.9799
 3653SOL     OW22591   4.108   1.165  15.585  0.2003  0.6029 -0.4235
 3653SOL    HW122592   4.153   1.129  15.508  0.2175 -1.2968  0.4859
 3653SOL    HW222593   4.095   1.259  15.574  1.4601  1.1195  2.5985
 3654SOL     OW22594   0.314   0.177   0.240 -0.1441  0.0070  0.2699
 3654SOL    HW122595   0.401   0.174   0.279  0.7149 -2.0057 -1.8367
 3654SOL    HW222596   0.339   0.169   0.148 -0.9494  0.2026  0.0314
 3655SOL     OW22597   2.452   1.690   8.701 -0.1743 -0.0513  0.1833
 3655SOL    HW122598   2.515   1.759   8.722 -0.9178  0.6571  0.0825
 3655SOL    HW222599   2.416   1.727   8.621 -0.2018 -1.4768 -0.4572
 3656SOL     OW22600   2.369   3.711   5.782  0.0469  0.2373  0.0401
 3656SOL    HW122601   2.405   3.637   5.733 -2.0679 -2.0572  1.9234
 3656SOL    HW222602   2.441   3.724   5.843 -2.3945 -0.3102  3.0510
 3657SOL     OW22603   3.949   3.031   6.568 -0.4861 -0.5321  0.0249
 3657SOL    HW122604   3.956   3.127   6.571 -1.0807 -0.4210 -2.1256
 3657SOL    HW222605   4.027   3.013   6.515  0.4847  0.8410  0.9784
 3658SOL     OW22606   3.194   2.336  14.946 -0.1421 -0.5350 -0.0721
 3658SOL    HW122607   3.269   2.360  15.000  2.0444  0.1109 -3.4092
 3658SOL    HW222608   3.199   2.397  14.873 -0.7298 -1.9321 -1.2828
 3659SOL     OW22609   2.078   0.552   5.167  0.1969  0.1121 -0.1923
 3659SOL    HW122610   1.986   0.528   5.176  0.1630 -0.1297 -1.1713
 3659SOL    HW222611   2.096   0.525   5.077  0.0478 -0.5715 -0.0161
 3660SOL     OW22612   1.090   1.455  10.823  0.6704  0.1782 -0.0593
 3660SOL    HW122613   1.104   1.374  10.872 -1.3458  1.1563  2.1578
 3660SOL    HW222614   1.034   1.504  10.883 -1.0370  0.7075 -2.0866
 3661SOL     OW22615   3.803   2.808   3.480 -0.2415  1.0118  0.6405
 3661SOL    HW122616   3.758   2.839   3.401  0.5016 -0.1242 -0.2220
 3661SOL    HW222617   3.886   2.791   3.436 -0.1361 -0.1330  1.2808
 3662SOL     OW22618   0.723   2.775  16.640 -0.1998  0.4750  0.3598
 3662SOL    HW122619   0.630   2.790  16.657 -0.1073  1.8383 -0.3408
 3662SOL    HW222620   0.767   2.858  16.657  0.7922  0.1404 -0.5168
 3663SOL     OW22621   1.807   0.456  13.881  0.1247 -0.5336  0.3172
 3663SOL    HW122622   1.845   0.390  13.939  0.6665  0.1473  0.7406
 3663SOL    HW222623   1.885   0.483  13.834  0.7170 -1.9885  0.4658
 3664SOL     OW22624   1.202   0.014   8.468 -0.1763 -0.5229 -0.3122
 3664SOL    HW122625   1.125   0.043   8.418 -1.4103 -2.1373  0.6558
 3664SOL    HW222626   1.172   4.670   8.512 -1.2977 -0.6258 -1.2430
 3665SOL     OW22627   1.255   0.494   2.638 -0.6197 -0.5018  0.0738
 3665SOL    HW122628   1.342   0.515   2.672 -0.5320 -2.3936  1.0492
 3665SOL    HW222629   1.277   0.500   2.546  1.1636 -0.8843  0.4852
 3666SOL     OW22630   0.936   0.601   2.183 -0.2469  0.2534 -0.3236
 3666SOL    HW122631   0.983   0.544   2.122 -1.0900  0.6414 -1.3454
 3666SOL    HW222632   0.931   0.682   2.132 -0.3684 -0.1015 -0.8794
 3667SOL     OW22633   2.131   1.934   2.596 -0.2009  0.2304 -0.5637
 3667SOL    HW122634   2.042   1.944   2.629  0.1883 -0.5204  0.7226
 3667SOL    HW222635   2.152   2.015   2.550  0.9251  0.1892 -0.1190
 3668SOL     OW22636   0.817   4.690   6.353 -0.0944 -0.0946 -0.5699
 3668SOL    HW122637   0.802   4.647   6.437  2.3708  0.4554  0.1591
 3668SOL    HW222638   0.828   0.040   6.396  2.4095  0.6342 -2.6822
 3669SOL     OW22639   1.290   4.440   6.281 -0.4238 -0.5588 -0.4334
 3669SOL    HW122640   1.245   4.475   6.359  2.0369  2.1269 -0.2109
 3669SOL    HW222641   1.251   4.498   6.216 -1.0110 -1.4445 -0.8738
 3670SOL     OW22642   3.728   0.916   5.063 -0.4689 -0.7877 -0.8348
 3670SOL    HW122643   3.810   0.868   5.079 -1.1863 -1.1076  2.0267
 3670SOL    HW222644   3.694   0.909   5.152  0.8461  0.9537 -0.1855
 3671SOL     OW22645   2.492   3.006   4.861 -0.5802  0.1351 -0.7040
 3671SOL    HW122646   2.582   3.028   4.835 -0.4483  0.9696  0.4356
 3671SOL    HW222647   2.460   3.091   4.891  0.6410 -0.2937  1.7676
 3672SOL     OW22648   2.281   2.489  15.761 -0.1155  0.2710 -0.1966
 3672SOL    HW122649   2.185   2.489  15.763 -0.1141 -2.9316 -1.4651
 3672SOL    HW222650   2.304   2.571  15.717  0.7119 -0.0488 -0.3482
 3673SOL     OW22651   2.036   0.514   6.695  0.4446 -0.2184 -0.3929
 3673SOL    HW122652   2.049   0.588   6.753 -3.6546  0.5124 -0.3904
 3673SOL    HW222653   2.127   0.501   6.670  0.0460 -1.3707 -1.2897
 3674SOL     OW22654   3.822   0.616   8.076  0.6079 -0.2192 -0.0168
 3674SOL    HW122655   3.771   0.539   8.100 -0.8472  1.5843  2.6694
 3674SOL    HW222656   3.840   0.667   8.155 -0.0487  0.1467 -0.1087
 3675SOL     OW22657   1.950   0.836  13.321 -0.0115 -0.2505  0.0270
 3675SOL    HW122658   1.980   0.925  13.307 -0.9911 -0.2176 -1.9795
 3675SOL    HW222659   1.882   0.839  13.253 -1.2961 -1.1893  1.2645
 3676SOL     OW22660   2.702   4.575   1.836 -0.0543 -0.4845  0.4425
 3676SOL    HW122661   2.697   4.559   1.931  3.5002 -1.2999  0.5199
 3676SOL    HW222662   2.787   4.533   1.821  0.3323  0.1910  0.7193
 3677SOL     OW22663   2.216   1.093   2.366  0.4365 -0.1331  0.6806
 3677SOL    HW122664   2.284   1.113   2.302 -0.4687  2.5252  0.5474
 3677SOL    HW222665   2.208   1.171   2.420  0.4627  0.5172 -0.2616
 3678SOL     OW22666   3.690   1.614   5.738  0.1348 -0.5383 -0.4209
 3678SOL    HW122667   3.659   1.697   5.702  0.3208 -0.5547 -0.6188
 3678SOL    HW222668   3.720   1.573   5.656 -0.1818 -1.2893 -0.1664
 3679SOL     OW22669   1.675   2.669   3.925 -0.0465 -0.0315  0.6208
 3679SOL    HW122670   1.617   2.741   3.952 -0.4478  0.1557 -0.7247
 3679SOL    HW222671   1.608   2.613   3.885 -0.0756 -0.2047  0.9162
 3680SOL     OW22672   1.344   0.177   3.166 -0.0900 -0.2969 -0.0267
 3680SOL    HW122673   1.329   0.182   3.261 -0.2235  2.0114 -0.1781
 3680SOL    HW222674   1.284   0.239   3.125  1.7604  0.9051 -0.9473
 3681SOL     OW22675   1.347   0.907   9.674  0.4782 -0.2129 -0.0149
 3681SOL    HW122676   1.412   0.965   9.714 -0.0747  1.1018 -1.0165
 3681SOL    HW222677   1.273   0.941   9.725 -0.2385 -0.6822 -0.7320
 3682SOL     OW22678   4.062   4.352   6.956 -0.6219 -0.6251  0.2291
 3682SOL    HW122679   3.991   4.344   6.891 -0.0340  0.9537 -0.5978
 3682SOL    HW222680   4.016   4.384   7.033 -1.3209  0.4247 -0.6213
 3683SOL     OW22681   4.482   4.609  11.868 -0.2663 -0.1695  0.2242
 3683SOL    HW122682   4.568   4.649  11.886 -1.9413  3.0202  1.2703
 3683SOL    HW222683   4.507   4.545  11.802  0.4548 -0.1611  0.4870
 3684SOL     OW22684   2.874   1.602  14.567  0.2784  0.3102  0.2596
 3684SOL    HW122685   2.799   1.626  14.514  0.4775  1.3555  0.4554
 3684SOL    HW222686   2.837   1.628  14.651 -0.0213 -1.2133  0.6027
 3685SOL     OW22687   3.926   0.159  15.938 -0.2439  0.6028 -0.4899
 3685SOL    HW122688   3.831   0.164  15.926  0.0927  0.0619 -3.3539
 3685SOL    HW222689   3.933   0.162  16.034 -1.4006 -0.3196 -0.3774
 3686SOL     OW22690   2.836   2.737   7.681  0.3261 -0.2252 -0.0913
 3686SOL    HW122691   2.773   2.785   7.628 -0.1053 -0.7198 -0.0249
 3686SOL    HW222692   2.906   2.802   7.682  0.2091 -0.1021  0.0835
 3687SOL     OW22693   1.616   2.656   8.023 -0.1161  0.1088 -0.2906
 3687SOL    HW122694   1.577   2.578   8.062 -1.3179  0.2299 -1.2493
 3687SOL    HW222695   1.709   2.633   8.031 -0.6123 -2.1119 -0.8667
 3688SOL     OW22696   0.069   1.654  14.845 -0.5088 -0.1583 -0.2118
 3688SOL    HW122697   0.110   1.707  14.776 -2.1212  1.0627 -0.2127
 3688SOL    HW222698   4.711   1.676  14.845 -0.3650  0.4479  0.5924
 3689SOL     OW22699   1.056   2.865   0.252 -0.1640 -0.0107  0.1972
 3689SOL    HW122700   1.004   2.842   0.176  0.3247  2.7489 -0.9623
 3689SOL    HW222701   0.990   2.853   0.320 -0.5154  1.5307  0.1323
 3690SOL     OW22702   3.263   2.865   2.642  0.0733  0.7300 -0.4721
 3690SOL    HW122703   3.335   2.917   2.678  0.9794 -0.6892 -0.2076
 3690SOL    HW222704   3.191   2.899   2.694  0.3980  1.3864 -0.4533
 3691SOL     OW22705   4.468   2.389   9.480  0.4082 -0.0011 -0.0719
 3691SOL    HW122706   4.534   2.373   9.548  1.9843  1.6852 -1.2144
 3691SOL    HW222707   4.392   2.388   9.538 -0.3920 -3.8557 -1.1920
 3692SOL     OW22708   4.714   2.475  16.678 -0.4491  0.2516  0.1497
 3692SOL    HW122709   0.020   2.431  16.752  1.3289  0.4020 -0.7502
 3692SOL    HW222710   4.678   2.397  16.637  1.9140 -0.6016 -0.2949
 3693SOL     OW22711   2.893   1.541   9.471  0.2216  0.1154 -0.3570
 3693SOL    HW122712   2.938   1.625   9.462 -0.3029  0.5656  1.2248
 3693SOL    HW222713   2.828   1.535   9.401 -1.3646 -0.6742  1.1872
 3694SOL     OW22714   0.262   1.569   4.208 -0.8384 -0.2715 -0.1321
 3694SOL    HW122715   0.248   1.662   4.228  2.8179  0.5298 -1.3526
 3694SOL    HW222716   0.278   1.558   4.114  1.5313 -1.3858  0.3998
 3695SOL     OW22717   4.309   4.276   5.945  0.1080  0.3121  0.1083
 3695SOL    HW122718   4.269   4.355   5.907 -1.3885  0.5969  2.2586
 3695SOL    HW222719   4.330   4.304   6.034  1.4850 -0.6239  0.0672
 3696SOL     OW22720   0.440   2.975   4.598  0.3030 -0.3782 -0.5600
 3696SOL    HW122721   0.535   2.962   4.595 -0.1036 -2.8628 -2.4369
 3696SOL    HW222722   0.424   3.003   4.688  2.7548 -0.2474 -0.1554
 3697SOL     OW22723   0.123   2.191   7.131  0.0646  0.1699  0.2816
 3697SOL    HW122724   0.178   2.119   7.160 -0.2072  0.0143  0.4080
 3697SOL    HW222725   0.102   2.168   7.041  1.2027  0.5379 -0.0777
 3698SOL     OW22726   1.371   1.706   1.962 -0.0467  0.0944  0.3569
 3698SOL    HW122727   1.390   1.706   2.056  1.1270  0.2631  0.1215
 3698SOL    HW222728   1.316   1.628   1.956  1.3246 -0.6809 -2.2814
 3699SOL     OW22729   3.668   1.541   2.671 -0.3198 -0.1801  0.1014
 3699SOL    HW122730   3.748   1.592   2.685  1.1662 -2.4302 -0.0707
 3699SOL    HW222731   3.660   1.545   2.575  0.5501 -0.2312  0.0240
 3700SOL     OW22732   1.443   1.843  16.571 -0.3534 -0.1675 -0.3906
 3700SOL    HW122733   1.531   1.880  16.576 -1.2326  1.9534 -0.4709
 3700SOL    HW222734   1.397   1.876  16.648 -4.1177 -0.1960 -2.6188
 3701SOL     OW22735   3.694   0.528   6.731 -0.0489  0.0380  0.0924
 3701SOL    HW122736   3.600   0.541   6.719 -0.1963 -2.0019 -0.9891
 3701SOL    HW222737   3.697   0.440   6.692  2.5087 -0.0616  0.4833
 3702SOL     OW22738   3.061   0.298   6.177  0.3713 -0.3612 -0.7032
 3702SOL    HW122739   3.003   0.304   6.101 -1.0256  0.3338  0.4112
 3702SOL    HW222740   3.129   0.359   6.150 -0.4560  1.0023  0.2694
 3703SOL     OW22741   2.039   3.967   1.414  0.2252  0.0075 -0.1692
 3703SOL    HW122742   1.983   4.039   1.443  1.4869  0.5909  0.7932
 3703SOL    HW222743   2.114   3.981   1.472 -0.1229 -1.8275  0.7202
 3704SOL     OW22744   1.606   4.636   2.411 -0.0172  0.2583  0.0092
 3704SOL    HW122745   1.680   4.688   2.379  1.3069  0.2284  3.0269
 3704SOL    HW222746   1.600   4.580   2.333  1.3340 -2.0010  1.5451
 3705SOL     OW22747   4.445   0.735  13.334  0.3580 -0.2134  0.7055
 3705SOL    HW122748   4.404   0.749  13.419 -1.1361  3.6195 -0.6285
 3705SOL    HW222749   4.464   0.825  13.308  1.3210 -0.0200  2.0892
 3706SOL     OW22750   2.402   3.287   7.834  0.0293  0.2777  0.1157
 3706SOL    HW122751   2.398   3.376   7.869  3.8821  0.6044 -0.2611
 3706SOL    HW222752   2.341   3.307   7.764  1.7597 -2.9152 -2.3079
 3707SOL     OW22753   0.135   2.570   3.318 -0.0934 -0.5547 -0.1972
 3707SOL    HW122754   0.181   2.528   3.245  1.7702 -0.4815  0.9469
 3707SOL    HW222755   0.176   2.527   3.393  2.0482  2.8751  0.6337
 3708SOL     OW22756   2.246   2.864   7.425  0.2117  0.1352 -0.3017
 3708SOL    HW122757   2.298   2.788   7.448  1.4930  0.4616 -2.1406
 3708SOL    HW222758   2.186   2.867   7.500  2.2397 -0.7874  1.3608
 3709SOL     OW22759   3.017   0.690   2.578  0.1218 -0.8119 -0.9011
 3709SOL    HW122760   3.112   0.679   2.585  0.2060 -0.5270 -1.5732
 3709SOL    HW222761   3.017   0.783   2.554 -2.1132 -0.6701 -0.3583
 3710SOL     OW22762   1.718   4.184   5.142  0.1322 -0.4464 -0.1876
 3710SOL    HW122763   1.792   4.236   5.112 -0.7497 -0.1876 -1.9055
 3710SOL    HW222764   1.686   4.149   5.059  2.7147 -0.9003 -0.9896
 3711SOL     OW22765   4.158   3.063   5.881  0.3471 -0.1495 -0.4860
 3711SOL    HW122766   4.224   3.028   5.941 -1.7839 -2.4840  0.4994
 3711SOL    HW222767   4.213   3.133   5.846 -0.4050 -0.8935 -3.1480
 3712SOL     OW22768   2.361   1.392  17.226 -0.2968 -0.0042 -0.3274
 3712SOL    HW122769   2.409   1.351  17.154 -0.3351  0.1979 -0.4670
 3712SOL    HW222770   2.315   1.463  17.182 -0.3731 -0.4052 -0.8942
 3713SOL     OW22771   2.203   2.294  11.320  0.3608 -0.4688  0.2096
 3713SOL    HW122772   2.123   2.291  11.373 -0.7076  2.3745 -1.2259
 3713SOL    HW222773   2.265   2.296  11.392  0.3738 -0.8838  0.2110
 3714SOL     OW22774   2.127   4.109  12.108  0.1249 -0.2884  0.2841
 3714SOL    HW122775   2.051   4.166  12.099  0.9456  0.8042  0.3631
 3714SOL    HW222776   2.149   4.091  12.016  1.5502  0.3501  0.4938
 3715SOL     OW22777   3.972   0.827   2.957  0.0256  0.3088  0.4217
 3715SOL    HW122778   4.031   0.883   3.007  0.2070  0.4279  0.0767
 3715SOL    HW222779   4.004   0.739   2.979  3.8368  1.6912  0.4399
 3716SOL     OW22780   1.986   0.250   1.952  0.1804 -0.3742  0.2379
 3716SOL    HW122781   1.931   0.241   1.874 -0.5110 -1.1388  0.8181
 3716SOL    HW222782   2.032   0.166   1.950 -2.2109 -1.7413  2.5633
 3717SOL     OW22783   1.283   0.248   6.853  0.5240  0.1680  0.2153
 3717SOL    HW122784   1.223   0.285   6.917 -0.0686 -0.2807 -0.0871
 3717SOL    HW222785   1.224   0.223   6.783  0.2474  0.7054  0.2566
 3718SOL     OW22786   4.062   2.076   6.997 -0.3782  0.1631 -0.1198
 3718SOL    HW122787   4.096   1.993   7.030 -0.0879  1.1020  1.9208
 3718SOL    HW222788   4.071   2.072   6.901 -1.6204  1.4126 -0.2834
 3719SOL     OW22789   0.308   4.648   4.888  0.0320  0.4843 -0.5663
 3719SOL    HW122790   0.249   4.593   4.837  0.5607 -1.4078  0.8557
 3719SOL    HW222791   0.284   4.735   4.854  1.6299  0.7467 -1.0296
 3720SOL     OW22792   3.552   2.871   9.294  0.7068  0.2823  0.1658
 3720SOL    HW122793   3.565   2.849   9.386 -2.3313 -2.5464 -0.0678
 3720SOL    HW222794   3.456   2.872   9.302  0.4738  0.8581 -2.7311
 3721SOL     OW22795   4.607   0.174   7.945  0.2107  0.1368 -0.3954
 3721SOL    HW122796   4.520   0.145   7.973 -0.8957  3.1212 -0.6858
 3721SOL    HW222797   4.598   0.261   7.983  0.6579  0.4816 -1.0829
 3722SOL     OW22798   2.826   2.476   8.556  0.3404  0.4933  0.6058
 3722SOL    HW122799   2.747   2.426   8.578  0.9846 -0.5760  0.5179
 3722SOL    HW222800   2.787   2.562   8.568  0.9530  0.7115  1.0196
 3723SOL     OW22801   2.151   3.499   2.571 -0.2862  0.2605  0.4397
 3723SOL    HW122802   2.222   3.518   2.510  1.1245  0.5763  2.1640
 3723SOL    HW222803   2.192   3.491   2.657  0.3137  1.2103  0.2529
 3724SOL     OW22804   0.508   1.765   3.015 -0.1043  0.3071  0.2553
 3724SOL    HW122805   0.596   1.737   2.989 -1.1444 -2.6715 -0.0834
 3724SOL    HW222806   0.481   1.764   2.923 -2.2225 -2.9561  0.9220
 3725SOL     OW22807   2.777   0.246   0.569 -0.3307  0.4679  0.2974
 3725SOL    HW122808   2.812   0.187   0.502  0.2473  1.6947 -0.4815
 3725SOL    HW222809   2.719   0.299   0.515  0.1325 -0.1692 -0.8172
 3726SOL     OW22810   0.320   1.416  10.524 -0.1361 -0.0024 -0.3051
 3726SOL    HW122811   0.251   1.366  10.568 -1.7196  1.0064 -1.6327
 3726SOL    HW222812   0.395   1.397  10.580  1.3755  0.3296 -2.2261
 3727SOL     OW22813   1.762   0.496   7.696  0.3047 -0.2204  0.7544
 3727SOL    HW122814   1.692   0.439   7.663 -0.4221  0.6239  0.8478
 3727SOL    HW222815   1.716   0.566   7.741  2.3705  0.6047  1.5917
 3728SOL     OW22816   0.991   1.849  14.635  0.9895 -0.3146 -0.4973
 3728SOL    HW122817   0.956   1.937  14.619  2.3828  0.1177 -1.1559
 3728SOL    HW222818   1.003   1.847  14.730 -0.6940 -0.7951 -0.2917
 3729SOL     OW22819   1.649   1.181  16.507  0.0034  0.0772  0.0758
 3729SOL    HW122820   1.596   1.127  16.565  1.9144 -0.1518  1.5972
 3729SOL    HW222821   1.654   1.255  16.567  0.5644  0.4586 -0.4413
 3730SOL     OW22822   0.738   2.579   3.115 -0.3842  0.2308 -0.0668
 3730SOL    HW122823   0.757   2.653   3.172 -1.1342  0.2319  0.1814
 3730SOL    HW222824   0.686   2.616   3.044 -0.2251  1.4851  0.4696
 3731SOL     OW22825   1.667   3.661   3.089 -0.5958  0.2052  0.0371
 3731SOL    HW122826   1.646   3.599   3.159  1.0687  1.0117  1.2549
 3731SOL    HW222827   1.687   3.595   3.022  1.6623 -0.1552  1.0666
 3732SOL     OW22828   0.375   1.678   6.527  0.0072  0.1400 -0.1649
 3732SOL    HW122829   0.467   1.650   6.523  0.0994  0.5823 -1.0203
 3732SOL    HW222830   0.331   1.599   6.560 -0.9278  1.5644  1.9812
 3733SOL     OW22831   3.304   1.665   2.990 -0.5206  0.0448  0.2587
 3733SOL    HW122832   3.270   1.690   3.076  0.1861 -0.3617  0.6540
 3733SOL    HW222833   3.343   1.750   2.968 -1.1700  0.8262  2.0384
 3734SOL     OW22834   0.499   1.058   2.204  0.4910  0.1658  0.1122
 3734SOL    HW122835   0.469   1.019   2.286  2.2062  3.3532  2.2361
 3734SOL    HW222836   0.562   0.996   2.168  0.0888 -2.2106  3.4721
 3735SOL     OW22837   0.535   4.486   5.428  0.4409  0.0290 -0.5918
 3735SOL    HW122838   0.579   4.483   5.343 -0.6350  0.5363 -1.1681
 3735SOL    HW222839   0.465   4.550   5.412  0.6348  0.4104  0.1009
 3736SOL     OW22840   1.279   2.441   3.151 -0.5857  0.4378 -0.2551
 3736SOL    HW122841   1.332   2.497   3.094  0.4679  0.0106  0.3205
 3736SOL    HW222842   1.188   2.465   3.133 -0.8435  1.5841  2.5592
 3737SOL     OW22843   3.223   1.895   7.490  0.5101  0.1191  0.0911
 3737SOL    HW122844   3.134   1.895   7.455 -0.6831 -0.0660  3.1291
 3737SOL    HW222845   3.204   1.873   7.581 -2.4609  0.8616 -0.3511
 3738SOL     OW22846   3.626   0.318   3.751  0.7042 -0.1791 -0.0590
 3738SOL    HW122847   3.551   0.279   3.797  0.6980  1.1520  1.0257
 3738SOL    HW222848   3.587   0.337   3.665  0.0337  0.2779  0.3522
 3739SOL     OW22849   2.141   0.212  14.199 -0.0990  0.6567  0.2741
 3739SOL    HW122850   2.163   0.146  14.133 -0.6386  0.1530  0.6012
 3739SOL    HW222851   2.055   0.186  14.230 -0.3510  3.5748  1.9353
 3740SOL     OW22852   2.057   1.982   7.439  0.4555  0.1623  0.1824
 3740SOL    HW122853   2.087   1.892   7.452  0.2445  0.2484  1.2582
 3740SOL    HW222854   2.067   2.006   7.347  0.5741 -1.0724 -0.1248
 3741SOL     OW22855   3.042   0.670   1.766 -0.2239 -0.0229 -0.2226
 3741SOL    HW122856   2.951   0.644   1.755 -0.4380  1.4407 -1.7812
 3741SOL    HW222857   3.085   0.590   1.736  1.3574 -0.2529  2.5613
 3742SOL     OW22858   4.099   2.077   0.184 -0.6756  0.0454  0.5868
 3742SOL    HW122859   4.004   2.091   0.181 -1.3885 -4.4817  1.8378
 3742SOL    HW222860   4.115   1.983   0.177  0.4750  0.3253 -0.3971
 3743SOL     OW22861   4.120   4.665   3.335  0.4056 -0.0357 -0.6247
 3743SOL    HW122862   4.139   4.724   3.408 -1.0282  0.9144 -1.0356
 3743SOL    HW222863   4.200   4.676   3.283  0.7630  1.2025  0.1800
 3744SOL     OW22864   1.757   0.416  10.489 -0.0804 -0.6148  0.1869
 3744SOL    HW122865   1.800   0.339  10.452 -0.3748 -0.7645  0.1553
 3744SOL    HW222866   1.701   0.385  10.561  0.6603 -0.6558  0.7502
 3745SOL     OW22867   0.221   1.378   1.269  0.3180 -0.1575  0.1649
 3745SOL    HW122868   0.265   1.338   1.344 -0.3078  0.5986  0.9398
 3745SOL    HW222869   0.183   1.451   1.318 -0.9294 -0.4474 -0.3833
 3746SOL     OW22870   2.302   2.269   7.362  0.2846 -0.4626 -0.3257
 3746SOL    HW122871   2.382   2.247   7.411  0.6321  1.9857  0.2020
 3746SOL    HW222872   2.336   2.250   7.274 -1.0290 -0.1842 -0.8958
 3747SOL     OW22873   1.192   0.802   2.155 -0.0779  0.4822 -0.0968
 3747SOL    HW122874   1.119   0.806   2.092 -0.8553  0.0114  0.7690
 3747SOL    HW222875   1.272   0.803   2.103  1.5012  1.2113  2.3807
 3748SOL     OW22876   2.001   3.656   8.788  0.3607 -0.0908  0.3630
 3748SOL    HW122877   2.071   3.614   8.838 -0.1464 -0.6743  0.5783
 3748SOL    HW222878   1.980   3.582   8.732 -2.2223  0.1564  1.0304
 3749SOL     OW22879   1.729   0.338   4.906  0.6210 -0.1450  0.1119
 3749SOL    HW122880   1.770   0.309   4.824  3.0782 -0.0430  1.3076
 3749SOL    HW222881   1.785   0.283   4.961 -0.8152 -1.0090  0.6876
 3750SOL     OW22882   3.676   3.622   8.879 -0.7705  0.1692 -0.6462
 3750SOL    HW122883   3.634   3.643   8.962 -0.2277 -1.1541 -0.0381
 3750SOL    HW222884   3.758   3.583   8.910 -1.3401  0.2792  1.0092
 3751SOL     OW22885   3.021   0.939   5.054 -0.2615  0.2130  0.2094
 3751SOL    HW122886   2.989   0.955   5.143 -2.1616 -1.1078 -0.2368
 3751SOL    HW222887   3.085   1.008   5.041 -1.4898  1.3766  0.3657
 3752SOL     OW22888   3.530   2.285  11.667 -0.1489 -0.3908 -0.3911
 3752SOL    HW122889   3.608   2.286  11.612  0.1629 -2.0595  0.0360
 3752SOL    HW222890   3.570   2.323  11.746 -2.1659  0.4523  0.2201
 3753SOL     OW22891   0.821   1.340   5.602  0.3387 -0.4588  0.0786
 3753SOL    HW122892   0.784   1.346   5.513  0.4201  2.4650  0.2177
 3753SOL    HW222893   0.859   1.428   5.608 -2.4120  0.7466  0.1979
 3754SOL     OW22894   0.394   4.672   9.517  0.2340  0.5244 -0.4306
 3754SOL    HW122895   0.333   4.724   9.569  0.1705 -0.2614  0.2838
 3754SOL    HW222896   0.339   4.653   9.441 -0.7167 -1.8829  0.8349
 3755SOL     OW22897   1.751   2.144   9.108  0.5216 -0.4825  0.1084
 3755SOL    HW122898   1.829   2.142   9.052  0.4892 -0.8307  0.0764
 3755SOL    HW222899   1.676   2.108   9.061  1.6832 -0.4853 -1.7838
 3756SOL     OW22900   0.457   0.528   2.546  0.0903 -0.1390 -0.4453
 3756SOL    HW122901   0.525   0.484   2.494  2.1377  1.2330  1.0869
 3756SOL    HW222902   0.475   0.613   2.505  1.6982  0.8706  2.4139
 3757SOL     OW22903   2.422   0.590   2.756  0.1834  0.9000  0.2912
 3757SOL    HW122904   2.468   0.511   2.731  0.3674  0.7614  1.0873
 3757SOL    HW222905   2.494   0.629   2.804  0.7947  0.4524 -0.2613
 3758SOL     OW22906   0.304   4.217   5.502 -0.7464  0.1198  0.4594
 3758SOL    HW122907   0.368   4.258   5.559 -0.3433 -0.4783  0.4347
 3758SOL    HW222908   0.257   4.300   5.498 -1.1331 -0.0188  1.8406
 3759SOL     OW22909   3.195   4.176   7.331 -0.4301  0.2749  0.1560
 3759SOL    HW122910   3.132   4.151   7.264  0.9015  0.2333 -1.0624
 3759SOL    HW222911   3.151   4.137   7.407 -0.0624  2.9498  1.7261
 3760SOL     OW22912   0.502   3.253   0.246 -0.1128  0.0167  0.0377
 3760SOL    HW122913   0.566   3.244   0.317  0.7532 -0.5632 -0.8053
 3760SOL    HW222914   0.415   3.262   0.284 -0.0343  0.0994  0.1973
 3761SOL     OW22915   1.360   2.592  13.541  0.0361 -1.0387 -0.4260
 3761SOL    HW122916   1.387   2.517  13.488  1.6495 -0.4155 -0.4754
 3761SOL    HW222917   1.291   2.561  13.600  0.9855  0.8905  1.6724
 3762SOL     OW22918   4.276   2.739   1.727 -0.1495  0.5284  0.9344
 3762SOL    HW122919   4.243   2.742   1.637  1.5410 -1.0729  0.2441
 3762SOL    HW222920   4.295   2.832   1.742 -2.2403  0.9638  0.7997
 3763SOL     OW22921   0.130   2.081   4.054  0.1776  0.2122 -0.1539
 3763SOL    HW122922   0.049   2.034   4.076  1.1737 -0.9157  1.0591
 3763SOL    HW222923   0.167   2.026   3.985 -1.4184 -1.0636  0.0232
 3764SOL     OW22924   3.261   4.034   9.763  0.2788 -0.5552  0.1694
 3764SOL    HW122925   3.247   3.939   9.770  0.8372 -0.5706  1.1222
 3764SOL    HW222926   3.274   4.036   9.669  0.9082 -0.2781  0.2667
 3765SOL     OW22927   2.121   1.030  10.693 -0.2859 -0.1778 -0.0409
 3765SOL    HW122928   2.054   1.095  10.714  2.0503  1.5639  1.9401
 3765SOL    HW222929   2.083   0.990  10.614 -0.0987  0.1348 -0.2915
 3766SOL     OW22930   4.003   1.943   5.990  0.0793  0.4154 -0.4713
 3766SOL    HW122931   4.036   1.881   6.055 -0.4744  0.1447 -0.4522
 3766SOL    HW222932   4.065   2.011   6.017  0.4850  0.0962 -0.5961
 3767SOL     OW22933   3.534   2.222   5.799 -0.1860  0.0234 -0.2903
 3767SOL    HW122934   3.598   2.202   5.731  0.1453 -1.7005  0.5410
 3767SOL    HW222935   3.535   2.143   5.853  0.1582  0.1259 -0.1441
 3768SOL     OW22936   1.852   3.819   7.106 -0.0553  0.0833 -0.1735
 3768SOL    HW122937   1.831   3.822   7.199 -0.3221  0.6380 -0.2524
 3768SOL    HW222938   1.947   3.806   7.115 -0.8092 -4.0329  1.5600
 3769SOL     OW22939   0.189   4.379   2.705  0.1699 -0.0931 -0.3177
 3769SOL    HW122940   0.254   4.343   2.766  0.1455  0.6672  0.1555
 3769SOL    HW222941   0.210   4.471   2.693  1.5868 -0.1656  1.5740
 3770SOL     OW22942   3.838   3.065  14.572 -0.0813  0.2807 -0.1384
 3770SOL    HW122943   3.844   3.160  14.573 -1.1113  0.3542 -0.0932
 3770SOL    HW222944   3.924   3.027  14.589 -0.8464 -0.0838  2.9251
 3771SOL     OW22945   1.421   2.975  15.376 -1.0251 -0.2072 -0.0649
 3771SOL    HW122946   1.411   2.952  15.284  1.5252  0.4896 -0.5202
 3771SOL    HW222947   1.431   2.888  15.414  0.4385  0.0726  0.1797
 3772SOL     OW22948   3.835   3.338   3.871  0.3248  0.4118 -0.0723
 3772SOL    HW122949   3.899   3.407   3.889 -0.8339  1.0562  1.6101
 3772SOL    HW222950   3.775   3.393   3.821 -2.5502 -0.8011  2.0314
 3773SOL     OW22951   2.840   1.356   7.344 -0.7432  0.0594  0.1843
 3773SOL    HW122952   2.783   1.322   7.412  1.9355  0.5939  2.6986
 3773SOL    HW222953   2.767   1.397   7.297  0.3498 -0.6332 -2.1359
 3774SOL     OW22954   0.020   2.216   4.452  0.3882  0.3933 -0.0194
 3774SOL    HW122955   0.103   2.171   4.467  0.5662  1.1043  1.1569
 3774SOL    HW222956   0.021   2.278   4.525  1.0777  0.9121 -0.4778
 3775SOL     OW22957   0.003   2.215  16.332  0.2332  0.3102 -0.1171
 3775SOL    HW122958   4.659   2.198  16.280  0.6857  1.0843 -1.0659
 3775SOL    HW222959   0.076   2.206  16.271  0.1223 -1.6258  0.0319
 3776SOL     OW22960   3.045   0.306   2.617  0.6982  0.3383  0.3247
 3776SOL    HW122961   3.023   0.337   2.529  0.6858  0.8309  0.5007
 3776SOL    HW222962   2.997   0.366   2.674 -0.2399 -2.0078  2.0308
 3777SOL     OW22963   3.281   0.183  14.590  0.4722 -0.0819 -0.7603
 3777SOL    HW122964   3.258   0.196  14.682  0.4661  1.8914 -1.0238
 3777SOL    HW222965   3.255   0.269  14.555 -0.1696  0.7993  1.8368
 3778SOL     OW22966   3.590   0.514   5.384  0.5999 -0.6441  0.1872
 3778SOL    HW122967   3.530   0.463   5.329  0.9041  2.6319 -3.1561
 3778SOL    HW222968   3.542   0.548   5.459  1.3450 -0.4712  0.5848
 3779SOL     OW22969   2.236   1.927  14.200 -0.2276  0.1901 -0.2788
 3779SOL    HW122970   2.234   1.861  14.131  0.0977 -0.2340  0.1164
 3779SOL    HW222971   2.270   1.882  14.278 -0.7465  1.7670  0.8716
 3780SOL     OW22972   2.939   1.714   6.162  0.4029  0.2513 -0.2169
 3780SOL    HW122973   2.962   1.800   6.198 -1.3595  0.5999  0.0540
 3780SOL    HW222974   3.024   1.687   6.127 -0.2526 -0.4261 -1.2514
 3781SOL     OW22975   3.806   0.971  17.415  0.3262  0.0519 -0.3289
 3781SOL    HW122976   3.899   0.991  17.404  0.6834 -0.3705  1.9442
 3781SOL    HW222977   3.776   1.042  17.471  1.3246  0.6533 -0.5497
 3782SOL     OW22978   3.491   3.153  11.694  0.8853 -0.2669 -0.7273
 3782SOL    HW122979   3.396   3.163  11.699  0.7519 -1.8686 -0.0088
 3782SOL    HW222980   3.515   3.193  11.610 -0.6709  1.2555 -0.4465
 3783SOL     OW22981   1.210   2.828   5.087  0.3230  0.0493  0.2139
 3783SOL    HW122982   1.146   2.882   5.041  3.0460  2.2554 -1.0099
 3783SOL    HW222983   1.145   2.761   5.105 -0.5717  1.1300  1.0371
 3784SOL     OW22984   4.415   2.842   3.262 -0.3467  0.4558 -0.1437
 3784SOL    HW122985   4.334   2.869   3.305 -0.1021  1.5282 -0.3572
 3784SOL    HW222986   4.477   2.891   3.316  1.3737 -1.4740 -0.3495
 3785SOL     OW22987   2.492   2.894   6.892  0.3016  0.3196 -0.1955
 3785SOL    HW122988   2.438   2.942   6.954 -1.5510 -0.1469 -1.4683
 3785SOL    HW222989   2.487   2.802   6.917  0.4550  0.6812  1.1948
 3786SOL     OW22990   0.921   3.625   6.035 -0.2651  0.1775 -0.0105
 3786SOL    HW122991   0.963   3.577   5.964 -1.7671  1.8262 -2.0267
 3786SOL    HW222992   0.995   3.657   6.087 -0.7879 -2.0010  2.0350
 3787SOL     OW22993   0.229   1.426  15.552 -0.3739  0.5538  0.0933
 3787SOL    HW122994   0.274   1.460  15.475  1.2362 -0.2792  0.6575
 3787SOL    HW222995   0.257   1.490  15.617  0.8793 -2.1153  2.1829
 3788SOL     OW22996   3.845   2.051   0.126  0.4038 -0.5453 -0.2008
 3788SOL    HW122997   3.788   2.054   0.049 -1.1327  0.6771  0.9842
 3788SOL    HW222998   3.857   1.957   0.140  2.4336 -0.7391 -3.4820
 3789SOL     OW22999   0.946   3.305  17.549  0.1032  0.7827  0.0476
 3789SOL    HW123000   0.938   3.263  17.635  2.7280  0.3835  0.1117
 3789SOL    HW223001   0.887   3.380  17.557 -1.0687 -0.0255 -0.9935
 3790SOL     OW23002   3.029   0.126   4.636  0.4655  0.1217  0.2141
 3790SOL    HW123003   3.011   0.061   4.703 -0.5806 -1.4235 -1.5509
 3790SOL    HW223004   3.027   0.202   4.694  1.8426  0.3457 -0.0164
 3791SOL     OW23005   0.729   4.416   6.686 -0.5484 -0.0587  0.2353
 3791SOL    HW123006   0.782   4.367   6.749  0.1117  0.5787  0.1735
 3791SOL    HW223007   0.722   4.353   6.615 -0.5736 -0.3963  0.5339
 3792SOL     OW23008   1.633   1.956   4.807 -0.4433 -0.1788 -0.7666
 3792SOL    HW123009   1.693   1.882   4.803  1.0846  1.0608 -0.9603
 3792SOL    HW223010   1.617   1.961   4.713 -0.8315 -2.0390 -0.8026
 3793SOL     OW23011   4.653   2.125   3.787  0.2963 -0.7649 -0.4012
 3793SOL    HW123012   4.654   2.080   3.702  0.8399 -0.7652 -0.3956
 3793SOL    HW223013   4.578   2.182   3.771  0.9073  0.0871 -0.2099
 3794SOL     OW23014   2.761   2.665   9.412 -0.2667 -0.5304  0.0725
 3794SOL    HW123015   2.760   2.602   9.340  1.1418  0.6992 -1.0277
 3794SOL    HW223016   2.668   2.685   9.414 -0.4991 -1.3039 -2.7263
 3795SOL     OW23017   3.515   3.812   6.491 -0.1685 -0.7155 -0.2638
 3795SOL    HW123018   3.514   3.824   6.396  1.5925  1.4002 -0.0013
 3795SOL    HW223019   3.517   3.716   6.495 -1.2358 -0.6105  3.1691
 3796SOL     OW23020   0.942   1.536   3.271 -0.0498  0.2344 -0.4769
 3796SOL    HW123021   0.964   1.462   3.214  0.9092 -1.7601  2.5277
 3796SOL    HW223022   0.866   1.580   3.231  0.5550  0.1207 -1.7432
 3797SOL     OW23023   3.654   3.811   5.561 -0.5898 -0.0451  0.1339
 3797SOL    HW123024   3.671   3.898   5.524  0.1493 -0.1592  0.1981
 3797SOL    HW223025   3.739   3.769   5.573 -1.1850 -1.3230 -0.1123
 3798SOL     OW23026   0.968   3.083  14.862 -0.4997  0.4351 -0.3453
 3798SOL    HW123027   0.962   3.042  14.776 -0.2820 -1.8456  0.7209
 3798SOL    HW223028   0.898   3.040  14.912  0.8061 -1.4777 -0.1623
 3799SOL     OW23029   0.856   3.783  15.885  0.2287 -0.8476  0.0607
 3799SOL    HW123030   0.825   3.757  15.972  1.1086 -2.2336 -0.0321
 3799SOL    HW223031   0.780   3.831  15.853  0.8411  0.5341  0.6593
 3800SOL     OW23032   4.135   0.352   4.586 -0.2713 -0.4230 -0.8172
 3800SOL    HW123033   4.136   0.258   4.572 -3.1033 -0.4710 -0.7690
 3800SOL    HW223034   4.044   0.371   4.561 -0.1405  0.5209 -0.5993
 3801SOL     OW23035   2.379   4.426   3.723  0.0582  0.3963  0.3891
 3801SOL    HW123036   2.440   4.476   3.669 -1.3501  1.7859  0.0889
 3801SOL    HW223037   2.363   4.344   3.676 -0.5593  1.1284 -0.6857
 3802SOL     OW23038   2.431   2.517  12.338 -0.5768  0.0652 -0.0399
 3802SOL    HW123039   2.505   2.481  12.290 -2.1104 -0.8746 -1.6993
 3802SOL    HW223040   2.399   2.586  12.279 -1.1388  1.2585  1.6233
 3803SOL     OW23041   2.690   1.617   7.530 -0.0746  0.7160 -0.2234
 3803SOL    HW123042   2.698   1.630   7.436 -1.3491  3.3629  0.0358
 3803SOL    HW223043   2.598   1.635   7.549 -0.3194 -0.1867 -0.5258
 3804SOL     OW23044   0.780   1.097   5.076 -0.0445  0.2068 -0.4228
 3804SOL    HW123045   0.841   1.024   5.062  2.5654  2.6041 -1.6145
 3804SOL    HW223046   0.786   1.135   4.988 -0.9472  2.5331  0.5357
 3805SOL     OW23047   4.369   4.017   7.901  0.1125 -0.5131 -0.0992
 3805SOL    HW123048   4.352   3.937   7.951 -1.3989  1.4305  2.5149
 3805SOL    HW223049   4.448   4.054   7.941  0.4827  0.1026 -1.4048
 3806SOL     OW23050   3.098   4.474  16.638  0.3011 -0.2301  0.3742
 3806SOL    HW123051   3.151   4.418  16.581  0.8625  1.7885 -1.0813
 3806SOL    HW223052   3.013   4.429  16.637  0.5347 -0.6163 -2.0335
 3807SOL     OW23053   2.290   0.966   8.215 -0.2677 -0.4761 -0.5819
 3807SOL    HW123054   2.286   1.056   8.249  0.6139 -0.8972  0.6475
 3807SOL    HW223055   2.333   0.980   8.130 -0.9412  2.5271 -0.4347
 3808SOL     OW23056   2.963   4.228   3.900 -0.7150 -0.4826  0.0859
 3808SOL    HW123057   3.008   4.150   3.868 -1.1597 -1.0217  0.8000
 3808SOL    HW223058   2.960   4.277   3.817 -0.4007 -0.5337  0.0460
 3809SOL     OW23059   2.721   2.939   4.164  0.1753 -0.7468  0.2300
 3809SOL    HW123060   2.770   2.882   4.104 -0.8351  0.3167 -1.6020
 3809SOL    HW223061   2.631   2.940   4.132  0.4456 -1.9892 -0.5784
 3810SOL     OW23062   1.758   3.096   7.767  0.3131 -0.1707 -0.4359
 3810SOL    HW123063   1.697   3.024   7.754 -1.1496  0.8608  0.7252
 3810SOL    HW223064   1.785   3.115   7.677  5.2314 -0.5042  0.9879
 3811SOL     OW23065   1.630   2.801   4.277 -0.4191 -0.2777 -0.1189
 3811SOL    HW123066   1.659   2.730   4.333 -2.2355 -1.2961 -0.4748
 3811SOL    HW223067   1.673   2.767   4.199 -0.7891  1.9533 -1.3158
 3812SOL     OW23068   4.083   2.305  15.460  0.7215  0.4199 -0.1617
 3812SOL    HW123069   4.091   2.280  15.368 -0.9134  0.4339 -0.3036
 3812SOL    HW223070   4.164   2.273  15.501  1.8787  1.8990 -1.3036
 3813SOL     OW23071   1.937   0.772   7.010 -0.5692 -0.2181 -0.1761
 3813SOL    HW123072   1.959   0.844   7.069  2.5681  0.4399 -2.1714
 3813SOL    HW223073   1.848   0.786   6.977  0.4926  0.9770 -2.5206
 3814SOL     OW23074   1.098   3.403   6.242  0.1185  0.1246  0.0630
 3814SOL    HW123075   1.101   3.479   6.184 -2.1862 -0.5782 -0.9425
 3814SOL    HW223076   1.182   3.363   6.221 -0.1614  0.2353 -1.2291
 3815SOL     OW23077   3.843   2.130  16.436  0.1212  0.1460 -0.2187
 3815SOL    HW123078   3.937   2.142  16.424  0.7325 -2.3984  2.0009
 3815SOL    HW223079   3.810   2.126  16.347  0.9204 -0.2423 -0.5000
 3816SOL     OW23080   1.578   0.539   9.166 -0.3800 -0.5026 -0.4532
 3816SOL    HW123081   1.534   0.554   9.082 -0.3608 -2.2096 -0.7690
 3816SOL    HW223082   1.668   0.537   9.136 -0.6303  0.6934 -1.2854
 3817SOL     OW23083   0.247   0.941   3.202  0.6271  0.1484  0.4365
 3817SOL    HW123084   0.263   0.848   3.217  0.0608  0.1570  1.1161
 3817SOL    HW223085   0.159   0.938   3.163  0.8752 -1.7205  0.0424
 3818SOL     OW23086   2.040   1.021   8.970 -0.2812  0.1957 -0.1603
 3818SOL    HW123087   2.065   0.998   8.881  1.2388  3.2673 -0.5201
 3818SOL    HW223088   2.115   1.067   9.006 -1.9742  2.5968  0.3084
 3819SOL     OW23089   2.907   1.893   8.277  0.1329  0.0757  0.2937
 3819SOL    HW123090   2.816   1.883   8.249 -0.0055  0.8650  0.4323
 3819SOL    HW223091   2.958   1.817   8.251  0.2872 -1.2732  4.4615
 3820SOL     OW23092   4.408   4.489   9.021  0.7415 -0.4961 -0.7923
 3820SOL    HW123093   4.334   4.434   8.995 -1.8862  1.0275  3.5294
 3820SOL    HW223094   4.457   4.433   9.081 -0.2084  1.9777  2.3097
 3821SOL     OW23095   3.736   3.374   7.193  0.0655 -0.3762 -0.1549
 3821SOL    HW123096   3.720   3.392   7.100 -0.5317 -0.7769 -0.1286
 3821SOL    HW223097   3.689   3.446   7.234 -2.6032 -2.5564  0.5870
 3822SOL     OW23098   0.629   3.515   7.521  0.4948  0.5231 -0.1752
 3822SOL    HW123099   0.614   3.444   7.459 -3.2237 -1.2935  2.7788
 3822SOL    HW223100   0.644   3.590   7.464  0.7670  1.8878  1.7060
 3823SOL     OW23101   0.997   1.848   6.165  0.0770 -0.2766 -0.5883
 3823SOL    HW123102   1.039   1.925   6.205  3.7303 -2.5426 -0.1154
 3823SOL    HW223103   0.915   1.882   6.129 -0.5027 -0.3413  0.6938
 3824SOL     OW23104   0.602   0.908   7.261 -0.5601  0.3481  0.0118
 3824SOL    HW123105   0.582   0.982   7.203  0.5208  0.6629  0.0446
 3824SOL    HW223106   0.566   0.836   7.209  1.4089 -1.0819  0.6488
 3825SOL     OW23107   4.711   3.690   6.238 -0.4291  0.5872 -0.3971
 3825SOL    HW123108   4.616   3.705   6.240 -0.2973  1.3083  0.4094
 3825SOL    HW223109   0.008   3.764   6.290  1.2879  0.5633 -1.4140
 3826SOL     OW23110   0.678   1.082   2.478 -0.1090  0.4222 -0.4246
 3826SOL    HW123111   0.734   1.011   2.446 -2.4128 -1.9179  0.7204
 3826SOL    HW223112   0.714   1.098   2.565 -0.9333  0.4353 -0.0846
 3827SOL     OW23113   4.663   3.784   9.370  0.0316  0.2184 -0.2011
 3827SOL    HW123114   4.708   3.739   9.299  0.5197 -0.6648  0.6738
 3827SOL    HW223115   4.618   3.711   9.412 -0.5047  0.2111 -0.7840
 3828SOL     OW23116   0.852   4.181   4.765  0.5514  1.0149  0.1338
 3828SOL    HW123117   0.927   4.238   4.751  0.8277  0.9840  1.5084
 3828SOL    HW223118   0.891   4.099   4.737 -0.8014  0.6587 -0.7397
 3829SOL     OW23119   0.173   3.825   2.924  0.1903 -0.1759  0.3818
 3829SOL    HW123120   0.204   3.838   2.835  0.8495  1.9554  0.9241
 3829SOL    HW223121   0.130   3.739   2.923 -3.6447  1.7127  1.3558
 3830SOL     OW23122   4.431   0.305   0.413  0.2552 -0.0012  0.3248
 3830SOL    HW123123   4.396   0.371   0.354  0.4189 -1.0311 -0.9160
 3830SOL    HW223124   4.476   0.249   0.349 -0.5523  1.0561 -1.1605
 3831SOL     OW23125   1.390   0.167   5.552  0.2654  0.3265  0.9477
 3831SOL    HW123126   1.369   0.076   5.530  1.2555  0.2154  0.4511
 3831SOL    HW223127   1.470   0.156   5.603  0.4869  0.0591  0.5477
 3832SOL     OW23128   1.991   3.250   4.633  0.5531 -0.1014  0.3487
 3832SOL    HW123129   2.064   3.197   4.601 -1.2182 -1.3590 -1.5975
 3832SOL    HW223130   1.967   3.313   4.565 -1.9679  0.4347  1.7623
 3833SOL     OW23131   4.030   3.016   9.160 -0.5395  0.5760  0.8547
 3833SOL    HW123132   3.962   2.969   9.207  0.1323  0.4392  1.7052
 3833SOL    HW223133   4.109   2.991   9.208  0.2107  1.6979  0.2178
 3834SOL     OW23134   0.492   3.403   9.012  0.2444 -0.2637 -0.3652
 3834SOL    HW123135   0.416   3.407   8.955  0.1692  1.3389 -0.1518
 3834SOL    HW223136   0.570   3.427   8.961  0.5340  1.2439  0.7747
 3835SOL     OW23137   4.564   3.691   6.871 -0.0292 -0.2643  0.7781
 3835SOL    HW123138   4.616   3.757   6.824 -0.5844 -0.6109 -0.3256
 3835SOL    HW223139   4.626   3.619   6.879  0.4049  0.0723  0.4631
 3836SOL     OW23140   3.109   3.603  16.403 -0.0367 -0.1005 -0.1338
 3836SOL    HW123141   3.161   3.682  16.390 -0.6169  0.7895  2.9974
 3836SOL    HW223142   3.059   3.633  16.479 -0.4739 -0.9675 -0.0794
 3837SOL     OW23143   1.848   3.133   0.552  0.0062 -0.3540 -0.0406
 3837SOL    HW123144   1.906   3.166   0.622  0.0886 -0.6041  0.0105
 3837SOL    HW223145   1.861   3.204   0.489  0.4613 -1.5809 -1.3349
 3838SOL     OW23146   0.679   1.258   1.834 -0.1647  0.1312 -0.8030
 3838SOL    HW123147   0.662   1.166   1.856  0.8826  0.2737  0.6666
 3838SOL    HW223148   0.668   1.242   1.740  1.5980  0.4003 -1.0579
 3839SOL     OW23149   3.594   2.217   7.145 -0.4507 -0.5005  0.0896
 3839SOL    HW123150   3.649   2.209   7.223 -2.6666 -0.2297  1.6901
 3839SOL    HW223151   3.584   2.129   7.109  1.6241 -0.4068 -0.6759
 3840SOL     OW23152   0.505   4.548   6.409  0.0176  0.0660  0.1885
 3840SOL    HW123153   0.512   4.463   6.366 -0.7663  0.8873 -1.5475
 3840SOL    HW223154   0.516   4.609   6.336  0.9439  0.8859  1.0138
 3841SOL     OW23155   3.729   0.838   4.349  0.6385 -0.5134  0.4486
 3841SOL    HW123156   3.720   0.915   4.405 -0.2619 -0.7774  0.6739
 3841SOL    HW223157   3.640   0.821   4.317  0.7595 -2.8112  1.3387
 3842SOL     OW23158   1.025   3.938   6.975 -0.3901  0.0734 -0.3500
 3842SOL    HW123159   0.945   3.903   6.935 -0.3447  0.3857 -0.7098
 3842SOL    HW223160   0.996   4.015   7.024  0.3943 -0.4809  0.9740
 3843SOL     OW23161   2.743   1.966   9.704 -0.1643 -0.1408  0.4028
 3843SOL    HW123162   2.679   2.032   9.676 -0.7579 -0.6763  0.5067
 3843SOL    HW223163   2.818   2.024   9.717 -0.3590  0.3916 -0.7876
 3844SOL     OW23164   0.117   2.975   3.263  0.1023 -0.1375  0.5777
 3844SOL    HW123165   0.182   3.014   3.321 -1.3309  3.3423 -0.1766
 3844SOL    HW223166   0.052   2.948   3.328 -0.0397  0.2096  0.5788
 3845SOL     OW23167   3.662   1.300   1.119  0.1104 -0.0539 -0.4169
 3845SOL    HW123168   3.608   1.372   1.148 -0.5596 -1.0946  0.9009
 3845SOL    HW223169   3.743   1.345   1.095  0.6629 -1.0456 -0.4332
 3846SOL     OW23170   1.443   2.985   7.910 -0.3192  0.0005 -0.4006
 3846SOL    HW123171   1.450   3.034   7.828 -0.0794  1.2494  0.3719
 3846SOL    HW223172   1.477   3.040   7.980 -2.4374  2.1301 -1.0356
 3847SOL     OW23173   0.761   3.014   6.105 -0.0837 -0.4223 -0.3110
 3847SOL    HW123174   0.724   3.099   6.079  0.5327  0.6488  2.2457
 3847SOL    HW223175   0.721   2.959   6.039 -0.2590  1.4569 -1.7796
 3848SOL     OW23176   4.257   4.675   5.373  0.0069 -0.0111  0.0203
 3848SOL    HW123177   4.303   4.629   5.302  0.8978 -1.4972  1.5841
 3848SOL    HW223178   4.209   4.598   5.402  1.1723 -1.3914 -1.6989
 3849SOL     OW23179   0.256   4.567   7.231  0.0703 -0.0743  0.4111
 3849SOL    HW123180   0.302   4.484   7.238 -0.3308 -0.1762  1.8761
 3849SOL    HW223181   0.239   4.569   7.137  2.3262 -0.1563 -0.0091
 3850SOL     OW23182   2.838   3.726   9.279 -0.3536  0.2163  0.3324
 3850SOL    HW123183   2.837   3.646   9.226 -0.7310  1.1992 -1.1490
 3850SOL    HW223184   2.748   3.761   9.284 -1.6997 -2.5597 -5.1110
 3851SOL     OW23185   4.491   4.456   5.624  0.7157 -0.3926 -0.3110
 3851SOL    HW123186   4.406   4.499   5.620  0.7860 -0.1966  0.2610
 3851SOL    HW223187   4.458   4.371   5.598 -1.7627  1.1324 -2.1688
 3852SOL     OW23188   3.711   1.884   3.283 -0.0504 -0.2118  0.6081
 3852SOL    HW123189   3.668   1.969   3.292 -0.9311 -0.7527  1.4745
 3852SOL    HW223190   3.779   1.907   3.220  1.6691 -2.2044  1.7348
 3853SOL     OW23191   3.265   1.766   8.979 -0.3193 -0.3675 -0.3543
 3853SOL    HW123192   3.360   1.772   8.968 -0.4787 -1.2078 -2.2111
 3853SOL    HW223193   3.231   1.853   9.000 -0.3229 -0.1282 -1.3086
 3854SOL     OW23194   0.908   4.314   8.722 -0.6875  0.0854 -0.3772
 3854SOL    HW123195   0.878   4.398   8.689 -1.5856 -0.7337 -1.6176
 3854SOL    HW223196   0.865   4.318   8.807 -0.9426  1.0651 -0.5583
 3855SOL     OW23197   4.203   1.286   4.435  0.1749 -0.0748 -0.4405
 3855SOL    HW123198   4.244   1.368   4.463 -3.6553  0.5186  3.4305
 3855SOL    HW223199   4.117   1.313   4.401  0.4097  0.1547 -0.8542
 3856SOL     OW23200   0.537   1.431  13.882  0.3515  0.2236 -0.5283
 3856SOL    HW123201   0.579   1.459  13.964 -2.2513 -1.0788  1.2619
 3856SOL    HW223202   0.498   1.511  13.847  1.7553  1.0585 -0.1600
 3857SOL     OW23203   1.066   2.515   5.547 -0.3755 -0.5438  0.3597
 3857SOL    HW123204   1.128   2.442   5.545  0.4852  0.1423  2.6231
 3857SOL    HW223205   1.108   2.584   5.496  0.6187 -1.0983  0.4370
 3858SOL     OW23206   2.261   4.691   7.739 -0.5938 -0.5659 -0.1880
 3858SOL    HW123207   2.268   4.612   7.791  1.4425 -0.5164 -0.3821
 3858SOL    HW223208   2.236   0.026   7.798  0.6448  0.9383 -1.4243
 3859SOL     OW23209   0.137   2.278   3.743 -0.6603 -0.1627 -0.4754
 3859SOL    HW123210   0.170   2.296   3.831 -1.1994  2.2480 -0.7743
 3859SOL    HW223211   0.061   2.224   3.766 -0.4918  0.7116  2.0665
 3860SOL     OW23212   4.696   3.409   5.478  0.2288  0.2750 -0.3828
 3860SOL    HW123213   0.034   3.460   5.512 -0.3239  0.0414  1.2008
 3860SOL    HW223214   4.644   3.480   5.438  0.5189 -0.0262 -1.2747
 3861SOL     OW23215   2.672   4.154   8.949 -0.1869 -0.3251 -0.5859
 3861SOL    HW123216   2.691   4.067   8.984 -3.2930  0.1590  2.3321
 3861SOL    HW223217   2.612   4.179   9.019  0.8320  0.7419 -0.0963
 3862SOL     OW23218   0.207   4.385   8.365 -0.1284  0.5597  0.0255
 3862SOL    HW123219   0.296   4.363   8.392 -0.6167 -2.1673 -0.5790
 3862SOL    HW223220   0.215   4.364   8.272  0.9152  1.7329 -0.1400
 3863SOL     OW23221   2.855   4.547  11.851  0.0522 -0.4928 -0.1786
 3863SOL    HW123222   2.864   4.476  11.787  0.6639 -0.6245  0.0545
 3863SOL    HW223223   2.943   4.585  11.847 -0.2232  0.1225 -0.2455
 3864SOL     OW23224   2.293   1.505   5.324 -0.0905  0.3400 -0.1521
 3864SOL    HW123225   2.378   1.548   5.331 -0.4927  1.1113  0.0203
 3864SOL    HW223226   2.230   1.560   5.370  0.9271  0.4430  1.1337
 3865SOL     OW23227   3.406   0.358   4.131 -0.4072 -0.0194 -0.1100
 3865SOL    HW123228   3.432   0.436   4.083 -0.2376  0.5875  0.9648
 3865SOL    HW223229   3.432   0.297   4.062  0.4374 -0.3129  0.4718
 3866SOL     OW23230   2.719   4.623   5.418 -0.5067  0.1015  0.0117
 3866SOL    HW123231   2.628   4.633   5.448 -0.4080  0.2291  0.2670
 3866SOL    HW223232   2.741   4.714   5.399  1.0558 -0.1710  0.5789
 3867SOL     OW23233   4.437   1.934   4.263 -0.9482 -1.5427 -0.1089
 3867SOL    HW123234   4.362   1.953   4.207 -1.6226  1.7528  1.9316
 3867SOL    HW223235   4.396   1.910   4.346 -1.3443 -1.1545 -0.1907
 3868SOL     OW23236   2.551   2.407   9.753  0.2925  0.1954  0.5355
 3868SOL    HW123237   2.644   2.392   9.731  0.2047  0.9665 -0.3353
 3868SOL    HW223238   2.551   2.485   9.807 -0.4016  2.1292 -2.2669
 3869SOL     OW23239   2.161   4.073  16.296  0.6949  0.0755 -0.1936
 3869SOL    HW123240   2.125   4.152  16.257  3.5172  1.5883  0.2879
 3869SOL    HW223241   2.102   4.015  16.246  0.2161  0.3898  0.0033
 3870SOL     OW23242   3.535   2.329   8.884 -0.2407 -0.2371 -0.1793
 3870SOL    HW123243   3.587   2.287   8.815 -0.6217 -1.1590  0.0966
 3870SOL    HW223244   3.573   2.416   8.898  1.3589 -0.8903 -0.4124
 3871SOL     OW23245   0.841   2.672   2.463  0.2715  0.3829  0.1855
 3871SOL    HW123246   0.871   2.700   2.376  0.6639 -2.5335 -0.6156
 3871SOL    HW223247   0.902   2.600   2.476  1.5722  1.6188  0.9587
 3872SOL     OW23248   1.091   1.665   6.910 -0.3460 -0.0111 -0.4596
 3872SOL    HW123249   1.000   1.674   6.883 -0.6097  0.8582  0.6851
 3872SOL    HW223250   1.112   1.756   6.931 -2.6127  0.8185 -1.8808
 3873SOL     OW23251   3.053   2.834   4.960 -0.0259  0.9674  0.2408
 3873SOL    HW123252   3.105   2.831   4.880 -0.3738  0.5585  0.0292
 3873SOL    HW223253   3.103   2.897   5.012  0.0924  0.7487  0.3902
 3874SOL     OW23254   1.041   2.354   8.317  0.0328  0.2179 -0.3478
 3874SOL    HW123255   1.061   2.296   8.243  0.6482 -1.8439  1.4506
 3874SOL    HW223256   0.968   2.298   8.344  0.0180  0.7874  0.7853
 3875SOL     OW23257   3.024   2.613   6.534 -0.3374  0.2356 -0.3472
 3875SOL    HW123258   3.066   2.678   6.590 -1.0639  0.2761  0.1350
 3875SOL    HW223259   3.104   2.575   6.496 -0.8061 -0.8229 -0.2882
 3876SOL     OW23260   4.535   0.461   3.140 -0.0200  0.1927 -0.1473
 3876SOL    HW123261   4.507   0.497   3.224  3.5828  2.7167 -0.0147
 3876SOL    HW223262   4.618   0.507   3.125  0.0394  0.9317  2.4042
 3877SOL     OW23263   4.552   0.433   3.673 -0.2949 -0.0097 -0.2468
 3877SOL    HW123264   4.583   0.411   3.761 -0.3127 -2.0774 -0.7548
 3877SOL    HW223265   4.639   0.432   3.633  0.5487  1.3473  1.5653
 3878SOL     OW23266   1.476   4.528   9.477 -0.1718  0.3612  0.0825
 3878SOL    HW123267   1.516   4.536   9.563 -0.6750 -2.0872  0.5440
 3878SOL    HW223268   1.425   4.609   9.471 -1.3092 -0.2970  1.1057
 3879SOL     OW23269   4.402   1.655   9.964 -0.1877 -0.3057  0.4129
 3879SOL    HW123270   4.323   1.606   9.985 -1.1165  0.8799 -0.2778
 3879SOL    HW223271   4.434   1.687  10.049  1.3448  0.0449 -0.2805
 3880SOL     OW23272   0.814   4.526  14.132 -0.0363  0.5272  0.3130
 3880SOL    HW123273   0.901   4.488  14.143  0.1969  0.0244 -3.1004
 3880SOL    HW223274   0.809   4.523  14.036 -1.8531  2.4846  0.3430
 3881SOL     OW23275   0.008   0.223   4.966 -0.7668  0.0374  0.1323
 3881SOL    HW123276   4.718   0.266   4.885 -0.6551 -1.5407 -0.7355
 3881SOL    HW223277   0.036   0.299   5.016  0.9098 -1.3620  1.3248
 3882SOL     OW23278   1.456   1.791   6.237 -0.0803  0.0523  0.0943
 3882SOL    HW123279   1.539   1.816   6.276 -0.3584  0.6953  0.2777
 3882SOL    HW223280   1.449   1.705   6.278  0.4534 -0.1303 -0.2141
 3883SOL     OW23281   0.646   2.822  16.380  1.1514 -0.6364  0.4469
 3883SOL    HW123282   0.658   2.819  16.475 -1.2710 -1.7163  0.7229
 3883SOL    HW223283   0.702   2.745  16.366  2.3575 -0.1061  2.2468
 3884SOL     OW23284   4.596   2.779   7.003  0.2539  0.5752  0.5751
 3884SOL    HW123285   4.587   2.691   6.965  3.2037 -0.3696  1.9788
 3884SOL    HW223286   4.525   2.788   7.066  0.3219  0.0280  0.7307
 3885SOL     OW23287   1.156   2.444  13.687 -0.5117  0.4456 -0.2604
 3885SOL    HW123288   1.097   2.374  13.660  1.0102 -1.8806  2.4227
 3885SOL    HW223289   1.126   2.476  13.772 -1.4806 -1.4247  0.0848
 3886SOL     OW23290   2.960   4.042   4.129  0.3825  0.2212  0.9604
 3886SOL    HW123291   2.940   3.980   4.059 -0.0506 -0.0787  1.3514
 3886SOL    HW223292   2.956   4.119   4.072 -2.2533 -0.3488  0.3885
 3887SOL     OW23293   0.173   1.766   2.037 -0.4052  0.6329 -0.3820
 3887SOL    HW123294   0.139   1.677   2.031  0.4225  0.3947 -1.4114
 3887SOL    HW223295   0.159   1.801   2.125  1.4715  1.0669 -0.2576
 3888SOL     OW23296   1.829   1.744   7.480 -0.3180  0.4924  0.0737
 3888SOL    HW123297   1.912   1.703   7.456 -0.3449  0.6864 -0.3408
 3888SOL    HW223298   1.848   1.796   7.558 -0.8530  1.8697 -0.7289
 3889SOL     OW23299   2.990   1.826   4.088  0.5330 -0.1514  0.7924
 3889SOL    HW123300   2.950   1.765   4.027 -0.7083 -0.3898  1.8427
 3889SOL    HW223301   2.912   1.879   4.104  0.0288 -1.1053  1.4653
 3890SOL     OW23302   0.758   4.535   2.851 -0.3673  0.4511 -0.0998
 3890SOL    HW123303   0.664   4.550   2.845 -0.8616 -1.4243  3.1763
 3890SOL    HW223304   0.795   4.623   2.840 -0.5944  0.3801 -1.4757
 3891SOL     OW23305   2.873   3.438   2.417  0.1679 -0.2431 -0.0914
 3891SOL    HW123306   2.813   3.401   2.352 -1.7688  1.8250  0.4960
 3891SOL    HW223307   2.955   3.455   2.372  1.0156 -0.3697  1.3956
 3892SOL     OW23308   1.337   4.665   1.541 -0.0019  0.8036  0.2985
 3892SOL    HW123309   1.426   4.631   1.550  0.2783  1.7172  0.9594
 3892SOL    HW223310   1.344   4.698   1.451 -2.0811 -1.6412 -0.7684
 3893SOL     OW23311   4.181   4.666   7.137  0.1195  0.5764  0.4558
 3893SOL    HW123312   4.145   4.690   7.222 -0.8569 -0.1216  0.2432
 3893SOL    HW223313   4.251   4.613   7.175  1.0499  1.8319  0.4816
 3894SOL     OW23314   1.397   1.503  11.406 -0.2483 -0.3634  0.2016
 3894SOL    HW123315   1.379   1.475  11.496 -0.3667  0.4857  0.4496
 3894SOL    HW223316   1.317   1.555  11.399 -1.0181 -1.3561  1.6503
 3895SOL     OW23317   4.222   4.624   6.224 -0.5470 -0.6759  0.4738
 3895SOL    HW123318   4.257   4.684   6.158  1.2686  0.9206  2.8961
 3895SOL    HW223319   4.260   4.541   6.195 -2.2667 -0.9147 -1.1544
 3896SOL     OW23320   2.991   2.302   0.132 -0.3693 -0.0940  0.0183
 3896SOL    HW123321   2.981   2.258   0.217 -0.7875 -0.3077 -0.1399
 3896SOL    HW223322   3.049   2.374   0.156 -0.3059 -0.0614 -0.2381
 3897SOL     OW23323   3.762   1.295  10.197 -0.1991 -0.2112  0.1994
 3897SOL    HW123324   3.747   1.264  10.286  0.3812 -1.4501 -0.1382
 3897SOL    HW223325   3.805   1.217  10.164 -0.2807 -0.2191  0.1123
 3898SOL     OW23326   3.910   1.518   0.284 -0.2471 -0.0634  0.3320
 3898SOL    HW123327   3.967   1.452   0.245 -0.0964  0.4337 -0.2930
 3898SOL    HW223328   3.823   1.483   0.264 -0.1430  0.8444 -1.8037
 3899SOL     OW23329   2.157   2.364  12.178 -0.5717  0.1141 -0.2579
 3899SOL    HW123330   2.131   2.421  12.105 -1.6027 -1.7068 -1.3115
 3899SOL    HW223331   2.166   2.278  12.138  1.4797  0.3482 -0.2955
 3900SOL     OW23332   4.515   1.479   8.967 -0.6650  0.3589 -0.2235
 3900SOL    HW123333   4.518   1.434   9.052  0.5631 -0.0989 -0.5120
 3900SOL    HW223334   4.449   1.549   8.975 -1.4164 -0.2445 -1.1770
 3901SOL     OW23335   3.165   3.677   8.724 -0.3184 -0.0037  0.3393
 3901SOL    HW123336   3.219   3.685   8.646  1.5631 -0.0526  1.6308
 3901SOL    HW223337   3.087   3.648   8.677  1.1400  0.1093 -2.1129
 3902SOL     OW23338   2.835   3.752  13.222 -0.4325  0.5864 -0.1338
 3902SOL    HW123339   2.812   3.718  13.309 -2.6825 -1.2431 -1.4437
 3902SOL    HW223340   2.757   3.733  13.170 -1.3284  0.6423  1.1870
 3903SOL     OW23341   2.737   3.028  10.835  0.1081  0.3978 -0.6078
 3903SOL    HW123342   2.659   3.071  10.868  0.7017  0.9987  0.0243
 3903SOL    HW223343   2.791   3.106  10.825  2.2958 -1.0922 -0.4542
 3904SOL     OW23344   2.883   3.961   8.660 -0.5973 -0.6228  0.3557
 3904SOL    HW123345   2.951   3.954   8.593  0.3629 -0.1017  1.2854
 3904SOL    HW223346   2.812   3.903   8.630 -2.1448  0.2971  2.2027
 3905SOL     OW23347   0.789   2.350   4.215  0.0384 -0.2589  0.0748
 3905SOL    HW123348   0.741   2.431   4.234 -1.2846 -0.4468 -2.5585
 3905SOL    HW223349   0.737   2.300   4.278 -2.2715  1.5575 -0.3919
 3906SOL     OW23350   4.568   1.918   6.854  0.7733 -0.1616  0.3039
 3906SOL    HW123351   4.622   1.870   6.792  1.8767  1.8539 -0.3015
 3906SOL    HW223352   4.598   2.007   6.833  0.5960  0.4695  2.6992
 3907SOL     OW23353   3.177   0.021  16.263 -1.0164 -0.2236 -0.0470
 3907SOL    HW123354   3.269   0.010  16.242 -1.2101  1.6999 -1.9423
 3907SOL    HW223355   3.181   0.008  16.358 -2.3938  2.3286  0.3553
 3908SOL     OW23356   2.520   2.667   5.923  0.2061 -0.0551 -0.2856
 3908SOL    HW123357   2.581   2.660   5.850  1.1979 -0.6878  0.6235
 3908SOL    HW223358   2.543   2.592   5.978  0.9860 -0.0637 -0.6295
 3909SOL     OW23359   4.178   1.380   8.231 -0.0626 -0.2950  0.5324
 3909SOL    HW123360   4.236   1.416   8.298  0.3053  1.3219 -0.6621
 3909SOL    HW223361   4.130   1.461   8.215  1.2946  0.5517  0.7475
 3910SOL     OW23362   0.640   0.827   2.132 -0.1750 -0.1784 -0.2288
 3910SOL    HW123363   0.610   0.750   2.083  1.8322 -0.9219 -0.3075
 3910SOL    HW223364   0.651   0.783   2.216 -1.4542  0.0415  0.0456
 3911SOL     OW23365   2.488   2.041  11.607 -0.0009  0.4901 -0.1714
 3911SOL    HW123366   2.559   2.100  11.583  0.6433  0.7576  2.3627
 3911SOL    HW223367   2.527   1.959  11.578 -1.0181 -0.4798  1.1481
 3912SOL     OW23368   3.529   0.480   7.515 -0.1565 -0.3008 -0.0566
 3912SOL    HW123369   3.562   0.455   7.601 -0.5221  0.9320  0.4530
 3912SOL    HW223370   3.450   0.529   7.539 -0.8523 -1.4353 -0.0066
 3913SOL     OW23371   1.190   1.275   5.584  0.1176 -0.3614  0.1181
 3913SOL    HW123372   1.182   1.307   5.494  0.6350 -0.8934 -0.1173
 3913SOL    HW223373   1.105   1.232   5.599 -0.5443  0.9756  0.1952
 3914SOL     OW23374   4.353   0.434   3.436  0.9050  0.4099 -0.5214
 3914SOL    HW123375   4.276   0.458   3.384  1.7597 -0.5387 -2.2248
 3914SOL    HW223376   4.323   0.448   3.526  2.7326  0.6762  0.0310
 3915SOL     OW23377   2.238   2.264   2.999  0.3683 -0.1031 -0.0844
 3915SOL    HW123378   2.299   2.308   2.941 -2.2916  1.1869 -1.9155
 3915SOL    HW223379   2.292   2.204   3.051 -1.1828 -0.3614  1.2261
 3916SOL     OW23380   2.441   1.432   4.840  0.0928  0.1819 -0.2424
 3916SOL    HW123381   2.443   1.510   4.896  0.0430  1.7511 -2.4369
 3916SOL    HW223382   2.495   1.374   4.893  0.6985 -1.0866 -2.2633
 3917SOL     OW23383   3.502   1.965   7.164  0.6358  0.1897 -0.1328
 3917SOL    HW123384   3.411   1.970   7.134  0.2424 -0.3095  0.9820
 3917SOL    HW223385   3.499   1.887   7.220  0.1603  0.4729  0.2437
 3918SOL     OW23386   1.079   0.697   2.639  0.1398 -0.0852 -0.1966
 3918SOL    HW123387   1.138   0.622   2.630  0.8376  0.4432 -0.0335
 3918SOL    HW223388   1.017   0.667   2.573  0.8591 -2.7134  0.3297
 3919SOL     OW23389   2.589   2.980  12.336  0.0253  0.1426 -0.4825
 3919SOL    HW123390   2.651   2.907  12.341  1.3994  1.0823 -3.6048
 3919SOL    HW223391   2.542   2.956  12.255 -0.2780  1.4635 -0.6955
 3920SOL     OW23392   0.823   4.244   6.861  0.1440 -0.3194  0.3192
 3920SOL    HW123393   0.840   4.217   6.951  1.6920 -1.4509 -0.3292
 3920SOL    HW223394   0.731   4.217   6.868  0.0595 -0.0955  0.0502
 3921SOL     OW23395   0.234   3.053   8.897  0.3087 -0.5959  0.1339
 3921SOL    HW123396   0.191   2.967   8.896 -2.1040  0.6332 -1.4264
 3921SOL    HW223397   0.276   3.063   8.982  1.7801 -3.3913 -0.2803
 3922SOL     OW23398   3.098   2.592   7.150 -0.0203 -0.2775 -0.2919
 3922SOL    HW123399   3.027   2.637   7.106 -0.7081 -0.4978  0.5934
 3922SOL    HW223400   3.163   2.599   7.080  0.2502 -2.2732 -0.2595
 3923SOL     OW23401   3.138   0.181   1.461  0.8787 -0.0491  0.2559
 3923SOL    HW123402   3.110   0.228   1.383 -0.7146  0.5895  1.2124
 3923SOL    HW223403   3.199   0.117   1.426  0.1422 -0.5623 -0.1010
 3924SOL     OW23404   3.305   2.340   4.393 -0.4310 -0.3831 -0.1644
 3924SOL    HW123405   3.337   2.257   4.428  2.9398  0.8546 -0.3322
 3924SOL    HW223406   3.358   2.342   4.314 -0.8722 -0.3807 -0.4581
 3925SOL     OW23407   0.885   2.816  17.242 -0.2474 -0.2544 -0.8257
 3925SOL    HW123408   0.945   2.760  17.292  0.0973 -0.8988 -1.9588
 3925SOL    HW223409   0.843   2.855  17.318  0.5441 -0.3594 -0.3318
 3926SOL     OW23410   1.761   3.234   2.677  0.1187  1.0521  0.0434
 3926SOL    HW123411   1.680   3.267   2.637 -1.1109 -1.4554  0.4148
 3926SOL    HW223412   1.717   3.161   2.721  0.9803 -0.7517 -2.0864
 3927SOL     OW23413   0.051   1.493   7.189  0.0021 -0.2658 -0.0433
 3927SOL    HW123414   4.697   1.489   7.156  0.0025  1.8775 -0.3172
 3927SOL    HW223415   0.062   1.407   7.230  0.5324  0.3178  1.0546
 3928SOL     OW23416   1.209   0.790   6.749 -0.1683 -0.0018  0.4928
 3928SOL    HW123417   1.272   0.853   6.713 -0.1250 -0.0506  0.4847
 3928SOL    HW223418   1.273   0.735   6.794  1.3107  0.0568 -1.5636
 3929SOL     OW23419   0.127   0.209   6.328  0.0799 -0.0023 -0.3805
 3929SOL    HW123420   0.127   0.305   6.327  1.2692  0.0269  1.4990
 3929SOL    HW223421   0.169   0.191   6.244  0.5130 -1.6588  0.1946
 3930SOL     OW23422   1.060   3.946  10.286 -0.4128 -0.3020 -0.0136
 3930SOL    HW123423   1.002   3.931  10.211 -0.5044  1.0154 -0.1927
 3930SOL    HW223424   1.141   3.965  10.239  0.4069 -0.9552  1.1282
 3931SOL     OW23425   1.226   2.528   6.253  0.0164 -0.1098  0.0019
 3931SOL    HW123426   1.189   2.583   6.321 -0.6243 -0.7964  0.2014
 3931SOL    HW223427   1.312   2.566   6.237  0.3999 -0.7489  0.5042
 3932SOL     OW23428   1.673   1.023   4.257  0.1169  0.2352 -0.5361
 3932SOL    HW123429   1.739   1.068   4.204 -0.3417  2.8076  1.0910
 3932SOL    HW223430   1.710   0.938   4.282 -2.1278 -0.8485 -0.7840
 3933SOL     OW23431   0.667   3.702   6.036  0.7831 -0.4604  0.2857
 3933SOL    HW123432   0.736   3.654   6.081  4.0419  3.3004 -0.7203
 3933SOL    HW223433   0.668   3.659   5.951  3.4484  0.7565 -0.3014
 3934SOL     OW23434   1.632   1.317   5.422  0.1405  0.0456  0.1398
 3934SOL    HW123435   1.557   1.343   5.476 -0.3709 -1.1531  0.0009
 3934SOL    HW223436   1.616   1.357   5.336  0.6943  0.5197  0.2525
 3935SOL     OW23437   2.300   3.985   4.119 -0.2453 -0.1264  0.4923
 3935SOL    HW123438   2.287   3.894   4.095  0.2162 -0.3174  0.9545
 3935SOL    HW223439   2.291   3.977   4.214  0.2408 -0.9416  0.4672
 3936SOL     OW23440   1.900   2.446   9.025 -0.4835 -0.0099  0.1006
 3936SOL    HW123441   1.818   2.407   8.994 -0.3158 -0.4970  0.2623
 3936SOL    HW223442   1.867   2.505   9.092 -0.1776 -1.7669  1.8021
 3937SOL     OW23443   4.227   2.800   7.783  0.1860  0.2133  0.6304
 3937SOL    HW123444   4.204   2.775   7.872  0.0772 -1.5910  0.0914
 3937SOL    HW223445   4.168   2.875   7.781  2.4123  1.9460 -1.0953
 3938SOL     OW23446   0.317   3.264   2.706  0.2993 -0.9467  0.1986
 3938SOL    HW123447   0.327   3.209   2.784  0.1580  0.3344  1.1187
 3938SOL    HW223448   0.336   3.197   2.640  1.2753 -0.1752 -0.3163
 3939SOL     OW23449   0.400   4.501   0.432 -0.1267  0.8401  0.0413
 3939SOL    HW123450   0.432   4.438   0.497 -0.1454 -1.5546 -2.2264
 3939SOL    HW223451   0.480   4.531   0.389  0.6460  1.1984  1.7418
 3940SOL     OW23452   4.357   0.248   2.717 -0.6160  0.3976  0.1089
 3940SOL    HW123453   4.382   0.255   2.625  0.9724 -2.0756  0.3382
 3940SOL    HW223454   4.265   0.269   2.702 -0.9651 -1.0786  0.2274
 3941SOL     OW23455   1.866   0.743   2.568  0.0995 -0.3623  0.0413
 3941SOL    HW123456   1.898   0.655   2.587  1.3297  0.2121  0.6444
 3941SOL    HW223457   1.893   0.748   2.476 -0.0052  0.7064  0.0688
 3942SOL     OW23458   1.106   0.079   0.763  0.5555 -0.1008  0.3870
 3942SOL    HW123459   1.103   0.172   0.784  0.2511 -0.3375  1.3802
 3942SOL    HW223460   1.062   0.065   0.679  0.2229  0.2521  0.5031
 3943SOL     OW23461   3.345   2.699  12.148 -0.0420 -0.3112 -0.2073
 3943SOL    HW123462   3.316   2.784  12.114  0.2886 -1.2455 -2.7808
 3943SOL    HW223463   3.362   2.660  12.063  0.9445 -0.0152 -0.1381
 3944SOL     OW23464   0.748   0.292  12.586 -0.2487  0.3221 -0.6103
 3944SOL    HW123465   0.815   0.353  12.558  0.5361  0.2310  1.0390
 3944SOL    HW223466   0.779   0.235  12.656 -2.2361 -0.2535 -0.1934
 3945SOL     OW23467   0.111   1.468  14.623  0.6508 -0.4281  0.1495
 3945SOL    HW123468   0.079   1.533  14.561 -1.8679 -0.2324  1.6789
 3945SOL    HW223469   0.081   1.507  14.705 -2.3977 -1.1621 -0.6279
 3946SOL     OW23470   2.934   1.476   8.625  0.4984 -0.2050 -0.0548
 3946SOL    HW123471   3.028   1.464   8.620  0.5448  0.5377 -0.9422
 3946SOL    HW223472   2.906   1.430   8.705  0.9549  0.5379  0.5222
 3947SOL     OW23473   3.421   4.122   2.957  0.3087  0.3862  0.0428
 3947SOL    HW123474   3.499   4.067   2.965 -0.9219 -0.7545  4.3378
 3947SOL    HW223475   3.396   4.104   3.047  1.0475  0.9190  0.3560
 3948SOL     OW23476   0.319   0.771   8.812 -0.9978  0.0217 -0.2958
 3948SOL    HW123477   0.301   0.813   8.896  2.4612 -0.8696  0.9014
 3948SOL    HW223478   0.372   0.836   8.765  0.6971 -1.6225 -0.6485
 3949SOL     OW23479   1.829   4.610   6.991 -0.4983 -0.8474 -0.1995
 3949SOL    HW123480   1.746   4.564   6.977 -1.1705  0.6532 -1.0958
 3949SOL    HW223481   1.890   4.543   6.961  0.5755  1.2012 -2.5898
 3950SOL     OW23482   3.045   2.695   8.204 -0.4458 -0.2269  0.7723
 3950SOL    HW123483   3.069   2.781   8.170 -0.2389 -1.6187 -2.6458
 3950SOL    HW223484   3.074   2.636   8.135  2.7397  2.1153  0.1168
 3951SOL     OW23485   0.248   2.816   4.489 -0.2979 -0.4136  0.1483
 3951SOL    HW123486   0.323   2.863   4.526  0.5708 -0.9932 -0.8428
 3951SOL    HW223487   0.209   2.768   4.561  1.1966 -1.0755  0.5222
 3952SOL     OW23488   0.088   2.772   1.804 -0.1742  0.8090  0.0915
 3952SOL    HW123489   0.154   2.752   1.737  0.2401  1.1542  0.3960
 3952SOL    HW223490   0.143   2.782   1.882 -1.9682  0.0195  1.4517
 3953SOL     OW23491   1.357   1.290  16.145 -0.3526  0.0829 -0.3997
 3953SOL    HW123492   1.313   1.249  16.072 -2.2095  1.1735  0.1052
 3953SOL    HW223493   1.451   1.291  16.125 -0.5288  1.7643 -1.1293
 3954SOL     OW23494   2.305   3.619   1.513  0.6439 -0.1450 -0.1606
 3954SOL    HW123495   2.293   3.676   1.590  1.1684 -1.7344  1.0862
 3954SOL    HW223496   2.382   3.654   1.468  1.8528 -0.8720  1.3529
 3955SOL     OW23497   3.487   0.633   3.345  0.0356 -0.3936 -0.5430
 3955SOL    HW123498   3.498   0.634   3.440 -0.0748 -1.4127 -0.5235
 3955SOL    HW223499   3.456   0.724   3.348  0.9230 -0.1553  1.1168
 3956SOL     OW23500   1.798   2.533   0.167 -0.0135  0.1850  0.0955
 3956SOL    HW123501   1.818   2.449   0.210  1.4441  0.0959 -0.7589
 3956SOL    HW223502   1.751   2.585   0.233 -1.4803  0.7584 -1.4140
 3957SOL     OW23503   0.639   4.360   1.590 -0.5900  0.0342 -0.2084
 3957SOL    HW123504   0.727   4.342   1.623 -1.5925 -0.2994  2.3436
 3957SOL    HW223505   0.632   4.289   1.527 -2.1129 -0.2745  0.2917
 3958SOL     OW23506   0.055   3.975   5.919  0.1231  0.0395  0.8867
 3958SOL    HW123507   0.127   3.912   5.911  0.3441  0.5958 -1.6057
 3958SOL    HW223508   0.106   4.049   5.952  2.0596  0.2691 -2.6461
 3959SOL     OW23509   2.438   0.722   1.608 -0.2589  0.0695  0.0078
 3959SOL    HW123510   2.495   0.704   1.683  1.0929  1.2502 -0.7350
 3959SOL    HW223511   2.490   0.676   1.543 -1.8959 -0.3414 -0.9957
 3960SOL     OW23512   0.341   0.709   7.705  0.6852  0.1885  0.4822
 3960SOL    HW123513   0.426   0.704   7.748  0.3450  0.7267  1.2226
 3960SOL    HW223514   0.349   0.772   7.633  1.9047  0.2648  0.6886
 3961SOL     OW23515   4.589   4.043   4.964 -0.4675  0.0447  0.6895
 3961SOL    HW123516   4.625   4.114   5.017  1.2016  1.7803 -2.7421
 3961SOL    HW223517   4.647   4.023   4.890 -1.3366  2.0524 -0.5504
 3962SOL     OW23518   3.778   2.904   9.749 -0.2816  0.1867 -0.2913
 3962SOL    HW123519   3.808   2.815   9.768 -1.3888  0.0220  0.7008
 3962SOL    HW223520   3.820   2.954   9.819  1.9217 -2.3281  0.1564
 3963SOL     OW23521   3.520   1.641   5.173  0.2186  0.0421  0.4510
 3963SOL    HW123522   3.581   1.649   5.100  0.7551  0.9120  1.0024
 3963SOL    HW223523   3.569   1.577   5.224  0.5011 -0.2866 -0.2412
 3964SOL     OW23524   0.330   1.159   3.325  0.1367  0.5355 -0.0414
 3964SOL    HW123525   0.415   1.115   3.322  0.4718  1.0781  1.3430
 3964SOL    HW223526   0.293   1.090   3.271  0.5015  0.4825 -0.2217
 3965SOL     OW23527   1.696   2.583   7.596  0.4973 -0.2512 -0.0983
 3965SOL    HW123528   1.734   2.504   7.559 -0.0612  0.1198 -1.4679
 3965SOL    HW223529   1.606   2.571   7.565  0.6705 -1.8371  0.0337
 3966SOL     OW23530   3.432   4.467   2.302 -0.3798  0.1813  0.0622
 3966SOL    HW123531   3.446   4.432   2.390 -1.2618 -0.4618 -0.0458
 3966SOL    HW223532   3.368   4.538   2.308  0.8307  1.3161 -0.4693
 3967SOL     OW23533   0.344   4.258   2.875 -0.2670  0.3262 -0.2707
 3967SOL    HW123534   0.355   4.164   2.891 -2.7095  0.3104  1.3105
 3967SOL    HW223535   0.430   4.290   2.901  0.3692  0.1718 -2.1562
 3968SOL     OW23536   1.534   3.843   3.863  0.3953  0.0927  0.2128
 3968SOL    HW123537   1.555   3.758   3.826 -0.3292 -0.7664  1.7584
 3968SOL    HW223538   1.441   3.829   3.881  0.2705  0.9914  0.2878
 3969SOL     OW23539   3.477   3.225   7.223 -0.1351 -0.3504 -0.1412
 3969SOL    HW123540   3.553   3.281   7.236 -0.9659  1.4615 -2.9451
 3969SOL    HW223541   3.507   3.144   7.264  0.2264 -1.8729 -3.3913
 3970SOL     OW23542   2.366   4.218   7.417 -0.5923  0.6653  0.4359
 3970SOL    HW123543   2.298   4.271   7.375  1.2117  3.7174  1.4060
 3970SOL    HW223544   2.341   4.137   7.371 -0.4271  1.3369 -0.8527
 3971SOL     OW23545   0.611   2.897  10.527 -0.0456 -0.1631 -0.8308
 3971SOL    HW123546   0.665   2.975  10.539 -0.0815 -0.1897 -0.4843
 3971SOL    HW223547   0.530   2.923  10.571 -0.0754 -2.7066  0.6846
 3972SOL     OW23548   2.252   3.436   0.118 -0.4783 -0.2010 -0.5168
 3972SOL    HW123549   2.340   3.412   0.148  0.6676 -0.6796 -4.1937
 3972SOL    HW223550   2.225   3.367   0.057  0.2385 -0.6971 -0.2669
 3973SOL     OW23551   0.961   0.712   6.835  0.2776 -0.1149 -0.0604
 3973SOL    HW123552   1.050   0.737   6.808  0.3630  0.0794  0.4013
 3973SOL    HW223553   0.972   0.673   6.921 -0.0487  1.0165  0.5043
 3974SOL     OW23554   0.585   4.271  14.373  0.3654  0.8909  0.1144
 3974SOL    HW123555   0.491   4.274  14.394  0.1477  4.4900 -1.2797
 3974SOL    HW223556   0.607   4.182  14.400  1.2836  0.7967 -0.9985
 3975SOL     OW23557   1.417   4.134   5.000 -0.0853  0.4437  0.0363
 3975SOL    HW123558   1.376   4.203   5.052 -0.7325  0.2506 -0.2169
 3975SOL    HW223559   1.463   4.187   4.935  1.3510 -0.3027  0.4485
 3976SOL     OW23560   3.721   2.206   6.895 -0.0339  0.1962  0.0294
 3976SOL    HW123561   3.690   2.294   6.874 -3.0105 -0.1894  2.8063
 3976SOL    HW223562   3.692   2.202   6.986 -0.9048  2.8063 -0.1247
 3977SOL     OW23563   3.731   2.112   3.616  0.2158 -0.0289 -0.6474
 3977SOL    HW123564   3.774   2.101   3.531 -2.0063 -1.3425 -1.6052
 3977SOL    HW223565   3.792   2.165   3.667  0.8419 -2.2203  0.8852
 3978SOL     OW23566   3.772   2.020   8.789 -0.5671 -0.6705 -0.4509
 3978SOL    HW123567   3.821   1.975   8.719  1.5439 -0.0092  0.6228
 3978SOL    HW223568   3.740   2.100   8.748  1.1232 -0.9587 -2.3456
 3979SOL     OW23569   0.095   0.845   9.269 -0.3725 -0.1599 -0.5912
 3979SOL    HW123570   0.018   0.887   9.230  0.5842  1.6033 -0.5943
 3979SOL    HW223571   0.068   0.761   9.307 -1.1596  0.1067 -0.5555
 3980SOL     OW23572   3.968   1.083   1.016 -0.2706  0.2005 -0.2116
 3980SOL    HW123573   3.877   1.053   1.023 -0.5847  0.5838 -2.3905
 3980SOL    HW223574   4.012   1.039   1.088 -0.0629 -1.2387 -1.2123
 3981SOL     OW23575   4.223   0.863   2.726 -0.5192 -0.1587  0.5484
 3981SOL    HW123576   4.185   0.775   2.719 -2.0101  0.6466 -1.6375
 3981SOL    HW223577   4.148   0.913   2.693  0.1778  1.0557  0.8170
 3982SOL     OW23578   1.244   1.288   8.054  0.4485 -0.3705  0.1074
 3982SOL    HW123579   1.269   1.210   8.103  0.3771 -0.6718 -0.3302
 3982SOL    HW223580   1.271   1.348   8.124 -0.9731 -0.2876  0.5768
 3983SOL     OW23581   3.389   2.999   5.056  0.2690 -0.1819 -0.2378
 3983SOL    HW123582   3.434   2.937   5.113 -2.5497  0.2284  2.4385
 3983SOL    HW223583   3.443   3.077   5.052  0.2544  0.0040  2.9873
 3984SOL     OW23584   2.439   4.042  16.295 -0.8475 -0.0898  0.1297
 3984SOL    HW123585   2.449   3.993  16.213  1.4998  1.8536 -0.7703
 3984SOL    HW223586   2.344   4.048  16.301 -0.8970 -2.1415  1.3571
 3985SOL     OW23587   2.663   1.127  16.040  0.2875  0.1912 -0.8495
 3985SOL    HW123588   2.601   1.195  16.067  1.5945  1.0587 -0.0732
 3985SOL    HW223589   2.618   1.089  15.964  1.5107 -0.0064 -1.4631
 3986SOL     OW23590   0.908   3.373   7.385 -0.3501  0.1612 -0.2458
 3986SOL    HW123591   0.830   3.330   7.420 -0.4890  1.6835  1.2953
 3986SOL    HW223592   0.944   3.412   7.465  0.9167 -3.1196  0.7788
 3987SOL     OW23593   1.030   3.197   7.667  0.4338 -0.3756  0.0171
 3987SOL    HW123594   0.977   3.198   7.747  1.1610  0.2313  0.4937
 3987SOL    HW223595   1.072   3.280   7.689  0.6942 -0.0644 -1.7116
 3988SOL     OW23596   3.491   1.469   1.274  0.6764 -0.1364  0.8681
 3988SOL    HW123597   3.406   1.469   1.230  1.5330 -0.4291 -0.8072
 3988SOL    HW223598   3.504   1.563   1.279  1.1238 -0.1493 -0.0736
 3989SOL     OW23599   1.119   4.703   2.435  0.1928  0.6024 -0.2247
 3989SOL    HW123600   1.211   4.730   2.427  0.5574 -0.4484  0.3489
 3989SOL    HW223601   1.090   0.029   2.503 -1.2048  0.8459 -1.0468
 3990SOL     OW23602   1.024   1.428   9.015 -0.0391 -0.7847 -0.4861
 3990SOL    HW123603   1.060   1.384   9.092 -1.4764 -1.8780 -0.4596
 3990SOL    HW223604   0.969   1.483   9.070 -0.1729  0.6394 -2.0371
 3991SOL     OW23605   4.100   2.487  15.975 -0.2063 -0.2805  0.3955
 3991SOL    HW123606   4.059   2.425  16.035 -0.1369  1.3885  2.1678
 3991SOL    HW223607   4.191   2.471  15.999  0.2634  0.4475 -0.8928
 3992SOL     OW23608   3.878   0.549   9.065 -0.2849 -0.9275  0.3238
 3992SOL    HW123609   3.957   0.554   9.011 -0.5153 -2.0542 -0.1259
 3992SOL    HW223610   3.823   0.480   9.026  1.8662 -1.1929 -2.2250
 3993SOL     OW23611   0.003   3.440   4.850  0.9113 -0.7793 -0.3428
 3993SOL    HW123612   0.012   3.519   4.797 -0.0917 -1.8453 -2.1408
 3993SOL    HW223613   0.054   3.474   4.923  1.1447  0.8438 -1.2661
 3994SOL     OW23614   0.447   3.728   3.545 -0.3336 -0.0934  0.0396
 3994SOL    HW123615   0.407   3.655   3.499  0.4495 -0.9217  0.6521
 3994SOL    HW223616   0.525   3.752   3.495 -1.0122 -2.1301 -2.0038
 3995SOL     OW23617   2.199   2.910   2.113 -0.4403 -0.4609 -0.1028
 3995SOL    HW123618   2.221   2.820   2.139 -1.5392 -0.2016  1.7695
 3995SOL    HW223619   2.201   2.947   2.202  0.8811  0.0610 -0.3460
 3996SOL     OW23620   0.166   3.404   7.333 -0.1499 -0.2374 -0.3731
 3996SOL    HW123621   0.096   3.341   7.314 -0.8199  0.1485  0.8320
 3996SOL    HW223622   0.131   3.453   7.408  0.7974 -1.3808  0.8186
 3997SOL     OW23623   0.551   3.193   6.989 -0.3226  0.0122  0.0162
 3997SOL    HW123624   0.490   3.247   7.039  1.6648  2.0538  0.2533
 3997SOL    HW223625   0.599   3.158   7.064 -0.5136  0.0585  0.1596
 3998SOL     OW23626   1.517   4.265   4.255  0.1574 -0.2392  0.6734
 3998SOL    HW123627   1.569   4.346   4.245 -0.9614  0.4301  0.2518
 3998SOL    HW223628   1.576   4.196   4.223  0.9141  0.4801  0.5005
 3999SOL     OW23629   0.300   1.114  13.567  0.3467  0.0838  0.4149
 3999SOL    HW123630   0.280   1.101  13.660 -1.5985  0.2934  0.0146
 3999SOL    HW223631   0.347   1.197  13.577 -0.0946  0.1728  1.7864
 4000SOL     OW23632   0.633   2.728  13.592  0.0928 -0.1139  0.0937
 4000SOL    HW123633   0.692   2.746  13.518 -1.0400 -1.3932 -1.1151
 4000SOL    HW223634   0.665   2.638  13.600  2.3620  0.4915 -2.0844
 4001SOL     OW23635   0.412   0.473   3.737 -0.0294  0.1222 -0.6222
 4001SOL    HW123636   0.467   0.536   3.690  1.4224 -1.6767 -1.2839
 4001SOL    HW223637   0.414   0.389   3.691  0.3309 -0.1425 -0.1221
 4002SOL     OW23638   3.397   3.310   6.110 -0.2040 -0.0162 -0.2917
 4002SOL    HW123639   3.367   3.326   6.200 -0.9122  0.1745 -0.5610
 4002SOL    HW223640   3.384   3.219   6.084 -0.3615  0.4886 -1.9581
 4003SOL     OW23641   2.417   3.179   6.023  0.0537 -0.2264  0.0502
 4003SOL    HW123642   2.511   3.183   6.010  0.0388  0.0492  0.0247
 4003SOL    HW223643   2.408   3.091   6.061 -2.5484 -0.2408 -0.5918
 4004SOL     OW23644   3.960   0.626  14.412  0.4155  0.5921 -0.4703
 4004SOL    HW123645   3.916   0.576  14.343 -1.0699  0.9545  0.2026
 4004SOL    HW223646   3.886   0.667  14.455 -0.1218  0.9407 -1.7123
 4005SOL     OW23647   3.178   4.523   5.378  0.0352  0.3989  0.4176
 4005SOL    HW123648   3.177   4.568   5.463  0.1679 -0.9548  1.1446
 4005SOL    HW223649   3.267   4.487   5.383  0.0327  0.2502 -0.5950
 4006SOL     OW23650   0.541   2.705  11.658 -0.1231 -0.0723  0.2207
 4006SOL    HW123651   0.580   2.775  11.711  3.5260 -0.0628 -2.5196
 4006SOL    HW223652   0.618   2.654  11.633  1.3991  1.3250  1.9756
 4007SOL     OW23653   3.940   2.715   8.186 -0.1223 -0.2041 -0.0504
 4007SOL    HW123654   3.961   2.687   8.275  0.3739  2.5775  0.6974
 4007SOL    HW223655   3.893   2.798   8.199  0.7468  0.7139 -2.9705
 4008SOL     OW23656   2.680   3.915   8.323 -0.6148 -0.1903  0.0892
 4008SOL    HW123657   2.666   3.931   8.416 -1.1647  1.1575 -0.2127
 4008SOL    HW223658   2.724   3.830   8.323 -0.9320 -0.3528  3.5307
 4009SOL     OW23659   4.594   4.315   9.374 -0.2818 -0.0990 -0.1329
 4009SOL    HW123660   4.548   4.243   9.416 -1.6124  0.7237 -0.1979
 4009SOL    HW223661   4.598   4.287   9.282 -1.0429  1.7561 -0.7225
 4010SOL     OW23662   2.777   2.706   4.654  0.6958  0.3169 -0.0358
 4010SOL    HW123663   2.740   2.734   4.571 -2.9484 -1.3029  1.0446
 4010SOL    HW223664   2.759   2.791   4.695 -1.0579  0.1306 -0.4154
 4011SOL     OW23665   1.395   4.222   7.431 -0.5296 -0.5084  0.2199
 4011SOL    HW123666   1.393   4.183   7.518 -1.2338 -0.5532  0.1885
 4011SOL    HW223667   1.441   4.152   7.385 -0.9092 -0.4658 -0.2333
 4012SOL     OW23668   3.218   2.798   3.509  0.1618 -0.2999 -0.5046
 4012SOL    HW123669   3.267   2.836   3.582  0.2058 -0.8413 -0.2474
 4012SOL    HW223670   3.275   2.834   3.442  1.0939  0.6205  0.7809
 4013SOL     OW23671   1.225   3.173   3.925 -0.6572 -0.2155 -0.6974
 4013SOL    HW123672   1.145   3.125   3.906 -1.7651  2.0353 -1.7406
 4013SOL    HW223673   1.271   3.123   3.992  1.3785 -0.5248 -2.3309
 4014SOL     OW23674   1.000   2.479   3.107  0.0306  0.0669 -0.3766
 4014SOL    HW123675   0.998   2.401   3.051 -0.7373  0.0819 -0.3743
 4014SOL    HW223676   0.909   2.474   3.137 -0.0588 -0.1982 -0.6860
 4015SOL     OW23677   3.673   0.295   0.367 -0.2474  0.7293 -0.3626
 4015SOL    HW123678   3.711   0.215   0.332  2.0246  0.2396  3.1890
 4015SOL    HW223679   3.586   0.303   0.327 -0.0807 -0.5562 -0.9585
 4016SOL     OW23680   1.339   2.900   5.726  0.4367  0.2798 -0.7361
 4016SOL    HW123681   1.433   2.900   5.746  0.3737 -1.0395 -0.4391
 4016SOL    HW223682   1.363   2.950   5.648  1.8161  0.8577  0.0653
 4017SOL     OW23683   1.368   4.360   1.877  0.2976 -0.0767  0.1346
 4017SOL    HW123684   1.408   4.275   1.897 -1.6520 -1.4489 -1.8868
 4017SOL    HW223685   1.445   4.402   1.839  0.9923  1.2006  2.9418
 4018SOL     OW23686   2.243   1.281   2.567 -0.3300  0.5568 -0.8024
 4018SOL    HW123687   2.169   1.260   2.623  0.8650  0.3428  0.6952
 4018SOL    HW223688   2.237   1.377   2.572 -0.8563  0.3602  2.1927
 4019SOL     OW23689   1.998   3.245   2.566  0.0933  0.1818 -0.6103
 4019SOL    HW123690   2.010   3.338   2.546 -1.7223  0.0418 -2.3296
 4019SOL    HW223691   1.909   3.236   2.599  0.4393 -3.7594 -0.8129
 4020SOL     OW23692   4.300   4.688   5.725  0.1665 -0.0867 -0.3726
 4020SOL    HW123693   4.223   0.001   5.695 -0.2030 -0.0480  0.6315
 4020SOL    HW223694   4.372   0.009   5.696  1.1920 -0.8829  0.6161
 4021SOL     OW23695   2.375   1.910   8.180 -0.0655 -0.7353 -0.1186
 4021SOL    HW123696   2.383   1.976   8.112 -1.3331  1.3017  1.7048
 4021SOL    HW223697   2.425   1.960   8.244  0.1361 -0.8998 -0.1491
 4022SOL     OW23698   4.639   4.137   2.110 -0.8398 -0.0508 -0.4660
 4022SOL    HW123699   4.629   4.087   2.029 -0.8789 -0.5268 -0.1713
 4022SOL    HW223700   4.683   4.077   2.171  0.5557  2.3950  0.9035
 4023SOL     OW23701   4.078   1.836   6.593 -0.1606 -0.7000 -0.1158
 4023SOL    HW123702   4.012   1.877   6.537 -0.4438  2.6507  2.6499
 4023SOL    HW223703   4.047   1.746   6.586  0.5404 -1.0824  1.6187
 4024SOL     OW23704   4.395   4.126   7.526 -0.1907  0.2745  0.2034
 4024SOL    HW123705   4.353   4.119   7.440 -2.4671 -2.8874  1.5575
 4024SOL    HW223706   4.441   4.209   7.517  2.3718 -1.2453 -0.8217
 4025SOL     OW23707   3.599   1.010  13.942 -0.1962 -0.2391 -0.3135
 4025SOL    HW123708   3.668   0.961  13.896  0.3340  1.4230 -1.3029
 4025SOL    HW223709   3.585   1.077  13.876 -2.1742 -1.2140 -0.8813
 4026SOL     OW23710   3.843   1.702   8.726 -0.4443 -0.0079 -0.3205
 4026SOL    HW123711   3.882   1.766   8.667  3.5171 -1.9243  0.2208
 4026SOL    HW223712   3.885   1.722   8.810  0.2807 -0.4450 -0.5821
 4027SOL     OW23713   0.922   2.034   2.935 -0.3879 -0.3377  0.4795
 4027SOL    HW123714   0.939   2.029   3.029 -0.3581 -2.7219  0.3329
 4027SOL    HW223715   0.940   1.950   2.893 -0.7085  0.1181 -0.5702
 4028SOL     OW23716   3.082   3.667   4.407 -0.2057 -0.3757 -0.4089
 4028SOL    HW123717   3.043   3.591   4.451  0.1640 -0.8249 -0.8658
 4028SOL    HW223718   3.010   3.668   4.343 -1.0046 -0.9750  0.4736
 4029SOL     OW23719   2.995   1.577   1.193 -0.5446 -0.0719  0.5714
 4029SOL    HW123720   2.934   1.650   1.179 -1.1001 -0.6583 -0.0796
 4029SOL    HW223721   2.937   1.501   1.198  0.6573 -1.0651 -0.5427
 4030SOL     OW23722   1.456   2.702   5.001  0.1230 -0.6331  0.2681
 4030SOL    HW123723   1.482   2.773   5.061 -3.7116  1.3936 -0.4824
 4030SOL    HW223724   1.377   2.733   4.956  1.1997 -2.1378 -2.6285
 4031SOL     OW23725   0.946   4.361   1.422  0.2062 -0.2754  0.0013
 4031SOL    HW123726   0.890   4.435   1.445  1.4986  1.2594 -1.8706
 4031SOL    HW223727   0.888   4.285   1.418 -0.5288  0.1254  2.9623
 4032SOL     OW23728   3.603   0.930   0.770  0.4079  0.3538  0.0496
 4032SOL    HW123729   3.696   0.945   0.749  1.3442 -1.4760  2.9226
 4032SOL    HW223730   3.577   1.017   0.799 -0.5278  0.1934 -0.3138
 4033SOL     OW23731   4.100   3.185   3.318  0.4391  0.2502 -0.4958
 4033SOL    HW123732   4.018   3.139   3.334  1.7139 -2.4097 -1.7162
 4033SOL    HW223733   4.093   3.267   3.368  1.1405  0.7020 -1.1351
 4034SOL     OW23734   3.669   1.116   2.577  0.1364 -0.1211  0.3587
 4034SOL    HW123735   3.661   1.109   2.482  2.0775 -1.0859  0.2671
 4034SOL    HW223736   3.577   1.097   2.594 -0.2557  0.9874 -0.4977
 4035SOL     OW23737   2.534   4.202   1.795 -0.2572  0.3020 -0.1631
 4035SOL    HW123738   2.597   4.202   1.723 -0.1480  0.2192 -0.0698
 4035SOL    HW223739   2.486   4.126   1.765  0.0527  1.3719 -3.3511
 4036SOL     OW23740   0.842   1.659   4.555 -0.1809 -0.5366 -0.4636
 4036SOL    HW123741   0.793   1.614   4.624  0.6762  0.7983  1.0296
 4036SOL    HW223742   0.831   1.752   4.576  1.4925 -0.9296  2.2512
 4037SOL     OW23743   2.892   2.486   1.020 -0.5350  0.2347 -0.0844
 4037SOL    HW123744   2.876   2.575   0.990  0.6478  0.3433 -0.4189
 4037SOL    HW223745   2.911   2.452   0.933 -4.1178  0.3628 -0.8965
 4038SOL     OW23746   3.169   0.468   2.218 -0.0689 -0.1434 -0.0358
 4038SOL    HW123747   3.114   0.513   2.154  1.0019 -0.2496 -1.0478
 4038SOL    HW223748   3.194   0.537   2.280  2.1171 -0.2171 -0.8150
 4039SOL     OW23749   3.080   2.554   2.831  0.0749  0.4601  0.3324
 4039SOL    HW123750   3.070   2.645   2.859  1.3515  0.6652  0.1221
 4039SOL    HW223751   3.021   2.551   2.755  1.9147  1.2322 -1.1501
 4040SOL     OW23752   1.104   2.158   8.643  0.0346 -1.1384  0.1202
 4040SOL    HW123753   1.160   2.136   8.717 -1.1819  2.5039  2.1005
 4040SOL    HW223754   1.085   2.075   8.598  0.5570 -0.7266 -0.8607
 4041SOL     OW23755   0.999   4.357   9.288 -0.0387  0.5932  0.0784
 4041SOL    HW123756   0.919   4.402   9.316 -0.4079  0.3250 -0.5409
 4041SOL    HW223757   1.060   4.411   9.339  0.7740 -0.2526 -0.0006
 4042SOL     OW23758   2.345   0.265   7.818 -0.0725 -0.8616 -0.0103
 4042SOL    HW123759   2.250   0.274   7.805 -0.1221 -0.1459  0.8700
 4042SOL    HW223760   2.350   0.259   7.913  0.9937  1.5906  0.0918
 4043SOL     OW23761   4.274   0.049   1.751  0.3180  0.4594  0.2174
 4043SOL    HW123762   4.285   0.013   1.839  1.2680 -0.5758 -0.3289
 4043SOL    HW223763   4.181   0.028   1.741  0.2500 -0.6204  3.1109
 4044SOL     OW23764   0.897   4.040   4.296 -0.5468 -0.3943 -0.1942
 4044SOL    HW123765   0.946   3.974   4.345  0.3465 -0.0030 -0.5578
 4044SOL    HW223766   0.819   4.039   4.352  0.8135  0.5344  1.7499
 4045SOL     OW23767   2.022   2.100  14.211  0.9986  0.4413  0.2835
 4045SOL    HW123768   2.090   2.034  14.203  1.1722  0.7214 -0.5374
 4045SOL    HW223769   2.009   2.140  14.125  0.5881 -1.4250 -0.5147
 4046SOL     OW23770   0.841   1.404  14.685 -0.5107  0.2252  0.0421
 4046SOL    HW123771   0.785   1.478  14.710 -1.0852 -0.3897  0.5837
 4046SOL    HW223772   0.792   1.331  14.721  1.3202 -1.1997 -0.3636
 4047SOL     OW23773   0.851   0.799   6.174 -0.0810 -0.1316  0.2727
 4047SOL    HW123774   0.781   0.734   6.186  0.0957 -0.3844 -0.0961
 4047SOL    HW223775   0.841   0.840   6.260  0.0320  2.5590 -1.0150
 4048SOL     OW23776   2.625   4.180  17.286 -0.2523  0.4904  0.5051
 4048SOL    HW123777   2.664   4.204  17.201  1.1541 -1.8509  0.5053
 4048SOL    HW223778   2.678   4.102  17.299  1.2343  1.3255 -0.4497
 4049SOL     OW23779   1.237   4.298   7.940  0.5111 -0.1775  0.3032
 4049SOL    HW123780   1.306   4.336   7.995  0.5411 -1.5177  1.1929
 4049SOL    HW223781   1.158   4.335   7.979  2.0021  2.5908  0.7181
 4050SOL     OW23782   2.266   0.727  13.694 -0.0525  0.5700  0.3315
 4050SOL    HW123783   2.203   0.692  13.631 -1.0394  1.7742  0.6653
 4050SOL    HW223784   2.212   0.789  13.744 -1.2360 -0.1253 -0.1045
 4051SOL     OW23785   2.085   1.102   6.397 -0.7031 -0.2898 -0.2689
 4051SOL    HW123786   1.997   1.099   6.435 -0.3993  0.2569  0.4858
 4051SOL    HW223787   2.090   1.013   6.363 -1.4509 -0.2442 -0.4863
 4052SOL     OW23788   0.232   0.721   8.315  0.5625  0.1018  1.0776
 4052SOL    HW123789   0.267   0.701   8.229  0.2800 -1.0384  1.2363
 4052SOL    HW223790   0.142   0.689   8.310  0.1581  1.2344  0.9049
 4053SOL     OW23791   3.331   3.051   5.933 -0.3961  0.2562 -0.2009
 4053SOL    HW123792   3.243   3.059   5.898 -0.0406 -0.0161 -1.1661
 4053SOL    HW223793   3.312   3.038   6.026 -0.3687 -2.2127 -0.5512
 4054SOL     OW23794   3.699   0.823   3.563  0.0556  0.0478 -0.1488
 4054SOL    HW123795   3.732   0.819   3.473 -0.4086  1.1465 -0.3662
 4054SOL    HW223796   3.677   0.916   3.570  0.6039  0.0676  1.3223
 4055SOL     OW23797   0.160   4.565  17.308  0.9020  0.6073 -0.0723
 4055SOL    HW123798   0.174   4.532  17.219 -0.9986 -2.7424  0.8870
 4055SOL    HW223799   0.233   4.518  17.349  1.8262  0.5195 -1.8402
 4056SOL     OW23800   4.467   1.008  13.211 -0.2290 -0.3752 -0.1479
 4056SOL    HW123801   4.403   1.071  13.177  1.4624  1.2756 -0.2697
 4056SOL    HW223802   4.542   1.027  13.156  2.3996 -3.9087  2.1951
 4057SOL     OW23803   2.943   2.425   0.504  0.7810 -0.1009  0.2880
 4057SOL    HW123804   2.914   2.498   0.449  0.2590 -0.7303 -0.2705
 4057SOL    HW223805   2.859   2.392   0.533  1.7431 -2.7444  0.0584
 4058SOL     OW23806   2.444   2.604   6.766  0.2627  0.0873 -0.6180
 4058SOL    HW123807   2.487   2.673   6.716  1.3079 -1.2129 -1.5201
 4058SOL    HW223808   2.512   2.540   6.743  0.2928  0.3225 -1.1855
 4059SOL     OW23809   3.054   1.654   8.238  0.0364 -0.0086  0.5519
 4059SOL    HW123810   3.045   1.633   8.145  0.5578  2.1801  0.0115
 4059SOL    HW223811   3.069   1.566   8.273 -0.2469  1.1375  3.5709
 4060SOL     OW23812   3.251   2.267   2.208  0.5543 -0.1680  0.1407
 4060SOL    HW123813   3.201   2.213   2.147 -0.1928  1.4766 -0.7065
 4060SOL    HW223814   3.332   2.218   2.224  1.0384  0.4581 -0.3755
 4061SOL     OW23815   1.146   3.811  16.567 -0.2308 -0.4321 -0.0765
 4061SOL    HW123816   1.108   3.884  16.519 -1.1001  0.6243  2.1776
 4061SOL    HW223817   1.141   3.733  16.512  0.7354 -0.7910  0.3478
 4062SOL     OW23818   2.411   3.602   7.581  0.4348 -0.4516  0.9468
 4062SOL    HW123819   2.435   3.616   7.673 -0.9738  0.7216  1.1426
 4062SOL    HW223820   2.315   3.597   7.589  0.2646  1.3330 -0.0534
 4063SOL     OW23821   1.029   0.243   9.825  0.2078  0.1641  0.4536
 4063SOL    HW123822   1.097   0.197   9.775 -1.6518 -1.1616 -0.8756
 4063SOL    HW223823   0.975   0.287   9.759 -1.0391 -0.4481  1.0683
 4064SOL     OW23824   1.032   1.384   2.129 -0.2238  0.4203 -0.6988
 4064SOL    HW123825   1.033   1.392   2.224 -3.0983  1.7577 -0.7618
 4064SOL    HW223826   1.023   1.475   2.101 -0.5003 -0.0535 -2.1750
 4065SOL     OW23827   4.404   1.629  10.821  0.6523  0.0809 -0.5604
 4065SOL    HW123828   4.355   1.548  10.838  3.5774 -1.5712 -0.0230
 4065SOL    HW223829   4.411   1.625  10.726  0.3295  0.6685 -0.6098
 4066SOL     OW23830   2.046   1.823  16.240  0.2986 -0.1965 -0.9418
 4066SOL    HW123831   2.080   1.912  16.230  1.2826 -0.1006  3.0349
 4066SOL    HW223832   2.110   1.768  16.194 -0.4846 -2.5098  0.6847
 4067SOL     OW23833   1.018   0.406   9.420  0.3725  0.6979 -0.7294
 4067SOL    HW123834   0.936   0.364   9.445  1.8446 -1.4989  0.3789
 4067SOL    HW223835   1.024   0.478   9.482 -1.8721  0.0020  0.2873
 4068SOL     OW23836   1.238   2.546   0.960 -0.5490  0.1569 -0.3352
 4068SOL    HW123837   1.326   2.522   0.930  0.8455 -0.2141  4.0018
 4068SOL    HW223838   1.254   2.571   1.051 -1.3102  0.4855 -0.2928
 4069SOL     OW23839   3.223   1.787   9.834 -0.3166 -0.4165  0.3119
 4069SOL    HW123840   3.158   1.805   9.902  0.4195 -0.4033  1.0282
 4069SOL    HW223841   3.291   1.845   9.868  1.6628 -2.6471  0.1893
 4070SOL     OW23842   1.163   3.723  11.466 -0.0944 -0.2632  0.2820
 4070SOL    HW123843   1.172   3.739  11.373 -3.1307 -0.7363 -0.1146
 4070SOL    HW223844   1.109   3.800  11.485  0.6599  0.1392  0.7627
 4071SOL     OW23845   0.514   1.995   8.918  0.0072  0.6409 -0.4983
 4071SOL    HW123846   0.589   2.052   8.939  0.3741 -0.0026 -0.0307
 4071SOL    HW223847   0.447   2.063   8.916  1.3423  1.9204 -2.1978
 4072SOL     OW23848   4.385   0.506  14.430  0.2550  0.0041 -0.0710
 4072SOL    HW123849   4.432   0.424  14.417  0.8349  0.2217  0.6925
 4072SOL    HW223850   4.444   0.552  14.489  1.5258  0.5003 -1.7400
 4073SOL     OW23851   3.741   3.946   4.037 -0.9258  0.2857 -0.3049
 4073SOL    HW123852   3.810   3.946   4.103 -1.6016  0.0768  0.3942
 4073SOL    HW223853   3.674   3.994   4.084  0.7291 -0.8507  3.2062
 4074SOL     OW23854   1.275   2.320   5.571 -0.4312  0.1018 -0.0462
 4074SOL    HW123855   1.281   2.240   5.623 -1.0860 -0.2608 -0.5271
 4074SOL    HW223856   1.361   2.361   5.581 -0.2155 -0.1262 -0.9724
 4075SOL     OW23857   2.190   3.244   2.997 -0.5876 -0.1746  0.5493
 4075SOL    HW123858   2.206   3.243   2.902 -0.3584  1.0368  0.5782
 4075SOL    HW223859   2.111   3.191   3.005 -1.0359  0.7921  2.2157
 4076SOL     OW23860   3.081   4.373  12.588  0.4145 -0.0958  0.1377
 4076SOL    HW123861   3.016   4.376  12.658 -1.0823 -1.7042 -1.1700
 4076SOL    HW223862   3.064   4.287  12.549  0.3504  0.4028 -0.9297
 4077SOL     OW23863   3.108   2.283  10.508  0.2608 -0.2748  1.0795
 4077SOL    HW123864   3.102   2.232  10.588 -0.8182  0.7129  1.6230
 4077SOL    HW223865   3.193   2.257  10.473 -0.2500 -0.9081  0.3056
 4078SOL     OW23866   3.108   0.741   7.327 -0.0774  0.1919 -0.2084
 4078SOL    HW123867   3.153   0.657   7.335  2.6417  1.6132 -0.4527
 4078SOL    HW223868   3.188   0.793   7.338 -1.4686  1.4666  3.5136
 4079SOL     OW23869   1.051   3.554   6.461 -0.4573  0.2112  0.8614
 4079SOL    HW123870   1.073   3.508   6.380 -0.0769 -0.3964  1.3085
 4079SOL    HW223871   1.090   3.641   6.456  0.2065 -0.2568 -1.8354
 4080SOL     OW23872   1.040   2.553   5.866 -0.1361  0.3282  0.2266
 4080SOL    HW123873   1.034   2.546   5.771 -3.1416 -0.4703  0.4544
 4080SOL    HW223874   1.089   2.477   5.895  1.2142  0.7080 -1.0647
 4081SOL     OW23875   2.362   2.967   1.341 -0.2865  0.0973  0.9240
 4081SOL    HW123876   2.267   2.977   1.349 -0.4068 -1.9590  2.0892
 4081SOL    HW223877   2.385   3.044   1.289 -0.6717  0.5046  1.3508
 4082SOL     OW23878   1.887   4.500   6.169 -0.2130 -0.3169 -0.0665
 4082SOL    HW123879   1.894   4.471   6.260  0.7052 -0.7956 -0.2891
 4082SOL    HW223880   1.910   4.416   6.128  0.9555  0.3711 -0.8287
 4083SOL     OW23881   0.241   3.444   7.933  0.1622 -0.2046 -0.5535
 4083SOL    HW123882   0.237   3.349   7.934 -0.1201 -0.1806  0.3656
 4083SOL    HW223883   0.226   3.461   7.840  0.1748  1.2639 -0.2897
 4084SOL     OW23884   2.347   2.692   1.323 -0.3192 -0.0748 -0.0285
 4084SOL    HW123885   2.372   2.783   1.342  3.8441 -0.9201 -1.3368
 4084SOL    HW223886   2.431   2.650   1.306 -0.1094 -0.1372  1.1684
 4085SOL     OW23887   1.028   3.152   3.283  0.4021 -0.3798  0.3357
 4085SOL    HW123888   1.031   3.210   3.207  0.2583 -0.6706  0.1082
 4085SOL    HW223889   1.069   3.195   3.358 -2.3534  0.9494  1.0546
 4086SOL     OW23890   3.987   4.534   2.165  0.2770  0.2920  0.5627
 4086SOL    HW123891   4.034   4.580   2.235 -0.3826 -0.5362  1.5422
 4086SOL    HW223892   3.908   4.504   2.209  0.4752 -1.3819 -0.2172
 4087SOL     OW23893   0.809   0.935   6.398 -0.8795  0.7838  0.3418
 4087SOL    HW123894   0.816   1.028   6.420 -1.6182  1.0557 -0.5822
 4087SOL    HW223895   0.728   0.906   6.440  0.3108 -0.9382  1.4420
 4088SOL     OW23896   2.676   2.012   5.821 -0.3813 -0.3733 -0.1587
 4088SOL    HW123897   2.714   2.090   5.779  0.3287 -0.0731  1.0438
 4088SOL    HW223898   2.758   1.969   5.846 -0.2615  1.0267  1.8663
 4089SOL     OW23899   0.403   3.994   7.786  0.6265 -0.2367 -0.5151
 4089SOL    HW123900   0.448   4.049   7.849  0.0035 -1.0658  0.6633
 4089SOL    HW223901   0.464   4.001   7.713  1.2418  0.6066  0.0834
 4090SOL     OW23902   2.108   0.104  12.188  0.0667  0.4926  0.3007
 4090SOL    HW123903   2.191   0.100  12.235  0.6123  3.8034 -0.3955
 4090SOL    HW223904   2.048   0.057  12.246 -0.2535  2.2464  1.3734
 4091SOL     OW23905   4.387   4.134   4.261 -0.0291 -0.5290 -0.1456
 4091SOL    HW123906   4.418   4.094   4.179  0.5203  1.4059 -0.8908
 4091SOL    HW223907   4.378   4.054   4.313  1.2737 -0.5023  0.1161
 4092SOL     OW23908   2.318   3.605   7.252  0.0812 -0.6002  0.2821
 4092SOL    HW123909   2.392   3.645   7.206 -0.0662  0.3920  0.9035
 4092SOL    HW223910   2.324   3.633   7.343  1.4756 -0.2127  0.0781
 4093SOL     OW23911   2.284   2.513  14.226  0.2423  0.5821  0.4135
 4093SOL    HW123912   2.328   2.593  14.198  1.5662 -0.3471 -0.2202
 4093SOL    HW223913   2.204   2.540  14.270  0.1696  1.5055 -0.2899
 4094SOL     OW23914   4.599   2.614  11.286  0.0447  0.3782 -0.5198
 4094SOL    HW123915   4.671   2.660  11.329  0.2647 -0.5797  0.1435
 4094SOL    HW223916   4.654   2.543  11.253 -0.4344 -0.2384  0.0021
 4095SOL     OW23917   0.632   2.673   4.746 -0.0403  0.2854 -0.1893
 4095SOL    HW123918   0.613   2.764   4.767 -1.1182  0.2200 -0.8716
 4095SOL    HW223919   0.590   2.618   4.813 -0.2777  0.6556 -0.0367
 4096SOL     OW23920   2.136   0.332   7.482 -0.5879 -0.1558 -0.2828
 4096SOL    HW123921   2.115   0.244   7.512  1.1031  0.1606  1.7857
 4096SOL    HW223922   2.217   0.349   7.531 -0.1591 -1.7114 -0.4601
 4097SOL     OW23923   0.586   0.375   0.321  0.1859 -0.4355 -0.4230
 4097SOL    HW123924   0.496   0.407   0.333  0.4706  0.6381 -1.1499
 4097SOL    HW223925   0.577   0.280   0.321  0.7278 -0.4910  0.6548
 4098SOL     OW23926   2.537   3.714   1.371 -0.2251 -0.3090  0.3103
 4098SOL    HW123927   2.596   3.651   1.331 -1.0338 -1.7833  1.4344
 4098SOL    HW223928   2.601   3.786   1.376 -0.2462 -0.2940  0.3710
 4099SOL     OW23929   2.285   2.922   3.416  0.0920 -0.3640 -0.1165
 4099SOL    HW123930   2.377   2.946   3.430 -0.5367  1.4840  0.8062
 4099SOL    HW223931   2.272   2.837   3.458 -0.5053  0.3026  1.0466
 4100SOL     OW23932   3.485   1.463   9.491  0.3390  0.1240 -0.4295
 4100SOL    HW123933   3.457   1.495   9.405 -0.3510 -0.7564 -0.5311
 4100SOL    HW223934   3.443   1.531   9.543 -3.2028 -0.6778 -2.2378
 4101SOL     OW23935   0.463   3.596   5.484  0.2054 -0.4240 -0.4086
 4101SOL    HW123936   0.477   3.639   5.568 -0.8816 -2.0242  0.5796
 4101SOL    HW223937   0.523   3.655   5.438  1.6863 -2.1195 -0.6898
 4102SOL     OW23938   1.134   1.911   1.873  0.1710  0.1831  0.6166
 4102SOL    HW123939   1.189   1.877   1.802 -0.1735  1.6539 -0.3445
 4102SOL    HW223940   1.202   1.928   1.938  1.1718 -1.6735  0.0891
 4103SOL     OW23941   2.548   4.182  16.996 -0.3860  0.9258 -0.3833
 4103SOL    HW123942   2.517   4.103  16.950  0.0715  0.1211  0.7002
 4103SOL    HW223943   2.475   4.197  17.056  3.2544  0.7732  4.0090
 4104SOL     OW23944   2.464   3.527  16.804 -0.1018  0.3780  0.0827
 4104SOL    HW123945   2.477   3.595  16.738  0.5998 -0.4978 -0.6802
 4104SOL    HW223946   2.544   3.476  16.793 -0.1865  0.6125 -1.5304
 4105SOL     OW23947   1.170   3.647   7.444  0.7173 -0.1178  0.5619
 4105SOL    HW123948   1.234   3.629   7.375 -0.9432 -2.2076 -0.4113
 4105SOL    HW223949   1.095   3.669   7.389  0.3286 -0.0569  1.1205
 4106SOL     OW23950   2.317   2.972  11.667  0.4426 -0.3379 -0.3024
 4106SOL    HW123951   2.361   3.023  11.736 -1.4771  0.5959  0.2499
 4106SOL    HW223952   2.273   2.904  11.719 -2.0329  1.0089 -0.6000
 4107SOL     OW23953   2.921   1.664   4.618 -0.0326 -0.0243 -0.1099
 4107SOL    HW123954   2.947   1.573   4.607  0.9241  0.0091  1.9161
 4107SOL    HW223955   2.826   1.666   4.623  0.0802  2.9233  1.1530
 4108SOL     OW23956   2.381   2.304   7.779 -0.1791 -0.8414  0.9201
 4108SOL    HW123957   2.472   2.333   7.781 -0.1387 -0.9779  1.0352
 4108SOL    HW223958   2.333   2.387   7.777 -3.6732 -2.9411 -2.1811
 4109SOL     OW23959   0.459   4.396   4.497 -0.3519 -0.2351 -0.1760
 4109SOL    HW123960   0.531   4.336   4.513 -0.2125  0.8570  3.3166
 4109SOL    HW223961   0.465   4.463   4.566  1.2614 -1.3521  0.7592
 4110SOL     OW23962   4.232   3.159   2.189  0.9164  0.0062  0.6542
 4110SOL    HW123963   4.158   3.191   2.241  0.9823  0.6943  0.3194
 4110SOL    HW223964   4.280   3.241   2.183 -1.1964  1.0292 -2.2883
 4111SOL     OW23965   4.049   3.738   4.709  0.6169  0.2245 -0.1495
 4111SOL    HW123966   3.993   3.780   4.775 -3.1803 -0.8630 -2.7051
 4111SOL    HW223967   4.020   3.649   4.728 -1.2054  0.7610 -0.4726
 4112SOL     OW23968   0.574   4.158   7.035  0.4957 -0.1533  0.5892
 4112SOL    HW123969   0.601   4.249   7.029 -1.0812  0.3768  1.7230
 4112SOL    HW223970   0.552   4.133   6.945  0.6586 -1.5501  0.9305
 4113SOL     OW23971   0.806   0.358  14.622  0.5426  0.2778  0.1745
 4113SOL    HW123972   0.731   0.312  14.659 -2.6551  4.1383 -1.6178
 4113SOL    HW223973   0.860   0.290  14.580  0.2046  0.4365 -0.5232
 4114SOL     OW23974   3.601   2.648   8.410  0.1722 -0.1863  0.0469
 4114SOL    HW123975   3.603   2.567   8.360  0.7357  0.6787 -1.3346
 4114SOL    HW223976   3.691   2.681   8.402 -0.2051  0.6893 -0.6213
 4115SOL     OW23977   0.641   0.408   7.327 -0.0190 -0.1720  0.2498
 4115SOL    HW123978   0.624   0.352   7.251  1.7359  1.8410 -1.6273
 4115SOL    HW223979   0.693   0.345   7.377  0.1205 -1.7917 -1.9341
 4116SOL     OW23980   1.746   2.516   5.899 -0.1309 -0.0831  0.0145
 4116SOL    HW123981   1.688   2.550   5.967  0.6856  1.8240 -0.2537
 4116SOL    HW223982   1.744   2.423   5.923 -0.3733 -0.5015 -1.6020
 4117SOL     OW23983   3.118   2.558   7.659  0.6602 -0.3056 -0.0881
 4117SOL    HW123984   3.201   2.600   7.635  0.9001 -0.3749  0.6221
 4117SOL    HW223985   3.059   2.601   7.596 -0.2118 -0.3851  0.6742
 4118SOL     OW23986   0.470   4.535   6.677  0.4153 -0.4712 -0.4859
 4118SOL    HW123987   0.468   4.540   6.581 -0.9659 -0.0944 -0.4331
 4118SOL    HW223988   0.557   4.496   6.688 -0.4542 -1.7047  1.9351
 4119SOL     OW23989   4.465   2.912   4.253  0.2444  0.2252  0.0371
 4119SOL    HW123990   4.450   2.819   4.232  0.9759  0.3595 -1.0577
 4119SOL    HW223991   4.534   2.901   4.319  1.0932 -1.7240 -1.1674
 4120SOL     OW23992   4.073   0.358   6.094  0.3116 -0.0776 -0.0183
 4120SOL    HW123993   4.139   0.320   6.152  0.7989  0.3223 -0.3116
 4120SOL    HW223994   4.132   0.415   6.044  1.0085  0.2797  1.2060
 4121SOL     OW23995   3.193   1.338   9.721  0.3225  0.5975 -0.1176
 4121SOL    HW123996   3.112   1.321   9.767  0.3195  1.5376  0.2238
 4121SOL    HW223997   3.213   1.430   9.734  0.1744  0.4230  1.3010
 4122SOL     OW23998   1.064   3.989   2.399 -1.1148 -0.3262 -0.2859
 4122SOL    HW123999   1.127   3.931   2.356 -1.2454 -0.3352 -0.4623
 4122SOL    HW224000   1.016   4.026   2.325  0.1499  1.8494 -0.0368
 4123SOL     OW24001   0.802   3.359   9.414  0.1178 -0.3407 -0.7100
 4123SOL    HW124002   0.849   3.276   9.414  1.0254  0.1789  0.2102
 4123SOL    HW224003   0.869   3.421   9.442 -1.5584  0.5731  1.3129
 4124SOL     OW24004   2.784   4.585   6.510 -0.1058 -0.1527 -0.2990
 4124SOL    HW124005   2.769   4.490   6.511 -2.0347  0.1327 -1.2012
 4124SOL    HW224006   2.862   4.590   6.454  0.9441 -0.0802  1.1701
 4125SOL     OW24007   0.159   4.477   4.738 -0.1648  0.2635 -0.1860
 4125SOL    HW124008   0.161   4.398   4.792  1.5650 -0.2752 -1.0644
 4125SOL    HW224009   0.071   4.514   4.749 -0.3061  0.7214 -2.8864
 4126SOL     OW24010   0.378   2.181   0.075  0.4697  0.2163  0.2285
 4126SOL    HW124011   0.332   2.128   0.139 -0.2730  1.0649  0.3837
 4126SOL    HW224012   0.427   2.117   0.023 -0.7945 -0.1508 -0.5144
 4127SOL     OW24013   3.537   1.089   7.636  0.6341 -0.0775  0.0793
 4127SOL    HW124014   3.579   1.057   7.715 -1.7101 -1.7677  0.6578
 4127SOL    HW224015   3.545   1.014   7.577  0.4975  0.4515 -0.6123
 4128SOL     OW24016   3.776   1.745  16.952 -0.3608 -0.1199 -0.2326
 4128SOL    HW124017   3.740   1.769  16.867  2.2301  0.6964 -1.0941
 4128SOL    HW224018   3.859   1.706  16.925 -0.0537 -0.3501  1.0649
 4129SOL     OW24019   3.852   4.221  15.600 -0.2076 -0.0707 -0.6721
 4129SOL    HW124020   3.891   4.309  15.602  1.2107 -0.7133  0.2701
 4129SOL    HW224021   3.904   4.181  15.670 -0.4015  0.6698 -0.1125
 4130SOL     OW24022   2.541   0.956   7.121 -0.3107  0.6646  0.2789
 4130SOL    HW124023   2.588   0.942   7.202  1.6887 -0.9968 -1.1831
 4130SOL    HW224024   2.448   0.946   7.142 -0.6494 -0.5229 -1.8073
 4131SOL     OW24025   2.503   2.320   1.369 -0.5112 -0.7724  0.1997
 4131SOL    HW124026   2.533   2.248   1.425 -3.0743 -0.1382  2.4094
 4131SOL    HW224027   2.582   2.340   1.319 -0.1780 -0.4135  0.8555
 4132SOL     OW24028   4.024   2.998   3.733 -0.2979  0.4432  0.1749
 4132SOL    HW124029   3.972   3.036   3.662 -0.6825  2.5495  1.6091
 4132SOL    HW224030   4.001   3.053   3.807  2.1998  1.9625 -0.1599
 4133SOL     OW24031   0.308   2.757   5.328 -0.8021  0.4146  0.0397
 4133SOL    HW124032   0.323   2.703   5.250  0.4148 -0.5932  0.9665
 4133SOL    HW224033   0.390   2.750   5.378 -1.1512  0.0755  0.5629
 4134SOL     OW24034   0.193   4.306   8.065 -0.0614  0.2746 -0.0790
 4134SOL    HW124035   0.137   4.352   8.002 -0.4353  0.4829  0.3993
 4134SOL    HW224036   0.150   4.221   8.072 -0.3678  0.3853 -0.5794
 4135SOL     OW24037   4.188   3.293   8.536 -0.0335  0.2698 -0.9454
 4135SOL    HW124038   4.235   3.375   8.556  0.0159  0.2153 -0.8391
 4135SOL    HW224039   4.131   3.272   8.610  0.3516  0.3594 -0.6190
 4136SOL     OW24040   3.506   2.352   9.559  0.0208  0.6399  0.0033
 4136SOL    HW124041   3.467   2.373   9.475 -0.8537  1.2807  0.5701
 4136SOL    HW224042   3.431   2.316   9.606 -0.7695  1.1024 -0.9052
 4137SOL     OW24043   3.044   2.118  17.699 -0.0638  0.1415 -0.3316
 4137SOL    HW124044   3.017   2.189   0.017  0.9611 -0.5108  0.9335
 4137SOL    HW224045   3.096   2.173  17.641  1.0394  1.2029  1.7066
 4138SOL     OW24046   4.541   2.920   3.010 -0.6125 -0.1482  0.9687
 4138SOL    HW124047   4.522   3.010   3.037  1.1653 -0.4403  3.1372
 4138SOL    HW224048   4.501   2.882   3.088 -0.1206 -0.1401  1.2265
 4139SOL     OW24049   3.575   2.469   6.300  0.1324  0.0958  0.2713
 4139SOL    HW124050   3.601   2.408   6.232  0.9962  0.3960  0.3325
 4139SOL    HW224051   3.650   2.476   6.359 -1.0908 -0.8709  1.9368
 4140SOL     OW24052   2.156   3.810   5.622 -0.2157 -0.1049 -0.5424
 4140SOL    HW124053   2.133   3.885   5.678 -0.4113  1.4058 -2.6325
 4140SOL    HW224054   2.222   3.766   5.676 -1.2007 -0.5388  0.2834
 4141SOL     OW24055   2.367   1.483  16.432 -0.0960  0.2254  0.1722
 4141SOL    HW124056   2.455   1.445  16.427 -0.0894  0.2143  0.3719
 4141SOL    HW224057   2.327   1.412  16.381  2.3924  0.1372 -1.6680
 4142SOL     OW24058   4.088   2.867  11.211 -0.0458  0.0469 -0.1088
 4142SOL    HW124059   4.018   2.873  11.276 -1.6176 -4.3620 -1.4561
 4142SOL    HW224060   4.162   2.847  11.268  0.2320 -1.1049 -0.8937
 4143SOL     OW24061   0.578   3.435   9.561 -0.7643 -0.3625  0.4308
 4143SOL    HW124062   0.574   3.476   9.474  1.0637 -0.3296  0.3471
 4143SOL    HW224063   0.644   3.370   9.535 -0.6171  0.5239 -1.4435
 4144SOL     OW24064   4.451   0.052  15.779 -0.3405  0.4881  0.5152
 4144SOL    HW124065   4.409   4.721  15.725 -0.4042  0.6634  0.3489
 4144SOL    HW224066   4.368   0.080  15.817 -1.2048 -2.8849  1.0735
 4145SOL     OW24067   0.682   1.957   4.081  0.0114 -0.1044 -0.4249
 4145SOL    HW124068   0.749   1.977   4.146  0.6173  1.6758 -1.5959
 4145SOL    HW224069   0.668   2.044   4.045 -0.3929 -0.6581 -1.6168
 4146SOL     OW24070   3.362   2.524   2.209 -0.3306  0.1287  0.1456
 4146SOL    HW124071   3.310   2.445   2.223 -0.9325  0.3105 -1.0340
 4146SOL    HW224072   3.336   2.543   2.119 -0.2272 -2.0153 -0.3328
 4147SOL     OW24073   4.515   4.226   8.838  0.2338 -0.7890  0.0492
 4147SOL    HW124074   4.516   4.218   8.933  0.7395  2.3914  0.3328
 4147SOL    HW224075   4.424   4.214   8.810  0.5105 -0.1310 -1.1587
 4148SOL     OW24076   0.148   2.274   6.833 -0.8806  0.1958  0.6224
 4148SOL    HW124077   0.242   2.283   6.819 -0.8061  0.4359  1.2598
 4148SOL    HW224078   0.136   2.320   6.916  0.8231  0.8152  0.5323
 4149SOL     OW24079   0.361   4.074   0.906 -0.2438  0.1182  0.1351
 4149SOL    HW124080   0.375   4.033   0.991 -1.7886  1.7830  1.1964
 4149SOL    HW224081   0.451   4.098   0.881  0.4936 -1.1107  1.6208
 4150SOL     OW24082   4.332   3.519   0.285 -0.1843 -0.8018 -0.0633
 4150SOL    HW124083   4.241   3.529   0.258 -0.3201  0.0048  0.7108
 4150SOL    HW224084   4.366   3.608   0.277  0.8119 -1.2209 -0.4848
 4151SOL     OW24085   2.855   2.106   8.791 -0.1322  0.3407 -0.6691
 4151SOL    HW124086   2.827   2.058   8.713  0.9606  0.0968 -0.9177
 4151SOL    HW224087   2.925   2.048   8.820 -0.6757  0.6971  1.3169
 4152SOL     OW24088   1.713   1.845   6.859  0.2940  0.2757 -1.0555
 4152SOL    HW124089   1.679   1.758   6.838 -0.6138  0.7843 -1.6979
 4152SOL    HW224090   1.802   1.831   6.828  0.3557  2.0488 -1.6953
 4153SOL     OW24091   1.647   3.653   8.579  0.5711 -0.3809 -0.6179
 4153SOL    HW124092   1.639   3.739   8.621  1.3302 -0.5209 -0.1786
 4153SOL    HW224093   1.637   3.595   8.654 -1.2109 -0.0241 -0.5814
 4154SOL     OW24094   3.789   0.758   9.248  0.0329 -0.2033 -0.5004
 4154SOL    HW124095   3.752   0.684   9.200 -2.9643 -1.0586  3.1385
 4154SOL    HW224096   3.877   0.722   9.253  0.8881  1.8230 -1.0213
 4155SOL     OW24097   0.141   1.098   4.538 -0.6690 -0.5328 -0.1999
 4155SOL    HW124098   0.094   1.181   4.536  0.8580  0.2925 -1.6528
 4155SOL    HW224099   0.209   1.117   4.474  0.6088 -1.9847  0.7362
 4156SOL     OW24100   3.035   4.153  10.516 -0.1283 -0.1808  0.0669
 4156SOL    HW124101   2.974   4.214  10.475 -1.5825  0.2627  2.9523
 4156SOL    HW224102   3.019   4.082  10.454  1.6234 -0.8885  0.4243
 4157SOL     OW24103   0.547   1.803   3.903 -0.1914 -0.0983  0.3346
 4157SOL    HW124104   0.594   1.842   3.976 -0.1777 -2.5620  1.6317
 4157SOL    HW224105   0.557   1.708   3.911  0.4311 -0.0129  0.5813
 4158SOL     OW24106   4.553   0.079   3.549 -0.3343  0.6500  0.1438
 4158SOL    HW124107   4.648   0.065   3.546 -0.8596 -2.9480  0.2816
 4158SOL    HW224108   4.528   0.049   3.636 -3.0310  1.9571 -0.1862
 4159SOL     OW24109   1.902   1.766   9.262 -0.1333 -0.1963 -0.0212
 4159SOL    HW124110   1.880   1.688   9.211 -1.2307 -0.0216  0.1828
 4159SOL    HW224111   1.950   1.821   9.200  0.6734  0.0930  0.8547
 4160SOL     OW24112   3.787   4.309   2.974  0.4165  0.4144  0.2985
 4160SOL    HW124113   3.762   4.360   3.051  0.2785  0.6788  0.0777
 4160SOL    HW224114   3.738   4.355   2.906  1.3906 -1.4601 -1.6695
 4161SOL     OW24115   0.349   3.536  16.208 -0.7299 -0.6727  0.2237
 4161SOL    HW124116   0.364   3.630  16.218 -0.6934 -0.5740 -0.7379
 4161SOL    HW224117   0.438   3.503  16.226 -0.3690  0.4096  0.4418
 4162SOL     OW24118   0.187   3.759   5.519 -0.2606 -0.2043 -0.2922
 4162SOL    HW124119   0.239   3.837   5.533 -0.9934  0.4475 -1.1737
 4162SOL    HW224120   0.246   3.684   5.506 -2.1481 -1.9005  0.9806
 4163SOL     OW24121   1.014   3.906   9.539  0.0294 -0.6548 -0.5138
 4163SOL    HW124122   1.014   3.981   9.480  1.5888 -3.2784 -3.8662
 4163SOL    HW224123   0.972   3.843   9.480 -1.6396 -0.6959  0.7016
 4164SOL     OW24124   4.665   2.860   6.756 -0.0005 -0.3476  0.0806
 4164SOL    HW124125   4.646   2.830   6.845  1.3295  2.8165  1.4423
 4164SOL    HW224126   4.577   2.886   6.731  0.2356  2.3512  1.9847
 4165SOL     OW24127   3.998   2.294   8.833  0.2712  0.0904 -0.6158
 4165SOL    HW124128   4.019   2.306   8.926  1.0143  0.0868 -0.7885
 4165SOL    HW224129   4.055   2.226   8.798 -1.4244 -1.8085  0.2740
 4166SOL     OW24130   2.227   3.731   4.112  0.1934 -0.4670  0.1393
 4166SOL    HW124131   2.242   3.666   4.182  0.2738 -0.3315  0.2489
 4166SOL    HW224132   2.136   3.748   4.134 -0.1486  0.2380 -1.8542
 4167SOL     OW24133   0.144   4.178   1.838  0.1665 -0.3890 -0.0438
 4167SOL    HW124134   0.153   4.112   1.907  1.0908  0.7317  0.8988
 4167SOL    HW224135   0.078   4.138   1.781  0.0889 -1.0822  0.5376
 4168SOL     OW24136   1.410   3.744   4.773 -0.2341 -0.3758 -0.1533
 4168SOL    HW124137   1.363   3.804   4.832 -0.7065 -1.0470  0.1572
 4168SOL    HW224138   1.399   3.663   4.821 -0.6144  0.0082  0.4086
 4169SOL     OW24139   1.064   0.663   8.321  0.0643 -0.0130 -0.7267
 4169SOL    HW124140   1.077   0.595   8.255 -3.2592 -1.0304 -0.3228
 4169SOL    HW224141   0.980   0.637   8.358  0.8340 -1.8185 -0.2295
 4170SOL     OW24142   2.917   3.004   5.912  0.1256 -0.0729  0.6331
 4170SOL    HW124143   2.899   2.911   5.916 -1.0905  0.1257 -0.3064
 4170SOL    HW224144   2.984   3.014   5.844  1.0745 -2.1354  1.2571
 4171SOL     OW24145   0.801   0.145   3.231 -0.1491 -0.5165  0.3639
 4171SOL    HW124146   0.754   0.076   3.185 -0.7190 -0.9256  1.5513
 4171SOL    HW224147   0.875   0.096   3.268 -1.0395 -2.0007  0.1938
 4172SOL     OW24148   3.228   2.171   6.194  0.3863  0.0409 -0.2039
 4172SOL    HW124149   3.213   2.248   6.249 -0.4070  1.0364 -1.7958
 4172SOL    HW224150   3.148   2.173   6.141 -0.2590 -2.5991  0.6600
 4173SOL     OW24151   0.170   1.210   6.758 -0.2797  0.1106  0.4943
 4173SOL    HW124152   0.211   1.130   6.790  0.6679 -0.5100 -2.2334
 4173SOL    HW224153   0.108   1.224   6.830 -0.4280 -0.0614  0.3998
 4174SOL     OW24154   0.421   4.211   4.923 -0.0984 -0.2964  0.7852
 4174SOL    HW124155   0.328   4.195   4.908  0.2416 -0.0789 -1.5126
 4174SOL    HW224156   0.417   4.283   4.985 -0.8273  0.3306  0.0124
 4175SOL     OW24157   3.538   2.960   3.157 -0.3811  0.6663 -0.0742
 4175SOL    HW124158   3.602   2.889   3.162  0.2675  1.3746  1.8496
 4175SOL    HW224159   3.468   2.911   3.115  0.8425 -0.8259 -0.3709
 4176SOL     OW24160   0.153   1.394   2.645 -0.1792  0.1929  0.0276
 4176SOL    HW124161   0.066   1.382   2.608  0.0442  2.5043 -1.2177
 4176SOL    HW224162   0.143   1.379   2.739 -1.6029 -0.5438 -0.2394
 4177SOL     OW24163   3.576   3.829  15.176  0.1414 -0.3093 -0.2339
 4177SOL    HW124164   3.601   3.780  15.255 -1.2824  1.0850  1.0862
 4177SOL    HW224165   3.666   3.854  15.153  0.4025 -0.3841  0.7008
 4178SOL     OW24166   0.611   3.085   6.364  0.4699 -0.0651  0.3304
 4178SOL    HW124167   0.673   3.146   6.324 -0.9671 -0.4031 -2.3994
 4178SOL    HW224168   0.567   3.039   6.292 -0.0968 -0.6630  1.0654
 4179SOL     OW24169   2.594   1.047   3.528 -0.0514 -0.5313 -0.7486
 4179SOL    HW124170   2.591   1.135   3.565 -0.6627 -1.7039  1.9307
 4179SOL    HW224171   2.504   1.029   3.503 -0.8058 -0.7345  2.1457
 4180SOL     OW24172   1.635   0.435   1.976  0.6164  0.1707 -0.3378
 4180SOL    HW124173   1.600   0.413   1.890  1.6746  0.4387 -0.8419
 4180SOL    HW224174   1.566   0.402   2.034 -0.3450 -1.8688 -2.6887
 4181SOL     OW24175   2.644   1.276   8.890  0.2766  0.6179 -0.5759
 4181SOL    HW124176   2.662   1.186   8.917 -3.1394 -0.6486 -2.6134
 4181SOL    HW224177   2.728   1.312   8.860  0.6564 -0.3920 -0.7182
 4182SOL     OW24178   0.587   3.341   5.517 -0.5898 -0.1674 -0.3323
 4182SOL    HW124179   0.546   3.426   5.531  0.4505  0.9050 -3.8259
 4182SOL    HW224180   0.616   3.349   5.426 -0.5224  0.8286 -0.2131
 4183SOL     OW24181   1.296   1.302  10.242  0.0610 -0.5415 -0.3999
 4183SOL    HW124182   1.264   1.370  10.301 -1.1357 -0.6600 -0.9200
 4183SOL    HW224183   1.225   1.239  10.252  0.2096 -0.6237  0.1188
 4184SOL     OW24184   1.900   3.610  10.747  0.9586 -0.6086  0.0866
 4184SOL    HW124185   1.838   3.643  10.682  0.4025 -1.4050  0.2113
 4184SOL    HW224186   1.957   3.686  10.755 -1.8822  1.4290  1.0020
 4185SOL     OW24187   4.710   4.347  17.385 -0.1899 -0.1215 -0.1109
 4185SOL    HW124188   4.723   4.435  17.351 -0.7738 -0.9027 -2.3314
 4185SOL    HW224189   4.671   4.367  17.470 -0.3153  3.4175 -1.0200
 4186SOL     OW24190   3.673   1.407   0.259  0.5072  0.1396  0.6902
 4186SOL    HW124191   3.601   1.443   0.207  0.8244 -0.9528 -0.5305
 4186SOL    HW224192   3.620   1.378   0.333 -1.7531 -0.2000 -1.0460
 4187SOL     OW24193   2.569   2.054   1.854  0.1990 -0.3793 -0.1126
 4187SOL    HW124194   2.568   1.958   1.858 -1.9746 -0.4108 -1.5333
 4187SOL    HW224195   2.482   2.072   1.889 -0.2876 -2.8473 -0.0148
 4188SOL     OW24196   4.623   2.512   8.757 -0.0695  0.0962  0.3553
 4188SOL    HW124197   4.683   2.438   8.766  2.6015  2.1019 -1.1195
 4188SOL    HW224198   4.576   2.508   8.840 -0.2260  0.0904  0.2657
 4189SOL     OW24199   4.241   4.509   6.681 -0.2753  0.0811 -0.1655
 4189SOL    HW124200   4.305   4.571   6.714 -1.0203 -1.2614  3.7833
 4189SOL    HW224201   4.170   4.516   6.746 -1.1179 -0.5536 -1.0100
 4190SOL     OW24202   1.898   4.136   5.454 -0.4178 -0.1766  0.8283
 4190SOL    HW124203   1.866   4.103   5.538  0.6231  0.0605  1.3184
 4190SOL    HW224204   1.847   4.217   5.453 -0.8514 -0.4425  1.2674
 4191SOL     OW24205   1.434   1.520   7.913 -0.2419  0.1277 -0.0120
 4191SOL    HW124206   1.427   1.424   7.908  0.8719  0.0584 -0.2473
 4191SOL    HW224207   1.344   1.547   7.932  0.4602  1.2970  1.5943
 4192SOL     OW24208   2.496   0.059   3.730  0.2580 -0.0935  0.1921
 4192SOL    HW124209   2.465   0.022   3.647 -2.2505 -0.4853  1.2845
 4192SOL    HW224210   2.590   0.067   3.716  0.1886 -0.6752 -0.6366
 4193SOL     OW24211   3.749   1.567  14.413 -0.2106  0.0478 -0.1535
 4193SOL    HW124212   3.685   1.624  14.372  0.5183  0.0253 -1.3112
 4193SOL    HW224213   3.816   1.553  14.346  0.0828  4.0317 -0.6556
 4194SOL     OW24214   3.959   0.456  16.001  0.3250  0.3383 -0.2622
 4194SOL    HW124215   4.019   0.399  15.952  1.2718  2.2137 -1.2729
 4194SOL    HW224216   4.019   0.511  16.051  0.6524 -2.8574  2.8986
 4195SOL     OW24217   3.038   2.506  10.792  0.2159 -0.0046  0.0629
 4195SOL    HW124218   3.081   2.589  10.816  1.0519 -0.6687  0.8476
 4195SOL    HW224219   3.117   2.453  10.787 -0.3101 -0.8977  1.4388
 4196SOL     OW24220   2.325   0.398   6.898 -0.0858 -0.3475 -0.4417
 4196SOL    HW124221   2.294   0.441   6.818  1.1878  0.7214 -0.3667
 4196SOL    HW224222   2.361   0.472   6.947  1.7476 -1.7129  0.3124
 4197SOL     OW24223   3.399   0.196  11.588 -0.2710  0.5537 -0.2001
 4197SOL    HW124224   3.320   0.185  11.640 -1.1939  0.3507 -1.6520
 4197SOL    HW224225   3.423   0.289  11.593  0.8646  0.2321  0.2260
 4198SOL     OW24226   0.782   2.022   6.065  0.4268  0.5439 -0.3319
 4198SOL    HW124227   0.835   2.101   6.050  0.4266  0.0969 -2.6992
 4198SOL    HW224228   0.720   2.062   6.125  0.2031  3.2541 -2.3629
 4199SOL     OW24229   2.119   3.727   1.230  0.3255  0.3933  0.3136
 4199SOL    HW124230   2.193   3.752   1.175 -0.6187  0.1179 -1.0778
 4199SOL    HW224231   2.076   3.810   1.250 -0.8396  0.0899 -0.8923
 4200SOL     OW24232   0.415   4.481   1.731 -0.9770 -0.1148  0.1274
 4200SOL    HW124233   0.469   4.427   1.674  0.1715  1.3022 -0.1200
 4200SOL    HW224234   0.482   4.535   1.772 -1.6186  1.6939 -1.1886
 4201SOL     OW24235   3.324   3.189  16.631 -0.0158 -0.4287 -0.2442
 4201SOL    HW124236   3.241   3.223  16.667  0.2711 -1.3599  1.2874
 4201SOL    HW224237   3.382   3.191  16.707  1.5172 -1.1078 -1.4176
 4202SOL     OW24238   3.802   0.308   5.994 -0.2081  0.7760  0.2788
 4202SOL    HW124239   3.893   0.320   6.023  0.5356 -1.4017 -1.1020
 4202SOL    HW224240   3.766   0.250   6.061  2.8182 -0.4665  0.8159
 4203SOL     OW24241   2.556   2.524   7.738  0.0186 -0.2987  0.1295
 4203SOL    HW124242   2.644   2.510   7.705 -0.6533  1.9910 -2.7002
 4203SOL    HW224243   2.573   2.582   7.813  1.5022  1.0623 -1.2529
 4204SOL     OW24244   3.749   4.552  12.936 -0.0436  0.2362  0.2840
 4204SOL    HW124245   3.675   4.526  12.882  0.2101  1.5520 -0.6934
 4204SOL    HW224246   3.775   4.633  12.891  1.9057 -1.4499 -1.6144
 4205SOL     OW24247   0.439   2.612  12.994 -0.0877 -0.1963 -0.1035
 4205SOL    HW124248   0.347   2.634  13.003  0.9397  3.6993  0.5575
 4205SOL    HW224249   0.480   2.667  13.060 -1.5924 -1.1985  1.6611
 4206SOL     OW24250   1.823   1.958   2.339 -0.8789 -0.1726  0.3916
 4206SOL    HW124251   1.828   2.014   2.417 -0.1689  0.1374  0.1289
 4206SOL    HW224252   1.843   1.876   2.384  1.1066  0.0846  0.0140
 4207SOL     OW24253   3.646   3.379   6.008 -0.1442 -0.4097  0.2112
 4207SOL    HW124254   3.556   3.379   6.041 -0.4463 -0.0504 -0.6335
 4207SOL    HW224255   3.634   3.323   5.932  2.0225  1.7474 -1.7258
 4208SOL     OW24256   0.506   4.595   8.923  0.5707 -0.1205 -0.1067
 4208SOL    HW124257   0.501   4.506   8.888 -0.8381 -0.1750  0.2211
 4208SOL    HW224258   0.438   4.631   8.865 -0.4761 -2.3203 -0.2530
 4209SOL     OW24259   0.119   2.361  11.631 -0.1279  0.5562  0.2383
 4209SOL    HW124260   0.026   2.337  11.625  0.6826 -2.2423 -1.1424
 4209SOL    HW224261   0.119   2.405  11.716 -2.4277 -1.4441  1.2749
 4210SOL     OW24262   2.941   4.646   4.003  0.4073  0.0333 -0.1300
 4210SOL    HW124263   3.029   4.685   4.003 -0.7171  2.5898  0.0820
 4210SOL    HW224264   2.932   4.647   4.099 -0.1946  1.2187 -0.1965
 4211SOL     OW24265   4.294   4.651  15.585  0.0587 -0.2608  0.7000
 4211SOL    HW124266   4.254   4.572  15.548 -0.5069  0.4536 -0.2125
 4211SOL    HW224267   4.215   4.703  15.601  1.5397  1.6372  1.8868
 4212SOL     OW24268   2.435   2.530  16.033 -0.3040  0.5677 -0.4475
 4212SOL    HW124269   2.379   2.503  15.960 -2.5652 -0.0006  1.4804
 4212SOL    HW224270   2.509   2.572  15.989 -1.0632  1.6126 -0.7339
 4213SOL     OW24271   3.986   3.442   6.798 -0.4448  0.2784  0.1589
 4213SOL    HW124272   3.928   3.370   6.773  0.3757 -0.9642  1.8412
 4213SOL    HW224273   3.936   3.524   6.785 -4.3803 -2.0815  0.3497
 4214SOL     OW24274   3.978   3.858   3.768 -0.5603  0.1644 -0.5700
 4214SOL    HW124275   4.071   3.859   3.745 -0.4404  0.3383 -0.0877
 4214SOL    HW224276   3.991   3.889   3.858  2.4507 -1.0918 -0.5587
 4215SOL     OW24277   0.533   4.324   8.855  0.1873 -0.0809 -0.1733
 4215SOL    HW124278   0.522   4.245   8.802 -1.0908 -0.7841  1.1658
 4215SOL    HW224279   0.622   4.314   8.888 -0.0157 -1.5818 -0.0849
 4216SOL     OW24280   4.540   1.597   2.914 -0.0507  0.2375  0.3787
 4216SOL    HW124281   4.567   1.547   2.991 -0.7233 -2.2976 -1.0138
 4216SOL    HW224282   4.579   1.542   2.846  2.3741 -0.0099  1.9749
 4217SOL     OW24283   1.580   4.248   5.854  0.1088  0.1571  0.6906
 4217SOL    HW124284   1.671   4.217   5.855  0.3182  0.6276 -1.8682
 4217SOL    HW224285   1.584   4.335   5.893  0.9855  0.5784 -0.3390
 4218SOL     OW24286   2.339   3.775   4.526  0.5153  0.2554  1.0128
 4218SOL    HW124287   2.285   3.713   4.477  0.1339  1.9472 -0.7339
 4218SOL    HW224288   2.396   3.780   4.450 -0.5088 -1.0629  0.1666
 4219SOL     OW24289   2.964   3.121   7.377  0.4395  0.3858 -0.0340
 4219SOL    HW124290   3.048   3.119   7.331 -1.3392  2.0440 -3.4032
 4219SOL    HW224291   2.965   3.212   7.405 -1.5939  1.2138 -2.6239
 4220SOL     OW24292   0.694   1.667   5.721  0.1761  0.3270  0.3390
 4220SOL    HW124293   0.715   1.737   5.660 -1.0893  1.1031  0.7947
 4220SOL    HW224294   0.706   1.721   5.800  2.5917  3.3381 -2.0892
 4221SOL     OW24295   2.871   2.600   2.638  0.4926 -0.1344 -0.2505
 4221SOL    HW124296   2.863   2.674   2.699 -2.0895 -0.3649 -0.3210
 4221SOL    HW224297   2.799   2.619   2.579  1.1499 -1.9959 -1.6524
 4222SOL     OW24298   4.436   4.723   5.080  1.3035 -0.1587  0.4510
 4222SOL    HW124299   4.433   0.071   5.032  0.8907 -1.6774 -2.1864
 4222SOL    HW224300   4.425   4.664   5.005  1.4118 -0.6540  0.8306
 4223SOL     OW24301   1.257   1.218  15.884  0.0967 -0.2633 -0.0030
 4223SOL    HW124302   1.329   1.186  15.829 -1.2715 -2.0596 -0.7500
 4223SOL    HW224303   1.191   1.154  15.855 -0.9765  1.2277 -0.8687
 4224SOL     OW24304   1.873   1.128   6.037 -0.2001  0.6162 -0.3300
 4224SOL    HW124305   1.899   1.147   5.947 -0.3836  3.4081  0.2102
 4224SOL    HW224306   1.908   1.212   6.066  2.1970  0.3681 -2.5832
 4225SOL     OW24307   0.621   2.297   2.857  0.2846  0.0171 -0.9739
 4225SOL    HW124308   0.537   2.306   2.811  0.1544  2.4748 -0.2680
 4225SOL    HW224309   0.628   2.202   2.844  2.2069  0.2743 -1.8277
 4226SOL     OW24310   2.032   2.268   1.456 -0.4114 -0.2959 -0.4889
 4226SOL    HW124311   2.107   2.217   1.484 -0.2785 -0.5132 -1.2326
 4226SOL    HW224312   2.066   2.354   1.432  2.0092 -1.6309 -1.8474
 4227SOL     OW24313   2.931   1.934   3.725  0.5131 -0.6616 -0.4407
 4227SOL    HW124314   2.853   1.965   3.770  0.0326 -0.8044 -1.1694
 4227SOL    HW224315   2.991   2.006   3.744 -0.0696  0.6276 -3.3992
 4228SOL     OW24316   1.663   3.177  12.881  0.6880 -0.4686  0.1726
 4228SOL    HW124317   1.751   3.181  12.918  0.2495 -0.6493  1.2486
 4228SOL    HW224318   1.680   3.099  12.829 -0.2768 -1.3498  1.1565
 4229SOL     OW24319   1.327   0.193   7.500 -0.1844 -0.5634  0.5361
 4229SOL    HW124320   1.232   0.181   7.492 -0.1895 -0.6496  0.7219
 4229SOL    HW224321   1.358   0.190   7.410 -1.6988 -0.9481  0.0216
 4230SOL     OW24322   4.187   2.954   4.973  0.7128 -0.6230  0.3294
 4230SOL    HW124323   4.203   2.903   4.893 -0.0236 -0.2548 -0.0514
 4230SOL    HW224324   4.218   3.042   4.952 -1.1831  0.0013  0.1932
 4231SOL     OW24325   1.888   4.193  11.996  0.0484  0.5496 -0.5462
 4231SOL    HW124326   1.866   4.281  11.966 -1.2470 -0.3600 -2.3106
 4231SOL    HW224327   1.842   4.143  11.928 -1.9447  1.3568  0.1930
 4232SOL     OW24328   1.286   1.998  14.799 -0.3075 -0.5887 -0.3419
 4232SOL    HW124329   1.361   1.942  14.778  0.3668  0.5643 -0.9914
 4232SOL    HW224330   1.317   2.087  14.783  1.6532 -1.0696  0.7495
 4233SOL     OW24331   4.095   2.761   3.894 -0.5199 -0.3463 -0.1153
 4233SOL    HW124332   4.076   2.815   3.818  0.9596  2.5425  1.5658
 4233SOL    HW224333   4.057   2.806   3.970 -1.6112 -2.7025  0.7675
 4234SOL     OW24334   1.682   3.006  16.583 -0.3317 -0.5125  0.2504
 4234SOL    HW124335   1.722   3.011  16.669  0.2624 -3.7950  0.1473
 4234SOL    HW224336   1.665   2.912  16.580 -1.2397 -0.3250 -0.6456
 4235SOL     OW24337   3.304   2.924   1.064  0.1881 -0.2252 -0.7238
 4235SOL    HW124338   3.351   2.934   0.981 -1.3026  0.3523 -1.5040
 4235SOL    HW224339   3.307   2.829   1.073 -1.9860 -0.2731 -0.5024
 4236SOL     OW24340   1.895   3.621  13.358 -0.1774 -0.3880  0.4012
 4236SOL    HW124341   1.825   3.559  13.340 -0.1400 -0.4409  0.4370
 4236SOL    HW224342   1.859   3.686  13.419 -1.0649  0.0968 -0.6529
 4237SOL     OW24343   1.627   0.531   8.141  0.2498 -0.3831 -0.0944
 4237SOL    HW124344   1.569   0.480   8.085  1.5825 -0.4378 -1.3940
 4237SOL    HW224345   1.604   0.498   8.228 -0.8117 -1.2398 -0.7087
 4238SOL     OW24346   4.077   4.063  13.879 -0.1656 -0.2275 -0.3464
 4238SOL    HW124347   4.067   4.079  13.973 -2.0088 -1.6245 -0.3006
 4238SOL    HW224348   4.156   4.008  13.882 -1.6317 -2.2516  0.9356
 4239SOL     OW24349   3.614   1.324   8.469 -0.3905  0.4951 -0.3489
 4239SOL    HW124350   3.558   1.317   8.546  0.5915  0.8547  0.4061
 4239SOL    HW224351   3.639   1.416   8.479  1.3777 -0.0381  0.2465
 4240SOL     OW24352   0.493   3.700  16.886 -0.0241 -0.1529  0.0269
 4240SOL    HW124353   0.549   3.775  16.866 -2.4640  1.5865 -0.2824
 4240SOL    HW224354   0.514   3.646  16.810 -0.6422  0.4670 -0.5852
 4241SOL     OW24355   4.147   1.481   0.628 -0.1388  0.0144 -0.0988
 4241SOL    HW124356   4.131   1.387   0.620  0.1139  0.0244 -0.7279
 4241SOL    HW224357   4.219   1.491   0.565 -0.2777 -2.2678 -0.6148
 4242SOL     OW24358   2.945   4.584   2.487  0.0007  0.4048  0.5066
 4242SOL    HW124359   2.922   4.518   2.552 -0.5605 -0.1852 -0.3023
 4242SOL    HW224360   3.019   4.629   2.528  1.1531 -2.4242  1.5400
 4243SOL     OW24361   3.671   1.577   8.557 -0.1136 -0.1363  0.2945
 4243SOL    HW124362   3.721   1.630   8.495 -0.8385  0.9015  0.5910
 4243SOL    HW224363   3.735   1.590   8.628  0.5794 -0.5186 -0.2589
 4244SOL     OW24364   2.633   2.450   2.206 -0.3731 -0.4035  0.2456
 4244SOL    HW124365   2.569   2.381   2.190 -1.0845 -0.1984  2.1580
 4244SOL    HW224366   2.713   2.410   2.172 -0.3349 -0.9907  1.0369
 4245SOL     OW24367   3.850   2.231   2.754 -0.1387  0.8693 -0.5211
 4245SOL    HW124368   3.904   2.167   2.708 -2.0724 -0.6034 -0.7056
 4245SOL    HW224369   3.823   2.293   2.687 -1.7533 -0.2483 -0.9102
 4246SOL     OW24370   0.810   4.175  10.657  0.5564  0.0358  0.4062
 4246SOL    HW124371   0.715   4.182  10.671  0.7357  0.3899  1.4578
 4246SOL    HW224372   0.805   4.211  10.569  1.2068 -0.2586  0.2535
 4247SOL     OW24373   2.979   1.447   4.350 -0.2560 -0.4876 -0.2651
 4247SOL    HW124374   3.016   1.488   4.272  0.0747 -0.4926 -0.1074
 4247SOL    HW224375   3.059   1.409   4.385 -0.6091  0.8352  2.0281
 4248SOL     OW24376   0.071   0.739  12.041  0.1558  0.4657  0.3694
 4248SOL    HW124377   0.041   0.648  12.038  1.0484  0.1854 -0.0759
 4248SOL    HW224378   0.162   0.747  12.013 -0.0210 -0.9807 -0.5940
 4249SOL     OW24379   3.712   2.870   1.509 -0.0943  0.2620 -0.2107
 4249SOL    HW124380   3.717   2.776   1.490 -0.8183 -0.0764  1.2651
 4249SOL    HW224381   3.772   2.906   1.443 -1.6115  1.1635 -1.1028
 4250SOL     OW24382   1.372   0.465  12.080 -0.2619  0.1187  0.3957
 4250SOL    HW124383   1.455   0.499  12.048 -0.3832 -0.9133 -1.0500
 4250SOL    HW224384   1.336   0.430  11.998  0.7408 -1.3270  0.5766
 4251SOL     OW24385   1.128   3.154   8.905  0.2729 -0.0073 -0.3451
 4251SOL    HW124386   1.178   3.097   8.847  3.8982 -1.0448  3.8079
 4251SOL    HW224387   1.144   3.114   8.991  0.4604 -0.6896 -0.7023
 4252SOL     OW24388   0.401   1.908   3.256  0.1004  0.2499 -0.0234
 4252SOL    HW124389   0.365   1.990   3.220 -0.6096 -0.1692 -0.2778
 4252SOL    HW224390   0.460   1.886   3.184 -0.1205 -0.2560 -0.0498
 4253SOL     OW24391   3.845   4.405   6.784 -0.3506  0.2515  0.3190
 4253SOL    HW124392   3.762   4.356   6.783 -0.5364  0.5660  0.3649
 4253SOL    HW224393   3.816   4.495   6.795  0.6523  0.8174 -1.5206
 4254SOL     OW24394   4.157   2.104   8.694  0.2066 -0.9641  0.5507
 4254SOL    HW124395   4.168   2.035   8.759  0.3351  1.7600  3.4013
 4254SOL    HW224396   4.244   2.144   8.691 -0.6847  0.8616 -0.9887
 4255SOL     OW24397   0.010   3.007   2.419 -0.0760  0.0315 -0.3500
 4255SOL    HW124398   0.080   3.030   2.358 -1.0313 -0.9213 -1.8115
 4255SOL    HW224399   0.057   2.964   2.492  0.4282  2.2167  0.6077
 4256SOL     OW24400   2.093   0.451  15.588 -0.0756  0.0286  0.7355
 4256SOL    HW124401   2.046   0.508  15.650 -0.8868  0.5084 -0.3349
 4256SOL    HW224402   2.033   0.461  15.515  0.4831 -0.1512  0.2541
 4257SOL     OW24403   2.033   2.189   2.835  0.2715 -0.0712  0.1931
 4257SOL    HW124404   2.035   2.259   2.900 -1.7982 -0.8489  1.1039
 4257SOL    HW224405   2.126   2.168   2.825  0.3843  0.1916  0.7259
 4258SOL     OW24406   1.164   1.428   4.162 -0.3856 -0.3862  0.3447
 4258SOL    HW124407   1.083   1.445   4.209 -0.6204  0.6487 -0.4324
 4258SOL    HW224408   1.153   1.495   4.094  1.9502 -0.4608 -0.1278
 4259SOL     OW24409   4.652   2.266  12.082 -0.1875 -0.0714  0.1407
 4259SOL    HW124410   4.709   2.342  12.073  0.6220 -0.6481  0.3914
 4259SOL    HW224411   4.708   2.194  12.052  0.2861 -0.5379  2.1968
 4260SOL     OW24412   3.301   4.171  10.572  0.2397  0.4586  0.2875
 4260SOL    HW124413   3.214   4.184  10.534  0.5978  1.3704 -0.2079
 4260SOL    HW224414   3.286   4.106  10.640  0.9301  0.5752  0.5526
 4261SOL     OW24415   2.817   0.480   1.967 -0.2544  0.6510  0.1988
 4261SOL    HW124416   2.822   0.514   1.878  3.3128  0.0486  0.1893
 4261SOL    HW224417   2.888   0.531   2.005  0.2774  1.4080 -1.7999
 4262SOL     OW24418   4.618   1.439   8.057  0.0296  0.0651  0.3756
 4262SOL    HW124419   4.537   1.490   8.063 -0.8996 -1.2762 -0.8704
 4262SOL    HW224420   4.591   1.373   7.994 -0.1935  0.6353 -0.1192
 4263SOL     OW24421   4.404   2.024  10.855  0.1675  0.4167  0.2100
 4263SOL    HW124422   4.357   2.058  10.931 -0.3876  3.0361 -1.3122
 4263SOL    HW224423   4.330   1.994  10.801 -0.1243 -0.4390  1.0799
 4264SOL     OW24424   3.714   0.663   2.465 -0.3597  0.3181  0.8969
 4264SOL    HW124425   3.644   0.709   2.513 -1.1592 -0.3399  0.3621
 4264SOL    HW224426   3.790   0.718   2.481  0.1942 -0.8127  2.1596
 4265SOL     OW24427   3.837   4.391  10.485 -0.0346 -0.6227 -0.3964
 4265SOL    HW124428   3.872   4.318  10.536  1.0347 -0.8542 -1.4616
 4265SOL    HW224429   3.836   4.342  10.402 -0.7504 -2.1933  0.5367
 4266SOL     OW24430   4.239   1.084  10.002  0.1920 -0.1149  0.1080
 4266SOL    HW124431   4.249   0.996   9.964  2.0056  1.1858 -2.4070
 4266SOL    HW224432   4.146   1.104   9.987  0.8232  2.0782 -0.8742
 4267SOL     OW24433   3.133   1.560  12.372 -0.6238  0.1077  0.1443
 4267SOL    HW124434   3.162   1.617  12.301 -0.4125 -2.1751 -1.5983
 4267SOL    HW224435   3.163   1.612  12.447  0.1250  0.2642 -0.2647
 4268SOL     OW24436   3.597   4.278   7.612  0.1507 -0.4020  0.2744
 4268SOL    HW124437   3.549   4.311   7.687  0.0540 -1.0418  0.4935
 4268SOL    HW224438   3.529   4.284   7.545  0.8658 -1.3852 -0.5446
 4269SOL     OW24439   4.569   4.694  12.304  0.4812  0.4040 -0.1805
 4269SOL    HW124440   4.590   4.623  12.243 -1.0716  0.1172 -0.3619
 4269SOL    HW224441   4.650   4.718  12.350 -0.7298 -0.7790  2.5700
 4270SOL     OW24442   3.332   0.359   5.806 -0.0130 -0.0075  0.0004
 4270SOL    HW124443   3.400   0.419   5.836 -0.9749  0.6633  0.8251
 4270SOL    HW224444   3.396   0.299   5.766  0.4012  2.0033 -2.3616
 4271SOL     OW24445   2.107   3.473   9.210 -0.7862  0.2778  0.8852
 4271SOL    HW124446   2.182   3.426   9.248 -0.5297  0.7793  0.9942
 4271SOL    HW224447   2.127   3.483   9.117 -0.2501  0.6761  1.0440
 4272SOL     OW24448   4.063   3.903   1.035 -0.0434 -0.3591 -0.3207
 4272SOL    HW124449   4.143   3.927   1.082  0.6172 -6.3600  1.6190
 4272SOL    HW224450   4.089   3.940   0.951 -0.6300  2.2431  0.6314
 4273SOL     OW24451   0.480   1.358   8.231  0.1057 -0.3168 -0.7748
 4273SOL    HW124452   0.516   1.303   8.301  2.6780  0.6599 -1.3462
 4273SOL    HW224453   0.434   1.290   8.181 -0.7577 -0.4999  0.2664
 4274SOL     OW24454   0.830   2.693   5.952 -0.8785 -0.1740  0.2329
 4274SOL    HW124455   0.918   2.664   5.929 -1.2034 -1.8320  1.0966
 4274SOL    HW224456   0.783   2.611   5.971  0.0848 -1.1895 -1.7584
 4275SOL     OW24457   3.005   3.548   1.441  0.2968 -0.6881 -0.1112
 4275SOL    HW124458   3.019   3.456   1.422 -1.6069 -0.5176 -2.2990
 4275SOL    HW224459   3.089   3.590   1.422  0.4979 -0.9035  0.2903
 4276SOL     OW24460   4.638   0.937   6.486 -0.2279  0.5685  0.6657
 4276SOL    HW124461   4.604   0.856   6.524 -1.6113 -0.0122 -1.7534
 4276SOL    HW224462   4.558   0.979   6.453 -0.3179  1.1936  1.6937
 4277SOL     OW24463   2.467   2.546   2.981 -0.2006 -0.1913 -0.3531
 4277SOL    HW124464   2.544   2.559   3.035  0.1551  0.3779 -0.9985
 4277SOL    HW224465   2.485   2.461   2.941  0.7327 -0.9313  1.6510
 4278SOL     OW24466   3.026   2.423   1.468  0.0740 -0.2288  0.1021
 4278SOL    HW124467   2.932   2.439   1.463 -0.2007 -2.0232 -0.3208
 4278SOL    HW224468   3.031   2.388   1.380 -3.1680 -1.1642  0.3011
 4279SOL     OW24469   4.688   0.965   7.648 -0.4338 -0.1141  0.1106
 4279SOL    HW124470   4.659   0.929   7.731  1.2646  1.1625  1.2620
 4279SOL    HW224471   4.643   0.916   7.579  0.2257 -0.6870  0.0842
 4280SOL     OW24472   2.767   0.989   2.976 -0.1761 -0.3475  0.0220
 4280SOL    HW124473   2.684   0.989   2.929 -0.2575 -0.6596  0.1665
 4280SOL    HW224474   2.743   1.027   3.061 -1.7239 -0.3459 -0.4157
 4281SOL     OW24475   1.412   2.335   9.485  0.3055  0.1257  0.0883
 4281SOL    HW124476   1.352   2.410   9.494 -2.1599 -1.6759 -1.3305
 4281SOL    HW224477   1.464   2.373   9.415  1.1493 -0.0805  0.6041
 4282SOL     OW24478   3.157   2.181   5.126 -0.1176  0.4350  0.2468
 4282SOL    HW124479   3.127   2.271   5.119  1.1720  0.7900 -0.5120
 4282SOL    HW224480   3.219   2.185   5.199  0.7449  2.9755 -0.6373
 4283SOL     OW24481   2.354   0.257   2.656 -0.5670 -0.2472 -0.0790
 4283SOL    HW124482   2.417   0.309   2.707 -1.8541  0.7989  0.4503
 4283SOL    HW224483   2.376   0.166   2.671  0.4830  0.0366  0.0923
 4284SOL     OW24484   4.368   4.327   2.206  0.1676  0.2847 -0.4019
 4284SOL    HW124485   4.444   4.310   2.151 -0.0588  3.0881 -1.6170
 4284SOL    HW224486   4.411   4.371   2.279 -1.0757  1.3262 -0.2993
 4285SOL     OW24487   1.076   4.563   6.785  0.5128 -0.6569  0.4738
 4285SOL    HW124488   1.091   4.471   6.762 -0.4573 -0.8895  0.7867
 4285SOL    HW224489   1.133   4.579   6.860 -0.4854  0.4552  0.9837
 4286SOL     OW24490   1.708   0.917   7.584  0.1681  0.5069 -0.0968
 4286SOL    HW124491   1.618   0.886   7.586 -0.2236  1.5196 -2.0583
 4286SOL    HW224492   1.755   0.835   7.568  0.0389  0.2170  1.0296
 4287SOL     OW24493   2.871   2.705   3.143 -0.2009  0.2561  0.2847
 4287SOL    HW124494   2.880   2.728   3.051 -0.7007 -0.6846  0.0056
 4287SOL    HW224495   2.802   2.638   3.145  3.0066 -3.1093 -0.9809
 4288SOL     OW24496   1.673   4.476   4.569 -0.3774  0.2352  0.0377
 4288SOL    HW124497   1.738   4.488   4.637 -1.2265  3.0493  0.3771
 4288SOL    HW224498   1.689   4.383   4.554  0.1326  0.5191 -1.1734
 4289SOL     OW24499   3.315   3.590   4.931 -0.5560 -0.7405 -0.0163
 4289SOL    HW124500   3.376   3.516   4.924  0.2281  0.0053 -1.1181
 4289SOL    HW224501   3.261   3.563   5.006  0.3203 -0.0263  0.8762
 4290SOL     OW24502   4.172   2.806   7.009  0.1967  0.8544 -0.3535
 4290SOL    HW124503   4.189   2.898   7.028 -1.2860  1.0981 -0.2741
 4290SOL    HW224504   4.188   2.800   6.915  0.3109 -0.2282 -0.2686
 4291SOL     OW24505   4.095   2.347   2.290  0.2628  0.4648  0.2962
 4291SOL    HW124506   4.050   2.418   2.336 -2.1748  1.4106 -3.5246
 4291SOL    HW224507   4.123   2.402   2.216 -0.1653  2.1065  1.3467
 4292SOL     OW24508   1.610   2.057   2.187 -0.0582  0.3201  0.2263
 4292SOL    HW124509   1.674   2.082   2.254  1.9089 -0.2223 -1.4752
 4292SOL    HW224510   1.599   1.964   2.207 -0.6913  0.4336  0.4249
 4293SOL     OW24511   0.792   3.913  12.256 -0.0314  0.2484 -0.0546
 4293SOL    HW124512   0.879   3.930  12.222 -1.2450  1.9497 -2.2683
 4293SOL    HW224513   0.804   3.822  12.283 -1.1927 -0.2657 -1.2834
 4294SOL     OW24514   0.151   2.689   2.070  0.1960  0.4849  0.5860
 4294SOL    HW124515   0.211   2.646   2.008  1.2088 -1.8190  3.1997
 4294SOL    HW224516   0.080   2.626   2.079  0.4090  0.3590  1.3710
 4295SOL     OW24517   4.218   4.573  16.357 -0.3253  0.3970 -0.7821
 4295SOL    HW124518   4.266   4.534  16.430 -0.6938  0.9292 -0.2477
 4295SOL    HW224519   4.130   4.549  16.384  0.5126 -1.6186  0.1064
 4296SOL     OW24520   1.511   4.371  11.473  0.3401  0.0854 -0.1175
 4296SOL    HW124521   1.464   4.294  11.503 -1.3855  1.1710  0.0012
 4296SOL    HW224522   1.439   4.433  11.458  2.7518  3.0074  0.4018
 4297SOL     OW24523   0.949   3.255   9.686  0.0308  0.2766 -0.0410
 4297SOL    HW124524   0.973   3.185   9.746 -0.2503  0.4104  0.2255
 4297SOL    HW224525   0.918   3.206   9.610 -1.9949  0.0710  0.9202
 4298SOL     OW24526   1.948   0.720   2.285  0.3818 -0.3855 -0.1784
 4298SOL    HW124527   2.010   0.790   2.264  0.4645 -0.2856  0.3974
 4298SOL    HW224528   1.934   0.661   2.211 -1.0983 -0.8554  0.4784
 4299SOL     OW24529   3.134   1.269   7.707  0.2123 -0.3432 -0.2782
 4299SOL    HW124530   3.207   1.314   7.666 -1.6318  1.1585 -1.8971
 4299SOL    HW224531   3.070   1.265   7.635  0.2955 -0.3231 -0.3527
 4300SOL     OW24532   4.470   2.171   4.047 -0.3691  0.4865  0.0667
 4300SOL    HW124533   4.476   2.191   4.141  1.5854 -2.0205  0.4930
 4300SOL    HW224534   4.559   2.140   4.027 -1.0956 -0.0466 -2.3541
 4301SOL     OW24535   2.189   0.169   4.740 -0.4338 -0.3447  0.0005
 4301SOL    HW124536   2.244   0.100   4.703 -0.4965 -2.5111  3.9739
 4301SOL    HW224537   2.209   0.240   4.678  0.5747 -2.8069 -2.4973
 4302SOL     OW24538   3.545   2.493   6.596 -0.0078  0.3838  0.3148
 4302SOL    HW124539   3.487   2.418   6.603  0.8007 -0.1345  1.4853
 4302SOL    HW224540   3.614   2.446   6.549  0.0861  0.6159  0.2187
 4303SOL     OW24541   3.766   0.073  15.279 -0.6912 -0.1657 -0.7803
 4303SOL    HW124542   3.750   0.150  15.225  2.7645  0.4824 -0.8838
 4303SOL    HW224543   3.676   0.043  15.263 -1.5261  1.7361  0.3796
 4304SOL     OW24544   0.774   2.599  16.846  0.2441  0.3801  0.2317
 4304SOL    HW124545   0.765   2.659  16.772  0.6050  0.7455  0.4815
 4304SOL    HW224546   0.868   2.584  16.835  0.2093 -0.0151  0.4693
 4305SOL     OW24547   4.439   1.490   9.456 -0.2185 -0.1729 -0.4064
 4305SOL    HW124548   4.414   1.582   9.463 -0.9272 -0.4633  0.8033
 4305SOL    HW224549   4.401   1.464   9.540  1.7176 -1.1395  0.1866
 4306SOL     OW24550   1.744   1.419  11.666 -0.3089  0.4939 -0.2613
 4306SOL    HW124551   1.695   1.338  11.675 -1.2619  1.1624  0.5828
 4306SOL    HW224552   1.747   1.416  11.571 -1.9022 -1.5857 -0.2411
 4307SOL     OW24553   3.979   1.510   2.543 -0.3470 -0.0725  0.1451
 4307SOL    HW124554   3.948   1.500   2.454 -1.1504  1.6015  0.2432
 4307SOL    HW224555   3.916   1.576   2.572 -0.2868  0.1512 -0.2355
 4308SOL     OW24556   3.049   1.762   9.570 -0.3157  0.4144  0.4870
 4308SOL    HW124557   3.042   1.802   9.656  0.1532  1.6799 -0.0718
 4308SOL    HW224558   3.106   1.820   9.520  0.6151  0.0274  1.0997
 4309SOL     OW24559   4.384   1.889   1.592 -0.0074 -0.3138  0.7665
 4309SOL    HW124560   4.348   1.968   1.552  1.7686  0.3502  0.4909
 4309SOL    HW224561   4.350   1.889   1.682  0.9331 -0.3265  1.1201
 4310SOL     OW24562   2.874   0.433   3.986  0.2731 -0.0364 -0.3137
 4310SOL    HW124563   2.944   0.477   4.035 -2.8595  1.7559  2.6006
 4310SOL    HW224564   2.845   0.368   4.051 -0.5995  0.0110 -0.6524
 4311SOL     OW24565   3.193   3.235  11.704 -0.2506  0.1654 -0.1855
 4311SOL    HW124566   3.165   3.274  11.621 -2.2424 -1.2170 -0.1832
 4311SOL    HW224567   3.116   3.240  11.761  0.9206 -5.1882  1.8180
 4312SOL     OW24568   3.579   3.843  13.826 -0.5732 -0.2301  0.1453
 4312SOL    HW124569   3.493   3.851  13.866 -0.3336  1.0073  0.4279
 4312SOL    HW224570   3.574   3.893  13.745 -2.2068 -0.3870  0.1524
 4313SOL     OW24571   0.533   0.111   0.391  0.1259 -0.0788 -0.0306
 4313SOL    HW124572   0.464   0.076   0.447  1.1474 -0.8327  0.7328
 4313SOL    HW224573   0.604   0.065   0.435  2.0072  1.3948 -1.4671
 4314SOL     OW24574   3.496   1.250   1.527 -0.0053 -1.1624 -0.3736
 4314SOL    HW124575   3.402   1.267   1.524 -0.3083 -2.7926  0.2314
 4314SOL    HW224576   3.527   1.339   1.506 -1.4503 -0.5905 -0.1401
 4315SOL     OW24577   0.474   1.717   5.950  0.2475  0.3808  0.2559
 4315SOL    HW124578   0.500   1.776   5.879  0.3344 -0.9071 -0.7828
 4315SOL    HW224579   0.447   1.639   5.900 -0.1079  1.8281 -1.8160
 4316SOL     OW24580   3.949   2.162   3.337  0.2537 -0.0724  0.0597
 4316SOL    HW124581   3.968   2.071   3.314  1.6802  0.8521 -2.4030
 4316SOL    HW224582   3.899   2.179   3.257 -0.0696 -2.0077 -0.1545
 4317SOL     OW24583   1.720   2.890   7.382 -0.1108  0.3546  0.3262
 4317SOL    HW124584   1.638   2.867   7.338  0.3304 -2.2914  0.8854
 4317SOL    HW224585   1.706   2.984   7.389  1.6303  0.7848 -2.3153
 4318SOL     OW24586   3.703   2.825   2.105  0.3948 -0.3073 -0.3981
 4318SOL    HW124587   3.794   2.850   2.087 -0.5513  1.5177 -2.7245
 4318SOL    HW224588   3.655   2.903   2.077 -0.1303 -0.1414  0.9905
 4319SOL     OW24589   3.991   4.415  16.458 -0.4074 -0.0996 -0.2855
 4319SOL    HW124590   3.912   4.389  16.411  0.3256 -0.1568 -1.4743
 4319SOL    HW224591   4.028   4.327  16.456 -0.7111 -0.2968  2.1000
 4320SOL     OW24592   4.305   0.554   8.114 -0.3403 -0.5471 -0.0971
 4320SOL    HW124593   4.246   0.604   8.057  1.3760 -0.6494 -1.9291
 4320SOL    HW224594   4.296   0.610   8.192  0.8882 -1.6070  0.7844
 4321SOL     OW24595   0.901   0.275  15.776 -0.5716  0.2622 -0.5142
 4321SOL    HW124596   0.933   0.250  15.863 -1.5239  2.0934  0.3519
 4321SOL    HW224597   0.818   0.308  15.810 -0.6948 -1.0360  0.4566
 4322SOL     OW24598   2.570   1.891  10.817 -0.3246 -0.2994 -0.1967
 4322SOL    HW124599   2.564   1.797  10.801  3.6875 -0.5942  0.0244
 4322SOL    HW224600   2.525   1.893  10.901  1.9065 -1.2934  1.0082
 4323SOL     OW24601   1.158   0.380  10.703 -0.1330  0.2745  0.9396
 4323SOL    HW124602   1.245   0.350  10.728  0.1862  0.7889  0.4285
 4323SOL    HW224603   1.165   0.397  10.609  0.9174 -1.0601  0.7874
 4324SOL     OW24604   1.521   3.616  15.906 -0.1058 -0.4397 -0.2099
 4324SOL    HW124605   1.612   3.603  15.934 -0.7655 -0.9353  1.6944
 4324SOL    HW224606   1.529   3.641  15.814 -2.7691 -1.9233 -0.8522
 4325SOL     OW24607   0.684   2.166  15.606  0.0970  0.2977  0.4907
 4325SOL    HW124608   0.620   2.146  15.538 -0.0226 -2.9387  1.5406
 4325SOL    HW224609   0.744   2.092  15.597 -1.7293 -1.5427  3.3650
 4326SOL     OW24610   2.939   0.644   7.986  0.2043  0.4633 -0.3450
 4326SOL    HW124611   2.928   0.739   7.982  0.5263  0.4681 -1.0658
 4326SOL    HW224612   2.850   0.609   7.976 -0.2304  1.0818  1.2641
 4327SOL     OW24613   4.718   0.309   8.323 -0.1838  0.4170 -0.0668
 4327SOL    HW124614   0.060   0.289   8.375 -0.9460  2.1219  1.6951
 4327SOL    HW224615   4.731   0.402   8.306 -0.8709  0.4391 -0.4960
 4328SOL     OW24616   0.980   1.171  11.350  0.4728  0.3430  0.3384
 4328SOL    HW124617   1.056   1.138  11.301  1.4554  1.1754  1.3024
 4328SOL    HW224618   1.009   1.259  11.370  2.3494 -0.0825 -0.5339
 4329SOL     OW24619   1.729   0.349   3.398 -0.3123  0.1087  0.3603
 4329SOL    HW124620   1.799   0.387   3.344 -2.0305  1.1241 -1.1673
 4329SOL    HW224621   1.702   0.421   3.454 -0.2464  2.0245 -2.0867
 4330SOL     OW24622   4.701   0.171  15.820 -0.0160 -0.0457 -0.0311
 4330SOL    HW124623   4.617   0.143  15.784  0.3657 -0.3024 -0.7221
 4330SOL    HW224624   4.692   0.131  15.907  3.1713 -0.3485  0.1349
 4331SOL     OW24625   4.320   1.593   2.352  0.0023 -0.2655 -0.1743
 4331SOL    HW124626   4.284   1.505   2.369 -0.0068 -0.8769 -3.2126
 4331SOL    HW224627   4.256   1.633   2.293  0.1364 -0.8200 -0.7008
 4332SOL     OW24628   0.514   3.550  12.850 -0.0823 -0.5656 -0.5253
 4332SOL    HW124629   0.557   3.592  12.924  2.2663 -1.4900 -1.3597
 4332SOL    HW224630   0.548   3.599  12.775 -0.4930  0.9419  0.2773
 4333SOL     OW24631   1.491   2.585   6.223 -0.4068 -0.0340 -0.4223
 4333SOL    HW124632   1.531   2.556   6.305 -0.1571  0.7037 -0.2856
 4333SOL    HW224633   1.537   2.665   6.197  0.8184 -0.7954 -0.6333
 4334SOL     OW24634   2.209   4.067  10.808 -0.1036  0.0781 -0.1730
 4334SOL    HW124635   2.269   4.141  10.809 -1.9349  1.5307  0.2779
 4334SOL    HW224636   2.134   4.099  10.858  0.1636  0.1175  0.2030
 4335SOL     OW24637   0.219   2.703   4.956 -0.3323 -0.3160 -0.3011
 4335SOL    HW124638   0.263   2.647   5.020 -0.7280  0.7144  0.8635
 4335SOL    HW224639   0.284   2.772   4.948 -0.6096 -0.0266 -0.0158
 4336SOL     OW24640   0.496   0.087   1.527 -0.1487 -0.0039 -0.5426
 4336SOL    HW124641   0.468   0.157   1.470  1.4118  0.0123 -1.2989
 4336SOL    HW224642   0.509   0.013   1.468  0.1143 -1.4733  1.3539
 4337SOL     OW24643   1.337   0.765  17.501  0.4996 -0.0555  0.4382
 4337SOL    HW124644   1.408   0.828  17.512  1.5395 -1.6291  2.7425
 4337SOL    HW224645   1.353   0.736  17.411 -1.1144 -1.1391  0.4935
 4338SOL     OW24646   1.598   3.534   9.063 -0.5767  0.2606 -0.2891
 4338SOL    HW124647   1.692   3.517   9.050  0.0814  2.1469  1.9160
 4338SOL    HW224648   1.598   3.618   9.109  1.7793 -0.6757  1.4624
 4339SOL     OW24649   1.893   3.532  16.067 -0.2706 -0.4759 -0.0219
 4339SOL    HW124650   1.852   3.452  16.100 -1.6264 -0.3707 -1.4690
 4339SOL    HW224651   1.981   3.537  16.106 -0.0845 -0.9495 -0.3828
 4340SOL     OW24652   3.844   4.412   7.686 -0.0122  0.4589 -0.0522
 4340SOL    HW124653   3.769   4.357   7.664 -1.9621  2.3852  1.8983
 4340SOL    HW224654   3.915   4.369   7.637 -1.1487 -3.1895  1.5232
 4341SOL     OW24655   2.748   2.477   9.213 -0.2851 -0.9487  0.1661
 4341SOL    HW124656   2.665   2.437   9.191 -1.3403 -0.0080  2.4018
 4341SOL    HW224657   2.805   2.402   9.233  2.8121  1.2625 -0.2918
 4342SOL     OW24658   1.915   1.866   2.795  0.1152 -0.0961 -0.2711
 4342SOL    HW124659   1.845   1.825   2.744 -0.9748  1.6047 -0.1421
 4342SOL    HW224660   1.874   1.847   2.879  0.8933 -0.4963  0.0238
 4343SOL     OW24661   0.241   4.593   5.149  0.0718  0.0662 -0.1001
 4343SOL    HW124662   0.263   4.586   5.056  0.9640  0.3735  0.0890
 4343SOL    HW224663   0.165   4.651   5.139  0.9791  1.4098  0.7103
 4344SOL     OW24664   2.727   2.921   9.284  0.2137 -0.0816  0.4464
 4344SOL    HW124665   2.770   2.870   9.353 -0.8867 -1.4339  0.1197
 4344SOL    HW224666   2.712   2.866   9.207  1.4029  0.4307 -0.1432
 4345SOL     OW24667   4.617   0.735   1.842  0.0738  0.0843 -0.3371
 4345SOL    HW124668   4.664   0.777   1.769  1.3186  2.4593  1.8167
 4345SOL    HW224669   4.647   0.785   1.918  0.9421 -2.6876  1.1456
 4346SOL     OW24670   2.131   0.739   6.819 -0.4971  0.3620  0.6386
 4346SOL    HW124671   2.164   0.829   6.828 -0.2515  0.4605 -1.3594
 4346SOL    HW224672   2.059   0.743   6.883  0.1332  0.6294  1.3336
 4347SOL     OW24673   4.411   1.869   2.149  1.2321 -0.5976  0.0735
 4347SOL    HW124674   4.489   1.922   2.166  0.8083  0.3269 -0.8933
 4347SOL    HW224675   4.452   1.782   2.152 -2.0324 -2.1135  0.3225
 4348SOL     OW24676   3.269   2.007   8.711 -0.0822 -0.3189  0.1693
 4348SOL    HW124677   3.352   1.964   8.691 -0.0681  0.5566 -1.6706
 4348SOL    HW224678   3.214   1.929   8.702 -2.8382  1.8174 -1.7509
 4349SOL     OW24679   1.870   1.111   4.103 -0.1956  0.0005 -0.1443
 4349SOL    HW124680   1.813   1.160   4.044 -1.0216  1.4305  1.8147
 4349SOL    HW224681   1.936   1.179   4.115  0.2406 -0.4953  0.2786
 4350SOL     OW24682   4.520   2.372  12.581  0.4293  0.0353  0.6217
 4350SOL    HW124683   4.561   2.362  12.667  0.5132  1.0124  0.6962
 4350SOL    HW224684   4.515   2.467  12.569 -0.1224  0.1886  2.0439
 4351SOL     OW24685   3.475   0.658   3.628  0.4288  0.2787 -0.2252
 4351SOL    HW124686   3.538   0.731   3.625 -0.9574  1.5530  1.7338
 4351SOL    HW224687   3.506   0.618   3.709 -1.7435  2.1914  1.5240
 4352SOL     OW24688   4.495   1.046   3.172 -0.2140  0.3337  0.2602
 4352SOL    HW124689   4.584   1.010   3.177 -0.7314 -0.8523  0.7766
 4352SOL    HW224690   4.458   1.000   3.096 -1.5823  0.7468  0.6703
 4353SOL     OW24691   0.087   0.428   5.582 -0.4251 -0.1792  0.6115
 4353SOL    HW124692   0.084   0.515   5.543  0.3212 -1.2445 -1.7872
 4353SOL    HW224693   0.135   0.376   5.518 -2.0576  1.2911 -1.7791
 4354SOL     OW24694   1.541   3.786   3.451 -0.2403 -0.1740  0.2947
 4354SOL    HW124695   1.496   3.780   3.367  2.8232  0.1931 -1.3747
 4354SOL    HW224696   1.492   3.723   3.503  0.1844 -0.0243  0.8724
 4355SOL     OW24697   4.056   0.430   7.150 -0.2696  0.7233  0.0095
 4355SOL    HW124698   3.990   0.369   7.116  0.5312  0.3742 -0.9217
 4355SOL    HW224699   4.137   0.379   7.144 -0.4960 -0.0058  2.9027
 4356SOL     OW24700   3.103   2.947   8.119  0.2743  0.4616 -0.2276
 4356SOL    HW124701   3.114   3.041   8.130 -1.5234  0.5425  0.8528
 4356SOL    HW224702   3.156   2.940   8.039 -2.0087 -1.0754 -1.6013
 4357SOL     OW24703   0.381   0.861  13.410 -0.5926 -0.7074  0.3029
 4357SOL    HW124704   0.385   0.897  13.322  1.1220 -2.0579 -0.1861
 4357SOL    HW224705   0.382   0.941  13.463  1.1496  0.0105 -0.8105
 4358SOL     OW24706   4.083   0.145   7.620 -0.0145  0.2389  0.0883
 4358SOL    HW124707   3.995   0.114   7.644  0.6305 -0.8479  1.0062
 4358SOL    HW224708   4.103   0.207   7.690 -0.3970 -1.2119  1.5002
 4359SOL     OW24709   3.466   3.081   8.231 -0.0620  0.4086  0.6318
 4359SOL    HW124710   3.375   3.109   8.240 -0.3721 -0.8039  1.2448
 4359SOL    HW224711   3.479   3.018   8.302  1.8222  0.0990  0.0099
 4360SOL     OW24712   3.178   3.874   4.141 -0.3415  0.3031 -0.5903
 4360SOL    HW124713   3.219   3.960   4.133  0.5000  0.1112  1.5823
 4360SOL    HW224714   3.088   3.905   4.156 -0.2807  0.5545 -0.7448
 4361SOL     OW24715   3.396   2.953   1.350 -0.0710  0.2458 -0.5052
 4361SOL    HW124716   3.452   2.877   1.363  0.9266  0.8245 -1.3980
 4361SOL    HW224717   3.381   2.942   1.256  3.7747  3.5163 -1.5039
 4362SOL     OW24718   1.051   2.853   1.710  0.0672 -0.5773  0.2042
 4362SOL    HW124719   1.093   2.935   1.686 -0.0942 -0.2187  1.1320
 4362SOL    HW224720   1.021   2.821   1.625 -2.2518  0.8120  0.4800
 4363SOL     OW24721   1.215   3.648   1.728 -0.7820 -0.0747 -0.2344
 4363SOL    HW124722   1.159   3.726   1.727 -0.0451  0.5037  1.8455
 4363SOL    HW224723   1.171   3.583   1.783 -1.5901 -0.7874 -1.7359
 4364SOL     OW24724   0.441   2.820   2.628  0.2801  0.3930  0.6710
 4364SOL    HW124725   0.412   2.730   2.646  2.6371 -0.7425 -1.1042
 4364SOL    HW224726   0.529   2.815   2.665  0.4089 -0.1405  0.2975
 4365SOL     OW24727   0.263   1.903  10.964 -0.8449 -0.3440  0.8346
 4365SOL    HW124728   0.175   1.868  10.979 -1.3975  1.0842  0.8984
 4365SOL    HW224729   0.309   1.840  11.019 -1.9142 -2.6557 -0.9220
 4366SOL     OW24730   1.431   3.336   6.651  0.2876 -0.4401  0.8304
 4366SOL    HW124731   1.370   3.282   6.701 -2.0366  0.7621 -0.6829
 4366SOL    HW224732   1.427   3.289   6.567  3.4283 -0.6715  0.7888
 4367SOL     OW24733   3.281   2.322   5.726  0.3777 -0.5213  0.2527
 4367SOL    HW124734   3.248   2.248   5.676  1.9611 -0.6656 -0.5653
 4367SOL    HW224735   3.362   2.284   5.761  0.4685  0.4497  1.1072
 4368SOL     OW24736   2.829   1.913   8.544 -0.0643  0.0686  0.1264
 4368SOL    HW124737   2.881   1.870   8.476  0.7160 -0.5814  1.1426
 4368SOL    HW224738   2.777   1.978   8.497  1.7074  1.5143  0.1566
 4369SOL     OW24739   1.381   0.518   7.734 -0.2551 -0.2056 -0.4175
 4369SOL    HW124740   1.393   0.600   7.686 -1.8639  0.0153 -0.4675
 4369SOL    HW224741   1.287   0.530   7.750 -0.1537  0.7306 -0.5324
 4370SOL     OW24742   0.356   2.253  11.555  0.0457  0.0924 -0.9403
 4370SOL    HW124743   0.283   2.278  11.611  0.3241  1.9769 -1.4237
 4370SOL    HW224744   0.344   2.158  11.568  1.6870  0.3220  2.3889
 4371SOL     OW24745   4.082   0.410  10.482  0.4508 -0.2460  0.3592
 4371SOL    HW124746   4.003   0.384  10.530  0.5174  0.3786  0.8051
 4371SOL    HW224747   4.097   0.500  10.513 -1.2269 -0.0328  0.5589
 4372SOL     OW24748   2.142   2.046  15.019  0.6371 -0.1767 -0.6890
 4372SOL    HW124749   2.113   1.992  15.093 -1.1569  0.3432 -1.0049
 4372SOL    HW224750   2.218   2.092  15.054  0.7591 -0.6336 -0.3489
 4373SOL     OW24751   2.818   2.443  14.741 -0.8847  0.3425 -0.3632
 4373SOL    HW124752   2.790   2.379  14.807 -0.1091  0.3289 -0.0477
 4373SOL    HW224753   2.896   2.395  14.712 -0.8173 -0.9198  1.9095
 4374SOL     OW24754   0.247   1.945   8.134  0.1530 -0.1716  0.4336
 4374SOL    HW124755   0.227   1.914   8.046 -0.4576  0.7629  0.2469
 4374SOL    HW224756   0.341   1.930   8.144  0.2162 -0.4784 -0.6206
 4375SOL     OW24757   4.419   3.832  14.041  0.4857 -0.0742  0.0381
 4375SOL    HW124758   4.489   3.766  14.046  0.9933  0.4304 -0.3834
 4375SOL    HW224759   4.341   3.778  14.055 -0.2490  0.8956 -0.2640
 4376SOL     OW24760   1.336   1.447   7.155  0.0584 -0.5162  0.4306
 4376SOL    HW124761   1.311   1.405   7.238  2.3708 -0.5980  1.0865
 4376SOL    HW224762   1.257   1.447   7.101 -0.2652 -2.2923  0.9001
 4377SOL     OW24763   3.850   3.231  17.503 -0.6501  0.0489 -0.8261
 4377SOL    HW124764   3.829   3.146  17.465  0.4117  0.8354 -3.1780
 4377SOL    HW224765   3.941   3.237  17.473 -1.3374 -0.1077 -2.9052
 4378SOL     OW24766   1.842   2.873   0.447  0.0028  0.1494  0.3768
 4378SOL    HW124767   1.840   2.949   0.505 -1.7300 -0.1263  0.6811
 4378SOL    HW224768   1.921   2.897   0.398 -0.4377 -0.2273 -0.5056
 4379SOL     OW24769   4.329   1.332  16.686 -0.5845  0.0329  0.2355
 4379SOL    HW124770   4.416   1.293  16.693 -0.9193 -0.8389 -0.5845
 4379SOL    HW224771   4.274   1.257  16.666 -2.2552  1.6226 -1.1498
 4380SOL     OW24772   1.662   1.036  15.975  0.2823 -0.5679  0.2164
 4380SOL    HW124773   1.621   1.020  15.890 -1.0215 -0.7968  0.8731
 4380SOL    HW224774   1.580   1.033  16.026 -0.7609 -0.1408 -1.4341
 4381SOL     OW24775   2.754   0.641   4.975 -0.0468  0.0303  0.5187
 4381SOL    HW124776   2.738   0.662   4.883  0.5976  1.1762  0.6685
 4381SOL    HW224777   2.668   0.628   5.015 -0.3470  0.3182 -0.0263
 4382SOL     OW24778   1.232   1.720   5.204 -0.0760  0.3938  0.2048
 4382SOL    HW124779   1.309   1.775   5.188  2.1778 -2.3688  1.5798
 4382SOL    HW224780   1.155   1.775   5.190  0.1935 -0.0094 -2.9292
 4383SOL     OW24781   3.339   1.010   7.951  0.3889 -0.6509  0.4445
 4383SOL    HW124782   3.330   1.105   7.964  1.7842 -0.5759  0.8596
 4383SOL    HW224783   3.428   1.002   7.915  0.5861 -0.0922  0.8008
 4384SOL     OW24784   1.048   3.529   8.290  0.1076  0.0192  0.1844
 4384SOL    HW124785   1.008   3.524   8.204 -0.8033  0.5415  0.5793
 4384SOL    HW224786   1.087   3.442   8.299  0.0061 -0.1291 -0.8296
 4385SOL     OW24787   3.761   3.660  17.582  0.0661  0.7324  0.0041
 4385SOL    HW124788   3.849   3.635  17.610 -1.1593 -0.6658  2.5249
 4385SOL    HW224789   3.735   3.584  17.530  0.7334 -0.3708  1.2841
 4386SOL     OW24790   2.082   2.331   4.405  0.0565  0.0985 -0.4724
 4386SOL    HW124791   1.993   2.363   4.423  0.4458  1.3247 -0.7300
 4386SOL    HW224792   2.072   2.238   4.382  0.8834 -0.1925  0.3305
 4387SOL     OW24793   3.889   3.143   3.555  0.2652 -0.8494  0.1834
 4387SOL    HW124794   3.819   3.194   3.598  0.7413  0.2263 -0.3157
 4387SOL    HW224795   3.839   3.106   3.483  1.1701 -0.4615 -0.6285
 4388SOL     OW24796   1.127   1.150   3.368  0.0538 -0.2230 -0.1623
 4388SOL    HW124797   1.091   1.199   3.295 -0.1677  0.7288  0.5886
 4388SOL    HW224798   1.205   1.104   3.338  0.3255 -1.0365  1.7421
 4389SOL     OW24799   4.223   3.066  11.032  0.4358  0.7204 -0.2217
 4389SOL    HW124800   4.270   3.113  11.101 -0.3701  0.4704  0.4892
 4389SOL    HW224801   4.191   2.990  11.080  2.8093  0.3943  0.8400
 4390SOL     OW24802   4.533   1.939   1.235 -0.2465 -0.1065 -0.1128
 4390SOL    HW124803   4.508   1.916   1.146  1.4882 -1.0826 -0.3523
 4390SOL    HW224804   4.472   2.011   1.253 -1.3985 -1.6501  2.1181
 4391SOL     OW24805   1.608   4.709   7.563 -0.2208 -0.1858  0.0366
 4391SOL    HW124806   1.560   0.016   7.635  1.1131  0.5838  0.4777
 4391SOL    HW224807   1.546   4.639   7.542 -0.9768  0.6329 -0.4453
 4392SOL     OW24808   0.941   0.297   5.693  0.6462  0.6156  0.4153
 4392SOL    HW124809   0.886   0.359   5.646 -0.3353 -2.0078 -1.8334
 4392SOL    HW224810   1.021   0.349   5.696  1.0037  0.0318  1.2724
 4393SOL     OW24811   2.328   1.413   8.540 -0.2514 -0.2801 -0.2998
 4393SOL    HW124812   2.385   1.433   8.614  0.1121  0.1241 -0.6911
 4393SOL    HW224813   2.263   1.362   8.589  1.2095 -0.6421  1.2409
 4394SOL     OW24814   4.484   3.800   3.806  0.1704  0.1861 -0.1342
 4394SOL    HW124815   4.554   3.852   3.767  0.1834 -0.4706 -0.9979
 4394SOL    HW224816   4.525   3.714   3.818 -0.8908 -0.2469  0.3776
 4395SOL     OW24817   1.521   3.789   7.567 -1.0264 -0.0359  0.0419
 4395SOL    HW124818   1.531   3.728   7.494  0.7989 -2.3410  2.2339
 4395SOL    HW224819   1.450   3.844   7.531 -0.0609  1.9233  1.1351
 4396SOL     OW24820   3.356   0.422   1.815  0.5344 -0.4942 -0.2966
 4396SOL    HW124821   3.365   0.484   1.743  0.1571 -1.4779 -1.1809
 4396SOL    HW224822   3.261   0.421   1.822  0.3678 -1.0619 -2.6914
 4397SOL     OW24823   1.252   3.945   4.882 -0.0239  0.0396 -0.2390
 4397SOL    HW124824   1.210   4.009   4.824 -0.8945 -0.0425  0.3006
 4397SOL    HW224825   1.320   4.003   4.917 -0.5872  1.2060 -1.0995
 4398SOL     OW24826   3.075   3.465   5.012 -0.2580  0.0413  0.2971
 4398SOL    HW124827   3.020   3.543   5.022  0.2427  0.2126  1.6621
 4398SOL    HW224828   3.065   3.423   5.097 -2.3018  0.1560  0.1206
 4399SOL     OW24829   3.468   3.585   2.087 -0.0540  0.4478 -0.0060
 4399SOL    HW124830   3.512   3.570   2.170  0.3366 -1.0536 -0.4816
 4399SOL    HW224831   3.496   3.674   2.064 -0.7078  0.9389  1.1229
 4400SOL     OW24832   2.847   2.783  16.763  0.4882 -0.4090 -0.2933
 4400SOL    HW124833   2.766   2.763  16.811 -1.1205 -0.4997 -2.9929
 4400SOL    HW224834   2.810   2.785  16.674  0.8929 -1.2273 -0.4771
 4401SOL     OW24835   1.532   4.291   8.432  0.2133 -0.2258 -0.1956
 4401SOL    HW124836   1.448   4.246   8.420 -0.1890  1.1401 -2.4909
 4401SOL    HW224837   1.499   4.379   8.452 -0.9177 -0.3103 -1.6319
 4402SOL     OW24838   2.134   4.714   2.911 -0.1409  0.0736  0.2037
 4402SOL    HW124839   2.217   4.704   2.865 -0.6614 -2.1107 -0.2767
 4402SOL    HW224840   2.133   0.075   2.913  2.7420  0.1174 -0.5602
 4403SOL     OW24841   0.440   0.230   3.519  0.0656  0.3789  0.5229
 4403SOL    HW124842   0.505   0.197   3.457 -0.7988 -2.0218  0.8803
 4403SOL    HW224843   0.433   0.159   3.583  2.1261 -0.6853 -0.4297
 4404SOL     OW24844   4.502   0.325   8.875 -0.2647  0.1023  0.3770
 4404SOL    HW124845   4.534   0.264   8.809  0.5925 -0.3110  1.1707
 4404SOL    HW224846   4.434   0.285   8.929  0.8658 -1.8159  0.3606
 4405SOL     OW24847   3.418   1.951   6.384 -0.8713 -0.0319 -0.7209
 4405SOL    HW124848   3.446   1.981   6.297  0.3720 -0.0958 -0.3430
 4405SOL    HW224849   3.410   2.037   6.426  0.2688 -0.3711  0.2028
 4406SOL     OW24850   4.411   4.683   7.536  0.0598 -0.1389  0.0633
 4406SOL    HW124851   4.454   0.014   7.590  0.2918 -0.2655  0.0350
 4406SOL    HW224852   4.441   4.717   7.452 -0.0632  0.5502  0.3042
 4407SOL     OW24853   2.300   2.312   9.795 -0.2478 -0.1453  0.1482
 4407SOL    HW124854   2.357   2.388   9.787  1.2132 -1.3658 -1.0446
 4407SOL    HW224855   2.232   2.332   9.731  0.5542 -0.6926 -0.8691
 4408SOL     OW24856   3.205   1.086   5.691  0.0898  0.9029  0.0054
 4408SOL    HW124857   3.141   1.072   5.761  0.6144  0.0266  0.3105
 4408SOL    HW224858   3.260   1.010   5.707 -1.2041 -0.1025 -0.3408
 4409SOL     OW24859   3.917   3.438  13.385  0.0160  0.2357 -0.1391
 4409SOL    HW124860   3.972   3.498  13.436  0.7869  0.8582 -1.6958
 4409SOL    HW224861   3.942   3.460  13.295 -0.5637  0.9383 -0.1267
 4410SOL     OW24862   2.707   1.400   4.403  0.2224 -0.6572 -0.5079
 4410SOL    HW124863   2.660   1.457   4.343  0.6887 -0.6764 -0.8913
 4410SOL    HW224864   2.798   1.431   4.396  0.0356  0.8066  3.3663
 4411SOL     OW24865   3.466   2.313   4.160 -0.6766 -0.3740 -0.4072
 4411SOL    HW124866   3.440   2.242   4.100 -0.0942 -2.3788  1.7115
 4411SOL    HW224867   3.489   2.378   4.094  0.5629 -1.8501 -1.4427
 4412SOL     OW24868   1.406   2.361   8.390  0.3986  0.3694  0.7501
 4412SOL    HW124869   1.359   2.370   8.472  0.7110 -0.6838  1.0443
 4412SOL    HW224870   1.482   2.306   8.409  0.1540 -0.2130  0.0488
 4413SOL     OW24871   0.038   3.516   2.306 -0.3925  0.1627  0.8105
 4413SOL    HW124872   0.085   3.445   2.350 -0.7784 -0.1174  0.7639
 4413SOL    HW224873   0.023   3.575   2.380  1.5301  1.8520 -0.1367
 4414SOL     OW24874   2.278   1.983   2.815 -0.1423  0.0132 -0.7325
 4414SOL    HW124875   2.224   1.971   2.736  0.6271  2.1194 -1.5764
 4414SOL    HW224876   2.279   1.895   2.851 -0.0486  0.7620  1.0772
 4415SOL     OW24877   3.315   0.362   2.993 -0.0487  0.2861  0.9130
 4415SOL    HW124878   3.411   0.361   2.991 -0.0961 -1.9671  0.3759
 4415SOL    HW224879   3.301   0.395   2.904  0.7017 -0.5126  0.5059
 4416SOL     OW24880   0.905   2.049  14.451  0.3891 -0.1360  0.0555
 4416SOL    HW124881   0.941   2.134  14.476 -1.2936  0.0306  1.8679
 4416SOL    HW224882   0.923   2.045  14.357  0.6400  1.9279  0.0147
 4417SOL     OW24883   2.290   1.095   5.166  0.0559  0.1663  0.4403
 4417SOL    HW124884   2.213   1.149   5.149  1.2204  1.0965 -1.8473
 4417SOL    HW224885   2.243   1.015   5.190 -0.7679  0.1805 -1.1248
 4418SOL     OW24886   3.234   1.315   4.030 -0.8181  0.8861  0.2100
 4418SOL    HW124887   3.325   1.288   4.035 -1.2696 -0.1188  2.7731
 4418SOL    HW224888   3.204   1.226   4.012 -0.3590  1.2075 -2.1947
 4419SOL     OW24889   0.246   2.986   9.276  0.0570  0.6965 -0.4732
 4419SOL    HW124890   0.242   2.971   9.371 -0.6563 -1.1661 -0.7981
 4419SOL    HW224891   0.300   3.065   9.278 -1.5178  1.7737 -0.0488
 4420SOL     OW24892   2.266   3.260  11.706 -0.8782  0.0272  0.3909
 4420SOL    HW124893   2.248   3.177  11.661 -0.7336  0.6035 -0.7296
 4420SOL    HW224894   2.242   3.322  11.637  0.2801  1.1339  0.9936
 4421SOL     OW24895   1.161   0.525   5.777 -0.2626 -0.1994 -0.2763
 4421SOL    HW124896   1.203   0.547   5.694  0.1707 -0.8525 -0.2306
 4421SOL    HW224897   1.132   0.611   5.807  0.3591  0.7713 -2.4626
 4422SOL     OW24898   2.054   2.393  12.434  0.5994 -0.2573  0.0592
 4422SOL    HW124899   1.985   2.440  12.387 -0.0925 -2.5019 -1.2070
 4422SOL    HW224900   2.093   2.353  12.356  3.0575 -3.6405  3.0268
 4423SOL     OW24901   3.538   4.376   5.661 -0.4190 -0.2085 -0.6829
 4423SOL    HW124902   3.457   4.358   5.709 -1.1228  2.5437 -0.8054
 4423SOL    HW224903   3.574   4.448   5.713 -1.1227  0.0590 -0.5650
 4424SOL     OW24904   2.948   0.049   7.303 -0.1106 -0.3373 -0.0742
 4424SOL    HW124905   2.979   4.694   7.294  2.3873  0.5718 -0.7066
 4424SOL    HW224906   2.861   0.030   7.336  0.1461 -1.6401 -0.1392
 4425SOL     OW24907   3.124   2.803   2.110 -0.2033 -0.3991  0.1588
 4425SOL    HW124908   3.037   2.826   2.140 -0.1037 -0.0830  0.2003
 4425SOL    HW224909   3.143   2.742   2.182  3.4243  0.3647 -0.1208
 4426SOL     OW24910   1.554   3.252   6.949 -0.0762 -0.1646 -0.5640
 4426SOL    HW124911   1.543   3.326   6.890 -1.5036  1.0314  1.1931
 4426SOL    HW224912   1.599   3.191   6.890 -0.4788 -0.6759 -0.3481
 4427SOL     OW24913   3.315   4.386  17.133 -0.2512 -0.2213  0.0713
 4427SOL    HW124914   3.225   4.353  17.131 -0.3197 -0.1136  1.2915
 4427SOL    HW224915   3.367   4.318  17.090  0.0831  1.0138 -1.4934
 4428SOL     OW24916   0.791   4.685   5.498  0.0612  0.0705  0.2238
 4428SOL    HW124917   0.771   4.628   5.424  0.9928 -0.9263  0.7383
 4428SOL    HW224918   0.756   0.031   5.461  1.3130  1.1889  1.4939
 4429SOL     OW24919   3.313   2.576   6.349  0.1937  0.2041  0.4194
 4429SOL    HW124920   3.405   2.551   6.337  0.1564  1.3605 -2.2827
 4429SOL    HW224921   3.273   2.589   6.263 -1.2635 -0.2875  1.0293
 4430SOL     OW24922   0.972   1.635  14.482 -0.7924 -0.4062 -0.1754
 4430SOL    HW124923   0.930   1.569  14.538  0.7306  0.0575  1.5413
 4430SOL    HW224924   0.969   1.716  14.533 -2.4177 -2.4472  3.0059
 4431SOL     OW24925   4.487   1.772   2.457  0.4873  0.7025  0.4021
 4431SOL    HW124926   4.418   1.719   2.418  0.8009 -0.0264  0.8258
 4431SOL    HW224927   4.566   1.722   2.434  0.7222  0.8968  0.7830
 4432SOL     OW24928   4.323   1.453   7.828  0.4094  0.6490  0.1777
 4432SOL    HW124929   4.355   1.364   7.840 -1.2180  0.2175  1.3124
 4432SOL    HW224930   4.363   1.504   7.899  1.3184  0.3085 -0.0969
 4433SOL     OW24931   0.050   3.308   4.542 -0.0037  0.2296 -0.1852
 4433SOL    HW124932   4.705   3.270   4.507 -0.7498 -1.2083  3.0623
 4433SOL    HW224933   0.111   3.280   4.474  1.1742  1.1462  0.4828
 4434SOL     OW24934   3.021   4.061   0.093  0.3128 -0.0237 -0.0413
 4434SOL    HW124935   3.090   3.998   0.073  1.3342  1.6940 -1.8728
 4434SOL    HW224936   2.967   4.015   0.158 -2.1825  2.3594 -0.4068
 4435SOL     OW24937   2.430   1.310  12.598  0.0808  0.4143  0.0042
 4435SOL    HW124938   2.413   1.222  12.631 -1.0778  0.7267  0.2629
 4435SOL    HW224939   2.499   1.339  12.657  1.5174 -1.1521 -0.9160
 4436SOL     OW24940   4.068   3.279   2.351 -0.3360 -0.9775  0.1901
 4436SOL    HW124941   3.975   3.272   2.372 -0.3223 -2.2801 -0.2162
 4436SOL    HW224942   4.104   3.349   2.406  2.1134 -1.8584 -0.2925
 4437SOL     OW24943   4.388   3.149   7.418  0.3972 -0.0354  0.3886
 4437SOL    HW124944   4.329   3.204   7.367 -0.3247 -0.9203  0.2568
 4437SOL    HW224945   4.386   3.075   7.357 -0.0552 -0.1711  0.5625
 4438SOL     OW24946   2.496   1.099   5.606 -0.1166 -0.0280  0.2889
 4438SOL    HW124947   2.506   1.086   5.512  0.9819 -0.9562  0.5302
 4438SOL    HW224948   2.409   1.138   5.604 -0.8129 -1.6406 -0.6672
 4439SOL     OW24949   2.857   2.602   0.343  0.3149  0.7039  0.5332
 4439SOL    HW124950   2.826   2.681   0.299 -0.8871  0.1684  0.4108
 4439SOL    HW224951   2.771   2.567   0.369  1.1168 -0.4576  1.5871
 4440SOL     OW24952   2.044   4.160  13.693 -0.0733 -0.2506 -0.1038
 4440SOL    HW124953   1.954   4.140  13.669 -0.3462 -0.4391  1.0842
 4440SOL    HW224954   2.058   4.234  13.633 -0.2283 -0.6665 -0.6472
 4441SOL     OW24955   3.205   0.604   4.413  0.1542  0.0147 -0.8466
 4441SOL    HW124956   3.147   0.638   4.481 -0.4648  0.6833 -1.7092
 4441SOL    HW224957   3.252   0.684   4.390 -0.6553  0.4226 -1.0908
 4442SOL     OW24958   3.627   0.713  15.705 -0.4296 -0.5010 -0.5253
 4442SOL    HW124959   3.677   0.794  15.714  0.5422 -1.2335  0.5959
 4442SOL    HW224960   3.679   0.648  15.750 -0.6760  0.1290  0.6699
 4443SOL     OW24961   0.925   1.658  10.953 -0.7241  0.0974 -0.2349
 4443SOL    HW124962   0.987   1.731  10.952 -0.2755 -0.3091 -1.6739
 4443SOL    HW224963   0.874   1.672  10.873 -0.8518  0.8163 -0.0258
 4444SOL     OW24964   1.723   3.362  10.184  0.8586 -0.1628 -0.1357
 4444SOL    HW124965   1.684   3.285  10.144 -1.7856  1.4332 -0.6489
 4444SOL    HW224966   1.683   3.429  10.128  0.8944  1.1541  1.4140
 4445SOL     OW24967   4.429   0.211  16.913  0.8796  0.7521 -0.3284
 4445SOL    HW124968   4.371   0.242  16.983  0.9452  0.6060 -0.2100
 4445SOL    HW224969   4.350   0.190  16.863  0.3376  1.5772  0.1698
 4446SOL     OW24970   3.355   4.338   7.471 -0.6519 -0.4119  0.1739
 4446SOL    HW124971   3.326   4.268   7.412 -0.0313  1.3527 -2.2568
 4446SOL    HW224972   3.276   4.352   7.522 -1.2642  1.0322 -1.1724
 4447SOL     OW24973   4.146   3.963   6.021  0.4546  0.2192  0.2387
 4447SOL    HW124974   4.198   4.031   5.979  1.1423  0.6994  1.8515
 4447SOL    HW224975   4.060   3.969   5.979  0.4688 -1.1041  0.0423
 4448SOL     OW24976   2.804   2.459   3.840 -0.4784  0.3910  0.2609
 4448SOL    HW124977   2.894   2.486   3.823  0.7379 -1.2608  4.1714
 4448SOL    HW224978   2.779   2.504   3.921 -2.4823 -0.3397  0.0722
 4449SOL     OW24979   0.477   1.324   3.487  0.3867  0.8083  0.0805
 4449SOL    HW124980   0.468   1.386   3.415 -1.0049  1.2928  0.6692
 4449SOL    HW224981   0.418   1.262   3.445 -1.2474  2.9954 -0.7996
 4450SOL     OW24982   2.449   1.076  12.742  0.5581 -0.2595  0.0058
 4450SOL    HW124983   2.407   0.995  12.713 -1.5917  0.4541  1.1400
 4450SOL    HW224984   2.522   1.042  12.793 -1.2536 -3.8190  0.2040
 4451SOL     OW24985   4.121   3.761  12.786  0.1254 -0.8843 -0.1213
 4451SOL    HW124986   4.159   3.721  12.864 -0.0035 -0.6002  0.0889
 4451SOL    HW224987   4.158   3.712  12.713 -0.2582 -0.7268 -0.4180
 4452SOL     OW24988   0.401   0.524   8.380 -0.4142  0.3378 -0.2356
 4452SOL    HW124989   0.338   0.596   8.388  0.5897  1.2044 -0.0828
 4452SOL    HW224990   0.472   0.566   8.332  0.8112 -0.0930  1.1785
 4453SOL     OW24991   0.470   1.862  10.081  0.3038 -0.0843 -0.1816
 4453SOL    HW124992   0.404   1.881  10.149 -1.4437 -0.2132 -1.8445
 4453SOL    HW224993   0.438   1.912  10.006  0.3392  1.2256  0.6709
 4454SOL     OW24994   3.518   1.497  17.590 -0.0519  0.4555  0.1224
 4454SOL    HW124995   3.520   1.551  17.511 -1.9125  0.0382 -0.2063
 4454SOL    HW224996   3.475   1.420  17.553  0.5412  0.4121 -0.4656
 4455SOL     OW24997   3.403   2.881  17.274  0.4251 -0.0970 -0.0026
 4455SOL    HW124998   3.495   2.853  17.272  0.0759 -1.0959 -1.8052
 4455SOL    HW224999   3.415   2.968  17.237 -0.4776  1.2471  2.8568
 4456SOL     OW25000   3.094   4.725  10.346  0.3195 -0.1811 -0.1717
 4456SOL    HW125001   3.049   0.047  10.409  0.8898  0.9205 -0.7745
 4456SOL    HW225002   3.060   4.641  10.377  1.2108 -0.9944 -1.4275
 4457SOL     OW25003   3.472   2.156   2.322 -0.0105 -0.3002 -0.3665
 4457SOL    HW125004   3.552   2.201   2.297  2.0894 -2.9046  1.6979
 4457SOL    HW225005   3.484   2.061   2.315 -1.0764 -0.4016 -0.9044
 4458SOL     OW25006   1.513   2.923  12.255  0.4554 -1.1553 -0.7751
 4458SOL    HW125007   1.497   3.013  12.284  0.5967 -2.1088  2.3203
 4458SOL    HW225008   1.530   2.885  12.341 -2.9406  0.4440  0.6240
 4459SOL     OW25009   3.291   0.360  14.325  0.3968  0.3896 -0.1511
 4459SOL    HW125010   3.231   0.432  14.345  1.1248  1.7024 -2.7635
 4459SOL    HW225011   3.330   0.394  14.245  1.8148 -0.0013  0.3580
 4460SOL     OW25012   2.807   0.845   9.654  0.0701 -0.0012  0.5567
 4460SOL    HW125013   2.751   0.916   9.625 -1.1015 -0.6892  1.1478
 4460SOL    HW225014   2.888   0.897   9.652  0.7809 -1.2525 -2.6434
 4461SOL     OW25015   0.686   4.034   5.253 -0.3461 -0.0682  0.0988
 4461SOL    HW125016   0.707   4.007   5.164 -0.2979 -0.2135  0.1532
 4461SOL    HW225017   0.608   4.087   5.237 -0.1111  0.4965  0.8115
 4462SOL     OW25018   3.217   1.954   0.725  0.8092  0.2123 -0.0600
 4462SOL    HW125019   3.160   1.954   0.648  1.0340  3.0483 -0.2101
 4462SOL    HW225020   3.303   1.950   0.683  0.9555 -0.8462  0.3532
 4463SOL     OW25021   0.341   2.575   5.696 -0.7464  0.1988 -0.4545
 4463SOL    HW125022   0.261   2.552   5.648 -0.2174  0.5926 -1.5209
 4463SOL    HW225023   0.312   2.615   5.777 -1.6723 -1.5572  0.0967
 4464SOL     OW25024   4.492   2.534  10.759  0.0141 -0.0938 -0.4915
 4464SOL    HW125025   4.515   2.445  10.787  1.2755  0.3985  0.0946
 4464SOL    HW225026   4.574   2.579  10.779  0.7359 -1.1800 -0.9645
 4465SOL     OW25027   3.044   1.959   1.321 -0.4432  0.3411  0.0856
 4465SOL    HW125028   3.022   2.031   1.380  1.6942 -0.4497  1.8046
 4465SOL    HW225029   3.012   2.007   1.244 -1.4989 -0.2862  0.1349
 4466SOL     OW25030   1.885   0.275   6.446 -0.0528  0.6757  0.0220
 4466SOL    HW125031   1.884   0.190   6.491 -0.1757  2.0229  2.5660
 4466SOL    HW225032   1.980   0.282   6.446  0.1504 -2.1537  1.7598
 4467SOL     OW25033   0.700   3.896   3.671 -0.3511  0.3462 -0.1643
 4467SOL    HW125034   0.634   3.918   3.737 -0.3252  2.8016 -0.9524
 4467SOL    HW225035   0.767   3.962   3.690  0.1762 -0.5245  1.0140
 4468SOL     OW25036   4.108   1.620  17.022  0.3911  0.4541 -0.7083
 4468SOL    HW125037   4.083   1.700  17.068 -0.4273  0.5792 -1.3688
 4468SOL    HW225038   4.202   1.631  17.035  0.0266  0.5872  1.8127
 4469SOL     OW25039   0.833   1.404  14.270  0.5702  0.4975 -0.3767
 4469SOL    HW125040   0.925   1.378  14.283 -0.5057 -2.6966  0.7814
 4469SOL    HW225041   0.798   1.325  14.229  0.6013  0.3051 -0.0321
 4470SOL     OW25042   1.416   0.813   5.792  0.2561  0.1451  1.0066
 4470SOL    HW125043   1.469   0.876   5.743 -1.3075  0.9702  0.3621
 4470SOL    HW225044   1.407   0.860   5.875  0.2705  2.6113 -0.3801
 4471SOL     OW25045   2.861   3.998   1.794 -0.3169  0.1580  0.5111
 4471SOL    HW125046   2.811   3.931   1.841 -2.7442  0.6699 -1.3613
 4471SOL    HW225047   2.952   3.967   1.791 -0.1599  0.8045 -1.4737
 4472SOL     OW25048   0.248   0.921   2.851 -0.0455  0.2116  0.2256
 4472SOL    HW125049   0.275   0.933   2.760 -0.9894 -1.9939 -0.3726
 4472SOL    HW225050   0.155   0.919   2.826 -0.0536  0.5539  0.2337
 4473SOL     OW25051   3.099   1.870   7.744 -0.0888 -0.3147 -0.1417
 4473SOL    HW125052   3.004   1.873   7.749 -0.0968 -0.8815  0.0664
 4473SOL    HW225053   3.129   1.895   7.831 -3.3559  1.2289  0.5057
 4474SOL     OW25054   2.242   4.035   2.179  0.0889  0.2752 -0.5395
 4474SOL    HW125055   2.323   4.072   2.215  0.3738 -0.9256  0.0517
 4474SOL    HW225056   2.189   4.112   2.159  1.6054  0.6519 -3.0898
 4475SOL     OW25057   1.665   1.531   3.540  0.0798 -0.4737  0.1892
 4475SOL    HW125058   1.680   1.542   3.446  1.1634  1.8946  0.6475
 4475SOL    HW225059   1.594   1.466   3.542  0.0924 -0.6195 -3.5326
 4476SOL     OW25060   0.686   3.856   0.765 -0.0122 -0.1650  0.4551
 4476SOL    HW125061   0.776   3.866   0.797 -0.9230  0.5730  2.7929
 4476SOL    HW225062   0.646   3.921   0.823  0.8538  0.0025  0.8620
 4477SOL     OW25063   1.735   1.415   4.518  0.4086  0.1353  0.0312
 4477SOL    HW125064   1.684   1.450   4.446  0.4581  1.6327  0.7168
 4477SOL    HW225065   1.812   1.376   4.477  1.4520  1.6369  0.5460
 4478SOL     OW25066   2.986   1.498  15.386  0.4055 -0.1075 -0.8022
 4478SOL    HW125067   3.055   1.560  15.411 -0.4927  0.3759  0.4924
 4478SOL    HW225068   3.036   1.446  15.324  1.7413 -0.2191  0.3628
 4479SOL     OW25069   3.025   2.930   6.439 -0.2790 -0.1198  0.0042
 4479SOL    HW125070   2.990   2.878   6.366  1.0402  1.0807 -1.4971
 4479SOL    HW225071   3.106   2.889   6.468  0.1316  1.1696  0.6793
 4480SOL     OW25072   0.901   4.022   3.791  0.2064  0.0045 -0.0056
 4480SOL    HW125073   0.961   4.092   3.766 -1.3572  1.6623  0.8865
 4480SOL    HW225074   0.944   3.982   3.866 -2.1868 -2.9921 -0.2182
 4481SOL     OW25075   0.088   3.123  14.547  0.6832  0.0492 -0.4325
 4481SOL    HW125076   0.151   3.164  14.488 -0.5472 -0.0885 -1.8414
 4481SOL    HW225077   0.144   3.115  14.625 -1.3000  1.6675  1.1722
 4482SOL     OW25078   4.000   4.194   2.855  0.6559  0.0259  0.0943
 4482SOL    HW125079   3.922   4.232   2.896  2.1552  1.7117  1.3757
 4482SOL    HW225080   4.060   4.164   2.923  0.0012  1.4146  1.2805
 4483SOL     OW25081   3.249   4.273   5.161 -0.1787  0.3281 -0.0719
 4483SOL    HW125082   3.288   4.304   5.242  1.3689 -2.2065  0.1585
 4483SOL    HW225083   3.225   4.349   5.109  2.8858  0.4285 -1.3320
 4484SOL     OW25084   1.306   2.575   1.215  0.3035  0.1810 -0.3407
 4484SOL    HW125085   1.388   2.535   1.247  0.0503  0.1112  0.2262
 4484SOL    HW225086   1.242   2.519   1.259 -0.4857  1.3375 -0.0436
 4485SOL     OW25087   3.907   3.121  13.312  0.3400  0.2396  0.2533
 4485SOL    HW125088   3.930   3.209  13.282  0.9090 -0.2675 -0.7878
 4485SOL    HW225089   3.811   3.126  13.313  0.1752 -3.1880  0.1215
 4486SOL     OW25090   3.473   4.712   1.372  0.1440  0.6807  0.6778
 4486SOL    HW125091   3.483   4.644   1.439 -0.6912 -2.8196 -2.7631
 4486SOL    HW225092   3.382   4.703   1.344 -0.3240  1.5252  1.9721
 4487SOL     OW25093   2.254   3.968   0.105 -0.5739  0.3679  0.1214
 4487SOL    HW125094   2.338   4.004   0.077  1.1034 -2.5136  1.5981
 4487SOL    HW225095   2.271   3.877   0.084  1.1391  0.9917 -1.1861
 4488SOL     OW25096   1.274   1.624  16.052  0.3266 -1.1221 -0.4117
 4488SOL    HW125097   1.351   1.599  16.104 -0.4143 -2.1405  0.1923
 4488SOL    HW225098   1.257   1.542  16.006 -3.6722 -0.7821  0.5198
 4489SOL     OW25099   1.897   2.060   6.004 -0.4448 -0.5893  0.6852
 4489SOL    HW125100   1.829   2.122   6.031  2.5685  2.7900  0.5408
 4489SOL    HW225101   1.843   1.982   5.992  0.7975 -1.2063 -0.8638
 4490SOL     OW25102   4.507   1.023   8.635  0.0346  0.8045  0.2319
 4490SOL    HW125103   4.514   1.086   8.563  0.9714 -0.4475 -0.7621
 4490SOL    HW225104   4.467   1.075   8.705  0.9672  3.2801 -1.0851
 4491SOL     OW25105   0.725   2.893   6.766 -0.3629 -0.2612  0.1859
 4491SOL    HW125106   0.650   2.851   6.724 -0.9969  0.6669  0.3881
 4491SOL    HW225107   0.733   2.842   6.846  3.3325  0.3431  0.1895
 4492SOL     OW25108   3.451   2.022  17.638 -0.4215 -0.5929 -0.3203
 4492SOL    HW125109   3.426   1.978  17.556  1.8408 -1.8138 -0.3737
 4492SOL    HW225110   3.408   1.975  17.710 -1.7441  0.6184 -0.3236
 4493SOL     OW25111   0.247   2.963  14.790  0.3047  0.3025  0.3537
 4493SOL    HW125112   0.302   3.019  14.845  1.6245 -1.5216  0.8803
 4493SOL    HW225113   0.303   2.903  14.741  2.0473  1.4570  0.9347
 4494SOL     OW25114   1.935   2.712   2.404  0.3387 -0.4409  0.3064
 4494SOL    HW125115   1.922   2.662   2.324  2.1605 -0.8196  0.2509
 4494SOL    HW225116   1.925   2.638   2.464  2.6243 -2.4838 -1.8452
 4495SOL     OW25117   3.763   0.481  13.932 -0.0597  0.7881 -0.2121
 4495SOL    HW125118   3.705   0.407  13.912  1.4790 -0.8209  1.2897
 4495SOL    HW225119   3.723   0.540  13.868  1.1476  2.8614  0.9565
 4496SOL     OW25120   4.013   0.695   2.239 -0.1319  0.5158  0.0404
 4496SOL    HW125121   3.951   0.745   2.292 -1.0861  1.1710 -1.7231
 4496SOL    HW225122   4.016   0.610   2.284  0.2305  0.8378  0.6279
 4497SOL     OW25123   2.806   2.883   1.913  0.2573 -0.1908  0.4693
 4497SOL    HW125124   2.842   2.889   2.001  2.0578  0.1903 -0.2818
 4497SOL    HW225125   2.883   2.907   1.861  0.2443 -2.1600 -0.4551
 4498SOL     OW25126   2.465   4.149  12.528 -0.1068  0.5246  0.2139
 4498SOL    HW125127   2.389   4.117  12.478  1.1887 -1.8394 -0.2430
 4498SOL    HW225128   2.520   4.177  12.454  1.4574 -3.5641 -0.1501
 4499SOL     OW25129   3.370   0.003   8.252  0.2013  0.0906 -0.1973
 4499SOL    HW125130   3.301   4.672   8.249  0.4292 -0.1215 -0.8007
 4499SOL    HW225131   3.403   4.723   8.164 -0.4093 -0.3341 -0.3507
 4500SOL     OW25132   0.110   3.039   3.624  0.4662  0.6145 -0.1882
 4500SOL    HW125133   0.077   2.974   3.562  0.7919 -0.8087  1.1046
 4500SOL    HW225134   0.026   3.054   3.668  0.0713  0.7751 -1.0012
 4501SOL     OW25135   1.539   1.366   8.891 -0.4094 -0.7272  0.2584
 4501SOL    HW125136   1.476   1.300   8.862 -1.0298  0.3323 -0.8512
 4501SOL    HW225137   1.511   1.373   8.982  3.4212 -2.0169  1.5284
 4502SOL     OW25138   1.868   1.720   2.445  0.6015 -0.0708 -0.0748
 4502SOL    HW125139   1.875   1.634   2.486  2.1397  0.5082  0.8563
 4502SOL    HW225140   1.958   1.727   2.414  1.2067  1.4664  2.1067
 4503SOL     OW25141   3.053   4.165  13.558 -0.0531 -0.0528  0.0534
 4503SOL    HW125142   3.026   4.214  13.636  1.9739 -1.3503  1.6033
 4503SOL    HW225143   2.987   4.097  13.543 -1.4026  0.7863  2.0773
 4504SOL     OW25144   2.165   0.215   6.377 -0.2081  0.0553  0.0531
 4504SOL    HW125145   2.150   0.122   6.394 -1.1125 -0.3043 -2.6033
 4504SOL    HW225146   2.170   0.216   6.281  0.5515  0.0817  0.0891
 4505SOL     OW25147   2.646   2.685  15.899  0.1578  0.5805 -0.3073
 4505SOL    HW125148   2.614   2.729  15.821 -2.1232  0.2920  0.4541
 4505SOL    HW225149   2.724   2.731  15.929 -0.8956  1.7183  0.6835
 4506SOL     OW25150   2.671   3.367  13.361 -0.6099 -0.1544 -0.5618
 4506SOL    HW125151   2.682   3.409  13.276  0.4201  0.1375 -0.2763
 4506SOL    HW225152   2.584   3.403  13.380  0.0729  0.5222  1.2849
 4507SOL     OW25153   4.636   2.853  16.111  0.4334 -0.0099  0.0261
 4507SOL    HW125154   4.540   2.849  16.111  0.4546 -0.1735  3.3874
 4507SOL    HW225155   4.650   2.856  16.206  1.1854 -2.6152  0.0135
 4508SOL     OW25156   3.335   0.681   2.379  0.1144  0.1423 -0.0482
 4508SOL    HW125157   3.403   0.748   2.375  0.2897  0.0087  0.6483
 4508SOL    HW225158   3.320   0.643   2.466 -1.7557 -1.1636 -0.9353
 4509SOL     OW25159   4.342   0.352   6.447 -0.2388  0.4731 -0.0887
 4509SOL    HW125160   4.393   0.307   6.514  1.3334  0.3724 -1.3552
 4509SOL    HW225161   4.252   0.334   6.474  0.2679 -0.5513  0.8864
 4510SOL     OW25162   1.685   2.638   3.064 -0.2534  0.0200  0.7951
 4510SOL    HW125163   1.603   2.593   3.085 -2.1246  2.3144 -1.5244
 4510SOL    HW225164   1.713   2.585   2.990 -0.1616  0.4613  0.5163
 4511SOL     OW25165   2.726   3.821   5.338  0.2519  0.3963 -0.5539
 4511SOL    HW125166   2.723   3.911   5.371  0.8800  0.7946 -1.5775
 4511SOL    HW225167   2.754   3.765   5.411  1.1652  0.8512 -0.5536
 4512SOL     OW25168   3.104   0.750  12.397  0.0466 -0.0243  0.5940
 4512SOL    HW125169   3.023   0.752  12.448 -2.0609  0.5269 -2.7732
 4512SOL    HW225170   3.153   0.781  12.473  2.0128 -0.1405 -0.6477
 4513SOL     OW25171   3.821   1.464  17.420 -0.5063 -0.6806 -0.6821
 4513SOL    HW125172   3.912   1.439  17.401  0.6917  2.5539  0.7002
 4513SOL    HW225173   3.789   1.505  17.340  1.0745  0.1556 -0.9006
 4514SOL     OW25174   4.435   4.539   1.201 -0.0714  0.1231 -0.1847
 4514SOL    HW125175   4.484   4.553   1.120  1.2862 -1.0686  0.4496
 4514SOL    HW225176   4.445   4.444   1.198 -1.2291 -0.0643  1.7302
 4515SOL     OW25177   2.413   1.795   9.691 -0.6883  0.2967 -0.9303
 4515SOL    HW125178   2.431   1.837   9.775  0.9276 -2.5062  0.1263
 4515SOL    HW225179   2.503   1.767   9.675 -0.4747 -0.1267  0.9921
 4516SOL     OW25180   3.969   1.502   7.975  0.1921  0.1093 -0.4962
 4516SOL    HW125181   4.022   1.524   7.899  0.9849 -0.7430 -0.1895
 4516SOL    HW225182   3.949   1.411   7.952  1.3899 -0.2456 -0.0915
 4517SOL     OW25183   0.820   3.896   6.254  0.5992  0.1622 -0.1140
 4517SOL    HW125184   0.784   3.984   6.245 -1.3830 -0.6483 -0.0802
 4517SOL    HW225185   0.809   3.859   6.166 -0.1540 -1.1691  0.5320
 4518SOL     OW25186   1.878   2.051   3.795  0.6601 -0.2194 -0.1107
 4518SOL    HW125187   1.949   2.111   3.820  1.8734 -0.6934 -2.3994
 4518SOL    HW225188   1.904   2.016   3.709 -1.2746  2.5556 -1.8363
 4519SOL     OW25189   4.029   0.688   6.945  0.4968 -0.1275  0.3428
 4519SOL    HW125190   4.003   0.600   6.918 -1.3478 -0.6302  3.8293
 4519SOL    HW225191   3.954   0.732   6.905  1.2938  3.7399  3.1209
 4520SOL     OW25192   1.859   3.058  12.501  0.1181  0.1358  0.8684
 4520SOL    HW125193   1.847   3.096  12.414 -1.6423 -0.7789  0.7007
 4520SOL    HW225194   1.839   2.965  12.486  1.3776  0.1191 -0.7326
 4521SOL     OW25195   0.999   0.108   1.886  0.1330  0.3865 -0.1471
 4521SOL    HW125196   1.029   0.023   1.854 -2.3301 -0.8329  0.8449
 4521SOL    HW225197   1.033   0.168   1.819 -0.7025  0.9850 -0.0404
 4522SOL     OW25198   1.554   2.214   7.426  0.0790 -0.6626  0.1584
 4522SOL    HW125199   1.630   2.268   7.404 -0.2685 -1.4882 -3.0028
 4522SOL    HW225200   1.592   2.142   7.477  1.5830  0.4616  0.6099
 4523SOL     OW25201   2.063   0.394   2.860  0.0289  0.1151  0.2999
 4523SOL    HW125202   2.157   0.392   2.881 -0.4448 -0.4391  2.3017
 4523SOL    HW225203   2.037   0.320   2.914  1.2076  0.4299  1.2993
 4524SOL     OW25204   3.918   1.879   0.421  0.5648  0.1091 -0.1166
 4524SOL    HW125205   3.836   1.839   0.390  0.9175 -0.1929 -0.6763
 4524SOL    HW225206   3.989   1.815   0.420 -2.7019 -3.5276  1.3798
 4525SOL     OW25207   0.377   1.605  10.114 -0.1647  0.5522  0.7594
 4525SOL    HW125208   0.407   1.692  10.088 -1.7782  1.5218  2.0923
 4525SOL    HW225209   0.286   1.605  10.085  0.1752 -1.4849 -0.3155
 4526SOL     OW25210   3.212   2.059   0.377  0.8125  0.0739 -0.2473
 4526SOL    HW125211   3.193   1.970   0.348  1.6685 -0.3089  0.3682
 4526SOL    HW225212   3.125   2.098   0.366  0.4380 -0.1940  1.6162
 4527SOL     OW25213   1.733   2.241   6.083 -0.0948 -0.5585 -0.1005
 4527SOL    HW125214   1.678   2.210   6.155 -0.4585 -2.5023 -1.2119
 4527SOL    HW225215   1.798   2.296   6.126 -0.2320 -1.6607  1.5199
 4528SOL     OW25216   3.603   1.558   1.566  0.0063  0.0630 -0.6726
 4528SOL    HW125217   3.619   1.589   1.477  2.3908  1.1966  0.1580
 4528SOL    HW225218   3.509   1.576   1.573 -0.0151  0.0420 -0.8825
 4529SOL     OW25219   0.413   2.301   1.140 -0.4645 -0.2028  0.7588
 4529SOL    HW125220   0.342   2.356   1.107 -1.0815 -1.1575  0.4967
 4529SOL    HW225221   0.378   2.215   1.161  0.4640 -0.6075  0.6206
 4530SOL     OW25222   0.121   0.396   7.943  0.2253  0.0789 -0.2467
 4530SOL    HW125223   0.187   0.370   7.880 -0.4364 -0.3493 -0.7599
 4530SOL    HW225224   0.046   0.419   7.887 -0.8720 -2.5384  0.1644
 4531SOL     OW25225   2.549   2.484   1.655 -0.3883  0.3823 -0.1223
 4531SOL    HW125226   2.623   2.539   1.682 -0.0908 -0.0258 -0.1153
 4531SOL    HW225227   2.550   2.510   1.563 -2.8939 -1.1889 -0.5937
 4532SOL     OW25228   2.157   1.754   6.443  0.3887 -0.2214 -0.1844
 4532SOL    HW125229   2.214   1.695   6.395 -1.5384 -0.6638 -1.9293
 4532SOL    HW225230   2.085   1.694   6.464 -0.5726  0.6996 -0.8643
 4533SOL     OW25231   1.187   4.657   1.035  0.8270 -0.4020 -0.3184
 4533SOL    HW125232   1.141   4.669   0.952  0.3386  1.4720  0.2165
 4533SOL    HW225233   1.243   4.735   1.033 -0.3299  0.3759 -2.5837
 4534SOL     OW25234   4.498   1.168   5.904  0.0315  0.1447  0.2648
 4534SOL    HW125235   4.565   1.099   5.899 -1.3115 -1.2333  1.1123
 4534SOL    HW225236   4.413   1.129   5.882 -0.3321  0.6211  0.8482
 4535SOL     OW25237   1.913   3.286   2.240 -0.2846 -0.0549 -0.2359
 4535SOL    HW125238   2.004   3.282   2.209 -0.1647 -0.5032  0.1633
 4535SOL    HW225239   1.910   3.367   2.292 -0.2271  0.5559 -1.1816
 4536SOL     OW25240   3.386   4.201   0.797 -0.2011 -0.3077  0.7457
 4536SOL    HW125241   3.431   4.278   0.831 -1.0420  0.3360  0.4057
 4536SOL    HW225242   3.461   4.156   0.757  0.0260  0.9568 -0.2440
 4537SOL     OW25243   0.170   2.921  14.375  0.6549 -0.5893  0.2939
 4537SOL    HW125244   0.135   2.979  14.306  0.0232 -1.6298 -0.2566
 4537SOL    HW225245   0.141   2.960  14.457  1.3290 -1.3114  0.8755
 4538SOL     OW25246   0.706   1.261   6.060  0.3914  0.1691 -0.1338
 4538SOL    HW125247   0.708   1.316   5.982  3.0334 -0.3892 -0.4695
 4538SOL    HW225248   0.735   1.323   6.127 -0.6814 -0.2581  0.7399
 4539SOL     OW25249   0.331   2.762  14.223 -0.2571  0.3840 -0.0890
 4539SOL    HW125250   0.296   2.800  14.143  1.3961  1.0440 -0.4844
 4539SOL    HW225251   0.278   2.812  14.286 -1.7623 -0.4703 -0.6877
 4540SOL     OW25252   1.883   2.646   3.543  0.0805  0.4743 -0.3206
 4540SOL    HW125253   1.829   2.723   3.523  0.6139  0.5943 -1.3211
 4540SOL    HW225254   1.878   2.590   3.465  1.2182 -1.6072  1.1209
 4541SOL     OW25255   1.881   2.158   5.435  0.5215  0.6258  0.0943
 4541SOL    HW125256   1.790   2.156   5.404  0.7450 -0.8719 -0.4877
 4541SOL    HW225257   1.879   2.082   5.492  2.1365 -0.1567 -0.8970
 4542SOL     OW25258   0.915   3.883  11.486  0.1606  0.0266  0.2713
 4542SOL    HW125259   0.845   3.830  11.448 -1.3273  1.9957  0.2648
 4542SOL    HW225260   0.908   3.876  11.581  0.4194 -0.0764  0.2833
 4543SOL     OW25261   1.877   1.934   3.445  0.2305  0.4053 -0.3925
 4543SOL    HW125262   1.786   1.943   3.471  1.1931  0.3315  2.9121
 4543SOL    HW225263   1.873   1.913   3.351 -2.0667 -0.7595 -0.0299
 4544SOL     OW25264   4.462   1.611   6.214  0.0373  0.4706  0.4879
 4544SOL    HW125265   4.403   1.548   6.255 -0.8754  1.9470  1.4480
 4544SOL    HW225266   4.544   1.562   6.212 -1.0959 -1.3891 -0.1127
 4545SOL     OW25267   0.340   0.436   3.386  0.2971 -0.2701  0.2429
 4545SOL    HW125268   0.391   0.370   3.433  0.1187 -0.7854 -0.2797
 4545SOL    HW225269   0.383   0.434   3.300 -1.7014 -1.6051 -0.7129
 4546SOL     OW25270   3.366   0.612   1.623 -0.0435 -0.2515 -0.5928
 4546SOL    HW125271   3.299   0.574   1.566  0.2763 -0.8176 -0.5961
 4546SOL    HW225272   3.384   0.701   1.594 -0.0869  1.0392  3.4065
 4547SOL     OW25273   0.977   2.296   9.092 -0.3188 -0.3159 -0.3752
 4547SOL    HW125274   1.012   2.261   9.011 -1.8279  0.7648 -1.4954
 4547SOL    HW225275   0.953   2.388   9.080 -2.4746 -0.8091  0.0859
 4548SOL     OW25276   0.978   3.253   4.809  0.1428 -0.2051  0.2185
 4548SOL    HW125277   1.027   3.245   4.727  1.8207  0.2274  1.1716
 4548SOL    HW225278   0.894   3.210   4.796 -0.4108  0.4634  1.6127
 4549SOL     OW25279   1.114   0.631   7.743  0.0517  0.1961 -0.1327
 4549SOL    HW125280   1.156   0.668   7.820 -1.1925 -2.0524  1.6488
 4549SOL    HW225281   1.071   0.557   7.787  0.3030 -0.0225 -0.2549
 4550SOL     OW25282   1.241   0.194   4.204  0.0498  0.1692  0.6218
 4550SOL    HW125283   1.229   0.117   4.148 -0.2861  1.7619 -1.5199
 4550SOL    HW225284   1.232   0.269   4.145 -3.1273  0.4118  1.4437
 4551SOL     OW25285   0.532   1.571  13.080 -0.5990 -0.2992  0.3661
 4551SOL    HW125286   0.569   1.641  13.027  0.5161 -0.6646  0.6460
 4551SOL    HW225287   0.602   1.506  13.086  1.2361  1.5193 -1.7598
 4552SOL     OW25288   2.086   2.233  10.224  0.2246  0.3251 -0.3525
 4552SOL    HW125289   2.001   2.230  10.269 -0.0986 -0.2932 -1.0098
 4552SOL    HW225290   2.141   2.281  10.287  1.3749 -1.2949 -0.1356
 4553SOL     OW25291   1.595   1.446   7.106 -0.1869 -0.1503 -0.1476
 4553SOL    HW125292   1.643   1.474   7.184 -1.0500 -1.2985  0.7948
 4553SOL    HW225293   1.504   1.466   7.129 -0.6312 -2.3009 -0.0541
 4554SOL     OW25294   4.579   0.599   3.417  0.2836 -0.2085  0.0996
 4554SOL    HW125295   4.528   0.524   3.449 -1.5832  0.5278 -1.1462
 4554SOL    HW225296   4.670   0.576   3.433 -0.1640 -2.0800 -0.0350
 4555SOL     OW25297   2.638   0.396   2.152 -1.1161 -0.0842  0.1472
 4555SOL    HW125298   2.705   0.447   2.106 -1.5294 -0.3107 -0.7043
 4555SOL    HW225299   2.656   0.314   2.106 -1.1895 -0.9914  1.7700
 4556SOL     OW25300   3.827   3.941  10.926  0.0883 -0.0154  0.0868
 4556SOL    HW125301   3.881   3.972  10.999  0.4569  2.1659 -1.1456
 4556SOL    HW225302   3.819   3.846  10.940  0.2271 -0.4444 -2.8615
 4557SOL     OW25303   4.160   1.368   5.850  0.4814  0.4836  0.0252
 4557SOL    HW125304   4.253   1.391   5.858  0.4543  0.5025  0.3051
 4557SOL    HW225305   4.117   1.452   5.867  0.9445  1.2224 -2.5136
 4558SOL     OW25306   4.199   0.968  10.387  0.4425 -0.0542  0.1186
 4558SOL    HW125307   4.269   0.920  10.342 -1.3045 -1.5838 -0.9843
 4558SOL    HW225308   4.256   1.042  10.409  0.2782  0.5428 -1.4677
 4559SOL     OW25309   1.951   2.791  11.940 -0.3272 -0.0294  0.0631
 4559SOL    HW125310   1.859   2.809  11.961 -0.2631 -0.2933  0.5757
 4559SOL    HW225311   1.981   2.856  12.003  1.6068 -0.5281 -0.3506
 4560SOL     OW25312   1.096   3.460   0.354 -0.0417 -0.1717 -0.5476
 4560SOL    HW125313   1.068   3.476   0.264 -0.3103  1.4552 -0.1788
 4560SOL    HW225314   1.192   3.454   0.351 -0.1956 -1.3592 -3.4082
 4561SOL     OW25315   3.631   0.403   7.037 -0.0151  0.2063 -0.5371
 4561SOL    HW125316   3.610   0.489   7.002 -0.7572 -0.4773 -1.7819
 4561SOL    HW225317   3.661   0.414   7.127  0.2725  0.6253 -0.6867
 4562SOL     OW25318   4.190   0.860   3.404 -0.1932 -0.2904  0.1776
 4562SOL    HW125319   4.152   0.869   3.491  1.5783  1.1545  0.7847
 4562SOL    HW225320   4.281   0.844   3.428 -0.2236 -0.3525  0.2486
 4563SOL     OW25321   0.170   2.723  16.590  0.1105 -0.0574 -0.0521
 4563SOL    HW125322   0.140   2.800  16.639  0.5761  0.5408 -0.7048
 4563SOL    HW225323   0.203   2.669  16.662 -3.1789 -2.5082 -0.4040
 4564SOL     OW25324   2.923   0.281  14.849  0.2890  0.1941 -0.6562
 4564SOL    HW125325   2.945   0.188  14.841 -1.1665 -0.3532  1.4064
 4564SOL    HW225326   2.832   0.281  14.818 -0.4682 -0.0032  1.5594
 4565SOL     OW25327   3.380   4.172   4.521 -0.5624 -0.0655  0.4555
 4565SOL    HW125328   3.330   4.212   4.449 -0.8256  2.6663  2.1477
 4565SOL    HW225329   3.331   4.200   4.598  0.4582  0.5034  0.8974
 4566SOL     OW25330   4.240   3.861   3.686  0.3176 -0.3158 -0.1479
 4566SOL    HW125331   4.332   3.870   3.710  0.8367 -0.9907 -1.8472
 4566SOL    HW225332   4.240   3.943   3.636  1.5387 -0.9106 -1.1141
 4567SOL     OW25333   3.404   2.557   0.205  0.1381 -0.0608  0.4508
 4567SOL    HW125334   3.377   2.487   0.264  0.2680 -1.3928 -1.0741
 4567SOL    HW225335   3.498   2.560   0.226  0.6495 -1.2417 -1.6338
 4568SOL     OW25336   1.558   3.410   8.446 -0.2264  0.0885  0.3810
 4568SOL    HW125337   1.589   3.494   8.481  0.4324  0.5856 -1.3844
 4568SOL    HW225338   1.639   3.360   8.438  1.4192  3.1574 -2.2219
 4569SOL     OW25339   1.203   0.205  15.132  0.2718  0.4787 -0.1007
 4569SOL    HW125340   1.214   0.281  15.190 -0.2166  0.0362  0.5689
 4569SOL    HW225341   1.109   0.216  15.117  0.2188  3.5332  2.3872
 4570SOL     OW25342   3.190   0.552   6.544 -0.0334  0.4013  0.0964
 4570SOL    HW125343   3.117   0.587   6.594 -0.1093  2.5973 -1.5374
 4570SOL    HW225344   3.189   0.598   6.460 -2.7324  1.2162  0.5627
 4571SOL     OW25345   3.749   2.672   4.901  0.0212  0.0977  0.6128
 4571SOL    HW125346   3.830   2.630   4.930 -0.4864 -2.3285 -1.4662
 4571SOL    HW225347   3.695   2.648   4.977  1.7777 -1.6649  1.3345
 4572SOL     OW25348   1.725   1.179   7.592  0.0946 -0.0281 -0.3309
 4572SOL    HW125349   1.811   1.176   7.634  0.1282 -0.9035 -0.4627
 4572SOL    HW225350   1.703   1.086   7.587 -1.5534  0.2514  1.8769
 4573SOL     OW25351   2.892   0.737   2.305  0.7506  0.2596 -0.1380
 4573SOL    HW125352   2.897   0.680   2.382  0.3501  0.5319  0.0906
 4573SOL    HW225353   2.828   0.804   2.329  1.3616 -0.6220  3.9209
 4574SOL     OW25354   1.152   3.936   3.590 -0.1691  0.0656  0.6127
 4574SOL    HW125355   1.220   3.897   3.644  0.3226  0.4458  0.2581
 4574SOL    HW225356   1.095   3.975   3.656 -3.4695 -2.6194 -0.6496
 4575SOL     OW25357   2.199   2.108   6.249  0.2901  0.2229  0.6639
 4575SOL    HW125358   2.114   2.064   6.237  1.4320 -2.1374  1.3086
 4575SOL    HW225359   2.259   2.038   6.222  0.6853  0.1934  1.6516
 4576SOL     OW25360   1.220   1.780   1.652  0.4445 -0.5031 -0.3362
 4576SOL    HW125361   1.299   1.813   1.607  0.6532 -1.8936 -1.0003
 4576SOL    HW225362   1.240   1.687   1.662  1.5291  0.1592  3.5899
 4577SOL     OW25363   3.670   4.452   3.876  0.4438 -0.1630 -0.3035
 4577SOL    HW125364   3.725   4.440   3.798  0.3996 -1.7225 -0.0825
 4577SOL    HW225365   3.738   4.459   3.942  0.6172  0.7836 -0.5801
 4578SOL     OW25366   1.097   3.492   1.912  0.3219 -0.8434  0.2087
 4578SOL    HW125367   1.075   3.413   1.864 -0.5099 -0.1119 -0.6148
 4578SOL    HW225368   1.048   3.482   1.994  0.1108 -1.1221  0.0468
 4579SOL     OW25369   3.416   0.016   7.666 -0.5571  0.2712  0.9839
 4579SOL    HW125370   3.374   4.733   7.750  1.7156 -2.3141  1.5622
 4579SOL    HW225371   3.509   4.735   7.683 -0.1985  1.3960  0.1097
 4580SOL     OW25372   3.470   2.487   5.369 -0.1875  0.6064 -0.2630
 4580SOL    HW125373   3.566   2.486   5.377 -0.1370  1.3708 -0.6994
 4580SOL    HW225374   3.467   2.514   5.461  0.2925 -0.2796  0.0125
 4581SOL     OW25375   4.656   2.634   8.022 -0.2380 -0.3862  0.2619
 4581SOL    HW125376   4.603   2.702   7.981 -0.5491 -1.6133 -1.3663
 4581SOL    HW225377   4.583   2.602   8.075  0.0973  0.6482  1.3534
 4582SOL     OW25378   1.576   3.188  13.267  0.2180  0.1094  0.1553
 4582SOL    HW125379   1.481   3.195  13.261  0.1056 -3.3764 -2.5120
 4582SOL    HW225380   1.588   3.128  13.341  1.5042 -0.5376 -0.5674
 4583SOL     OW25381   0.940   3.124   5.213  0.5702 -0.0474  0.3221
 4583SOL    HW125382   0.998   3.048   5.219  0.2803 -0.2767  0.2542
 4583SOL    HW225383   0.901   3.129   5.301 -2.5210  1.2865 -1.1307
 4584SOL     OW25384   3.044   2.438   6.197 -0.3128  0.1511 -0.6255
 4584SOL    HW125385   2.985   2.415   6.125  0.5647  1.6428 -1.8107
 4584SOL    HW225386   3.008   2.381   6.265  0.3752  0.2249 -0.1967
 4585SOL     OW25387   1.858   1.078   6.504  0.0559 -0.7079 -0.1752
 4585SOL    HW125388   1.863   1.020   6.580 -2.5708  0.9413  1.2686
 4585SOL    HW225389   1.788   1.039   6.450 -1.2244  1.3306  0.0364
 4586SOL     OW25390   4.724   2.091   6.728  0.3967  0.3392 -0.3542
 4586SOL    HW125391   0.012   2.039   6.651  0.2274 -0.0268 -0.1587
 4586SOL    HW225392   0.062   2.150   6.747  2.8590 -2.8783  0.2150
 4587SOL     OW25393   3.562   4.139   6.978  0.0066  0.9997 -0.0223
 4587SOL    HW125394   3.497   4.194   6.933 -0.5432  1.7987  1.7545
 4587SOL    HW225395   3.525   4.140   7.066  3.0104 -2.2421  1.2576
 4588SOL     OW25396   2.953   2.107   6.505 -0.2415  0.3536  0.0618
 4588SOL    HW125397   3.042   2.093   6.538 -0.9541 -1.1521  1.3548
 4588SOL    HW225398   2.910   2.051   6.571  1.3288 -2.0643 -0.9920
 4589SOL     OW25399   3.931   0.913  12.135  0.0042 -0.1967  0.4930
 4589SOL    HW125400   3.913   0.971  12.208  0.3667  0.0954  0.3470
 4589SOL    HW225401   3.856   0.927  12.077 -2.4616  0.8416  3.9532
 4590SOL     OW25402   2.222   4.092   5.811  0.4085  0.1221 -0.0873
 4590SOL    HW125403   2.205   4.168   5.756 -2.2548  0.3447  1.0487
 4590SOL    HW225404   2.316   4.078   5.800  0.5900  1.6008 -0.3184
 4591SOL     OW25405   0.206   3.542   6.150 -0.0018  0.0072  0.0364
 4591SOL    HW125406   0.274   3.580   6.206 -0.6040  0.3019  0.5644
 4591SOL    HW225407   0.131   3.596   6.175  0.5823  0.7790  0.1374
 4592SOL     OW25408   3.407   0.015   4.578 -0.5806 -0.1301  0.1066
 4592SOL    HW125409   3.403   4.684   4.646  0.3891  0.1078  0.4078
 4592SOL    HW225410   3.443   0.090   4.625 -1.1232  0.1980 -0.0044
 4593SOL     OW25411   1.769   0.230   9.183  0.0140 -1.1090  0.3932
 4593SOL    HW125412   1.761   0.249   9.090 -0.5350 -2.0888  0.2430
 4593SOL    HW225413   1.846   0.275   9.217 -0.5451 -0.2467  0.5116
 4594SOL     OW25414   3.262   0.877  16.131  0.4828  0.0802  0.3510
 4594SOL    HW125415   3.327   0.819  16.094 -1.5000 -2.4992  0.8837
 4594SOL    HW225416   3.276   0.959  16.084 -0.5865  0.5499  0.8248
 4595SOL     OW25417   0.124   2.130   1.753 -0.4176  0.1892 -0.5518
 4595SOL    HW125418   0.157   2.119   1.842 -1.2443  0.6088 -0.1979
 4595SOL    HW225419   0.171   2.063   1.703 -0.6305  0.4372 -1.0798
 4596SOL     OW25420   4.210   0.537  16.199  0.0871  0.1536  0.7553
 4596SOL    HW125421   4.244   0.556  16.287  2.1961 -1.7281  0.3384
 4596SOL    HW225422   4.193   0.621  16.156  0.9954 -1.4787 -2.7669
 4597SOL     OW25423   3.595   1.072   8.617 -0.2417  0.2123 -0.0308
 4597SOL    HW125424   3.687   1.086   8.597 -0.6070  3.0287  0.1499
 4597SOL    HW225425   3.557   1.160   8.620 -0.0196  0.2972  0.2614
 4598SOL     OW25426   0.014   1.037   4.958 -0.2583 -0.2100 -0.0550
 4598SOL    HW125427   0.045   1.128   4.958  1.2165 -0.6998 -1.2729
 4598SOL    HW225428   0.072   0.999   4.892  0.4886  3.2885 -1.4249
 4599SOL     OW25429   3.212   4.537   3.103 -0.2755  0.1743 -0.8788
 4599SOL    HW125430   3.263   4.618   3.108 -0.8855  0.4447  1.1556
 4599SOL    HW225431   3.164   4.541   3.186 -2.0560  0.5881 -1.9474
 4600SOL     OW25432   4.347   0.573   6.992 -0.2187  0.1880 -0.3165
 4600SOL    HW125433   4.319   0.483   7.012 -0.5513  0.5080  0.6340
 4600SOL    HW225434   4.313   0.596   6.906  0.2255  0.8608 -0.3127
 4601SOL     OW25435   0.294   0.306   0.590 -0.3160  0.0564 -0.0225
 4601SOL    HW125436   0.293   0.223   0.542  1.5507 -0.8805  1.5671
 4601SOL    HW225437   0.220   0.291   0.648 -0.5395  0.5512 -0.1830
 4602SOL     OW25438   1.230   0.988   4.061 -0.3085  0.2388 -0.0746
 4602SOL    HW125439   1.252   1.061   4.119 -0.8704 -0.5328  1.1195
 4602SOL    HW225440   1.215   0.926   4.132  0.5962 -1.6969 -1.5874
 4603SOL     OW25441   3.283   0.879   4.401 -0.2642 -0.0469 -0.4556
 4603SOL    HW125442   3.245   0.915   4.321  0.5588  0.2748 -0.7007
 4603SOL    HW225443   3.218   0.901   4.468 -0.5030  0.7836 -0.9593
 4604SOL     OW25444   4.474   2.518   1.095  0.3171  0.5076 -0.1072
 4604SOL    HW125445   4.427   2.437   1.116 -1.1351  1.4269  0.2020
 4604SOL    HW225446   4.406   2.569   1.051 -0.9170  0.1021  1.3162
 4605SOL     OW25447   3.766   4.091   7.229  0.0737 -0.0649  0.3367
 4605SOL    HW125448   3.783   4.114   7.321 -0.3821 -1.8044  0.8473
 4605SOL    HW225449   3.705   4.018   7.238 -1.9273  1.5400 -0.2149
 4606SOL     OW25450   1.942   1.121  16.537 -0.3514  0.3004 -0.0736
 4606SOL    HW125451   1.867   1.173  16.565  0.0411  0.3929  0.8320
 4606SOL    HW225452   1.987   1.122  16.621  0.0911  0.1141 -0.3096
 4607SOL     OW25453   4.682   0.749   8.909 -0.0709 -0.3625  0.3525
 4607SOL    HW125454   4.717   0.722   8.824  2.2937 -0.7132  1.4640
 4607SOL    HW225455   4.595   0.710   8.898 -0.0200 -0.4428  0.2449
 4608SOL     OW25456   2.344   3.831   6.473  0.2024  0.4554  0.4880
 4608SOL    HW125457   2.362   3.740   6.451  0.0633  0.8344 -1.2241
 4608SOL    HW225458   2.304   3.873   6.396 -0.1338 -0.1150  0.3556
 4609SOL     OW25459   3.821   1.773   2.211  0.6601 -0.0395  0.0430
 4609SOL    HW125460   3.863   1.830   2.146  1.0506  0.3479  0.6358
 4609SOL    HW225461   3.732   1.769   2.177  0.3817  1.6653  0.5418
 4610SOL     OW25462   1.203   0.656  11.256 -0.0808 -0.3684  0.1690
 4610SOL    HW125463   1.194   0.619  11.168 -1.8342 -0.5581  0.4177
 4610SOL    HW225464   1.183   0.748  11.238  0.8534 -0.1606  0.2232
 4611SOL     OW25465   1.821   3.159  15.742  0.3660 -0.1984 -0.0659
 4611SOL    HW125466   1.807   3.252  15.761  2.0965 -0.3893  2.0720
 4611SOL    HW225467   1.766   3.118  15.809  0.7913 -2.7708 -1.3055
 4612SOL     OW25468   4.314   4.150   1.630  0.5389  0.1920  0.4301
 4612SOL    HW125469   4.226   4.115   1.615 -0.0068  0.4654  3.1289
 4612SOL    HW225470   4.315   4.137   1.724  0.0185 -0.5384  0.3327
 4613SOL     OW25471   1.585   0.310   5.659  0.7722  0.2197 -0.1233
 4613SOL    HW125472   1.646   0.302   5.586 -0.5053 -1.6036 -1.0077
 4613SOL    HW225473   1.529   0.382   5.630 -1.2042 -1.0442  0.5153
 4614SOL     OW25474   2.484   2.861   2.375  0.1104  0.7388  0.1389
 4614SOL    HW125475   2.479   2.935   2.315 -1.9479 -1.7678 -2.7430
 4614SOL    HW225476   2.391   2.851   2.397  0.3254  0.3076  0.8649
 4615SOL     OW25477   0.311   3.073   7.068 -0.4519 -0.4937 -0.0765
 4615SOL    HW125478   0.322   3.029   6.983 -1.9213 -1.4523  0.2253
 4615SOL    HW225479   0.215   3.080   7.065 -0.3804 -0.1341 -1.4500
 4616SOL     OW25480   3.729   4.094   0.415  0.7041 -0.5176  0.2525
 4616SOL    HW125481   3.801   4.054   0.463 -1.6778 -3.1530  1.6294
 4616SOL    HW225482   3.738   4.047   0.332 -0.3696  1.0821 -0.7796
 4617SOL     OW25483   1.441   2.694   7.794 -0.0401  0.0821 -0.3024
 4617SOL    HW125484   1.486   2.701   7.710 -0.8041  0.4580 -0.6786
 4617SOL    HW225485   1.511   2.690   7.860 -0.5839  0.2183  0.2854
 4618SOL     OW25486   4.303   1.033  17.548 -0.2431 -0.5916  0.6009
 4618SOL    HW125487   4.366   1.104  17.542 -0.6317 -0.4129 -1.2909
 4618SOL    HW225488   4.223   1.067  17.508  0.2278 -0.9195 -0.6080
 4619SOL     OW25489   3.678   2.585   0.215 -0.7513 -0.9326 -0.3154
 4619SOL    HW125490   3.700   2.508   0.164  1.3583 -0.6180  0.1340
 4619SOL    HW225491   3.717   2.659   0.169 -1.0130 -0.7209 -0.1998
 4620SOL     OW25492   1.659   4.139   3.575  0.4855  0.1002 -0.5681
 4620SOL    HW125493   1.668   4.115   3.483  0.6808  2.1442 -1.0883
 4620SOL    HW225494   1.656   4.235   3.571  2.0716  0.2837  2.2740
 4621SOL     OW25495   0.586   3.097   5.288 -0.0591 -0.5257  0.0783
 4621SOL    HW125496   0.505   3.071   5.333 -0.2224 -1.0881 -0.5427
 4621SOL    HW225497   0.624   3.016   5.253 -1.6821 -0.0807 -2.6273
 4622SOL     OW25498   0.065   3.545   8.112  0.3815 -0.0131  0.1236
 4622SOL    HW125499   0.017   3.587   8.042 -2.0570 -0.8875  1.2805
 4622SOL    HW225500   0.134   3.504   8.059  0.6671 -1.5862  1.7113
 4623SOL     OW25501   2.419   4.630   2.083  0.0091 -0.2620  0.2161
 4623SOL    HW125502   2.434   4.536   2.079  0.7374 -0.2127  1.8943
 4623SOL    HW225503   2.506   4.662   2.062  0.5719 -1.2168  1.0812
 4624SOL     OW25504   2.327   2.135   1.943  0.6121  0.2687  0.4307
 4624SOL    HW125505   2.365   2.203   1.888  1.7058  0.1874  1.0814
 4624SOL    HW225506   2.235   2.149   1.924  0.4911 -0.9429  0.0931
 4625SOL     OW25507   1.627   3.935   5.317 -0.3438 -0.0793  1.0008
 4625SOL    HW125508   1.667   4.021   5.302 -1.8994  0.3893 -0.4380
 4625SOL    HW225509   1.699   3.872   5.322 -0.7976 -0.6101  0.8239
 4626SOL     OW25510   0.482   1.195   9.034 -0.4806 -0.2908 -0.0560
 4626SOL    HW125511   0.529   1.222   8.955  0.6878 -2.3713 -0.0963
 4626SOL    HW225512   0.508   1.103   9.045 -1.2868 -0.8037 -2.5317
 4627SOL     OW25513   1.444   0.109   4.412  0.8987 -0.6562  0.0915
 4627SOL    HW125514   1.490   0.039   4.367  0.5128  0.8950 -2.7307
 4627SOL    HW225515   1.359   0.108   4.368  0.9577  0.3461 -0.0499
 4628SOL     OW25516   1.909   3.329   3.155 -0.0818  0.3939 -0.4124
 4628SOL    HW125517   1.848   3.261   3.181 -0.0729  0.2445 -0.7803
 4628SOL    HW225518   1.985   3.273   3.140 -0.9451 -0.7490 -0.4917
 4629SOL     OW25519   1.280   3.672   0.135 -0.4783 -0.2108 -0.1359
 4629SOL    HW125520   1.196   3.668   0.182 -1.6569 -1.7028 -2.3515
 4629SOL    HW225521   1.257   3.687   0.043 -1.0132  2.1392  0.3839
 4630SOL     OW25522   0.941   2.911   3.548  0.5063  0.0085  0.1821
 4630SOL    HW125523   0.863   2.865   3.518  0.2685  1.1128 -0.8729
 4630SOL    HW225524   1.006   2.891   3.481  0.4306 -4.2308  1.3793
 4631SOL     OW25525   0.482   3.186   3.082  0.8848 -1.0298  0.0396
 4631SOL    HW125526   0.528   3.129   3.143  3.7649 -0.6837 -1.8287
 4631SOL    HW225527   0.545   3.253   3.057 -0.2312 -0.2707 -0.7541
 4632SOL     OW25528   2.108   3.588   2.249 -0.0579 -0.6969  0.3536
 4632SOL    HW125529   2.057   3.554   2.321 -1.1332 -0.6375 -0.3842
 4632SOL    HW225530   2.143   3.501   2.232 -0.4110 -0.7830  0.0564
 4633SOL     OW25531   1.246   2.242  17.603 -0.2969  0.2759  0.1293
 4633SOL    HW125532   1.235   2.183  17.528 -0.1254  0.3658  0.0327
 4633SOL    HW225533   1.320   2.291  17.567  2.0885 -0.5048  3.9164
 4634SOL     OW25534   2.618   3.267   7.973  0.7252  0.1568 -0.9170
 4634SOL    HW125535   2.653   3.356   7.961 -0.2904  0.4420 -1.7735
 4634SOL    HW225536   2.544   3.276   7.913  0.6963  0.4740 -0.8355
 4635SOL     OW25537   4.005   4.423   4.490 -0.1250  0.1608 -0.1346
 4635SOL    HW125538   4.067   4.447   4.420  0.8077  0.1941  0.7028
 4635SOL    HW225539   3.928   4.467   4.455 -0.4699  0.9731  1.6696
 4636SOL     OW25540   3.252   2.693   4.631  0.2325  0.7232  0.4499
 4636SOL    HW125541   3.157   2.681   4.624  0.1259  1.6637  0.3943
 4636SOL    HW225542   3.255   2.750   4.708  2.2520 -1.7126  2.2076
 4637SOL     OW25543   1.297   1.711  10.518  0.1880  0.1853  0.5284
 4637SOL    HW125544   1.341   1.653  10.579  2.3342  2.2262  0.9301
 4637SOL    HW225545   1.315   1.669  10.434 -3.9656 -0.1331 -0.2015
 4638SOL     OW25546   2.414   0.822   4.246 -0.4569 -0.8015 -0.1480
 4638SOL    HW125547   2.349   0.865   4.302 -1.3085 -2.8941  0.4841
 4638SOL    HW225548   2.375   0.824   4.158 -0.8015 -0.7745  0.0074
 4639SOL     OW25549   4.397   0.759   9.212 -0.5033  0.0569 -0.5328
 4639SOL    HW125550   4.367   0.690   9.271 -0.9056 -2.2894 -3.4723
 4639SOL    HW225551   4.330   0.761   9.143  1.7424  1.3851 -2.6993
 4640SOL     OW25552   2.579   4.478  17.512 -0.6978  0.2398 -0.6450
 4640SOL    HW125553   2.638   4.434  17.451  0.9958  0.4211  0.8664
 4640SOL    HW225554   2.509   4.509  17.455 -0.6506 -0.6813 -1.1919
 4641SOL     OW25555   2.917   4.520  16.983  0.1269 -0.3341  0.0886
 4641SOL    HW125556   2.958   4.535  17.068  1.2684 -0.7069 -0.3983
 4641SOL    HW225557   2.896   4.427  16.994 -0.7781 -0.1157  0.2781
 4642SOL     OW25558   1.947   3.575  15.160  0.5114  0.4010 -0.2886
 4642SOL    HW125559   1.927   3.508  15.094  0.2894  1.8034 -1.6469
 4642SOL    HW225560   1.869   3.584  15.213 -0.2473  0.9843 -1.4990
 4643SOL     OW25561   1.257   3.534   6.882 -0.2070  0.0982 -0.1177
 4643SOL    HW125562   1.172   3.492   6.868 -0.6020  0.8317  0.1005
 4643SOL    HW225563   1.306   3.502   6.806  0.4636 -1.3766  0.9558
 4644SOL     OW25564   2.047   3.734   2.044  0.3910 -0.0570  0.1150
 4644SOL    HW125565   2.049   3.663   1.981  3.6961 -0.1654  0.3336
 4644SOL    HW225566   2.064   3.685   2.124  1.2905 -0.8372 -0.5587
 4645SOL     OW25567   4.526   1.380   9.202  0.2594 -0.0840 -0.1312
 4645SOL    HW125568   4.580   1.310   9.238 -1.6889 -1.9742 -0.8498
 4645SOL    HW225569   4.494   1.417   9.284 -1.6535 -0.0207 -0.8971
 4646SOL     OW25570   1.341   3.618   8.786  0.0762 -0.0198  0.6851
 4646SOL    HW125571   1.354   3.661   8.702 -1.5308 -2.0957 -0.6158
 4646SOL    HW225572   1.411   3.553   8.796 -0.1383 -0.0809  1.8646
 4647SOL     OW25573   1.045   1.985   6.815  0.9051 -0.1515 -0.0878
 4647SOL    HW125574   0.999   2.021   6.891  1.6509  0.9746 -0.1725
 4647SOL    HW225575   1.109   2.054   6.805  0.7445 -0.2458 -1.7259
 4648SOL     OW25576   0.125   3.887   3.617 -0.4662  0.2941  0.3443
 4648SOL    HW125577   0.057   3.949   3.643 -1.8294 -0.5315 -1.2819
 4648SOL    HW225578   0.152   3.863   3.706  2.3601  0.4746 -0.4907
 4649SOL     OW25579   3.484   1.869   2.263  0.8028  0.0749  0.3176
 4649SOL    HW125580   3.444   1.895   2.180  3.2916  1.6827 -0.3856
 4649SOL    HW225581   3.543   1.802   2.227  0.3637  0.5366 -1.2862
 4650SOL     OW25582   1.667   3.022   9.758 -0.0767 -0.0444 -0.0890
 4650SOL    HW125583   1.739   2.981   9.710  0.0868 -0.3199  0.3924
 4650SOL    HW225584   1.597   3.028   9.693  2.2437 -1.4473 -2.7097
 4651SOL     OW25585   0.801   0.996   5.947 -0.0791  0.7518 -0.1258
 4651SOL    HW125586   0.756   1.069   5.991 -2.9132 -0.9473 -0.1869
 4651SOL    HW225587   0.841   0.944   6.017 -1.1262 -0.6556 -0.5945
 4652SOL     OW25588   2.896   4.322   2.658  0.2365 -0.2486 -0.1955
 4652SOL    HW125589   2.936   4.333   2.744  2.6020  0.0539 -1.3344
 4652SOL    HW225590   2.967   4.274   2.615  0.3696  1.8720 -2.3384
 4653SOL     OW25591   0.553   2.893  15.833  0.0209  0.1463  0.1275
 4653SOL    HW125592   0.558   2.876  15.927  1.1343  0.2504  0.0893
 4653SOL    HW225593   0.533   2.987  15.829 -2.0909 -0.3200 -0.6941
 4654SOL     OW25594   4.551   4.526   2.836  0.4251  0.1244 -0.2252
 4654SOL    HW125595   4.561   4.582   2.758  0.7162  0.6712  0.2063
 4654SOL    HW225596   4.548   4.591   2.907 -0.3811  0.6478 -0.7315
 4655SOL     OW25597   2.454   4.431   6.386 -0.1704 -0.1994  0.5070
 4655SOL    HW125598   2.540   4.395   6.367 -0.1466 -0.7177  1.5836
 4655SOL    HW225599   2.480   4.514   6.425 -1.5596 -0.3421  1.7479
 4656SOL     OW25600   0.430   1.876   3.651 -0.3375 -0.2217  0.0981
 4656SOL    HW125601   0.492   1.819   3.697 -0.4722 -2.8034 -2.8585
 4656SOL    HW225602   0.493   1.944   3.629  2.2533 -2.4083  0.6974
 4657SOL     OW25603   2.156   4.213   0.642 -0.2705 -0.7367 -0.3284
 4657SOL    HW125604   2.238   4.177   0.675  0.0931 -0.0373 -0.4747
 4657SOL    HW225605   2.112   4.135   0.608 -0.2859 -0.7092 -0.3720
 4658SOL     OW25606   3.327   2.228   0.769 -0.0561 -0.2012  0.0409
 4658SOL    HW125607   3.294   2.250   0.682  1.4804 -0.5209 -0.6118
 4658SOL    HW225608   3.398   2.167   0.753  0.4418  0.3683  0.1105
 4659SOL     OW25609   1.005   1.950   5.749  0.7475 -0.4916 -0.1426
 4659SOL    HW125610   1.053   1.881   5.795  0.2136 -1.4159 -0.9679
 4659SOL    HW225611   1.032   2.025   5.801 -1.2559  0.1024  0.0504
 4660SOL     OW25612   1.272   3.793   6.997 -0.2097  0.5313 -0.4379
 4660SOL    HW125613   1.227   3.730   6.939 -0.4773 -0.8811  1.3173
 4660SOL    HW225614   1.208   3.864   7.000  0.9251  1.6595 -2.3947
 4661SOL     OW25615   1.510   0.614  15.190 -0.2892 -0.5894  0.1059
 4661SOL    HW125616   1.559   0.550  15.242  0.6797 -0.3233 -0.4703
 4661SOL    HW225617   1.488   0.557  15.116 -0.6210 -0.4018  0.0596
 4662SOL     OW25618   1.324   3.086   7.424  0.1125 -0.5952 -0.1712
 4662SOL    HW125619   1.251   3.034   7.458  0.2207 -1.7925 -1.7357
 4662SOL    HW225620   1.280   3.134   7.353  1.3194 -0.0382 -0.5311
 4663SOL     OW25621   4.631   3.198   6.840  0.0430 -0.1744  0.1832
 4663SOL    HW125622   4.551   3.154   6.811 -0.2305  0.1531  0.4463
 4663SOL    HW225623   4.663   3.211   6.750  1.2621  1.8316  0.9030
 4664SOL     OW25624   4.170   1.327   2.048  0.1170 -0.2528  0.0069
 4664SOL    HW125625   4.116   1.254   2.017 -1.6261  2.6004 -3.7299
 4664SOL    HW225626   4.249   1.325   1.994 -1.2810 -0.2589 -2.0689
 4665SOL     OW25627   0.871   2.488  10.804 -0.3741 -0.3167 -0.6334
 4665SOL    HW125628   0.892   2.425  10.734 -0.5622 -0.4150 -0.6031
 4665SOL    HW225629   0.856   2.565  10.749 -0.6263 -0.6264 -0.9979
 4666SOL     OW25630   1.839   2.514  12.306 -0.3198 -0.5269  0.3643
 4666SOL    HW125631   1.745   2.497  12.309 -0.5934  1.0071  0.5878
 4666SOL    HW225632   1.851   2.530  12.212  2.9287  0.7181  0.9579
 4667SOL     OW25633   3.638   4.535   5.858  0.3109  1.1058 -0.4946
 4667SOL    HW125634   3.660   4.627   5.841  0.6665  1.2665  0.7735
 4667SOL    HW225635   3.718   4.482   5.859 -1.3113 -1.3165 -0.1833
 4668SOL     OW25636   0.782   3.891  17.082  0.0709 -0.2934 -0.1906
 4668SOL    HW125637   0.745   3.803  17.084  0.9136 -0.5934  2.2619
 4668SOL    HW225638   0.787   3.911  16.989 -2.9961 -0.6899 -0.4289
 4669SOL     OW25639   2.431   0.127   6.450  0.1330  0.4247 -0.2917
 4669SOL    HW125640   2.475   0.212   6.453  1.4899 -0.2363 -1.5878
 4669SOL    HW225641   2.341   0.159   6.444  0.2000  0.4976 -0.8413
 4670SOL     OW25642   0.938   4.298   4.161 -0.0162 -0.5357  0.4374
 4670SOL    HW125643   0.968   4.265   4.245 -2.4401 -1.6544  0.8788
 4670SOL    HW225644   1.002   4.271   4.095 -1.4894 -0.9089 -0.8552
 4671SOL     OW25645   0.178   1.460   9.148 -0.2323 -0.9123  0.0799
 4671SOL    HW125646   0.187   1.393   9.080  1.1426  0.9610 -1.5852
 4671SOL    HW225647   0.084   1.475   9.133  0.0967  1.3075  0.3422
 4672SOL     OW25648   1.966   0.730   8.059 -0.0401 -0.0663  0.0649
 4672SOL    HW125649   1.971   0.635   8.044 -1.8620 -0.4749  2.0612
 4672SOL    HW225650   1.973   0.763   7.970  0.3927  2.4806  1.0504
 4673SOL     OW25651   1.865   1.241  11.387  0.0910 -0.2715 -0.6704
 4673SOL    HW125652   1.832   1.331  11.390  1.4143  0.1578  0.9223
 4673SOL    HW225653   1.960   1.241  11.396 -0.1243  0.7676  1.7127
 4674SOL     OW25654   1.999   1.802   6.752  0.3033 -0.3963 -0.0685
 4674SOL    HW125655   1.999   1.879   6.696  0.1159  1.6018  2.6792
 4674SOL    HW225656   2.077   1.755   6.722  1.0366  0.9193 -0.2176
 4675SOL     OW25657   4.391   1.358  13.853 -0.1009 -0.3171  0.2097
 4675SOL    HW125658   4.313   1.365  13.798 -0.4171 -0.3027  0.6583
 4675SOL    HW225659   4.379   1.292  13.921  2.7084 -0.2150  0.7916
 4676SOL     OW25660   3.940   2.196  14.955  0.0914  0.0299  0.2915
 4676SOL    HW125661   3.867   2.142  14.924 -0.7297  1.4876 -0.2753
 4676SOL    HW225662   4.012   2.167  14.899  1.4316  0.1727  1.9511
 4677SOL     OW25663   2.689   2.266   7.948 -0.5464 -0.1392  0.1949
 4677SOL    HW125664   2.728   2.353   7.944 -1.4511  0.2921  0.6103
 4677SOL    HW225665   2.686   2.246   8.042  0.9571 -0.8413  0.1010
 4678SOL     OW25666   4.575   2.044   2.500 -0.0548  0.5301  0.1533
 4678SOL    HW125667   4.546   2.092   2.421  0.0934 -0.3568 -0.4346
 4678SOL    HW225668   4.550   1.956   2.472  0.2745 -0.0539  1.7642
 4679SOL     OW25669   1.825   3.559   1.537 -0.3593 -0.2256  0.4117
 4679SOL    HW125670   1.919   3.539   1.533 -0.6382 -1.6774  1.0529
 4679SOL    HW225671   1.807   3.593   1.449  1.1335 -0.0877  0.1550
 4680SOL     OW25672   0.146   1.599   9.945  0.3831  0.1495 -0.2121
 4680SOL    HW125673   0.187   1.516   9.919  0.3251  0.1403 -0.2747
 4680SOL    HW225674   0.072   1.569   9.997  0.7366 -0.3897 -0.0104
 4681SOL     OW25675   0.963   2.574   3.981  0.1597  0.4777  0.1565
 4681SOL    HW125676   1.021   2.650   3.982  1.2809 -0.3603 -0.6038
 4681SOL    HW225677   0.905   2.597   4.053 -0.2756  0.7764 -0.2990
 4682SOL     OW25678   3.664   3.302   1.026  0.0389 -0.0810  0.2122
 4682SOL    HW125679   3.628   3.303   0.938  0.3671 -0.5069  0.0721
 4682SOL    HW225680   3.601   3.361   1.067  1.8170  1.0098  1.4046
 4683SOL     OW25681   3.157   1.429   9.412 -0.6918  0.2435  0.3987
 4683SOL    HW125682   3.186   1.413   9.501 -0.2917  1.0162  0.4056
 4683SOL    HW225683   3.074   1.474   9.429 -0.5362  2.4444 -4.3730
 4684SOL     OW25684   1.711   0.840  16.321  0.2465  0.5913 -0.4266
 4684SOL    HW125685   1.802   0.869  16.328  0.6713 -1.0535  0.6816
 4684SOL    HW225686   1.686   0.904  16.254  2.2953  0.9738 -0.8278
 4685SOL     OW25687   3.626   2.813   9.542  0.1606  0.2468 -0.0736
 4685SOL    HW125688   3.663   2.725   9.544  1.8597  0.9479 -0.4882
 4685SOL    HW225689   3.685   2.857   9.603 -0.2301  1.9360 -0.8974
 4686SOL     OW25690   3.510   0.713   6.447 -0.1152  0.0037 -0.4805
 4686SOL    HW125691   3.483   0.673   6.365 -0.1706 -3.5051  1.2514
 4686SOL    HW225692   3.488   0.647   6.513  4.0532  0.4093  1.2841
 4687SOL     OW25693   1.519   0.214  12.491 -0.5492  0.0247  0.3564
 4687SOL    HW125694   1.548   0.133  12.450  1.6669  0.9901 -0.0254
 4687SOL    HW225695   1.558   0.200  12.578  0.5726 -0.8999 -0.3000
 4688SOL     OW25696   1.126   0.931   9.179  0.1930  0.1585  0.5917
 4688SOL    HW125697   1.155   0.882   9.101  1.2207  3.1948 -0.9423
 4688SOL    HW225698   1.096   0.870   9.246 -0.3467  0.1859  0.3759
 4689SOL     OW25699   3.604   4.134  10.268 -0.5109  0.3547  0.4469
 4689SOL    HW125700   3.544   4.201  10.234 -0.2612  0.8933  1.0762
 4689SOL    HW225701   3.544   4.089  10.328 -1.0697 -0.7525 -0.9431
 4690SOL     OW25702   4.144   1.494   3.500  0.3238  0.0862 -0.7151
 4690SOL    HW125703   4.208   1.432   3.465  1.2345  1.0454 -0.7682
 4690SOL    HW225704   4.130   1.545   3.420  1.2829 -0.3152 -1.1475
 4691SOL     OW25705   3.459   1.182   9.446 -0.2804 -0.0053 -0.1124
 4691SOL    HW125706   3.542   1.157   9.486 -0.9052 -0.3153  0.9915
 4691SOL    HW225707   3.475   1.276   9.448 -0.2215 -0.0531  1.9110
 4692SOL     OW25708   4.211   0.076   2.884 -0.0434  0.1580 -0.6941
 4692SOL    HW125709   4.270   0.068   2.958  0.9845 -1.4504 -1.6892
 4692SOL    HW225710   4.270   0.118   2.821 -0.7735 -1.0076 -2.1680
 4693SOL     OW25711   3.190   4.152   1.993  0.2794 -0.1218  0.3769
 4693SOL    HW125712   3.227   4.086   1.934 -0.3489 -2.2868  2.3865
 4693SOL    HW225713   3.208   4.106   2.075 -0.6065  3.3044  2.4954
 4694SOL     OW25714   4.178   3.311   7.906  0.6643 -0.1167 -0.3863
 4694SOL    HW125715   4.189   3.384   7.846  2.1140  1.7135  2.1447
 4694SOL    HW225716   4.263   3.270   7.920  0.3310 -0.8841 -0.5785
 4695SOL     OW25717   2.895   2.644   1.303  0.0241  0.3956 -0.0677
 4695SOL    HW125718   2.916   2.617   1.214  1.3280 -1.0951  0.6782
 4695SOL    HW225719   2.979   2.681   1.332  0.8270 -0.8890 -0.7349
 4696SOL     OW25720   0.130   3.010   9.528  0.2611  0.5737 -0.2376
 4696SOL    HW125721   0.146   3.073   9.598  0.1324 -0.5129  0.7750
 4696SOL    HW225722   0.127   2.936   9.588  0.8973  1.1207  0.4691
 4697SOL     OW25723   0.938   1.012   9.791 -0.3653 -0.2208 -0.2456
 4697SOL    HW125724   0.897   1.077   9.734 -1.5731 -0.7355  0.0409
 4697SOL    HW225725   1.030   1.032   9.773 -0.6650 -1.1123 -2.7410
 4698SOL     OW25726   0.504   0.968   6.204  0.7305 -0.5187 -0.1380
 4698SOL    HW125727   0.465   1.023   6.136 -4.2110 -3.1345  0.6510
 4698SOL    HW225728   0.546   1.031   6.263  2.4466  0.0308 -1.9283
 4699SOL     OW25729   2.564   3.167  15.909  0.3727 -0.1809  0.2309
 4699SOL    HW125730   2.501   3.225  15.867  0.3320 -0.5222 -0.1784
 4699SOL    HW225731   2.646   3.180  15.862 -0.2344  1.3326 -0.4033
 4700SOL     OW25732   3.780   1.258   7.983  0.0390  0.4521  0.3614
 4700SOL    HW125733   3.719   1.322   8.020 -0.3994  0.3677 -0.1945
 4700SOL    HW225734   3.756   1.281   7.893 -0.9738  3.5820  1.4254
 4701SOL     OW25735   2.123   4.236   4.645 -0.7213 -0.1854  0.0540
 4701SOL    HW125736   2.105   4.148   4.677  1.0762 -0.8768 -0.8048
 4701SOL    HW225737   2.126   4.227   4.550 -0.6025  0.2519  0.0161
 4702SOL     OW25738   3.197   2.941   4.755 -0.6691  0.0597 -0.2205
 4702SOL    HW125739   3.183   2.989   4.673 -0.2523  1.5885  0.6167
 4702SOL    HW225740   3.213   3.012   4.817  0.7282  1.0476 -1.7313
 4703SOL     OW25741   1.865   2.234  11.946  0.3970  0.1641  0.1820
 4703SOL    HW125742   1.773   2.217  11.966 -0.2350  0.5594 -2.3993
 4703SOL    HW225743   1.870   2.329  11.955 -1.1956  0.2585  0.0580
 4704SOL     OW25744   1.043   3.374   4.004 -0.5045 -0.0808 -0.4440
 4704SOL    HW125745   1.103   3.301   4.018  1.2100  1.6430  0.9590
 4704SOL    HW225746   1.017   3.391   4.094  0.4750  1.0051 -0.3758
 4705SOL     OW25747   2.753   4.544   7.117 -0.1278 -0.6516  0.6931
 4705SOL    HW125748   2.809   4.506   7.049  0.0680 -1.5452  1.3542
 4705SOL    HW225749   2.782   4.500   7.197 -0.0444 -0.1667  0.9270
 4706SOL     OW25750   1.273   0.522   9.354  0.2930 -0.1317  0.2616
 4706SOL    HW125751   1.239   0.569   9.430 -1.2160 -0.5623 -0.1374
 4706SOL    HW225752   1.365   0.512   9.380 -0.2761 -0.2655  2.2916
 4707SOL     OW25753   3.739   2.145  15.318 -0.0753  0.7247 -0.3458
 4707SOL    HW125754   3.804   2.211  15.343 -0.0582 -0.3457  2.3611
 4707SOL    HW225755   3.793   2.074  15.285 -0.3002  0.5453 -0.3274
 4708SOL     OW25756   0.332   4.133   4.075  0.1777 -0.6504  0.1136
 4708SOL    HW125757   0.256   4.186   4.099 -0.3702 -1.1100 -0.5882
 4708SOL    HW225758   0.388   4.149   4.150 -1.4907 -2.3538  1.7197
 4709SOL     OW25759   1.651   0.137   8.615  0.0289  0.6541  0.1467
 4709SOL    HW125760   1.670   0.044   8.607  1.8582  1.1474 -1.0396
 4709SOL    HW225761   1.657   0.158   8.522  1.4356  0.5161  0.2087
 4710SOL     OW25762   4.473   2.116  16.252 -0.1514 -0.3702  0.0517
 4710SOL    HW125763   4.455   2.129  16.158 -1.8335 -2.9194  0.0377
 4710SOL    HW225764   4.399   2.070  16.291 -0.7996  1.8698  1.4584
 4711SOL     OW25765   4.567   4.234   1.524 -0.6793 -0.6007  0.8612
 4711SOL    HW125766   4.490   4.209   1.574  0.2015 -1.8799  1.5878
 4711SOL    HW225767   4.524   4.305   1.477  1.0834 -1.0626 -1.5183
 4712SOL     OW25768   4.111   2.521   1.135  0.0429 -0.0647 -0.4468
 4712SOL    HW125769   4.156   2.508   1.219  0.8969 -1.4045 -1.1168
 4712SOL    HW225770   4.181   2.515   1.071 -0.2166 -0.6295 -0.6838
 4713SOL     OW25771   1.653   2.540   4.418  0.1781 -0.3604 -0.3029
 4713SOL    HW125772   1.695   2.478   4.358  0.1611  0.3896 -1.0823
 4713SOL    HW225773   1.561   2.519   4.401 -0.2457  0.6631  0.7344
 4714SOL     OW25774   4.268   3.043   7.029 -0.6497 -0.0280 -0.2423
 4714SOL    HW125775   4.329   3.056   7.101 -1.2458  1.5253 -0.0204
 4714SOL    HW225776   4.232   3.132   7.020 -1.1732 -0.2411 -0.2902
 4715SOL     OW25777   0.011   1.232   7.003 -0.2132 -0.3434 -0.2813
 4715SOL    HW125778   4.672   1.226   7.063 -0.4205  0.4675 -0.4613
 4715SOL    HW225779   0.078   1.254   7.069  0.2399 -1.5369 -0.3394
 4716SOL     OW25780   2.918   4.429   7.883 -0.3248 -0.6085 -0.7536
 4716SOL    HW125781   2.871   4.466   7.958  1.7841 -0.8836  0.7032
 4716SOL    HW225782   2.850   4.438   7.817 -0.1859  1.0536 -0.6659
 4717SOL     OW25783   3.230   2.878  16.327 -0.1060  0.1020  0.2818
 4717SOL    HW125784   3.221   2.973  16.314 -0.0978  0.2651  1.5025
 4717SOL    HW225785   3.305   2.843  16.279  0.5067 -0.0970  1.3843
 4718SOL     OW25786   0.663   3.980   8.985  0.1265  0.4029  0.1558
 4718SOL    HW125787   0.713   3.963   9.065 -0.0556 -1.7878 -0.2165
 4718SOL    HW225788   0.665   3.894   8.943  0.8241  0.9657 -0.9774
 4719SOL     OW25789   0.195   1.089   0.524 -0.2352  0.7816  0.3425
 4719SOL    HW125790   0.187   1.115   0.616  0.5827  0.4656  0.5025
 4719SOL    HW225791   0.275   1.036   0.518 -0.1888  0.9740 -0.7532
 4720SOL     OW25792   2.596   4.289  14.971 -0.1865  0.5322  0.6943
 4720SOL    HW125793   2.587   4.281  15.066  1.1742 -0.3600  0.7489
 4720SOL    HW225794   2.690   4.309  14.972  0.4254 -2.3255  1.1337
 4721SOL     OW25795   4.226   0.865   5.305  0.1838  0.0383  0.2313
 4721SOL    HW125796   4.132   0.881   5.297  0.3090  1.0159  0.7697
 4721SOL    HW225797   4.218   0.773   5.278  1.0900  0.4247 -1.3405
 4722SOL     OW25798   1.478   2.125   9.626  0.0067  0.0992 -0.2984
 4722SOL    HW125799   1.558   2.096   9.583 -0.3703  0.2150 -1.0959
 4722SOL    HW225800   1.456   2.206   9.580 -0.6054 -0.1543 -0.4568
 4723SOL     OW25801   0.922   1.605   3.849  0.2484 -0.2312 -0.2249
 4723SOL    HW125802   1.013   1.575   3.847  0.2900 -0.1424  0.3551
 4723SOL    HW225803   0.920   1.649   3.934  0.8784 -0.9833  0.1757
 4724SOL     OW25804   3.545   1.055   8.201  0.1106 -0.1700 -0.3183
 4724SOL    HW125805   3.636   1.048   8.228 -0.3100 -0.9325  0.9072
 4724SOL    HW225806   3.508   1.063   8.289 -1.6605  2.0523 -1.2621
 4725SOL     OW25807   0.002   2.929   2.095  0.0265  0.4292 -0.0212
 4725SOL    HW125808   4.660   2.878   2.119 -1.1599  1.1215 -2.3685
 4725SOL    HW225809   0.066   2.859   2.090 -0.5855 -0.3867  3.4972
 4726SOL     OW25810   4.358   3.120  16.353 -0.3109 -0.0838  0.0897
 4726SOL    HW125811   4.350   3.027  16.334  0.0155 -0.1625  0.3321
 4726SOL    HW225812   4.381   3.143  16.262  0.1345  2.6232  0.8665
 4727SOL     OW25813   0.057   1.919   1.332  0.4021 -0.6247 -0.1259
 4727SOL    HW125814   4.720   1.941   1.273  1.2767  0.1860 -0.8904
 4727SOL    HW225815   0.019   1.857   1.395 -0.3085  2.0631  2.0839
 4728SOL     OW25816   3.255   4.722   7.452 -0.1960 -0.6506 -0.2306
 4728SOL    HW125817   3.173   4.689   7.486 -0.8799  1.2455 -0.0133
 4728SOL    HW225818   3.311   4.715   7.530 -0.1352 -0.8615 -0.2937
 4729SOL     OW25819   1.188   3.563   2.312  0.4524  0.0022 -0.5203
 4729SOL    HW125820   1.183   3.579   2.406  1.3030 -0.1116 -0.4550
 4729SOL    HW225821   1.106   3.518   2.295  0.4558 -1.0503  2.2686
 4730SOL     OW25822   0.075   4.535  12.446 -0.2721 -0.1649 -0.4793
 4730SOL    HW125823   4.722   4.517  12.416 -0.6461 -1.1511  1.2514
 4730SOL    HW225824   0.074   4.630  12.455  0.0150 -0.2175  0.0890
 4731SOL     OW25825   1.811   4.469   4.824  0.0231  0.0164 -0.1828
 4731SOL    HW125826   1.792   4.553   4.867  1.1517  0.4262 -0.4813
 4731SOL    HW225827   1.900   4.458   4.859 -0.6985 -3.2700  0.6612
 4732SOL     OW25828   0.228   3.991   0.004  0.1066 -0.9203 -0.2964
 4732SOL    HW125829   0.133   3.991  17.730  0.2813  0.0301 -1.5299
 4732SOL    HW225830   0.253   4.081   0.026  0.7274 -1.1223 -0.1690
 4733SOL     OW25831   1.700   1.220   3.844  0.2122  0.1331 -0.1837
 4733SOL    HW125832   1.642   1.246   3.773  1.3264  0.1545 -1.0758
 4733SOL    HW225833   1.642   1.170   3.902 -0.9604  1.5043 -0.1963
 4734SOL     OW25834   4.237   2.462  10.202 -0.1991 -0.3267  0.2210
 4734SOL    HW125835   4.309   2.498  10.150  0.8757 -1.0543  1.1867
 4734SOL    HW225836   4.284   2.398  10.255 -0.4932  0.9783  2.0512
 4735SOL     OW25837   3.374   3.556   8.095 -0.2344  0.3896 -0.0057
 4735SOL    HW125838   3.355   3.575   8.004  0.6480 -1.4904 -0.5778
 4735SOL    HW225839   3.421   3.639   8.105  1.6465 -0.7957  0.9847
 4736SOL     OW25840   1.379   3.839   1.837  0.0473  0.3546 -0.7604
 4736SOL    HW125841   1.321   3.915   1.836  3.9745  3.3649  1.0011
 4736SOL    HW225842   1.330   3.764   1.805  0.5563  1.1044 -3.3609
 4737SOL     OW25843   3.568   2.607   0.700 -0.1325  0.1553  0.0577
 4737SOL    HW125844   3.477   2.630   0.681 -0.2450 -1.3710 -1.2403
 4737SOL    HW225845   3.618   2.641   0.626 -0.9603 -4.7104 -2.7824
 4738SOL     OW25846   1.676   0.427   1.667  0.0921 -0.0813 -0.4636
 4738SOL    HW125847   1.771   0.438   1.672 -0.1043  0.8768  1.1405
 4738SOL    HW225848   1.643   0.517   1.673 -1.2129 -0.6600  1.1084
 4739SOL     OW25849   4.511   1.332   6.636 -0.2498 -0.5921 -0.1255
 4739SOL    HW125850   4.563   1.256   6.663 -0.4743 -1.5866 -2.4869
 4739SOL    HW225851   4.560   1.403   6.678  1.3098 -1.9910  0.4510
 4740SOL     OW25852   1.783   4.141  13.643  0.1274  0.3051 -0.1530
 4740SOL    HW125853   1.698   4.134  13.599  0.4071  0.2177 -0.6837
 4740SOL    HW225854   1.764   4.203  13.713 -0.4491  1.2235 -1.1283
 4741SOL     OW25855   4.139   1.599   7.695 -0.4171 -0.2359  0.1133
 4741SOL    HW125856   4.184   1.573   7.614 -2.3285 -0.3929 -0.8840
 4741SOL    HW225857   4.193   1.545   7.752  0.7931  1.1551  0.3013
 4742SOL     OW25858   1.021   1.418   1.840  0.2977  0.0871 -0.8849
 4742SOL    HW125859   0.935   1.458   1.831  0.4557  1.2212  2.8084
 4742SOL    HW225860   1.022   1.389   1.931  2.4698 -0.4507 -1.0840
 4743SOL     OW25861   0.423   2.487  11.366  0.5957 -0.0791  0.0389
 4743SOL    HW125862   0.334   2.473  11.332 -0.0591  1.8409  0.9459
 4743SOL    HW225863   0.430   2.413  11.426  0.6096  1.0902  1.4799
 4744SOL     OW25864   3.316   3.553   1.659 -0.0841 -0.5598  0.4605
 4744SOL    HW125865   3.385   3.515   1.714  1.7216  1.7405 -0.2117
 4744SOL    HW225866   3.235   3.528   1.704 -0.5777  0.2364  0.0123
 4745SOL     OW25867   4.195   2.434   2.786 -0.2787 -0.0589  0.3587
 4745SOL    HW125868   4.165   2.368   2.848 -0.8497 -1.3068 -1.2491
 4745SOL    HW225869   4.116   2.485   2.772  0.3520  1.0960  1.0273
 4746SOL     OW25870   2.396   1.751   4.596  0.2215  0.2035 -0.2360
 4746SOL    HW125871   2.389   1.839   4.632 -2.0269 -0.1298  0.1378
 4746SOL    HW225872   2.322   1.736   4.537  0.6489 -0.6447 -0.5660
 4747SOL     OW25873   1.097   0.659   2.911  0.0692 -0.5027  0.2420
 4747SOL    HW125874   1.104   0.685   2.819  0.4489 -0.7895  0.1910
 4747SOL    HW225875   1.185   0.624   2.924 -0.0791 -0.8647  0.2660
 4748SOL     OW25876   3.955   2.684  14.387  0.4631  0.4672 -0.3368
 4748SOL    HW125877   3.934   2.777  14.396  0.8629  0.5511 -0.2792
 4748SOL    HW225878   4.047   2.695  14.364  0.4400 -0.1651 -0.7322
 4749SOL     OW25879   2.971   4.477  13.166  0.5282 -0.5098 -0.1960
 4749SOL    HW125880   2.994   4.403  13.221  5.0021  0.1889 -1.1065
 4749SOL    HW225881   3.037   4.464  13.099 -0.6793 -0.9359 -1.3093
 4750SOL     OW25882   2.614   3.719   2.204  0.1623  1.0466 -0.7215
 4750SOL    HW125883   2.539   3.734   2.146  0.2547 -1.7305 -1.5618
 4750SOL    HW225884   2.659   3.659   2.145 -0.6218 -0.8550  0.5963
 4751SOL     OW25885   3.896   2.458   8.082 -0.3887  0.0746  0.3307
 4751SOL    HW125886   3.924   2.545   8.111  1.5648 -0.7445  0.9400
 4751SOL    HW225887   3.910   2.472   7.988 -0.0652 -0.8651  0.2355
 4752SOL     OW25888   3.209   2.298  13.794 -0.2227 -0.0512 -0.0299
 4752SOL    HW125889   3.263   2.279  13.871  0.8202  0.3563 -0.6504
 4752SOL    HW225890   3.253   2.372  13.752  2.4771 -0.8613  1.3828
 4753SOL     OW25891   0.870   0.227   0.790 -0.1885 -0.5085  0.4543
 4753SOL    HW125892   0.795   0.222   0.849  1.7190 -0.8774  2.8583
 4753SOL    HW225893   0.917   0.303   0.825  0.7477 -1.6201  1.6206
 4754SOL     OW25894   0.195   1.141   5.681 -0.1691  0.2804  0.4223
 4754SOL    HW125895   0.270   1.187   5.644 -0.0840 -0.7215 -0.6445
 4754SOL    HW225896   0.162   1.110   5.597 -0.3943 -0.6337  0.8499
 4755SOL     OW25897   3.255   2.597   6.076 -0.0709  0.6089 -0.0116
 4755SOL    HW125898   3.201   2.521   6.098  0.6789  0.1085  0.1123
 4755SOL    HW225899   3.304   2.554   6.006 -1.3104 -1.5488  0.4675
 4756SOL     OW25900   0.509   2.830   6.623 -0.0845 -0.8245 -0.1922
 4756SOL    HW125901   0.477   2.740   6.625  0.2784 -0.9541 -0.4585
 4756SOL    HW225902   0.462   2.862   6.546 -0.2555 -1.3813 -0.3121
 4757SOL     OW25903   3.451   2.034  16.812  0.1724 -0.0224  0.2557
 4757SOL    HW125904   3.524   2.026  16.874  1.5085 -3.0332 -1.7328
 4757SOL    HW225905   3.492   2.062  16.731  0.8833 -2.5038 -0.2554
 4758SOL     OW25906   3.486   4.632   3.949  0.5626 -0.0188  0.1753
 4758SOL    HW125907   3.561   4.586   3.910 -0.0555  1.3117 -2.6034
 4758SOL    HW225908   3.428   4.556   3.951  0.6733 -0.1078  0.0342
 4759SOL     OW25909   1.381   2.524   8.163 -0.1442  0.0878 -0.4771
 4759SOL    HW125910   1.400   2.610   8.202 -0.2657 -1.0328  1.9923
 4759SOL    HW225911   1.367   2.471   8.241  0.6090  0.2932 -0.2002
 4760SOL     OW25912   3.390   0.079   1.956 -0.6348  0.1265 -0.4955
 4760SOL    HW125913   3.420   0.144   2.019 -1.5034  0.6718 -0.6390
 4760SOL    HW225914   3.430   4.732   1.984 -0.8096  0.0665 -0.4197
 4761SOL     OW25915   2.439   4.476   4.551  0.7835  0.0029 -0.1744
 4761SOL    HW125916   2.436   4.424   4.470  0.6170 -0.1381 -0.0784
 4761SOL    HW225917   2.488   4.412   4.603 -1.0961 -0.5949  0.8630
 4762SOL     OW25918   1.485   2.099   7.810  0.0817 -0.4401  0.2131
 4762SOL    HW125919   1.456   2.038   7.878 -1.1803  2.1940  2.0148
 4762SOL    HW225920   1.510   2.174   7.863 -1.2740 -0.6118  1.1056
 4763SOL     OW25921   4.091   1.365  17.349 -0.2862  0.0916  0.7514
 4763SOL    HW125922   4.111   1.375  17.442  0.7417 -2.1277  0.7758
 4763SOL    HW225923   4.108   1.453  17.318  1.0038 -1.0858 -1.8277
 4764SOL     OW25924   0.813   3.277   6.267 -0.2967  0.6998 -0.1273
 4764SOL    HW125925   0.846   3.278   6.357  1.5101 -2.6514 -0.7447
 4764SOL    HW225926   0.890   3.303   6.217 -1.3681 -1.3140 -2.8492
 4765SOL     OW25927   3.038   1.410   5.392  0.5149  0.0589  0.2695
 4765SOL    HW125928   2.981   1.387   5.465  0.1778  1.5004  0.4673
 4765SOL    HW225929   3.038   1.506   5.387 -0.1359 -0.0719 -2.0544
 4766SOL     OW25930   3.491   3.968  10.439 -0.2307 -0.2502 -0.4179
 4766SOL    HW125931   3.402   3.940  10.419  0.1835 -1.7695 -0.1732
 4766SOL    HW225932   3.532   3.893  10.483  1.2970  0.2604 -0.9664
 4767SOL     OW25933   0.976   2.248  13.647  0.1168  0.1608  0.5084
 4767SOL    HW125934   1.015   2.212  13.567  1.6585  3.1276 -0.0968
 4767SOL    HW225935   0.916   2.186  13.686 -0.8120  0.0897 -1.0304
 4768SOL     OW25936   4.229   1.311   2.317 -0.7965 -0.4102  0.5245
 4768SOL    HW125937   4.203   1.309   2.225 -0.8518  0.3370  0.5257
 4768SOL    HW225938   4.317   1.274   2.322  0.5771  2.6650 -0.5529
 4769SOL     OW25939   0.782   3.850   9.816  0.4893  0.4814  0.0343
 4769SOL    HW125940   0.849   3.782   9.818  1.7419  1.7521  1.2026
 4769SOL    HW225941   0.833   3.927   9.791  1.8258 -0.0535  1.1243
 4770SOL     OW25942   1.012   2.493   0.832 -0.2731  0.2532  0.1772
 4770SOL    HW125943   0.991   2.587   0.826 -2.7680 -0.2892  0.2798
 4770SOL    HW225944   1.079   2.502   0.900  0.3462 -0.2505 -0.3674
 4771SOL     OW25945   0.851   3.637  12.248  0.2116 -0.1056  0.1756
 4771SOL    HW125946   0.792   3.648  12.174  1.6215  0.7445 -0.8254
 4771SOL    HW225947   0.932   3.609  12.204  0.3019 -1.8536  1.4752
 4772SOL     OW25948   3.627   0.390  14.868 -0.0820 -0.2414 -0.2414
 4772SOL    HW125949   3.656   0.344  14.790  0.8949 -1.7213  0.9792
 4772SOL    HW225950   3.544   0.343  14.882 -0.0683  0.4901  2.2423
 4773SOL     OW25951   1.970   0.354  10.697 -0.0990  0.2532  0.0500
 4773SOL    HW125952   1.924   0.425  10.741 -0.7634 -1.6890  2.4903
 4773SOL    HW225953   2.046   0.355  10.755 -1.2958  0.2375  1.6131
 4774SOL     OW25954   4.346   4.482  16.582 -0.1910 -0.4275  0.2634
 4774SOL    HW125955   4.416   4.547  16.572  1.9258 -2.6672  0.6698
 4774SOL    HW225956   4.316   4.497  16.671  2.6450  0.1100  1.1458
 4775SOL     OW25957   4.647   2.227   6.434  0.4909 -0.4996  0.1263
 4775SOL    HW125958   4.692   2.143   6.441 -0.5225 -0.9475  1.2583
 4775SOL    HW225959   4.605   2.225   6.349 -0.7539  1.2235  0.6932
 4776SOL     OW25960   3.963   3.137   2.060  0.2445 -0.1793  0.4516
 4776SOL    HW125961   4.040   3.122   2.115  0.2968  3.0173  1.2623
 4776SOL    HW225962   4.007   3.184   1.989 -0.7928 -1.8919 -1.3161
 4777SOL     OW25963   1.574   3.974   1.712  0.2168 -0.0729  0.0067
 4777SOL    HW125964   1.640   3.904   1.705  2.0289  1.5891  0.4079
 4777SOL    HW225965   1.501   3.921   1.742  2.1802 -2.6884  0.2518
 4778SOL     OW25966   0.610   1.749   3.402 -0.6656 -0.2840 -0.3684
 4778SOL    HW125967   0.523   1.787   3.417 -0.5337 -0.3587  0.6180
 4778SOL    HW225968   0.621   1.688   3.474 -1.4165 -1.7475 -1.5076
 4779SOL     OW25969   2.874   3.963   6.167 -0.2934  0.1603 -1.1633
 4779SOL    HW125970   2.916   3.944   6.083 -1.9181 -1.3243 -1.6350
 4779SOL    HW225971   2.822   4.041   6.146 -1.5727 -0.6226 -0.8723
 4780SOL     OW25972   3.075   2.320   5.438  0.5023  0.0367 -0.5719
 4780SOL    HW125973   3.021   2.366   5.502 -0.0533  0.5372 -1.3907
 4780SOL    HW225974   3.026   2.356   5.364  0.3002 -0.5200 -0.7099
 4781SOL     OW25975   3.608   4.493  10.409  0.4969  0.3324 -0.3964
 4781SOL    HW125976   3.560   4.447  10.478  0.9009  0.1058 -0.2699
 4781SOL    HW225977   3.692   4.474  10.450 -0.6438 -1.4752  1.1281
 4782SOL     OW25978   1.810   3.851   3.427 -0.2247  0.0364 -0.2889
 4782SOL    HW125979   1.725   3.809   3.414 -0.9721  1.1005  1.2644
 4782SOL    HW225980   1.798   3.932   3.377  0.7645  1.1125  1.2179
 4783SOL     OW25981   3.795   0.792  14.060 -0.2378 -0.5943  0.3792
 4783SOL    HW125982   3.769   0.806  13.969  0.6138  3.3269  0.7683
 4783SOL    HW225983   3.877   0.744  14.047 -1.5822 -3.0259  0.8131
 4784SOL     OW25984   3.266   4.345  16.466  0.4165  0.2186 -0.1051
 4784SOL    HW125985   3.244   4.343  16.373 -1.2192  0.1339  0.2827
 4784SOL    HW225986   3.236   4.260  16.499  0.0673 -0.1698 -1.4290
 4785SOL     OW25987   4.695   3.224   9.439  0.1393 -0.1485  0.7476
 4785SOL    HW125988   0.021   3.151   9.452  0.3854 -0.5410 -2.5784
 4785SOL    HW225989   4.707   3.248   9.347  2.2339 -0.0835  1.0478
 4786SOL     OW25990   1.533   0.481  11.840  0.3614 -0.0382  0.4097
 4786SOL    HW125991   1.518   0.460  11.748  1.0769  0.5454  0.1615
 4786SOL    HW225992   1.497   0.570  11.842 -1.8348 -0.9155 -0.0201
 4787SOL     OW25993   3.220   1.501   8.002  0.3499 -0.0202 -0.3479
 4787SOL    HW125994   3.198   1.531   7.913 -2.0110  0.5449  0.4379
 4787SOL    HW225995   3.263   1.422   7.970  0.2802 -1.1833  2.4372
 4788SOL     OW25996   4.730   1.895  10.266  0.0820 -0.1576 -0.2569
 4788SOL    HW125997   0.081   1.862  10.241  1.2064  2.2392  0.4525
 4788SOL    HW225998   4.725   1.979  10.220 -2.2416 -0.1372  0.0424
 4789SOL     OW25999   2.280   3.245   9.299 -0.2555  0.2907  0.3001
 4789SOL    HW126000   2.374   3.261   9.307 -0.6530  2.2303  1.0292
 4789SOL    HW226001   2.293   3.152   9.281  0.0410 -0.2090  3.0138
 4790SOL     OW26002   2.923   0.638   8.408  0.0771  0.6542 -0.6954
 4790SOL    HW126003   2.887   0.592   8.332  0.0733 -2.5135  1.2663
 4790SOL    HW226004   2.986   0.697   8.366  0.2156  0.2965 -0.9851
 4791SOL     OW26005   1.786   0.178   2.343  0.7405 -0.5963 -0.0079
 4791SOL    HW126006   1.710   0.167   2.286  0.9267 -1.7873 -0.0215
 4791SOL    HW226007   1.850   0.122   2.298 -0.1295 -0.8237 -0.9630
 4792SOL     OW26008   0.385   3.390   1.916 -0.2588  0.5791  0.2127
 4792SOL    HW126009   0.331   3.427   1.846  0.9134  3.6438  0.9322
 4792SOL    HW226010   0.354   3.446   1.987 -1.2038 -0.7256  0.8129
 4793SOL     OW26011   0.708   0.383   3.337  0.2013  0.3936 -0.2214
 4793SOL    HW126012   0.765   0.386   3.414  1.7111  0.5443 -1.3651
 4793SOL    HW226013   0.719   0.300   3.291 -0.2545  0.0314  0.3158
 4794SOL     OW26014   3.055   4.524   2.221 -0.1327 -0.2018 -0.1935
 4794SOL    HW126015   3.119   4.577   2.268 -0.0736 -1.5983  1.3288
 4794SOL    HW226016   3.003   4.495   2.296  0.2368 -0.3954 -0.0145
 4795SOL     OW26017   1.876   1.468   2.553 -0.1771 -0.2602 -0.0354
 4795SOL    HW126018   1.810   1.497   2.616  0.1554  1.1922 -0.3483
 4795SOL    HW226019   1.949   1.426   2.598 -0.6742 -1.1367 -0.0439
 4796SOL     OW26020   3.195   0.295  10.556  0.0003 -0.0206 -0.2366
 4796SOL    HW126021   3.226   0.373  10.603  1.3972 -0.0889 -1.0423
 4796SOL    HW226022   3.137   0.258  10.622  1.0986 -0.9254  0.2078
 4797SOL     OW26023   3.296   4.068   6.891 -0.1627  0.5165  0.2337
 4797SOL    HW126024   3.280   4.001   6.824 -0.5388  1.1672 -0.3234
 4797SOL    HW226025   3.361   4.029   6.950 -0.7445  0.4352  0.8165
 4798SOL     OW26026   0.144   1.773   8.447  0.1903  0.5560  0.7328
 4798SOL    HW126027   0.161   1.861   8.412 -1.5704  0.1326 -1.2009
 4798SOL    HW226028   0.155   1.771   8.542 -1.1347 -1.2738  0.8418
 4799SOL     OW26029   0.072   1.993   6.458 -0.1673 -0.2444 -0.0125
 4799SOL    HW126030   0.151   2.006   6.510  0.2853  3.2407 -1.5790
 4799SOL    HW226031   0.119   1.939   6.395 -0.1503 -1.2125  0.8268
 4800SOL     OW26032   0.518   1.893   8.208 -0.4780  0.5215 -0.0700
 4800SOL    HW126033   0.512   1.903   8.303  1.5223 -4.9852  0.6715
 4800SOL    HW226034   0.522   1.797   8.211 -0.2834  0.6000  1.8759
 4801SOL     OW26035   2.136   0.963  10.084 -0.1678 -0.3323  0.3131
 4801SOL    HW126036   2.207   0.965  10.021 -0.0211  2.2875  0.5770
 4801SOL    HW226037   2.134   0.871  10.112  0.8797 -0.7956 -1.1061
 4802SOL     OW26038   3.487   1.509  17.315 -0.1471 -0.9236 -0.0525
 4802SOL    HW126039   3.556   1.521  17.250 -0.8819  0.2656 -0.6176
 4802SOL    HW226040   3.408   1.482  17.267 -1.0104 -0.1931  0.9635
 4803SOL     OW26041   0.351   3.350   1.641  0.8527  0.0585  0.6193
 4803SOL    HW126042   0.420   3.292   1.608  0.2300  0.4621 -1.4421
 4803SOL    HW226043   0.310   3.286   1.698  2.3231 -0.8202  0.6941
 4804SOL     OW26044   3.548   3.356   8.279  0.5165  0.2148  0.5245
 4804SOL    HW126045   3.469   3.397   8.243 -0.2204 -2.2076 -0.6675
 4804SOL    HW226046   3.551   3.275   8.229  2.8595 -1.1035  2.7912
 4805SOL     OW26047   4.511   1.691   5.000 -0.9011 -0.3834 -0.1371
 4805SOL    HW126048   4.484   1.708   4.910 -1.9245  2.2296  0.6830
 4805SOL    HW226049   4.605   1.670   5.001 -0.9414 -0.5486  0.4059
 4806SOL     OW26050   0.690   4.054   9.601  0.5193  0.1994  0.3133
 4806SOL    HW126051   0.735   4.070   9.518  1.5850 -1.6021  0.5433
 4806SOL    HW226052   0.699   3.959   9.601 -2.0392 -0.0478  1.2099
 4807SOL     OW26053   1.687   4.308   5.390 -0.0049 -0.1404  0.2876
 4807SOL    HW126054   1.702   4.263   5.307  1.2835 -2.2913  1.6906
 4807SOL    HW226055   1.672   4.396   5.356 -1.7083 -0.0074  1.3917
 4808SOL     OW26056   0.539   2.438   4.846  0.1379 -0.0789  1.0593
 4808SOL    HW126057   0.504   2.377   4.781 -0.8097  0.4397  1.0823
 4808SOL    HW226058   0.617   2.387   4.871  0.4412  0.2854  0.8506
 4809SOL     OW26059   2.632   4.012  16.635 -0.3359 -0.0861 -0.0382
 4809SOL    HW126060   2.617   4.072  16.563 -1.1340  0.1029  0.2796
 4809SOL    HW226061   2.647   3.928  16.591  3.0740 -0.0003  0.9780
 4810SOL     OW26062   0.832   2.597  14.236  0.1990  0.3945  0.0899
 4810SOL    HW126063   0.737   2.600  14.232  0.1688 -0.0608  0.4977
 4810SOL    HW226064   0.849   2.671  14.179  4.3572  0.5798  1.5123
 4811SOL     OW26065   1.802   0.031  11.900  0.0970 -0.2468 -0.3722
 4811SOL    HW126066   1.745   0.099  11.936  2.2679  0.7535  1.1912
 4811SOL    HW226067   1.888   0.074  11.900  0.5907 -1.2263  0.5658
 4812SOL     OW26068   2.427   0.004  10.541 -0.1415 -0.1545 -0.2159
 4812SOL    HW126069   2.508   4.734  10.591 -1.3395  1.3479  1.8896
 4812SOL    HW226070   2.425   4.650  10.505 -1.3388 -1.0148  1.9832
 4813SOL     OW26071   1.309   2.268   6.356  0.2703  0.1223  0.3484
 4813SOL    HW126072   1.267   2.339   6.308  0.1990 -2.4658 -3.3699
 4813SOL    HW226073   1.297   2.300   6.446  0.1396 -0.5938  0.5878
 4814SOL     OW26074   0.706   4.254  16.208 -0.1752  0.1813 -0.2746
 4814SOL    HW126075   0.780   4.210  16.166  1.4605  1.3170  1.3929
 4814SOL    HW226076   0.735   4.341  16.182  0.0624  0.4726  0.9310
 4815SOL     OW26077   2.812   0.970  11.515  0.1312  0.3387  0.3454
 4815SOL    HW126078   2.851   0.946  11.599  0.1043 -1.9616 -0.3124
 4815SOL    HW226079   2.868   1.046  11.498 -1.5489  1.3894 -0.5145
 4816SOL     OW26080   0.427   1.364   7.166  0.3329 -0.0924 -0.2852
 4816SOL    HW126081   0.416   1.434   7.103 -1.7198  1.4010  1.7370
 4816SOL    HW226082   0.431   1.421   7.243  2.7431  0.6952 -0.9795
 4817SOL     OW26083   3.831   4.284  10.240 -0.2572  1.4064  0.1943
 4817SOL    HW126084   3.755   4.226  10.245  1.5754 -0.9430  0.9033
 4817SOL    HW226085   3.902   4.224  10.262  0.5945  1.9605 -1.0468
 4818SOL     OW26086   2.784   2.723   8.296 -0.0077 -0.1085  0.1016
 4818SOL    HW126087   2.874   2.700   8.276 -0.0761  1.0741 -1.6599
 4818SOL    HW226088   2.789   2.817   8.316  2.6717 -0.3973  0.6995
 4819SOL     OW26089   2.886   0.238  17.206  0.3585 -0.5020  0.2816
 4819SOL    HW126090   2.853   0.260  17.293 -2.2014  1.4886 -1.1982
 4819SOL    HW226091   2.812   0.196  17.162 -0.9136  0.8489  1.1434
 4820SOL     OW26092   4.165   1.389  14.092 -0.2227 -0.5439  0.2693
 4820SOL    HW126093   4.251   1.383  14.133 -0.3977  3.1289  1.1369
 4820SOL    HW226094   4.192   1.435  14.013 -0.3196 -2.6029 -0.9649
 4821SOL     OW26095   0.693   0.435  10.448 -0.2805 -0.1483  0.0800
 4821SOL    HW126096   0.769   0.377  10.448  0.4752  0.8229  1.3040
 4821SOL    HW226097   0.684   0.448  10.354  2.2788 -0.3651 -0.1888
 4822SOL     OW26098   3.391   2.604   9.107 -0.0275  0.3900 -0.7427
 4822SOL    HW126099   3.386   2.696   9.081 -1.9399  0.8012  1.0041
 4822SOL    HW226100   3.362   2.563   9.026  2.1997  0.1522 -1.4164
 4823SOL     OW26101   0.697   2.513   6.830  0.2359  0.0106 -0.9051
 4823SOL    HW126102   0.729   2.555   6.910  0.1414 -0.1443 -0.7857
 4823SOL    HW226103   0.605   2.494   6.848  0.4983 -1.1457 -0.7753
 4824SOL     OW26104   2.619   0.749   8.335 -0.2401  0.3848 -0.0881
 4824SOL    HW126105   2.558   0.814   8.370 -0.0123  0.5448  0.0089
 4824SOL    HW226106   2.699   0.798   8.316  1.0052 -2.5117 -2.2841
 4825SOL     OW26107   3.714   0.452   7.298 -0.1071 -0.2148 -0.0932
 4825SOL    HW126108   3.726   0.383   7.363 -3.9115  0.1421  1.0181
 4825SOL    HW226109   3.644   0.496   7.346 -0.0191  0.7892 -0.8958
 4826SOL     OW26110   1.472   0.727   9.523  0.5242  0.1713  0.9764
 4826SOL    HW126111   1.468   0.777   9.441 -0.2631 -2.4407 -0.5532
 4826SOL    HW226112   1.411   0.777   9.578 -1.3679 -0.4062 -0.5894
 4827SOL     OW26113   2.049   2.140   0.187 -0.7295 -0.0629  0.0014
 4827SOL    HW126114   1.968   2.191   0.191 -0.4477  0.3616  0.3186
 4827SOL    HW226115   1.997   2.064   0.211 -0.5656 -0.6571 -1.5213
 4828SOL     OW26116   0.780   4.211   1.107  0.3725  0.1693 -0.2098
 4828SOL    HW126117   0.835   4.288   1.096  0.1241  0.2863 -0.6454
 4828SOL    HW226118   0.797   4.184   1.198  0.0551 -0.4407 -0.3271
 4829SOL     OW26119   3.527   0.013   2.913 -0.3832  0.4927 -0.3317
 4829SOL    HW126120   3.555   4.661   2.941 -0.6687  0.6419  0.4264
 4829SOL    HW226121   3.555   0.010   2.822 -0.0648 -0.2941 -0.2087
 4830SOL     OW26122   2.276   2.356  17.313  0.2623 -0.0937  0.9064
 4830SOL    HW126123   2.371   2.351  17.317  0.5336  1.4920 -4.1051
 4830SOL    HW226124   2.268   2.432  17.371 -0.4490  0.2696  0.3345
 4831SOL     OW26125   3.725   4.248   6.181 -0.0098  0.4775  0.4562
 4831SOL    HW126126   3.805   4.267   6.228 -0.3384 -1.3252  1.7203
 4831SOL    HW226127   3.659   4.306   6.218 -1.3354 -0.4822 -0.3649
 4832SOL     OW26128   4.048   0.423   2.336  0.0039 -0.2116  0.1280
 4832SOL    HW126129   3.986   0.371   2.284 -0.2756  1.1794 -0.9347
 4832SOL    HW226130   3.995   0.430   2.416 -0.4440  2.2943 -0.3848
 4833SOL     OW26131   4.303   2.874  17.246  0.2518 -0.1945 -0.0439
 4833SOL    HW126132   4.271   2.912  17.328  0.1309  2.2179 -1.2252
 4833SOL    HW226133   4.221   2.876  17.197  1.0155 -0.8882 -1.3340
 4834SOL     OW26134   1.773   2.963  14.199  0.4674  0.4307  0.0543
 4834SOL    HW126135   1.724   3.044  14.216  0.5895  0.1786  1.6211
 4834SOL    HW226136   1.707   2.895  14.183  1.2510 -0.7809  2.0645
 4835SOL     OW26137   1.636   1.304   2.062 -0.1595 -0.3511 -0.2256
 4835SOL    HW126138   1.718   1.268   2.097 -0.2428  0.5300  0.8754
 4835SOL    HW226139   1.581   1.225   2.058  0.5341 -0.9230  1.5310
 4836SOL     OW26140   1.599   3.103   5.970 -0.5337 -0.4022  0.5652
 4836SOL    HW126141   1.676   3.045   5.971  0.5124  0.9764  0.5724
 4836SOL    HW226142   1.532   3.049   6.011  0.1883 -1.8085 -0.1096
 4837SOL     OW26143   4.598   0.425  16.102 -0.0230  0.4904  0.6335
 4837SOL    HW126144   4.683   0.387  16.124 -0.2667  0.4350  1.4482
 4837SOL    HW226145   4.602   0.510  16.147 -0.2046  1.0700 -0.4366
 4838SOL     OW26146   2.935   4.645  14.002 -0.7330 -0.4099  0.7554
 4838SOL    HW126147   2.995   4.653  13.928 -0.2867 -0.4613  1.1111
 4838SOL    HW226148   2.991   4.625  14.077  1.0639  0.8088 -0.2831
 4839SOL     OW26149   3.134   0.988   0.098 -0.2566 -0.2251  0.0637
 4839SOL    HW126150   3.057   0.976   0.152 -0.0381 -0.1820  0.3862
 4839SOL    HW226151   3.188   1.037   0.160 -1.1642  1.6146 -0.5788
 4840SOL     OW26152   4.614   2.061   2.052 -0.6800  0.3661 -0.1345
 4840SOL    HW126153   4.581   2.069   1.963  0.4141  0.2813 -0.5485
 4840SOL    HW226154   4.703   2.096   2.046 -1.4302  1.5682 -4.1076
 4841SOL     OW26155   2.281   0.381   4.113  1.0979  0.6235  0.3434
 4841SOL    HW126156   2.324   0.325   4.178 -0.6769 -0.6775  0.4082
 4841SOL    HW226157   2.356   0.412   4.063  0.3047  0.2817 -1.0517
 4842SOL     OW26158   2.076   1.750   4.875 -0.1700  0.2545  0.4031
 4842SOL    HW126159   2.090   1.755   4.970  4.1462 -0.6671 -0.1907
 4842SOL    HW226160   2.127   1.672   4.857 -0.3601  0.6500 -1.8463
 4843SOL     OW26161   2.751   4.156  15.471  0.7216 -0.5512  0.1725
 4843SOL    HW126162   2.841   4.179  15.447  0.3505  1.2572  0.5440
 4843SOL    HW226163   2.712   4.120  15.391 -0.7804  0.2914  0.5277
 4844SOL     OW26164   1.833   3.489   6.672 -0.1942 -0.5524  0.1019
 4844SOL    HW126165   1.811   3.429   6.600  0.4441 -0.8403  0.1506
 4844SOL    HW226166   1.824   3.566   6.617 -1.5879 -2.0276 -1.7598
 4845SOL     OW26167   0.552   1.739   2.307 -0.0856  0.4448 -0.4606
 4845SOL    HW126168   0.619   1.800   2.337  0.1388  0.0158 -0.1022
 4845SOL    HW226169   0.575   1.659   2.353  0.6387  1.4620  0.9527
 4846SOL     OW26170   4.398   0.215   1.531 -0.0320 -0.2164 -0.3195
 4846SOL    HW126171   4.355   0.198   1.447 -0.3492 -0.6990 -0.0559
 4846SOL    HW226172   4.334   0.181   1.594 -2.8861  1.3246 -2.4078
 4847SOL     OW26173   0.196   2.149   9.246 -0.4303  1.0921 -0.1472
 4847SOL    HW126174   0.122   2.136   9.306 -0.3016 -1.4143 -0.5426
 4847SOL    HW226175   0.141   2.192   9.180  0.8204  0.9848 -1.2504
 4848SOL     OW26176   2.168   0.649   1.487 -0.5841  0.2753  0.3884
 4848SOL    HW126177   2.130   0.699   1.559  0.4617 -0.2149  1.2993
 4848SOL    HW226178   2.198   0.572   1.537  1.3694 -1.2455 -3.1067
 4849SOL     OW26179   4.372   1.454   7.077  0.4069  0.1944  0.2188
 4849SOL    HW126180   4.389   1.527   7.017 -0.4675  0.3285  0.1333
 4849SOL    HW226181   4.451   1.444   7.130 -0.4419 -0.8593  1.2680
 4850SOL     OW26182   0.329   0.102   6.660  0.0554  0.2317  0.4549
 4850SOL    HW126183   0.303   0.031   6.601  1.1140  0.0462  0.1997
 4850SOL    HW226184   0.385   0.154   6.602  0.5482  0.0363  0.7596
 4851SOL     OW26185   2.017   0.902   4.849  0.0644 -0.4763  0.3479
 4851SOL    HW126186   1.994   0.906   4.942  1.0707 -0.5042  0.6024
 4851SOL    HW226187   1.953   0.955   4.802  0.7568 -0.5846 -0.7103
 4852SOL     OW26188   0.706   2.514  12.933  0.1239  0.0574 -0.3796
 4852SOL    HW126189   0.720   2.426  12.968 -2.3326 -0.1914 -0.0050
 4852SOL    HW226190   0.611   2.510  12.918 -0.2128  2.5746  1.0885
 4853SOL     OW26191   1.353   1.308   9.147 -0.4241 -0.0326 -0.1463
 4853SOL    HW126192   1.268   1.313   9.191 -0.9359  1.2109 -1.2984
 4853SOL    HW226193   1.356   1.219   9.111  1.2128  0.3503 -0.9333
 4854SOL     OW26194   0.304   1.715  10.708 -0.1123 -0.0707  0.0610
 4854SOL    HW126195   0.281   1.723  10.616  0.3132  1.9361  0.1244
 4854SOL    HW226196   0.229   1.658  10.725 -0.2742 -0.1339 -0.8824
 4855SOL     OW26197   2.518   3.008  12.644  0.3152 -0.3217 -0.1755
 4855SOL    HW126198   2.481   3.001  12.556  1.6906 -2.6505 -0.5768
 4855SOL    HW226199   2.590   3.071  12.634 -2.7068  2.8693 -1.7219
 4856SOL     OW26200   4.205   3.340   0.055  0.4884 -0.1000  0.3616
 4856SOL    HW126201   4.136   3.397   0.089 -0.7626 -0.8767 -0.8535
 4856SOL    HW226202   4.172   3.256   0.087  1.6003 -1.0866 -1.0873
 4857SOL     OW26203   0.104   2.344  16.879  0.1866 -0.4108  0.0092
 4857SOL    HW126204   0.140   2.358  16.967 -0.7854 -0.0704  0.3591
 4857SOL    HW226205   0.046   2.269  16.894  1.3814 -1.4435 -0.5375
 4858SOL     OW26206   2.954   4.710   2.812 -0.2494  0.3950  0.0779
 4858SOL    HW126207   2.862   4.696   2.832  0.5184 -1.2157  2.4136
 4858SOL    HW226208   2.981   0.018   2.893 -0.1532 -0.6726  0.6079
 4859SOL     OW26209   4.371   4.388  16.225  0.0392 -0.2813  0.2480
 4859SOL    HW126210   4.323   4.471  16.232  0.2018 -0.1397 -0.2970
 4859SOL    HW226211   4.362   4.369  16.132 -2.3754  0.2424  0.3668
 4860SOL     OW26212   2.514   0.741  16.071 -0.3797 -0.1764 -0.7635
 4860SOL    HW126213   2.457   0.735  15.994  0.3392 -1.4187 -1.1932
 4860SOL    HW226214   2.472   0.686  16.137 -2.7567 -0.1432 -2.2175
 4861SOL     OW26215   1.984   1.289   7.739  0.1798  0.2105 -0.2235
 4861SOL    HW126216   1.905   1.338   7.761  0.3101 -0.1827  1.1093
 4861SOL    HW226217   2.011   1.235   7.814 -0.7232  0.8717  0.5802
 4862SOL     OW26218   4.688   3.393   6.302  0.2580  0.0122 -0.0015
 4862SOL    HW126219   4.699   3.484   6.276  0.5708 -0.6025 -1.9678
 4862SOL    HW226220   0.038   3.392   6.346  0.6229 -0.1954 -0.7193
 4863SOL     OW26221   3.171   1.660   6.842  0.3749 -0.5021  0.0402
 4863SOL    HW126222   3.088   1.679   6.798  0.2563 -1.4052 -0.1250
 4863SOL    HW226223   3.201   1.583   6.794  1.6952 -1.1090  1.8688
 4864SOL     OW26224   1.791   1.243   3.472 -0.4885 -0.8223  0.4237
 4864SOL    HW126225   1.853   1.187   3.519  0.0593 -1.0149 -0.5412
 4864SOL    HW226226   1.842   1.268   3.395 -0.6458 -0.5242  0.4176
 4865SOL     OW26227   0.900   2.680  11.544 -0.3685 -0.3718  0.1850
 4865SOL    HW126228   0.847   2.610  11.582  1.2302 -1.3246  0.6817
 4865SOL    HW226229   0.967   2.687  11.612 -0.1547  1.5119 -0.2304
 4866SOL     OW26230   2.085   2.413   7.311 -0.3939 -0.3091 -0.0050
 4866SOL    HW126231   2.087   2.444   7.402  3.4581  2.4906 -1.0463
 4866SOL    HW226232   2.146   2.340   7.305 -0.1210 -0.0339 -0.6578
 4867SOL     OW26233   1.391   1.651   8.489  0.5419  0.2123 -0.1632
 4867SOL    HW126234   1.462   1.627   8.548  0.2802  1.1507  0.5259
 4867SOL    HW226235   1.376   1.745   8.498  0.0667 -0.0549  1.7603
 4868SOL     OW26236   3.556   0.885   0.076 -0.6077 -0.3250 -0.1961
 4868SOL    HW126237   3.592   0.963   0.119  0.6354 -0.9996  0.0039
 4868SOL    HW226238   3.634   0.869   0.022 -1.3940 -2.5898 -0.6444
 4869SOL     OW26239   2.235   3.968   8.389  0.2194 -0.6831 -0.2699
 4869SOL    HW126240   2.198   3.902   8.329  3.8213 -1.4398 -1.6774
 4869SOL    HW226241   2.267   3.908   8.457  2.5058 -0.8964 -1.5057
 4870SOL     OW26242   1.462   2.756   8.596 -0.6881 -0.0230 -0.4371
 4870SOL    HW126243   1.500   2.675   8.561 -1.1189  0.6428 -2.4306
 4870SOL    HW226244   1.531   2.775   8.660  0.6969  0.1440 -1.9803
 4871SOL     OW26245   4.521   0.705   6.636  0.0465 -0.1099  0.0733
 4871SOL    HW126246   4.569   0.630   6.671  1.4833  1.3614  1.2983
 4871SOL    HW226247   4.522   0.766   6.711 -1.5203 -0.3167  0.2648
 4872SOL     OW26248   2.547   2.540   4.455 -0.0953  0.0203 -0.3491
 4872SOL    HW126249   2.609   2.475   4.422  1.5890  1.0916  0.7169
 4872SOL    HW226250   2.599   2.615   4.427  0.2778 -0.1984 -0.2470
 4873SOL     OW26251   1.225   0.962   8.588  0.2501  0.1264  0.1551
 4873SOL    HW126252   1.130   0.976   8.593  0.6494  3.2565 -0.9114
 4873SOL    HW226253   1.227   0.870   8.564 -0.7049  0.0832  0.2504
 4874SOL     OW26254   4.584   1.708   5.362  0.4435 -0.4518  0.0477
 4874SOL    HW126255   4.590   1.634   5.422  3.8821 -0.4932 -0.3766
 4874SOL    HW226256   4.531   1.661   5.297  0.2628  1.3491 -1.1140
 4875SOL     OW26257   0.016   4.128   8.451 -0.1147  0.3505 -0.3680
 4875SOL    HW126258   0.097   4.107   8.404  0.4744  0.9606  0.3618
 4875SOL    HW226259   0.005   4.221   8.428  0.6547  0.8434  1.2475
 4876SOL     OW26260   2.820   3.808   2.402 -0.2939 -0.2350 -0.0798
 4876SOL    HW126261   2.760   3.862   2.454 -2.9099 -0.5773 -2.7178
 4876SOL    HW226262   2.761   3.779   2.332  2.1852 -0.6889 -1.9507
 4877SOL     OW26263   0.671   4.047   2.396  0.2061  0.2240 -0.7180
 4877SOL    HW126264   0.724   4.126   2.388  1.7083 -0.8469 -1.3071
 4877SOL    HW226265   0.589   4.081   2.433  0.5996 -0.6836  0.9929
 4878SOL     OW26266   1.764   4.094   1.347  0.0367  0.2456  0.4315
 4878SOL    HW126267   1.816   4.171   1.373  1.6604 -0.7481  0.1531
 4878SOL    HW226268   1.683   4.112   1.395 -2.1826 -1.9998 -2.5244
 4879SOL     OW26269   1.179   0.773   7.330 -0.1864  0.3857 -0.2678
 4879SOL    HW126270   1.209   0.684   7.347  0.3317  0.8106  1.0556
 4879SOL    HW226271   1.116   0.789   7.401 -1.4530 -2.7124 -0.7144
 4880SOL     OW26272   3.659   3.404   5.148 -0.4575 -0.1743  0.2632
 4880SOL    HW126273   3.671   3.481   5.204 -1.4629  0.3605 -0.2605
 4880SOL    HW226274   3.744   3.406   5.104 -1.8536 -0.4475 -2.4422
 4881SOL     OW26275   1.703   2.168   4.982 -0.1659 -0.1945 -0.0772
 4881SOL    HW126276   1.781   2.191   4.931  0.5307 -1.9723  0.1591
 4881SOL    HW226277   1.671   2.091   4.936  0.7575  0.0944 -1.1915
 4882SOL     OW26278   2.873   2.961  14.187  0.3355  0.0914 -0.7223
 4882SOL    HW126279   2.907   2.997  14.269 -0.3009  0.3456 -0.5705
 4882SOL    HW226280   2.793   2.921  14.222 -0.6030  1.5893 -1.1354
 4883SOL     OW26281   2.986   3.305   2.060  0.0971  0.9837  0.0664
 4883SOL    HW126282   2.981   3.234   1.996  0.6579 -0.5021  1.7028
 4883SOL    HW226283   2.988   3.255   2.141  1.2511  2.0414  0.6882
 4884SOL     OW26284   3.899   2.817   1.735  1.1687  0.1439 -0.1950
 4884SOL    HW126285   3.807   2.839   1.747  0.9630 -1.1034  0.5084
 4884SOL    HW226286   3.950   2.897   1.723 -1.3783  1.6502 -0.8231
 4885SOL     OW26287   3.991   2.616   2.715 -0.2351  0.2669  0.2224
 4885SOL    HW126288   3.917   2.671   2.689  1.0570  2.1736  0.6829
 4885SOL    HW226289   4.028   2.661   2.790  0.4854 -1.9608  1.2196
 4886SOL     OW26290   1.515   4.268  14.253 -0.4765  0.1176  0.1417
 4886SOL    HW126291   1.541   4.178  14.271  2.5312  0.4423 -2.6413
 4886SOL    HW226292   1.581   4.323  14.296  0.4693 -0.8469 -0.0611
 4887SOL     OW26293   2.351   0.774  15.014  0.0333 -0.0049  1.0131
 4887SOL    HW126294   2.400   0.705  15.059 -0.4112 -0.9095  0.1153
 4887SOL    HW226295   2.324   0.737  14.929 -2.6089 -0.6510  2.1315
 4888SOL     OW26296   4.732   2.547   7.641  0.1581 -0.6830 -0.4528
 4888SOL    HW126297   0.026   2.584   7.558  2.3417 -0.2941  0.4788
 4888SOL    HW226298   4.680   2.475   7.604 -0.4337 -0.0126 -0.9265
 4889SOL     OW26299   4.321   2.201   6.158  0.5686  0.2701  0.4270
 4889SOL    HW126300   4.267   2.244   6.225  0.0120  0.4090 -0.1038
 4889SOL    HW226301   4.393   2.159   6.205  0.1859 -2.3106 -1.2744
 4890SOL     OW26302   4.574   2.986   7.972  0.3704 -0.3797  0.2916
 4890SOL    HW126303   4.570   2.930   7.893 -3.2022 -0.9001  0.8457
 4890SOL    HW226304   4.668   2.985   7.984  0.2710  0.3647  1.0884
 4891SOL     OW26305   1.174   2.380   1.357  0.1462 -0.5333  0.1063
 4891SOL    HW126306   1.207   2.291   1.346  0.1855 -0.6099  0.8405
 4891SOL    HW226307   1.084   2.376   1.391 -0.6907  1.8021 -1.8681
 4892SOL     OW26308   4.041   4.305  12.392  0.2791  0.5355  0.4840
 4892SOL    HW126309   4.018   4.337  12.305 -0.5808 -0.0085  0.5179
 4892SOL    HW226310   4.136   4.321  12.391  0.4683 -0.5177  1.2037
 4893SOL     OW26311   3.366   0.033   0.287  0.0922  0.5652  0.2686
 4893SOL    HW126312   3.393   0.057   0.376  0.8532 -0.5635  0.3354
 4893SOL    HW226313   3.430   4.698   0.275  0.2955  0.8684 -0.3698
 4894SOL     OW26314   4.227   3.194   5.460  0.3195 -0.2054  0.6086
 4894SOL    HW126315   4.242   3.205   5.367  0.6383 -1.9981  0.4383
 4894SOL    HW226316   4.136   3.164   5.464  0.4021 -0.2783  1.8901
 4895SOL     OW26317   0.655   1.512   2.429  0.2139 -0.1510  0.2302
 4895SOL    HW126318   0.627   1.529   2.519  2.4302  0.2651  0.8529
 4895SOL    HW226319   0.665   1.417   2.434  1.7024  0.0181  0.4005
 4896SOL     OW26320   1.374   1.426  12.182 -0.0442  0.7768  0.0258
 4896SOL    HW126321   1.354   1.380  12.264 -1.0604 -0.7829 -1.0977
 4896SOL    HW226322   1.403   1.509  12.220  0.5138  0.8129 -0.4783
 4897SOL     OW26323   1.129   3.177   7.252  0.2586 -0.0431 -0.0591
 4897SOL    HW126324   1.041   3.160   7.287 -0.1800  0.6165 -0.8487
 4897SOL    HW226325   1.100   3.250   7.198 -0.4598  1.0933  1.8680
 4898SOL     OW26326   2.215   2.019   3.923  0.0734 -0.2198  0.2450
 4898SOL    HW126327   2.209   2.032   4.018 -0.6754 -0.0115  0.1667
 4898SOL    HW226328   2.152   1.947   3.915  1.0471 -1.1211  0.6803
 4899SOL     OW26329   1.783   1.997  16.307 -0.0579  0.1761 -0.5884
 4899SOL    HW126330   1.858   2.032  16.356  1.2119 -2.1342 -0.8971
 4899SOL    HW226331   1.822   1.977  16.222  1.7523  1.2818 -0.0129
 4900SOL     OW26332   1.412   2.597   0.439 -0.0573  0.4045 -0.3118
 4900SOL    HW126333   1.367   2.525   0.482 -1.2584  0.6817 -1.0915
 4900SOL    HW226334   1.342   2.633   0.384  1.1498  1.1269 -1.3879
 4901SOL     OW26335   0.225   1.279   8.939  0.1283 -0.0160  0.3131
 4901SOL    HW126336   0.200   1.227   8.862  0.7980 -0.6031  0.4899
 4901SOL    HW226337   0.311   1.241   8.954  0.8950  1.7673  0.3239
 4902SOL     OW26338   3.966   4.602   2.739  0.0889  0.1952 -0.1065
 4902SOL    HW126339   3.884   4.604   2.788 -0.4938  1.0524 -1.0981
 4902SOL    HW226340   3.962   4.513   2.704  1.6698 -0.1945  0.7227
 4903SOL     OW26341   0.022   4.513   5.695  0.2179 -0.2357 -0.2905
 4903SOL    HW126342   4.676   4.490   5.649 -2.3320  2.3754  2.9080
 4903SOL    HW226343   0.082   4.448   5.659 -1.1196 -0.3587 -2.3595
 4904SOL     OW26344   1.153   4.187   6.533 -0.3790 -0.4961 -0.5331
 4904SOL    HW126345   1.189   4.110   6.578 -1.9135 -0.8777  0.0293
 4904SOL    HW226346   1.230   4.243   6.543 -0.5100  0.1143 -2.9334
 4905SOL     OW26347   1.137   2.483   6.528 -0.4432  0.1333  0.0832
 4905SOL    HW126348   1.111   2.568   6.491 -1.4238 -0.1871  0.0338
 4905SOL    HW226349   1.071   2.478   6.597  0.8955 -3.1740  1.0639
 4906SOL     OW26350   0.402   1.397   1.616 -0.2158  0.2759  0.3899
 4906SOL    HW126351   0.445   1.312   1.603  2.4185  1.8428 -1.2310
 4906SOL    HW226352   0.443   1.452   1.549 -1.4056 -0.4543 -0.9451
 4907SOL     OW26353   3.699   0.117   6.122  0.2998  0.1352 -0.0367
 4907SOL    HW126354   3.658   0.074   6.047  0.9935  1.0416 -0.9316
 4907SOL    HW226355   3.639   0.186   6.150  0.3564  1.4830 -3.2094
 4908SOL     OW26356   2.547   2.972   3.495 -0.4150  0.0028 -0.1586
 4908SOL    HW126357   2.603   3.050   3.501 -1.7688  0.8573  1.1286
 4908SOL    HW226358   2.608   2.912   3.537  2.4171  2.5162 -0.6732
 4909SOL     OW26359   4.243   1.557   5.413 -0.3369 -0.1455  0.2231
 4909SOL    HW126360   4.199   1.481   5.452  0.3064  0.4355  2.0462
 4909SOL    HW226361   4.326   1.516   5.389 -1.0280 -0.6360 -1.3630
 4910SOL     OW26362   3.315   2.185   1.583 -0.3638  0.7565 -0.0081
 4910SOL    HW126363   3.401   2.221   1.607  0.0798 -0.3771  0.0986
 4910SOL    HW226364   3.301   2.222   1.496 -1.2586  0.6220  0.0858
 4911SOL     OW26365   2.163   1.357  16.672  0.5226 -0.1390  0.4637
 4911SOL    HW126366   2.127   1.284  16.722  1.6804 -0.8886  0.2097
 4911SOL    HW226367   2.256   1.335  16.681  0.4970 -1.1634 -1.6361
 4912SOL     OW26368   1.472   0.845  15.305 -0.4077  0.0966 -0.3223
 4912SOL    HW126369   1.378   0.845  15.289 -0.7299 -1.3891  1.5412
 4912SOL    HW226370   1.493   0.764  15.259 -1.9726  0.0933 -1.0251
 4913SOL     OW26371   4.670   3.321   2.887  0.4701  0.0105  0.2824
 4913SOL    HW126372   4.724   3.254   2.844 -0.8883 -1.8809  1.5408
 4913SOL    HW226373   4.638   3.273   2.963  0.1150 -0.6300 -0.2614
 4914SOL     OW26374   2.728   3.845   2.891 -0.2785  0.0103 -0.0727
 4914SOL    HW126375   2.774   3.914   2.843  0.9990 -1.3405 -0.7862
 4914SOL    HW226376   2.803   3.822   2.946  0.2639 -1.0980 -1.2775
 4915SOL     OW26377   4.085   2.903   7.520 -0.5598 -0.0373  0.2578
 4915SOL    HW126378   4.120   2.967   7.581  2.0907 -0.3015 -0.9930
 4915SOL    HW226379   3.997   2.886   7.555  0.2380  0.4150  2.4242
 4916SOL     OW26380   4.313   2.370   3.731 -0.3343 -0.1070  0.6481
 4916SOL    HW126381   4.262   2.319   3.793  1.2884 -1.8303  0.5508
 4916SOL    HW226382   4.288   2.320   3.654  2.4444  0.7117 -0.7949
 4917SOL     OW26383   4.131   2.974  13.196 -0.4185 -0.5830 -0.8802
 4917SOL    HW126384   4.090   2.956  13.111  1.4339 -0.3185 -1.8102
 4917SOL    HW226385   4.051   3.005  13.239  0.5884  0.4702  0.2496
 4918SOL     OW26386   0.312   1.173   4.361  0.6193  0.2575 -0.5150
 4918SOL    HW126387   0.287   1.250   4.310 -0.7278  0.8082  0.9705
 4918SOL    HW226388   0.375   1.136   4.300  1.7340 -0.5164  1.0911
 4919SOL     OW26389   4.275   2.970   3.665  0.1583  0.5776  0.2275
 4919SOL    HW126390   4.302   3.019   3.743  0.4738  0.1892  0.3676
 4919SOL    HW226391   4.181   2.965   3.679  0.3160 -0.0291  1.1152
 4920SOL     OW26392   4.398   3.454   5.243  0.1701 -0.3155 -0.6848
 4920SOL    HW126393   4.428   3.495   5.162  1.0467  2.2202  0.9255
 4920SOL    HW226394   4.460   3.381   5.240 -0.7400 -1.1054 -0.3922
 4921SOL     OW26395   3.933   0.331   4.917 -0.3555  0.4630 -0.6026
 4921SOL    HW126396   4.007   0.388   4.900 -0.0594  0.6881  1.3875
 4921SOL    HW226397   3.908   0.359   5.005  0.8733  3.7735 -1.3305
 4922SOL     OW26398   3.048   0.906   8.024 -0.0138 -0.3538 -0.4084
 4922SOL    HW126399   3.134   0.914   7.985  1.2463 -0.8348  2.2675
 4922SOL    HW226400   2.995   0.972   7.980 -0.6381 -0.8103 -0.3563
 4923SOL     OW26401   3.756   0.880   2.788 -0.1499 -0.4480 -0.2574
 4923SOL    HW126402   3.745   0.970   2.758  0.9761 -0.4290 -0.5777
 4923SOL    HW226403   3.836   0.890   2.839 -1.3776 -0.6275  1.7146
 4924SOL     OW26404   0.919   1.548   7.367 -0.6068 -0.6350  0.2891
 4924SOL    HW126405   0.983   1.600   7.318 -2.5751  1.8808  0.4110
 4924SOL    HW226406   0.851   1.538   7.301  0.2128 -1.6724 -0.3947
 4925SOL     OW26407   1.334   1.318   6.244 -0.3623  0.2330 -0.0931
 4925SOL    HW126408   1.284   1.282   6.318  1.1445  0.9521  1.2772
 4925SOL    HW226409   1.261   1.354   6.193 -1.2605 -3.6131 -1.4851
 4926SOL     OW26410   0.104   4.302  11.759 -0.1595  0.3373 -0.1460
 4926SOL    HW126411   0.179   4.295  11.701  1.1426 -2.5460  1.8786
 4926SOL    HW226412   0.130   4.236  11.823  0.9954  1.0667  0.1317
 4927SOL     OW26413   1.596   0.111   9.329 -0.0200  0.1341  0.2791
 4927SOL    HW126414   1.661   0.073   9.388 -0.0015  0.3794  0.4186
 4927SOL    HW226415   1.657   0.147   9.265  0.8374 -0.9968  0.4663
 4928SOL     OW26416   0.371   3.584   7.688  0.1205 -0.2208 -0.0020
 4928SOL    HW126417   0.332   3.578   7.601 -0.9455 -0.6804  0.5078
 4928SOL    HW226418   0.463   3.597   7.666 -0.5148  0.8704 -2.0241
 4929SOL     OW26419   0.608   4.064  11.320  0.2915 -0.3840 -0.1766
 4929SOL    HW126420   0.531   4.036  11.270 -0.4077 -0.6863  1.0698
 4929SOL    HW226421   0.634   3.987  11.370 -0.9336 -0.9218 -0.3708
 4930SOL     OW26422   0.106   4.656   2.611  0.5107  0.1472  0.1962
 4930SOL    HW126423   0.119   0.013   2.587  0.6095  0.5963  1.9602
 4930SOL    HW226424   0.074   4.605   2.537 -0.4690  1.7684 -0.4863
 4931SOL     OW26425   1.715   1.880   6.297  0.2902 -0.5772  0.5344
 4931SOL    HW126426   1.794   1.934   6.288 -1.5696  2.1210  0.3283
 4931SOL    HW226427   1.747   1.790   6.305  1.4727 -0.1306  0.8278
 4932SOL     OW26428   3.983   0.395   3.678  0.0564 -0.3433  0.1698
 4932SOL    HW126429   4.072   0.411   3.710 -0.7231  1.3495  1.5077
 4932SOL    HW226430   3.951   0.485   3.671 -1.8866 -1.0971 -0.5057
 4933SOL     OW26431   3.236   4.280   6.032 -0.4065  0.5628 -0.3548
 4933SOL    HW126432   3.248   4.306   6.123  0.3737  1.7695 -0.8004
 4933SOL    HW226433   3.232   4.185   6.042  0.3906  0.3558 -2.0384
 4934SOL     OW26434   4.492   1.246   8.830  0.2681  0.3538  0.1973
 4934SOL    HW126435   4.457   1.334   8.844  0.1864 -0.0614  2.6334
 4934SOL    HW226436   4.499   1.225   8.923 -0.6937 -0.7070  0.0297
 4935SOL     OW26437   2.726   3.842   4.582 -0.4775  0.1917 -0.2810
 4935SOL    HW126438   2.719   3.749   4.602  1.6681  0.3938  1.4845
 4935SOL    HW226439   2.643   3.874   4.617 -0.4360 -0.1394  0.1195
 4936SOL     OW26440   1.737   3.791   6.720 -0.3919  0.2137 -0.1061
 4936SOL    HW126441   1.767   3.857   6.658  1.6135 -0.3427  0.2599
 4936SOL    HW226442   1.687   3.727   6.670  0.8180  0.4144 -1.5624
 4937SOL     OW26443   1.553   1.178   7.872 -0.2491  0.3487 -0.1505
 4937SOL    HW126444   1.641   1.172   7.835  0.5115  2.2054  1.3437
 4937SOL    HW226445   1.561   1.126   7.952  1.4666  2.1218  0.8403
 4938SOL     OW26446   0.265   3.653  15.081  0.1962  0.0800  0.0060
 4938SOL    HW126447   0.227   3.588  15.022 -0.1948 -0.1841  0.5476
 4938SOL    HW226448   0.236   3.731  15.032  0.7433 -0.3744 -1.0466
 4939SOL     OW26449   3.886   4.494   4.057 -0.2136 -0.7703  0.3675
 4939SOL    HW126450   3.844   4.509   4.142  1.3331 -1.1485  1.1890
 4939SOL    HW226451   3.944   4.420   4.073  0.1607 -1.2115 -3.0682
 4940SOL     OW26452   4.638   1.959   3.580 -0.2984  0.2640  0.2902
 4940SOL    HW126453   4.623   1.914   3.497 -1.3588  0.9291  0.1291
 4940SOL    HW226454   4.721   1.911   3.588  0.7032  1.5997 -2.0626
 4941SOL     OW26455   2.673   3.250   1.848 -0.0318  0.0457 -0.1528
 4941SOL    HW126456   2.658   3.284   1.760  2.7433  1.8433  0.0769
 4941SOL    HW226457   2.739   3.184   1.827 -0.1717  0.2127 -1.1017
 4942SOL     OW26458   3.938   1.625   6.182  0.3261  0.4262 -0.1864
 4942SOL    HW126459   3.893   1.547   6.214  0.4583  1.0072  1.4202
 4942SOL    HW226460   3.938   1.606   6.089 -1.6713 -0.1973 -0.0617
 4943SOL     OW26461   1.791   3.874   3.941  0.1714 -0.3504  0.1613
 4943SOL    HW126462   1.706   3.859   3.898  0.2969 -0.5085 -0.0317
 4943SOL    HW226463   1.852   3.837   3.877 -1.5340 -1.9912 -0.5107
 4944SOL     OW26464   3.484   1.003   1.916  0.1114 -0.2817 -0.0553
 4944SOL    HW126465   3.456   0.921   1.956 -2.0077 -0.8709 -2.7726
 4944SOL    HW226466   3.443   1.002   1.830  2.2290 -0.4761 -1.0441
 4945SOL     OW26467   2.095   0.397  13.708  0.0773  0.3240  0.0478
 4945SOL    HW126468   2.147   0.450  13.648  0.5105 -1.2446 -0.9667
 4945SOL    HW226469   2.047   0.351  13.639 -1.6349  1.1481  0.6927
 4946SOL     OW26470   4.533   1.477   4.365 -0.0614 -0.5737  0.7876
 4946SOL    HW126471   4.525   1.508   4.275 -3.6217  1.0426  1.6722
 4946SOL    HW226472   4.622   1.499   4.392 -0.7378  1.5849  1.2124
 4947SOL     OW26473   0.548   2.050   4.988 -0.0163 -0.0156  0.1085
 4947SOL    HW126474   0.559   1.973   4.930  0.7846 -0.2067  0.5174
 4947SOL    HW226475   0.556   1.997   5.067 -2.1512 -2.8748 -1.5606
 4948SOL     OW26476   2.381   2.960  14.762  0.1690  0.4010 -0.3128
 4948SOL    HW126477   2.388   3.036  14.704  0.6364 -1.2433 -2.4293
 4948SOL    HW226478   2.473   2.934  14.761  0.1484  0.3855 -1.9987
 4949SOL     OW26479   3.464   3.413   8.836  0.1806  0.5581  0.6620
 4949SOL    HW126480   3.530   3.482   8.830 -1.7201  2.4328  1.2630
 4949SOL    HW226481   3.458   3.392   8.743  1.7523 -1.2932  0.9756
 4950SOL     OW26482   3.449   3.640  15.547 -0.0620  0.1214  0.3257
 4950SOL    HW126483   3.379   3.575  15.559  0.5431 -0.3469  1.3354
 4950SOL    HW226484   3.421   3.703  15.481 -0.2705  0.1017  0.3958
 4951SOL     OW26485   0.212   1.373   3.208 -0.0752 -0.4126 -0.2784
 4951SOL    HW126486   0.246   1.298   3.256  1.3795  0.3951 -0.0482
 4951SOL    HW226487   0.129   1.336   3.177 -0.1923  0.3397 -0.8908
 4952SOL     OW26488   1.696   2.280  13.319 -0.0556  0.3314  0.2717
 4952SOL    HW126489   1.754   2.267  13.244  0.3374  0.5496  0.5383
 4952SOL    HW226490   1.723   2.366  13.351  1.5026 -0.3904  0.9074
 4953SOL     OW26491   4.225   2.566  17.515  0.2639  0.0296  0.2848
 4953SOL    HW126492   4.291   2.506  17.551  0.4271 -0.9990 -1.7032
 4953SOL    HW226493   4.247   2.561  17.422 -0.8634 -0.0547  0.0234
 4954SOL     OW26494   3.090   3.808  14.120 -0.4479 -0.4281  0.4124
 4954SOL    HW126495   3.152   3.735  14.122  1.0355  0.8176 -0.4688
 4954SOL    HW226496   3.042   3.774  14.044 -0.9862  0.9441  0.1333
 4955SOL     OW26497   0.042   4.584   4.002 -0.5941  1.1366 -0.2180
 4955SOL    HW126498   0.127   4.621   3.978  1.7012 -3.0243  1.5959
 4955SOL    HW226499   0.041   4.605   4.096  1.3762  0.9218 -0.1481
 4956SOL     OW26500   1.469   3.162   1.810 -0.4072  0.8973  0.0878
 4956SOL    HW126501   1.554   3.170   1.766 -0.7341 -4.5801 -1.4390
 4956SOL    HW226502   1.473   3.214   1.891  1.6797  0.8084  0.0344
 4957SOL     OW26503   2.619   4.283   4.677 -0.2336  0.0562 -0.5384
 4957SOL    HW126504   2.651   4.217   4.739 -1.5268 -0.9935 -0.9787
 4957SOL    HW226505   2.694   4.291   4.619 -0.4868  1.3658 -0.6672
 4958SOL     OW26506   0.760   2.283   4.915 -0.0685  0.3462  0.2286
 4958SOL    HW126507   0.825   2.221   4.948 -1.1930 -0.6674  0.5532
 4958SOL    HW226508   0.748   2.237   4.831 -2.8583  0.5321  0.5165
 4959SOL     OW26509   0.266   3.438   8.773 -0.2258 -0.9679  0.4046
 4959SOL    HW126510   0.308   3.359   8.739  0.7925 -1.0480  1.8888
 4959SOL    HW226511   0.182   3.402   8.802 -0.8582  0.8774  0.8398
 4960SOL     OW26512   0.095   3.505  15.845  0.2839 -0.0981 -0.8075
 4960SOL    HW126513   0.164   3.545  15.897  0.5311 -0.8638 -0.5397
 4960SOL    HW226514   0.020   3.562  15.860 -1.4387 -2.2561 -1.1273
 4961SOL     OW26515   2.773   0.029   2.378  0.6138  0.3517 -0.3162
 4961SOL    HW126516   2.826   0.028   2.298  0.5631  2.6163 -0.4019
 4961SOL    HW226517   2.812   4.683   2.408 -1.2869 -0.4448 -0.0700
 4962SOL     OW26518   1.892   0.051  13.707  0.3706  0.2873 -0.1039
 4962SOL    HW126519   1.864   0.107  13.634  0.8703  2.3675  1.2813
 4962SOL    HW226520   1.813   0.045  13.761 -1.1470  0.6350 -2.3124
 4963SOL     OW26521   4.557   2.863   1.757  0.0690 -0.7080  0.7736
 4963SOL    HW126522   4.575   2.812   1.678 -1.8957 -0.6550  0.2964
 4963SOL    HW226523   4.645   2.875   1.792  0.4780  0.8081 -0.7859
 4964SOL     OW26524   3.016   1.929   2.919 -0.0475 -0.4899 -0.1600
 4964SOL    HW126525   3.087   1.865   2.932  2.7239  3.0697  2.0421
 4964SOL    HW226526   3.067   1.983   2.859 -1.4969 -0.6985 -1.5962
 4965SOL     OW26527   3.028   3.271   2.728  0.3083  0.4450  0.0591
 4965SOL    HW126528   2.937   3.251   2.707  0.3248  0.3345  0.0912
 4965SOL    HW226529   3.024   3.335   2.800 -1.7144  0.7650 -0.3402
 4966SOL     OW26530   1.369   2.121   4.789  0.6825 -0.5957 -0.1662
 4966SOL    HW126531   1.329   2.055   4.732  0.2735 -0.4842 -0.0093
 4966SOL    HW226532   1.426   2.063   4.840  1.0762  1.5686  1.7909
 4967SOL     OW26533   1.710   3.038   5.689 -0.0504  0.2664 -0.0817
 4967SOL    HW126534   1.788   2.984   5.679 -2.0874 -2.7975  0.4316
 4967SOL    HW226535   1.748   3.124   5.705 -2.3668  1.1341  0.8798
 4968SOL     OW26536   4.400   3.239   3.812 -0.1519 -0.2119  0.0039
 4968SOL    HW126537   4.404   3.329   3.779 -4.4454 -0.4674 -1.0996
 4968SOL    HW226538   4.328   3.237   3.875 -1.0917 -0.1815 -1.0686
 4969SOL     OW26539   0.100   3.379   8.513 -0.8607  0.2325 -0.0652
 4969SOL    HW126540   0.066   3.433   8.441  2.6579  1.4537 -0.8210
 4969SOL    HW226541   0.141   3.451   8.560 -1.2974  1.8414 -2.1228
 4970SOL     OW26542   3.647   0.154   0.696 -0.4467 -0.1630  0.4287
 4970SOL    HW126543   3.647   0.250   0.701 -0.0908 -0.2427  1.9011
 4970SOL    HW226544   3.664   0.136   0.789  1.1605 -0.2176  0.1253
 4971SOL     OW26545   2.152   3.525  16.773 -0.3729 -0.4344 -0.3974
 4971SOL    HW126546   2.237   3.569  16.769 -0.4312 -0.2571  0.2663
 4971SOL    HW226547   2.126   3.557  16.859 -0.6714  0.3531 -0.7793
 4972SOL     OW26548   0.416   4.731  17.282  0.3222 -0.1709 -0.5701
 4972SOL    HW126549   0.482   4.694  17.225 -0.2944 -1.1320 -0.6537
 4972SOL    HW226550   0.380   0.057  17.218 -0.2245  0.8203  0.6761
 4973SOL     OW26551   2.482   2.680  12.127  0.5304  0.5119 -0.3467
 4973SOL    HW126552   2.501   2.657  12.036  2.0502 -0.8647  0.3145
 4973SOL    HW226553   2.411   2.744  12.125  0.6200  0.5636 -2.1002
 4974SOL     OW26554   3.910   4.555  14.706  0.4010  0.4270  0.4269
 4974SOL    HW126555   3.821   4.562  14.671  0.4491 -0.7244  0.0964
 4974SOL    HW226556   3.947   4.601  14.631 -0.3407  0.9305  0.3727
 4975SOL     OW26557   0.830   2.805   0.141  0.3520  0.1702 -0.2675
 4975SOL    HW126558   0.813   2.712   0.125  1.3374 -0.2544  1.0998
 4975SOL    HW226559   0.775   2.850   0.077 -0.1203  0.4945  0.3648
 4976SOL     OW26560   0.740   1.857   7.053 -0.2685  0.2629  0.0446
 4976SOL    HW126561   0.776   1.793   6.991  1.9341  1.7671 -0.2414
 4976SOL    HW226562   0.745   1.939   7.004 -1.2412  0.9182  1.0613
 4977SOL     OW26563   2.715   3.927  17.269 -0.9933  0.0390  0.5980
 4977SOL    HW126564   2.770   3.850  17.286  0.4976  0.9466 -0.1820
 4977SOL    HW226565   2.685   3.904  17.181  1.0845 -0.6801  0.0736
 4978SOL     OW26566   2.902   3.389   6.271  0.0144 -0.5051 -0.1496
 4978SOL    HW126567   2.905   3.484   6.261  0.1087 -0.6160 -1.1132
 4978SOL    HW226568   2.809   3.366   6.269 -0.5656  1.8304  0.0483
 4979SOL     OW26569   2.860   3.457   0.174  0.9206  0.0353  0.1547
 4979SOL    HW126570   2.873   3.551   0.182 -1.5041  0.0450  3.9584
 4979SOL    HW226571   2.892   3.422   0.257 -2.2199  0.4113  1.5404
 4980SOL     OW26572   0.694   0.788   6.807  0.0714 -0.1111  0.0261
 4980SOL    HW126573   0.651   0.732   6.871 -1.7566  1.3725  0.0570
 4980SOL    HW226574   0.788   0.772   6.816 -0.1445 -1.3739  0.0697
 4981SOL     OW26575   3.952   3.211   8.044 -0.0991  0.0406 -0.0107
 4981SOL    HW126576   3.987   3.238   8.128  1.1207  1.9935 -1.1514
 4981SOL    HW226577   4.009   3.261   7.986  0.1367 -0.2159  0.0025
 4982SOL     OW26578   2.509   2.677   3.813 -0.7268  0.1465  0.3922
 4982SOL    HW126579   2.477   2.686   3.723  0.0226  0.5049  0.1618
 4982SOL    HW226580   2.474   2.759   3.848  0.5885  1.1654 -0.6659
 4983SOL     OW26581   1.201   1.666   0.772  0.0632 -0.0198 -0.5961
 4983SOL    HW126582   1.296   1.675   0.775  0.2314 -2.1662  0.2705
 4983SOL    HW226583   1.178   1.574   0.755  0.7371  0.3382 -3.4581
 4984SOL     OW26584   0.466   2.894   5.971 -0.1592  0.4017 -0.3652
 4984SOL    HW126585   0.440   2.981   5.999  1.1792  0.6151  0.2184
 4984SOL    HW226586   0.483   2.853   6.056 -0.8705  1.8531  0.4744
 4985SOL     OW26587   3.927   0.409   5.672  0.2576  0.1557 -0.4136
 4985SOL    HW126588   3.951   0.353   5.746 -2.4786  2.5132  2.2547
 4985SOL    HW226589   3.920   0.493   5.717  1.0336  0.9685 -1.8118
 4986SOL     OW26590   0.603   4.469  17.266 -0.0360  0.1847 -0.1449
 4986SOL    HW126591   0.693   4.466  17.299  0.0654  0.7578 -0.3646
 4986SOL    HW226592   0.607   4.539  17.201 -0.3277  0.2310 -0.1137
 4987SOL     OW26593   3.415   2.400   2.649 -0.4729  0.3886 -0.1441
 4987SOL    HW126594   3.455   2.449   2.577 -0.8205  1.0437  0.1078
 4987SOL    HW226595   3.396   2.466   2.715 -2.8144 -1.2987  0.8630
 4988SOL     OW26596   0.538   2.241   4.044 -0.3573  0.5698 -0.0376
 4988SOL    HW126597   0.600   2.278   4.107  0.3859 -1.5332  0.4606
 4988SOL    HW226598   0.591   2.224   3.967  0.1168  0.1025  0.3948
 4989SOL     OW26599   2.573   3.830   1.735 -0.4306 -0.2032 -0.6216
 4989SOL    HW126600   2.634   3.773   1.688 -0.2577 -1.2448  0.8554
 4989SOL    HW226601   2.534   3.778   1.805 -2.4105  1.4147 -0.5410
 4990SOL     OW26602   0.304   2.109   4.457  0.2779 -0.0853  0.4671
 4990SOL    HW126603   0.299   2.019   4.489 -0.5791 -1.1988 -2.7292
 4990SOL    HW226604   0.295   2.099   4.362 -0.2005 -1.9381  0.6963
 4991SOL     OW26605   4.367   0.648   2.486  0.4119 -0.0356  0.4025
 4991SOL    HW126606   4.321   0.611   2.561  0.0197 -0.2387  0.0662
 4991SOL    HW226607   4.399   0.572   2.437 -0.6146  0.1273 -0.5380
 4992SOL     OW26608   0.612   3.282   7.354 -0.0132  0.0650  0.1539
 4992SOL    HW126609   0.552   3.307   7.284  1.0243 -0.2258 -0.8541
 4992SOL    HW226610   0.591   3.191   7.377 -0.5238 -0.1135 -1.0151
 4993SOL     OW26611   1.566   1.292   3.141 -0.5681 -0.4374 -0.4012
 4993SOL    HW126612   1.603   1.212   3.104  1.3096 -0.2111  0.9724
 4993SOL    HW226613   1.632   1.356   3.112 -3.7359  1.6955 -2.9259
 4994SOL     OW26614   1.350   1.637  10.254  0.4952  0.2695  0.4880
 4994SOL    HW126615   1.425   1.585  10.225 -0.7700 -1.5662  0.4657
 4994SOL    HW226616   1.281   1.604  10.196  0.1419  1.0793  0.4562
 4995SOL     OW26617   2.192   4.681   6.410  0.5488  0.9228  0.5058
 4995SOL    HW126618   2.214   4.638   6.493 -1.5467  1.0215  1.1056
 4995SOL    HW226619   2.191   4.601   6.358 -0.5329  0.4138  1.3159
 4996SOL     OW26620   3.526   0.750   2.688  0.0272 -0.0034 -0.0762
 4996SOL    HW126621   3.565   0.673   2.730  2.2597  1.3940  0.4208
 4996SOL    HW226622   3.565   0.809   2.753 -0.7136  1.2161 -0.7562
 4997SOL     OW26623   4.282   0.790  16.670 -0.1342 -0.0569 -0.6972
 4997SOL    HW126624   4.193   0.821  16.655 -0.3878 -0.2576  0.3969
 4997SOL    HW226625   4.275   0.756  16.758  0.8255  1.3136 -0.0788
 4998SOL     OW26626   4.165   1.795  11.321  0.5925 -0.1366  0.5559
 4998SOL    HW126627   4.198   1.766  11.236 -3.2265 -1.8980 -0.3253
 4998SOL    HW226628   4.104   1.866  11.302  0.4557 -0.6849 -0.9746
 4999SOL     OW26629   0.565   0.237   7.139  0.5494  0.0445 -0.0048
 4999SOL    HW126630   0.492   0.233   7.077  1.3353 -0.1966 -0.9172
 4999SOL    HW226631   0.581   0.143   7.145  0.5990 -0.1130 -2.3149
 5000SOL     OW26632   0.696   1.331   8.071 -0.3643 -0.7740 -0.1295
 5000SOL    HW126633   0.612   1.358   8.108  0.4149  2.0854 -0.4706
 5000SOL    HW226634   0.705   1.391   7.997  1.2401  0.4629  1.0861
 5001SOL     OW26635   4.676   2.536   8.473 -0.0979 -0.4268 -0.4652
 5001SOL    HW126636   4.701   2.447   8.448  1.0151 -0.1968 -0.1568
 5001SOL    HW226637   4.655   2.518   8.565  3.5863 -2.0571  0.0390
 5002SOL     OW26638   0.124   1.896   4.608  0.2055 -0.1377 -0.2559
 5002SOL    HW126639   0.079   1.980   4.594  2.3802  0.8525 -1.3403
 5002SOL    HW226640   0.055   1.830   4.607 -0.2616  0.3469 -0.3887
 5003SOL     OW26641   4.161   1.972   2.149  0.6861  0.6250  0.4840
 5003SOL    HW126642   4.256   1.971   2.160  0.6368  0.4722  0.8896
 5003SOL    HW226643   4.140   1.879   2.161  0.4506  0.7119  0.7482
 5004SOL     OW26644   2.290   1.239   6.539 -0.1704  0.4019 -0.0714
 5004SOL    HW126645   2.221   1.177   6.516 -0.2578  0.0208  1.2468
 5004SOL    HW226646   2.357   1.227   6.472  0.1179  2.0496 -0.0984
 5005SOL     OW26647   4.637   4.309   9.095 -0.3817  0.2836  0.5711
 5005SOL    HW126648   4.712   4.254   9.119 -0.6789 -0.4365 -0.1182
 5005SOL    HW226649   4.677   4.380   9.045 -2.4541 -0.0553 -1.5211
 5006SOL     OW26650   1.398   0.623   1.518 -0.0171  0.0643  0.2278
 5006SOL    HW126651   1.394   0.590   1.608 -1.3946  0.0571  0.1550
 5006SOL    HW226652   1.425   0.546   1.467  4.9041  0.7508  1.7293
 5007SOL     OW26653   4.650   0.074   4.511  0.3164 -0.3338  0.2593
 5007SOL    HW126654   4.597   0.006   4.552  1.6555 -0.5921  1.5817
 5007SOL    HW226655   4.642   0.054   4.418 -2.8858 -1.9945  0.9075
 5008SOL     OW26656   3.368   0.105  10.384  0.2134  0.5955 -0.1036
 5008SOL    HW126657   3.309   0.155  10.441 -0.3712 -1.5942  1.2091
 5008SOL    HW226658   3.455   0.125  10.418 -0.3264  1.7669  0.5938
 5009SOL     OW26659   2.499   2.934  17.479  0.0796 -0.2465  0.1233
 5009SOL    HW126660   2.487   2.999  17.547 -3.2320 -0.8462  0.1137
 5009SOL    HW226661   2.595   2.929  17.486 -0.1069 -2.6268  1.2182
 5010SOL     OW26662   0.064   1.307  11.713 -0.0350 -0.3271 -0.4681
 5010SOL    HW126663   4.706   1.287  11.725  0.7634 -1.6883  3.2686
 5010SOL    HW226664   0.107   1.223  11.698 -0.7008 -1.0987  1.9444
 5011SOL     OW26665   2.932   2.638   5.081  0.2916 -0.0913 -0.1448
 5011SOL    HW126666   2.988   2.705   5.042 -0.9320 -0.7553 -3.0179
 5011SOL    HW226667   2.908   2.585   5.005 -1.9612 -1.5523  1.5774
 5012SOL     OW26668   3.185   0.399  10.841  0.0124 -0.2376 -0.4297
 5012SOL    HW126669   3.206   0.491  10.856  0.4194  0.0215 -2.5721
 5012SOL    HW226670   3.273   0.371  10.866 -0.8343 -0.4528  2.2779
 5013SOL     OW26671   0.067   3.270  16.003  0.1203 -0.1211  0.2318
 5013SOL    HW126672   0.079   3.349  16.055  2.0297 -0.8498  0.8941
 5013SOL    HW226673   0.100   3.293  15.916  0.2318 -0.1484  0.2672
 5014SOL     OW26674   3.949   2.106   2.291  0.2923 -0.3451  0.6260
 5014SOL    HW126675   3.993   2.071   2.213  0.6998 -1.3397  1.3016
 5014SOL    HW226676   3.987   2.193   2.304  0.7525 -0.4975  0.3142
 5015SOL     OW26677   0.270   3.798   5.901 -0.0933  0.4703 -0.4224
 5015SOL    HW126678   0.328   3.785   5.976  2.1838 -0.5348 -2.3613
 5015SOL    HW226679   0.315   3.747   5.834 -1.5270 -0.4683 -0.6710
 5016SOL     OW26680   2.020   1.528  12.613  0.3247  0.2792  0.1401
 5016SOL    HW126681   2.012   1.474  12.534 -2.0965 -0.6887  1.0208
 5016SOL    HW226682   2.114   1.526  12.629 -0.0048 -3.7285  1.5620
 5017SOL     OW26683   0.229   0.173   9.710  0.1428  0.1750  0.6127
 5017SOL    HW126684   0.224   0.128   9.794 -0.8131  1.8750  1.4544
 5017SOL    HW226685   0.316   0.210   9.725  0.6254 -0.9754  0.6712
 5018SOL     OW26686   3.227   2.849   6.173 -0.3949  0.1506  0.3895
 5018SOL    HW126687   3.132   2.846   6.171 -0.3972  1.0220 -1.0395
 5018SOL    HW226688   3.239   2.774   6.115 -1.0945 -0.8767  1.5729
 5019SOL     OW26689   4.622   4.002   7.772 -0.1467  0.2321  0.4719
 5019SOL    HW126690   4.701   3.974   7.726  1.1162  1.4030  1.9080
 5019SOL    HW226691   4.546   3.987   7.716  1.1790 -0.9391 -1.0002
 5020SOL     OW26692   2.091   3.646  14.734 -0.1720 -0.3387  0.3803
 5020SOL    HW126693   2.095   3.683  14.822 -0.9655  0.3980  0.1054
 5020SOL    HW226694   2.071   3.554  14.752  0.1147 -0.1353  1.7178
 5021SOL     OW26695   2.855   3.344   9.018 -0.4759 -0.1683 -0.2082
 5021SOL    HW126696   2.892   3.385   8.940 -1.5962 -0.3510 -0.8297
 5021SOL    HW226697   2.782   3.405   9.032 -0.3656  0.4577 -2.3072
 5022SOL     OW26698   2.280   3.372   0.687  0.1745 -0.0060 -0.3704
 5022SOL    HW126699   2.275   3.278   0.707  2.7177 -0.4382 -1.7269
 5022SOL    HW226700   2.265   3.374   0.593  0.6556 -0.3483 -0.4553
 5023SOL     OW26701   1.053   4.636   7.152  0.1641 -0.4058  0.0249
 5023SOL    HW126702   1.085   4.726   7.141 -0.6660  0.2033  2.5016
 5023SOL    HW226703   1.111   4.613   7.224 -1.1856 -2.4675  0.4555
 5024SOL     OW26704   0.196   0.585   4.531 -0.0803  0.0813  0.1713
 5024SOL    HW126705   0.200   0.638   4.451  0.5629  0.7615  0.6592
 5024SOL    HW226706   0.120   0.619   4.580  0.0290  1.8253 -0.8750
 5025SOL     OW26707   1.374   2.093   2.808  0.7265 -0.6023 -0.0612
 5025SOL    HW126708   1.325   2.173   2.827 -0.9727 -0.9797 -2.9248
 5025SOL    HW226709   1.412   2.088   2.896 -0.3540  2.7480  0.6036
 5026SOL     OW26710   2.661   1.733   5.530 -0.4240  0.5135  0.1537
 5026SOL    HW126711   2.677   1.739   5.624  0.2243 -2.2340  0.2215
 5026SOL    HW226712   2.702   1.816   5.507 -0.0089  0.5218  0.9386
 5027SOL     OW26713   2.036   2.499   4.681  0.0957  0.4718 -0.5519
 5027SOL    HW126714   2.111   2.511   4.624  0.4181  0.0207 -0.2220
 5027SOL    HW226715   2.075   2.461   4.760  0.1289  0.2271 -0.6859
 5028SOL     OW26716   0.508   0.944   8.746  0.0910  0.7822  0.1757
 5028SOL    HW126717   0.575   1.012   8.753 -0.0070  1.0298 -1.2847
 5028SOL    HW226718   0.551   0.875   8.695  0.6552  1.5583 -0.3889
 5029SOL     OW26719   0.538   1.482   4.030 -0.5464 -0.1905  0.0083
 5029SOL    HW126720   0.573   1.404   3.987 -2.5078 -0.5435 -0.9468
 5029SOL    HW226721   0.460   1.488   3.974  0.4660 -1.6351 -1.5508
 5030SOL     OW26722   1.386   0.327   4.685  0.3906 -0.1856 -0.0439
 5030SOL    HW126723   1.375   0.328   4.590  0.1927  2.3213  0.0017
 5030SOL    HW226724   1.419   0.238   4.700  0.0242  0.2302  3.3117
 5031SOL     OW26725   3.306   1.267  13.667  0.0799 -0.4754  0.8751
 5031SOL    HW126726   3.321   1.283  13.574 -2.8540  1.4431  0.7353
 5031SOL    HW226727   3.241   1.196  13.670 -1.1154  0.5516 -0.5182
 5032SOL     OW26728   3.063   4.655  10.663  0.8061  0.2553  0.1197
 5032SOL    HW126729   3.030   4.565  10.655 -1.2371  1.1361 -1.4643
 5032SOL    HW226730   3.145   4.641  10.618  0.9891  0.2121  0.4646
 5033SOL     OW26731   1.145   3.755   3.366  0.2170  0.4768  0.1416
 5033SOL    HW126732   1.072   3.799   3.324  0.0801  0.7824  0.7007
 5033SOL    HW226733   1.139   3.792   3.454  3.6098  0.4354  0.4153
 5034SOL     OW26734   0.458   2.241   7.158 -0.1260  0.2004  0.1469
 5034SOL    HW126735   0.403   2.167   7.184  0.7148 -0.7163 -0.6921
 5034SOL    HW226736   0.396   2.312   7.172 -0.7433 -0.1365 -0.8946
 5035SOL     OW26737   1.025   1.308   3.128  0.3828  0.0662  0.0280
 5035SOL    HW126738   0.991   1.227   3.089 -0.2979  0.1899  0.3513
 5035SOL    HW226739   1.111   1.315   3.088  0.9761  2.3235  1.7048
 5036SOL     OW26740   3.709   3.275  17.184  0.5144 -0.1455 -0.2499
 5036SOL    HW126741   3.709   3.181  17.167  0.7177 -0.0392 -0.8635
 5036SOL    HW226742   3.792   3.301  17.144  0.2756  0.8327 -0.1117
 5037SOL     OW26743   4.641   4.390   1.807  0.3931 -0.0283 -0.1353
 5037SOL    HW126744   4.735   4.401   1.789  0.8838 -1.3477  1.6093
 5037SOL    HW226745   4.592   4.428   1.734  1.1473 -0.6529 -0.9592
 5038SOL     OW26746   2.980   3.343   0.927  0.2008 -0.8598  0.1240
 5038SOL    HW126747   3.060   3.341   0.875  1.5645  2.3890  2.0929
 5038SOL    HW226748   2.938   3.261   0.900 -0.3687 -0.5913  0.2001
 5039SOL     OW26749   4.316   1.642   3.736  0.1786  0.0003 -0.3232
 5039SOL    HW126750   4.284   1.731   3.721  1.7877  0.6042 -0.1593
 5039SOL    HW226751   4.285   1.594   3.660 -0.4288 -0.5936  0.2958
 5040SOL     OW26752   1.543   2.177   6.281  0.1580 -0.1894  0.3690
 5040SOL    HW126753   1.461   2.206   6.321 -2.0535 -1.1396 -3.5276
 5040SOL    HW226754   1.562   2.108   6.345 -0.3321  0.6516  1.4385
 5041SOL     OW26755   2.223   0.778  10.321 -0.0893 -0.4476  0.9434
 5041SOL    HW126756   2.314   0.775  10.294 -1.3428  1.6585 -3.5448
 5041SOL    HW226757   2.199   0.685  10.327 -0.3116 -0.6174 -2.1330
 5042SOL     OW26758   0.622   0.513   9.222 -0.0957 -0.1384  0.3463
 5042SOL    HW126759   0.649   0.477   9.137  1.7931 -0.7419  1.2144
 5042SOL    HW226760   0.700   0.561   9.249 -0.2052 -0.6712  1.5578
 5043SOL     OW26761   0.309   2.862  16.420 -0.2883  0.1246 -0.6466
 5043SOL    HW126762   0.247   2.825  16.483 -0.0184  0.8436  0.0485
 5043SOL    HW226763   0.376   2.794  16.429 -2.4890 -1.8656  0.6954
 5044SOL     OW26764   1.246   3.394   9.047  0.1318 -0.1921 -0.3622
 5044SOL    HW126765   1.184   3.366   8.979  0.1713 -2.0979  0.3941
 5044SOL    HW226766   1.240   3.487   9.023 -1.6828 -0.3689 -0.6225
 5045SOL     OW26767   1.273   4.182   2.195  0.2301 -0.1500  0.3670
 5045SOL    HW126768   1.325   4.145   2.123  0.0611  3.5815 -1.6990
 5045SOL    HW226769   1.201   4.122   2.214 -1.1999  0.8204 -1.9537
 5046SOL     OW26770   3.231   0.677  10.868  0.2420 -0.7097  0.0026
 5046SOL    HW126771   3.169   0.727  10.814  0.2689  0.4590  1.0532
 5046SOL    HW226772   3.293   0.671  10.795 -1.4294 -0.3430 -1.4329
 5047SOL     OW26773   0.143   2.153  13.859 -0.4135  0.0787 -0.2564
 5047SOL    HW126774   0.157   2.100  13.938  0.0586  0.2220 -0.2450
 5047SOL    HW226775   0.099   2.223  13.906 -0.1928  1.2505 -1.7934
 5048SOL     OW26776   3.179   3.858   6.332 -0.6894  0.2471  0.6733
 5048SOL    HW126777   3.183   3.919   6.258  3.4748 -0.5013  0.2878
 5048SOL    HW226778   3.185   3.766   6.305  1.3750  0.7326 -0.4493
 5049SOL     OW26779   4.478   0.683   1.171  0.3886  0.3744 -0.3334
 5049SOL    HW126780   4.496   0.753   1.108 -0.8652 -0.2153 -1.3544
 5049SOL    HW226781   4.425   0.729   1.235 -0.4783 -3.1867  1.4607
 5050SOL     OW26782   4.591   1.268   2.577  0.2791  0.2160 -1.3994
 5050SOL    HW126783   4.601   1.237   2.487  1.6572  0.2041 -1.2496
 5050SOL    HW226784   4.525   1.206   2.609  0.0983  0.3623 -1.4889
 5051SOL     OW26785   1.161   3.635  17.618 -0.1273 -0.3371  0.5340
 5051SOL    HW126786   1.088   3.694  17.597 -0.0265 -0.6077 -0.6036
 5051SOL    HW226787   1.116   3.575  17.678  0.3023 -0.2445  0.9506
 5052SOL     OW26788   3.460   1.413   8.961 -0.4076 -0.3691 -0.3706
 5052SOL    HW126789   3.420   1.431   9.046  0.5948 -0.7622  0.1860
 5052SOL    HW226790   3.536   1.472   8.961 -1.4660  0.9878  1.2116
 5053SOL     OW26791   4.226   3.443   8.900  0.2600  0.6503 -0.1287
 5053SOL    HW126792   4.232   3.537   8.919 -1.2285  0.8339 -0.5312
 5053SOL    HW226793   4.135   3.429   8.871 -0.3948  0.4604  2.0345
 5054SOL     OW26794   3.504   3.743   4.229  0.0887 -0.7008 -0.0432
 5054SOL    HW126795   3.582   3.794   4.252  0.6236 -1.1993 -0.7535
 5054SOL    HW226796   3.435   3.780   4.284  0.7910  0.0398  0.3481
 5055SOL     OW26797   2.060   3.837   4.462 -0.8840 -0.2766  0.0367
 5055SOL    HW126798   2.073   3.742   4.458  0.5491 -0.0722 -0.3910
 5055SOL    HW226799   1.971   3.844   4.429 -1.3903 -1.9761  1.0170
 5056SOL     OW26800   3.530   3.544   2.808  0.2809  0.4431  0.5386
 5056SOL    HW126801   3.588   3.615   2.779  0.7596  1.2751  3.5956
 5056SOL    HW226802   3.523   3.565   2.901 -0.0026 -0.8333  0.8060
 5057SOL     OW26803   3.647   0.905  12.531  0.0309 -0.3112 -0.1008
 5057SOL    HW126804   3.574   0.964  12.516  0.6101  0.4165 -0.0471
 5057SOL    HW226805   3.604   0.852  12.598  1.0491 -0.4329  0.4694
 5058SOL     OW26806   1.465   0.479   6.092  0.9529 -0.0480  0.5154
 5058SOL    HW126807   1.507   0.557   6.056 -1.2853  0.6306 -0.5973
 5058SOL    HW226808   1.533   0.412   6.088 -0.4531 -1.3840 -0.9546
 5059SOL     OW26809   3.695   0.323   5.582  0.0754 -0.1558  0.3589
 5059SOL    HW126810   3.674   0.367   5.500  2.2805 -1.5207 -0.9353
 5059SOL    HW226811   3.771   0.374   5.611  0.0846  0.4940 -0.8230
 5060SOL     OW26812   2.693   0.246   8.780  0.3805 -0.1605 -0.1995
 5060SOL    HW126813   2.625   0.302   8.818 -0.7219 -1.7893  0.2520
 5060SOL    HW226814   2.701   0.179   8.847  0.1664 -0.6661 -0.6725
 5061SOL     OW26815   3.181   3.406   8.814 -0.3489  0.3950 -0.3342
 5061SOL    HW126816   3.160   3.498   8.795  0.5262  0.6349 -0.1400
 5061SOL    HW226817   3.276   3.413   8.805 -0.1973 -2.1816 -0.7787
 5062SOL     OW26818   1.161   3.174   4.284 -0.1488 -0.4570  0.4370
 5062SOL    HW126819   1.090   3.115   4.258  0.2685 -0.4026 -0.8534
 5062SOL    HW226820   1.223   3.108   4.313 -0.0777  0.3824  2.1916
 5063SOL     OW26821   1.461   1.566   6.385  1.1664 -0.5259  0.3187
 5063SOL    HW126822   1.457   1.471   6.382  2.2382 -0.6098  1.9508
 5063SOL    HW226823   1.517   1.576   6.461 -1.1621  1.6257  1.7511
 5064SOL     OW26824   3.358   4.039   4.055 -0.3483  0.5192 -0.2119
 5064SOL    HW126825   3.404   3.961   4.086 -0.7660  0.5770  0.5250
 5064SOL    HW226826   3.433   4.099   4.044 -1.4189  2.0644  0.8897
 5065SOL     OW26827   2.499   1.737  14.662 -0.2436  0.3970  0.3350
 5065SOL    HW126828   2.577   1.698  14.701 -0.9051 -0.4677  0.7927
 5065SOL    HW226829   2.452   1.759  14.742 -0.7995  0.9451 -0.1500
 5066SOL     OW26830   0.992   2.030   3.199 -0.1302  0.0062  0.4049
 5066SOL    HW126831   0.917   1.985   3.238 -0.6444 -0.2296 -0.8548
 5066SOL    HW226832   1.049   2.035   3.276  1.0291 -3.3226 -0.2280
 5067SOL     OW26833   3.735   0.056   4.006  0.0669 -0.2383  0.2397
 5067SOL    HW126834   3.769   4.731   4.071 -0.1791 -0.7480 -0.1021
 5067SOL    HW226835   3.643   0.032   4.017  0.2878 -1.1016  0.2175
 5068SOL     OW26836   3.701   1.695   4.582 -0.0287  0.0680 -0.1310
 5068SOL    HW126837   3.613   1.731   4.566  0.1803  1.0169  0.8800
 5068SOL    HW226838   3.731   1.706   4.492 -0.1533  0.3696 -0.1361
 5069SOL     OW26839   3.292   2.637  13.294 -0.5815  0.3301  0.1404
 5069SOL    HW126840   3.246   2.565  13.338 -0.9577 -0.1261 -1.0166
 5069SOL    HW226841   3.328   2.594  13.217  1.6693  3.8817 -0.7900
 5070SOL     OW26842   4.610   1.971  16.501  0.4015 -0.6832 -0.3490
 5070SOL    HW126843   4.588   1.991  16.410 -0.1010  2.3343  0.4365
 5070SOL    HW226844   4.701   1.941  16.495  0.3446 -0.6841 -1.1596
 5071SOL     OW26845   0.976   3.661   9.758 -0.0865  0.1233  0.1135
 5071SOL    HW126846   1.033   3.609   9.700 -0.8145 -1.3185  0.6906
 5071SOL    HW226847   1.042   3.720   9.795  0.4421 -0.2909 -0.1685
 5072SOL     OW26848   1.636   1.791   7.273 -0.0482 -0.1430  0.0596
 5072SOL    HW126849   1.651   1.698   7.259 -0.5702  0.1923 -2.7191
 5072SOL    HW226850   1.710   1.810   7.330 -0.4769 -1.9037  1.1996
 5073SOL     OW26851   2.302   2.199   8.653 -0.2799 -0.6441 -0.0170
 5073SOL    HW126852   2.312   2.155   8.737 -1.7107  0.9357  0.9976
 5073SOL    HW226853   2.215   2.238   8.661 -0.3901 -1.1649  1.3206
 5074SOL     OW26854   1.812   2.127   1.404  0.0738 -0.1968  0.0071
 5074SOL    HW126855   1.894   2.177   1.404  0.5208 -0.9305 -2.0152
 5074SOL    HW226856   1.746   2.182   1.444  0.0699  0.8952 -1.5112
 5075SOL     OW26857   1.352   1.756   7.469 -0.3486 -0.3417  0.1444
 5075SOL    HW126858   1.322   1.669   7.494  0.1384 -0.1380  1.4796
 5075SOL    HW226859   1.368   1.791   7.557 -0.2476  1.1592 -0.4688
 5076SOL     OW26860   0.170   1.538   1.698 -0.4914 -0.0887  0.8280
 5076SOL    HW126861   0.143   1.572   1.613  0.0077 -1.5925  0.0735
 5076SOL    HW226862   0.258   1.505   1.684 -1.0936 -1.8307  1.0507
 5077SOL     OW26863   2.122   4.658   8.268 -0.0506 -0.4382  0.0268
 5077SOL    HW126864   2.160   4.702   8.345 -0.3789  3.6133 -2.1351
 5077SOL    HW226865   2.110   4.568   8.299  2.3948 -1.4578 -2.0155
 5078SOL     OW26866   3.938   3.074   5.010 -0.0418 -0.1671  0.5458
 5078SOL    HW126867   3.946   3.108   5.100 -1.5135  2.5321 -0.3409
 5078SOL    HW226868   4.020   3.026   4.996 -0.9154 -1.3020 -0.6534
 5079SOL     OW26869   1.998   4.029   2.539  0.3751  1.1436 -0.0675
 5079SOL    HW126870   2.055   3.979   2.598  0.9124  0.7791 -0.8862
 5079SOL    HW226871   1.952   3.954   2.500  1.6840  0.1647  0.2860
 5080SOL     OW26872   0.193   0.617   2.820  0.2823 -0.0171 -0.7666
 5080SOL    HW126873   0.113   0.619   2.767 -1.0876  1.8007  1.3858
 5080SOL    HW226874   0.209   0.707   2.847  0.2525  1.3579 -5.3013
 5081SOL     OW26875   1.864   4.343  12.283 -0.0390  0.2747 -0.3435
 5081SOL    HW126876   1.822   4.258  12.271 -0.9490  1.0700 -2.8336
 5081SOL    HW226877   1.922   4.317  12.354 -0.4918  0.5140  0.1154
 5082SOL     OW26878   1.563   1.025   8.075 -0.2132 -0.2210  0.0604
 5082SOL    HW126879   1.618   0.974   8.134  1.7786  2.8654  0.8517
 5082SOL    HW226880   1.481   1.025   8.125  0.0941 -2.2764  0.5790
 5083SOL     OW26881   3.308   0.134   7.237 -0.3848 -0.5856 -0.4282
 5083SOL    HW126882   3.287   0.108   7.147  3.9468 -2.2242 -0.9812
 5083SOL    HW226883   3.280   0.054   7.281 -1.2540  0.8071  1.5381
 5084SOL     OW26884   1.050   2.443   6.827 -0.4410 -0.5520 -0.2431
 5084SOL    HW126885   1.110   2.452   6.902  0.2185  1.2649 -0.9824
 5084SOL    HW226886   1.015   2.532   6.824  0.3989 -0.1863  0.9203
 5085SOL     OW26887   2.726   2.776   1.058 -0.3634 -0.3985  0.1898
 5085SOL    HW126888   2.817   2.804   1.047 -0.2134 -0.9278  0.0549
 5085SOL    HW226889   2.718   2.799   1.150  0.0052 -1.3362  0.4594
 5086SOL     OW26890   1.130   1.410   6.091 -0.3305  0.2250  0.0333
 5086SOL    HW126891   1.060   1.421   6.027  0.5253 -0.8927 -1.0907
 5086SOL    HW226892   1.127   1.495   6.136 -0.2879  1.6538 -2.6614
 5087SOL     OW26893   3.875   3.823  15.182  0.8007 -0.2753  0.3216
 5087SOL    HW126894   3.896   3.744  15.131 -4.2455 -1.4086 -0.1013
 5087SOL    HW226895   3.961   3.862  15.197  1.1159 -0.0379 -2.1080
 5088SOL     OW26896   1.461   3.170   3.122 -0.0722  0.5413  0.3113
 5088SOL    HW126897   1.439   3.261   3.107 -1.0431  0.5148  1.6197
 5088SOL    HW226898   1.415   3.141   3.043 -0.0583 -0.4674  0.6730
 5089SOL     OW26899   2.513   3.099  17.695 -0.0811  0.8586  0.0129
 5089SOL    HW126900   2.524   3.031   0.022  0.1192  0.3401 -0.5547
 5089SOL    HW226901   2.594   3.146  17.711 -0.8399  1.6343  1.6417
 5090SOL     OW26902   4.388   3.255   0.301  0.4091 -0.0645  0.2055
 5090SOL    HW126903   4.415   3.285   0.388  3.1421  0.1618 -0.7184
 5090SOL    HW226904   4.357   3.339   0.265 -0.1746  1.0909  3.4244
 5091SOL     OW26905   2.271   2.367   0.698 -0.1242 -0.1748 -0.3990
 5091SOL    HW126906   2.337   2.428   0.729  1.5093 -0.6429 -2.9474
 5091SOL    HW226907   2.317   2.283   0.699  0.3916  0.1323  0.6150
 5092SOL     OW26908   2.027   3.271   5.571  0.0953  0.4630  0.1333
 5092SOL    HW126909   1.983   3.262   5.487  0.1500 -1.9708  0.3507
 5092SOL    HW226910   2.092   3.204   5.552 -1.0707 -0.0636 -1.9579
 5093SOL     OW26911   4.335   3.498   4.084 -0.5670 -0.5526 -0.1616
 5093SOL    HW126912   4.359   3.496   4.176  0.8772 -1.0314 -0.5559
 5093SOL    HW226913   4.265   3.435   4.069 -1.0041  0.0849 -0.8194
 5094SOL     OW26914   2.416   4.684   3.968 -0.3720 -0.7017 -0.2446
 5094SOL    HW126915   2.458   4.724   3.891 -0.9862  0.9048  0.2568
 5094SOL    HW226916   2.439   4.591   3.965  2.9947  0.0746  1.8909
 5095SOL     OW26917   3.666   1.583   8.927  0.4445 -0.0528  0.6091
 5095SOL    HW126918   3.670   1.677   8.911  2.1366 -0.4197 -1.0782
 5095SOL    HW226919   3.741   1.553   8.876 -0.6195  1.4296 -1.7923
 5096SOL     OW26920   3.495   0.896   4.195 -0.1541 -0.0646  0.2859
 5096SOL    HW126921   3.427   0.869   4.257  0.2763  0.0522  0.8091
 5096SOL    HW226922   3.468   0.982   4.165 -0.2760 -0.7637 -1.5780
 5097SOL     OW26923   3.870   1.043   4.191 -0.5223 -0.2235 -0.1083
 5097SOL    HW126924   3.837   0.975   4.250  0.2548  0.8103  1.5502
 5097SOL    HW226925   3.954   1.000   4.174 -1.4914 -1.9500 -0.5220
 5098SOL     OW26926   1.583   1.705   1.795 -0.0419  0.4043  0.0033
 5098SOL    HW126927   1.588   1.612   1.819 -0.6400  0.4300  0.2221
 5098SOL    HW226928   1.508   1.734   1.846 -0.0298 -0.7041  0.6486
 5099SOL     OW26929   3.965   0.782   4.463 -0.2467 -0.0595 -0.4264
 5099SOL    HW126930   3.878   0.789   4.425 -0.1576 -3.2911 -1.2113
 5099SOL    HW226931   3.948   0.807   4.554 -0.3982 -0.3854 -0.3673
 5100SOL     OW26932   0.015   3.693   4.697  0.4070  0.4147 -0.5819
 5100SOL    HW126933   4.669   3.679   4.648 -0.6771  1.2352  0.9775
 5100SOL    HW226934   0.076   3.745   4.645  0.0466  1.1743 -0.2430
 5101SOL     OW26935   1.124   4.356  16.225 -0.1067 -0.3096  0.3108
 5101SOL    HW126936   1.210   4.380  16.189 -0.6296  0.5445 -0.3578
 5101SOL    HW226937   1.069   4.350  16.147 -0.2657 -2.8577  0.6345
 5102SOL     OW26938   2.546   3.659   9.560  0.0380 -0.3308  0.0708
 5102SOL    HW126939   2.612   3.602   9.599 -1.1549 -1.0662  1.0138
 5102SOL    HW226940   2.553   3.730   9.624  0.3983 -0.3584  0.0596
 5103SOL     OW26941   1.371   0.892   6.040  0.1779  1.1173 -0.3130
 5103SOL    HW126942   1.289   0.895   6.089  0.8147  1.4891  0.7213
 5103SOL    HW226943   1.410   0.976   6.064  0.5103  0.8719  0.0119
 5104SOL     OW26944   0.766   1.073   4.785  0.3298  0.3674 -0.3617
 5104SOL    HW126945   0.849   1.120   4.790  1.5692 -1.8563 -0.0873
 5104SOL    HW226946   0.750   1.056   4.692  1.5338  0.6334 -0.6070
 5105SOL     OW26947   0.167   4.684   0.250  0.0431 -0.5620 -0.2437
 5105SOL    HW126948   0.115   4.673   0.330 -2.2993 -0.6212 -1.7590
 5105SOL    HW226949   0.210   0.033   0.265 -0.4248 -0.9936  3.3187
 5106SOL     OW26950   4.661   0.664   4.205 -0.4361 -0.6693  0.0883
 5106SOL    HW126951   4.643   0.758   4.201  2.9422 -0.0358 -0.4564
 5106SOL    HW226952   0.020   0.658   4.194 -0.2666 -1.5714  2.1597
 5107SOL     OW26953   2.152   0.651   9.229 -0.1483 -0.1992  0.4281
 5107SOL    HW126954   2.240   0.616   9.243 -0.5309 -1.3808 -0.0519
 5107SOL    HW226955   2.155   0.673   9.136  2.7319 -0.8788  0.3672
 5108SOL     OW26956   0.014   0.194   2.853 -0.5578 -0.2809  0.0254
 5108SOL    HW126957   4.681   0.133   2.823  1.6301 -2.6371 -0.1529
 5108SOL    HW226958   0.063   0.184   2.771 -0.4956  0.8282 -0.0719
 5109SOL     OW26959   2.345   0.857   1.921 -0.4017  0.5980  0.1700
 5109SOL    HW126960   2.421   0.823   1.872 -0.2653 -1.8778  2.1012
 5109SOL    HW226961   2.310   0.772   1.947 -1.0183  0.7455 -0.1895
 5110SOL     OW26962   1.530   4.128   9.571  0.4813 -0.3485 -0.1588
 5110SOL    HW126963   1.500   4.162   9.487  2.9113 -1.3126 -1.4337
 5110SOL    HW226964   1.575   4.055   9.528  1.3179  0.0531  0.0231
 5111SOL     OW26965   0.834   1.359   6.295  0.0048 -0.0397  0.2957
 5111SOL    HW126966   0.885   1.438   6.281 -0.0937 -0.2584 -1.2668
 5111SOL    HW226967   0.868   1.325   6.377 -2.1071 -1.6136  0.5305
 5112SOL     OW26968   2.496   0.584  13.748  0.3377 -0.1447 -0.3503
 5112SOL    HW126969   2.434   0.645  13.707 -0.9197 -2.5357 -2.0235
 5112SOL    HW226970   2.432   0.513  13.757  1.5219 -1.5013 -2.5923
 5113SOL     OW26971   0.055   1.512  10.899  0.0410 -0.3780  0.2025
 5113SOL    HW126972   0.012   1.510  10.984 -0.3354  0.6697  0.0355
 5113SOL    HW226973   0.026   1.597  10.866  0.8133 -0.0969  0.2646
 5114SOL     OW26974   4.386   1.941   5.010 -0.2659 -0.0527  0.5750
 5114SOL    HW126975   4.447   1.890   5.062 -0.7063 -1.4308 -0.2518
 5114SOL    HW226976   4.322   1.974   5.073 -3.0816 -0.5743 -2.0098
 5115SOL     OW26977   3.941   2.328   9.186  0.2589  0.2868 -0.3725
 5115SOL    HW126978   3.912   2.415   9.158 -1.7149  0.4034  1.9555
 5115SOL    HW226979   4.001   2.293   9.120 -0.5401  0.5969 -1.2611
 5116SOL     OW26980   3.311   4.020  13.737  0.2940 -0.7802  0.3101
 5116SOL    HW126981   3.267   3.982  13.661 -0.6673  0.0100  0.4658
 5116SOL    HW226982   3.328   3.943  13.791  0.3862 -1.0356 -0.0867
 5117SOL     OW26983   4.317   2.030   3.501  0.1152  0.4313  0.3113
 5117SOL    HW126984   4.386   1.972   3.533 -0.4404 -0.6912 -0.5059
 5117SOL    HW226985   4.253   1.965   3.469 -1.1463  1.5879  0.4721
 5118SOL     OW26986   1.762   1.722   5.124 -0.0797  0.2867  0.1412
 5118SOL    HW126987   1.767   1.808   5.164 -1.6376  0.1611  0.6281
 5118SOL    HW226988   1.745   1.745   5.033 -2.7009 -1.3608  0.2033
 5119SOL     OW26989   3.834   4.052   5.105  0.6737  0.8676  0.2730
 5119SOL    HW126990   3.921   4.039   5.142  1.7011  0.4292 -2.3056
 5119SOL    HW226991   3.851   4.055   5.011  0.7425  0.5049  0.2742
 5120SOL     OW26992   4.137   2.640  12.274  0.2126  0.3838  0.3662
 5120SOL    HW126993   4.200   2.683  12.216 -1.0502  0.3988 -0.9793
 5120SOL    HW226994   4.053   2.677  12.249  0.7014 -0.4764 -2.5092
 5121SOL     OW26995   2.370   1.050  11.248 -0.2537  0.2749  0.5239
 5121SOL    HW126996   2.431   1.101  11.194 -0.7531 -0.8983 -1.1445
 5121SOL    HW226997   2.426   1.031  11.324 -0.0921  5.8547  1.7997
 5122SOL     OW26998   3.919   3.983   2.689  0.4799 -0.0413  0.0275
 5122SOL    HW126999   3.937   4.055   2.750  1.6420  1.5863 -2.2167
 5122SOL    HW227000   3.982   3.912   2.705  0.1043 -0.3450  0.1354
 5123SOL     OW27001   2.566   0.709   1.841  0.1786  0.1892  0.6216
 5123SOL    HW127002   2.636   0.771   1.862  1.0537 -1.2925  2.0686
 5123SOL    HW227003   2.582   0.651   1.916 -1.5647 -0.4743  0.4943
 5124SOL     OW27004   1.795   3.708   5.961 -0.2470 -0.4280  0.5139
 5124SOL    HW127005   1.880   3.740   5.931  0.3483  0.0297  2.6642
 5124SOL    HW227006   1.769   3.672   5.877  0.1631 -0.0651  0.2330
 5125SOL     OW27007   3.684   1.360   0.753  0.7439  0.1098  0.3757
 5125SOL    HW127008   3.689   1.425   0.823 -0.5384 -1.2323  1.7339
 5125SOL    HW227009   3.724   1.400   0.676  2.8664 -3.5032 -0.3990
 5126SOL     OW27010   2.501   2.611  12.983 -0.5486 -0.3434 -0.4730
 5126SOL    HW127011   2.561   2.685  12.993 -0.3552 -1.0788  3.9217
 5126SOL    HW227012   2.559   2.535  12.991 -0.4571 -0.0317  1.6814
 5127SOL     OW27013   1.123   3.268   2.806 -0.5641 -0.1504  0.1846
 5127SOL    HW127014   1.185   3.341   2.806 -0.6158 -0.1050 -0.9452
 5127SOL    HW227015   1.102   3.245   2.716 -0.1304 -1.2952  0.3837
 5128SOL     OW27016   3.709   0.083   8.680  0.2857 -0.0055 -0.1356
 5128SOL    HW127017   3.682   0.161   8.730 -0.6128 -1.1996  1.2371
 5128SOL    HW227018   3.646   0.076   8.608 -0.4132  2.2956  0.2415
 5129SOL     OW27019   3.860   4.630   3.282  0.1439 -0.0559  0.9957
 5129SOL    HW127020   3.949   4.665   3.276  0.2865 -0.7403 -0.7300
 5129SOL    HW227021   3.815   4.711   3.304  0.9815  1.0409 -1.3441
 5130SOL     OW27022   2.445   3.478  10.638 -0.1548  0.3180 -0.7287
 5130SOL    HW127023   2.479   3.393  10.609  0.5264  0.0566  0.7948
 5130SOL    HW227024   2.360   3.441  10.659 -0.7767  0.7672 -2.4603
 5131SOL     OW27025   1.088   4.356   7.180 -0.0558  0.4080  0.2385
 5131SOL    HW127026   1.183   4.347   7.188 -0.1811 -1.6668 -0.5783
 5131SOL    HW227027   1.086   4.446   7.146  1.2910  0.8633  1.3854
 5132SOL     OW27028   0.245   2.506   8.687 -0.4931 -0.2580 -0.6294
 5132SOL    HW127029   0.208   2.571   8.746 -1.7000  0.5837 -2.3228
 5132SOL    HW227030   0.210   2.523   8.599  3.1898 -1.1430 -2.2780
 5133SOL     OW27031   4.105   2.074   7.958 -0.0382 -0.7791 -0.4995
 5133SOL    HW127032   4.167   2.136   7.921  0.4239 -0.1167  1.3540
 5133SOL    HW227033   4.104   2.010   7.887 -0.4228 -1.8557  0.4775
 5134SOL     OW27034   4.313   3.640   4.763 -0.4127  0.0260 -0.2196
 5134SOL    HW127035   4.225   3.640   4.726 -0.7749  0.0267  0.6287
 5134SOL    HW227036   4.320   3.735   4.752 -0.6292  0.0241 -0.3742
 5135SOL     OW27037   0.286   1.530  17.290 -0.0682 -0.1908 -0.0017
 5135SOL    HW127038   0.246   1.552  17.206 -3.1152 -0.1152  1.4785
 5135SOL    HW227039   0.224   1.555  17.359 -2.7938 -0.1505 -2.4454
 5136SOL     OW27040   0.145   4.485  13.600  0.0120  0.1347  0.2058
 5136SOL    HW127041   0.135   4.546  13.673  1.0631 -1.4947  1.7157
 5136SOL    HW227042   0.058   4.456  13.572  0.1378 -0.8046  0.7964
 5137SOL     OW27043   2.154   1.420   4.799  0.1990  0.2919  0.1817
 5137SOL    HW127044   2.151   1.438   4.893  0.5469 -1.3858  0.5125
 5137SOL    HW227045   2.246   1.428   4.775  0.6970  0.1049  1.9856
 5138SOL     OW27046   4.711   2.280   8.420  0.1040 -0.2286  0.2925
 5138SOL    HW127047   0.034   2.222   8.370  0.0817 -0.4702  0.5423
 5138SOL    HW227048   4.666   2.221   8.480 -0.9908  0.6796  0.3576
 5139SOL     OW27049   1.191   3.339  11.798 -0.1525 -0.1487  0.2867
 5139SOL    HW127050   1.153   3.376  11.719 -3.5224 -1.9786  1.0709
 5139SOL    HW227051   1.286   3.353  11.794 -0.3807  1.4130  0.3150
 5140SOL     OW27052   0.373   2.092   4.181 -0.5429 -0.0494 -0.2309
 5140SOL    HW127053   0.423   2.151   4.124 -0.4666 -0.3847 -0.5181
 5140SOL    HW227054   0.283   2.097   4.150 -1.0573 -0.4074  1.2308
 5141SOL     OW27055   1.328   0.616   8.276  0.3825  0.0448 -0.4579
 5141SOL    HW127056   1.254   0.656   8.322  0.0321 -0.9131 -0.1752
 5141SOL    HW227057   1.332   0.666   8.194  0.8287  2.4084  1.0050
 5142SOL     OW27058   0.826   1.200   6.542 -0.0023 -0.5010 -0.6166
 5142SOL    HW127059   0.813   1.157   6.627  1.5789 -1.9639 -1.1075
 5142SOL    HW227060   0.893   1.265   6.564 -0.3263 -0.2732 -0.3056
 5143SOL     OW27061   1.684   0.803  14.597 -0.3708 -0.4815 -0.1593
 5143SOL    HW127062   1.594   0.826  14.575 -0.0183  2.7377  1.8300
 5143SOL    HW227063   1.675   0.789  14.692 -1.1694 -0.1982 -0.1914
 5144SOL     OW27064   0.874   1.250   9.655  0.4611 -0.6404  0.0441
 5144SOL    HW127065   0.827   1.280   9.577  0.2175  2.1551  1.2692
 5144SOL    HW227066   0.932   1.326   9.654 -2.4768  1.6239  2.7482
 5145SOL     OW27067   1.013   2.861   8.040 -0.1687  0.8393  0.1224
 5145SOL    HW127068   0.994   2.858   8.133 -0.9358  0.4471 -0.0433
 5145SOL    HW227069   1.062   2.943   8.029  3.9551 -1.6541  0.0401
 5146SOL     OW27070   1.980   0.646   2.904  0.0754  0.0394 -0.4815
 5146SOL    HW127071   2.069   0.677   2.891  1.1072 -3.3452 -1.4082
 5146SOL    HW227072   2.002   0.554   2.895 -0.9420 -0.3273  0.8031
 5147SOL     OW27073   0.755   3.423   9.160 -0.2794 -0.2095  0.8065
 5147SOL    HW127074   0.769   3.414   9.254  1.9227 -0.8108  0.4265
 5147SOL    HW227075   0.797   3.346   9.122  0.7972  0.9758 -0.3827
 5148SOL     OW27076   2.941   3.946   7.325  0.2677 -0.0441 -0.2901
 5148SOL    HW127077   2.940   3.853   7.302 -1.2234 -0.2421  0.5760
 5148SOL    HW227078   2.978   3.980   7.244 -0.5028  0.1099 -0.5824
 5149SOL     OW27079   2.594   2.006  10.268  0.2321  0.4222  0.0645
 5149SOL    HW127080   2.501   1.990  10.247  0.3290  1.6144 -1.2737
 5149SOL    HW227081   2.633   1.928  10.229  0.9257  1.0287 -0.4601
 5150SOL     OW27082   1.750   0.228  11.606 -0.4646 -0.2729 -0.1316
 5150SOL    HW127083   1.724   0.136  11.616  0.5445 -0.7813 -2.2458
 5150SOL    HW227084   1.753   0.239  11.511 -1.0825  2.1165  0.1167
 5151SOL     OW27085   1.246   1.583   4.846  0.1026 -0.0017  0.7022
 5151SOL    HW127086   1.213   1.494   4.857 -0.8830  0.4220  1.1085
 5151SOL    HW227087   1.338   1.578   4.874  0.1957  2.2737  0.8300
 5152SOL     OW27088   2.896   2.271  17.261 -0.1336 -0.5449  0.2037
 5152SOL    HW127089   2.827   2.335  17.279  1.5955  1.0648  1.0632
 5152SOL    HW227090   2.894   2.224  17.344  0.0398 -0.2343  0.3822
 5153SOL     OW27091   4.081   2.549  15.676  0.1831  0.3852  0.2558
 5153SOL    HW127092   4.157   2.491  15.665  0.9742  1.4998 -0.1391
 5153SOL    HW227093   4.100   2.575  15.766  2.1293 -1.4531  0.3928
 5154SOL     OW27094   2.137   4.221   0.090  0.0316  0.4192  0.3388
 5154SOL    HW127095   2.213   4.248   0.142 -1.1180  1.0720  1.6616
 5154SOL    HW227096   2.144   4.128   0.112 -0.1119 -0.1947 -2.1929
 5155SOL     OW27097   4.213   1.042  16.887  0.1087  0.2397 -0.5327
 5155SOL    HW127098   4.161   0.963  16.871 -2.5678  1.2397  3.2536
 5155SOL    HW227099   4.204   1.081  16.800 -2.2251  1.7893  0.3910
 5156SOL     OW27100   2.149   2.788   8.401 -0.2324 -0.3909 -0.0265
 5156SOL    HW127101   2.202   2.799   8.322  0.2997 -0.7732  0.2777
 5156SOL    HW227102   2.065   2.810   8.360  1.4184 -0.1894 -3.2309
 5157SOL     OW27103   2.665   1.929   6.430  0.3268 -0.7146  0.2617
 5157SOL    HW127104   2.648   2.012   6.385 -0.1169 -0.9943 -0.0845
 5157SOL    HW227105   2.679   1.877   6.352  3.4339  1.6821 -0.7916
 5158SOL     OW27106   0.077   1.164  14.250  0.4768  0.0672 -0.3650
 5158SOL    HW127107   0.099   1.199  14.337  0.0877 -0.8192  0.0904
 5158SOL    HW227108   0.156   1.129  14.210  0.0449  1.0071 -2.0534
 5159SOL     OW27109   4.672   4.312  10.003 -0.0063 -0.0682  0.1542
 5159SOL    HW127110   4.633   4.341  10.085  0.1488  1.0711 -0.1808
 5159SOL    HW227111   4.594   4.270   9.965  2.0213 -1.9756 -1.9403
 5160SOL     OW27112   2.512   2.369   6.345  0.0132 -0.4919  0.0132
 5160SOL    HW127113   2.548   2.294   6.299 -2.7708 -1.7438 -0.1066
 5160SOL    HW227114   2.524   2.333   6.433 -1.4029 -0.5492  0.1829
 5161SOL     OW27115   1.855   0.014   8.203 -0.3143 -0.0609 -0.3055
 5161SOL    HW127116   1.823   4.664   8.231 -1.9504  1.2369  1.8018
 5161SOL    HW227117   1.948   4.730   8.210  0.1240  1.6234 -1.3892
 5162SOL     OW27118   2.061   2.232   9.253 -0.6095 -0.0856  0.2284
 5162SOL    HW127119   2.004   2.244   9.176 -0.4941  0.1206  0.1743
 5162SOL    HW227120   1.997   2.190   9.310 -0.4852  1.3054  1.3936
 5163SOL     OW27121   2.574   2.028   2.847  0.3382 -0.1362  0.2733
 5163SOL    HW127122   2.506   1.963   2.825  0.0647  0.1630  0.2406
 5163SOL    HW227123   2.654   1.996   2.805 -0.1037  0.0435 -0.7044
 5164SOL     OW27124   0.083   2.237   8.772  0.2042  0.2257  0.4349
 5164SOL    HW127125   0.160   2.294   8.777 -0.3490  1.0239 -0.2767
 5164SOL    HW227126   0.080   2.207   8.863  1.6271 -0.6642  0.1920
 5165SOL     OW27127   3.870   0.387   7.724  0.1835  0.3085  0.3519
 5165SOL    HW127128   3.942   0.451   7.724  0.6593 -0.2290 -0.5474
 5165SOL    HW227129   3.796   0.447   7.735 -1.0575 -1.3301  0.8986
 5166SOL     OW27130   1.797   3.943   7.776 -0.7459  0.1683 -0.8305
 5166SOL    HW127131   1.721   3.890   7.753 -1.0563 -1.7622  4.8556
 5166SOL    HW227132   1.763   3.996   7.848  0.6437  0.5194 -0.4443
 5167SOL     OW27133   4.097   4.494   6.468  0.1834 -0.4181  0.2776
 5167SOL    HW127134   4.143   4.556   6.411  0.2424 -1.5290 -0.8759
 5167SOL    HW227135   4.162   4.485   6.538  0.3509  1.3824  0.3496
 5168SOL     OW27136   3.487   2.678   1.949 -0.2851 -0.2763 -0.4052
 5168SOL    HW127137   3.525   2.593   1.971  0.8517  0.1747 -0.6218
 5168SOL    HW227138   3.564   2.735   1.961  0.2675 -1.5655  2.2444
 5169SOL     OW27139   1.484   2.332   4.957  0.4553  0.3149 -0.0594
 5169SOL    HW127140   1.526   2.367   4.879 -1.6398 -0.2727 -1.4562
 5169SOL    HW227141   1.545   2.262   4.980 -0.6170 -0.4206  0.6058
 5170SOL     OW27142   0.296   1.006   2.375  0.5470  0.0139  0.3037
 5170SOL    HW127143   0.246   0.935   2.336  1.2204 -0.8169  0.9552
 5170SOL    HW227144   0.320   0.971   2.461 -0.2019  1.1680  0.9893
 5171SOL     OW27145   0.164   0.367   7.274  0.4524 -0.0915 -0.3296
 5171SOL    HW127146   0.113   0.377   7.354  1.3235  0.1747  0.1986
 5171SOL    HW227147   0.207   0.282   7.285 -0.7165 -0.6985 -0.4859
 5172SOL     OW27148   0.161   3.673   4.312  0.1101  0.1197  0.3082
 5172SOL    HW127149   0.214   3.748   4.287  0.9686 -0.7949 -0.5966
 5172SOL    HW227150   0.225   3.603   4.309  0.3788  0.4067 -0.5972
 5173SOL     OW27151   0.650   2.930   5.554  0.7314  0.9015  0.2113
 5173SOL    HW127152   0.559   2.959   5.543  1.1152  1.2379 -2.0688
 5173SOL    HW227153   0.654   2.929   5.649  0.5833 -0.8376  0.1948
 5174SOL     OW27154   4.611   0.907   9.130  0.7809 -0.1178  0.5065
 5174SOL    HW127155   4.551   0.836   9.148 -1.2923  1.1356 -1.4382
 5174SOL    HW227156   4.638   0.876   9.044 -0.9101 -0.1814  0.0097
 5175SOL     OW27157   4.344   0.761   4.134  0.0349  0.4923 -0.1627
 5175SOL    HW127158   4.376   0.751   4.223  1.2460 -2.3989 -0.9258
 5175SOL    HW227159   4.379   0.844   4.103  1.8987 -1.2427 -2.6702
 5176SOL     OW27160   4.136   2.916  17.720 -0.0041 -0.1021  0.3722
 5176SOL    HW127161   4.127   2.928   0.075  1.2953 -0.2352  0.5081
 5176SOL    HW227162   4.088   2.833  17.716  1.3068 -0.9642  2.4483
 5177SOL     OW27163   0.355   0.571   6.004 -0.2319 -0.0433  0.0730
 5177SOL    HW127164   0.280   0.619   5.969  0.8495  1.2513 -0.4744
 5177SOL    HW227165   0.415   0.645   6.012  0.9483 -0.9242 -0.6753
 5178SOL     OW27166   2.842   2.025   4.811  0.2732  0.1411 -0.3700
 5178SOL    HW127167   2.808   2.071   4.888 -0.3822 -0.1954 -0.4616
 5178SOL    HW227168   2.937   2.028   4.825 -0.0692 -0.8623  2.0911
 5179SOL     OW27169   1.941   0.190   2.976  0.3501 -0.0523  0.0587
 5179SOL    HW127170   1.880   0.129   2.934  0.6258 -1.8236  2.2419
 5179SOL    HW227171   1.950   0.141   3.057  4.0525  0.7811  0.1708
 5180SOL     OW27172   3.004   1.438   0.785 -0.0274  0.3494 -0.2490
 5180SOL    HW127173   3.043   1.514   0.829 -1.2611  0.8874 -0.0796
 5180SOL    HW227174   2.965   1.493   0.716 -0.4030 -2.5390 -2.3319
 5181SOL     OW27175   4.361   3.603   2.000 -0.2354  0.0641  0.4007
 5181SOL    HW127176   4.268   3.601   2.021  0.0097 -1.6375  1.3249
 5181SOL    HW227177   4.374   3.528   2.058 -1.2896  0.2659  0.8899
 5182SOL     OW27178   2.592   3.489   4.869 -0.4140  0.2720  0.1497
 5182SOL    HW127179   2.572   3.566   4.922  1.4667  1.0728 -0.3004
 5182SOL    HW227180   2.504   3.470   4.838 -0.2254 -0.8552  0.3230
 5183SOL     OW27181   2.468   4.574  14.149  0.0015  0.4315 -0.0252
 5183SOL    HW127182   2.557   4.569  14.114 -0.2084  1.9777 -0.8179
 5183SOL    HW227183   2.413   4.517  14.095  1.2852 -1.6194  0.8241
 5184SOL     OW27184   1.846   3.299   7.181  0.0309  0.2257 -0.0121
 5184SOL    HW127185   1.799   3.382   7.185  0.2427  0.4476 -1.7467
 5184SOL    HW227186   1.832   3.269   7.270 -0.4506 -1.9606 -0.8196
 5185SOL     OW27187   1.868   3.407   5.950 -0.1802  0.1479 -0.2386
 5185SOL    HW127188   1.938   3.374   6.006  1.0324  0.6473 -1.4714
 5185SOL    HW227189   1.908   3.485   5.912 -0.1711  1.2233  1.9831
 5186SOL     OW27190   2.442   0.117   0.887 -0.1254 -0.0614  0.2815
 5186SOL    HW127191   2.521   0.136   0.938  0.0170 -0.2122  0.1134
 5186SOL    HW227192   2.454   0.024   0.867  0.5655  0.3916 -1.3843
 5187SOL     OW27193   4.438   1.137  17.001 -0.0107  0.0166  0.7468
 5187SOL    HW127194   4.349   1.104  16.985 -0.6659  1.9262  0.4627
 5187SOL    HW227195   4.445   1.105  17.090  1.2381  0.1046  0.6687
 5188SOL     OW27196   0.139   4.125   6.245  0.1026  0.2355 -0.0636
 5188SOL    HW127197   0.200   4.124   6.171 -0.8765 -0.3409 -0.8786
 5188SOL    HW227198   0.174   4.198   6.296 -3.4060  1.3254  0.7980
 5189SOL     OW27199   2.437   1.502  12.384  0.1179 -0.2401 -0.2195
 5189SOL    HW127200   2.399   1.443  12.448 -1.2136  0.7325 -0.1234
 5189SOL    HW227201   2.397   1.466  12.304  2.2780 -0.7996 -1.0558
 5190SOL     OW27202   1.653   3.554   4.874 -0.3712 -0.6813 -0.0472
 5190SOL    HW127203   1.711   3.497   4.924  0.9045  1.5721  1.0561
 5190SOL    HW227204   1.579   3.551   4.934 -0.1818  0.1527  0.2235
 5191SOL     OW27205   0.975   1.206   4.020 -0.3735 -0.2864  0.2715
 5191SOL    HW127206   0.957   1.162   3.937 -1.3624  0.1920  0.2351
 5191SOL    HW227207   1.062   1.171   4.040 -0.6263 -0.5251  0.9728
 5192SOL     OW27208   1.630   2.883   5.446 -0.0788  0.2045 -0.0035
 5192SOL    HW127209   1.586   2.923   5.371 -0.3072 -3.5664 -1.8644
 5192SOL    HW227210   1.605   2.953   5.506  0.9179 -1.0275  1.8692
 5193SOL     OW27211   1.061   2.927   7.022 -0.2762  0.0282  0.1593
 5193SOL    HW127212   0.975   2.950   7.058 -1.3709 -1.2775 -1.6460
 5193SOL    HW227213   1.109   2.984   7.082 -0.8790  0.3707  0.3284
 5194SOL     OW27214   0.640   1.906   5.848 -0.1927 -0.2520  0.5895
 5194SOL    HW127215   0.671   1.993   5.823  0.0267 -0.4873  0.0346
 5194SOL    HW227216   0.685   1.901   5.932  0.4393 -0.1521  0.2557
 5195SOL     OW27217   2.560   1.765   5.816 -0.0205  0.1811  0.0066
 5195SOL    HW127218   2.605   1.843   5.848 -1.8847  1.8230 -1.3727
 5195SOL    HW227219   2.608   1.700   5.867 -0.7431 -0.7785 -0.5224
 5196SOL     OW27220   0.230   1.385  11.917 -0.1448 -0.3189  0.2788
 5196SOL    HW127221   0.162   1.337  11.869  0.5910 -1.3132  0.2312
 5196SOL    HW227222   0.177   1.426  11.984 -1.1456 -1.5798  0.2498
 5197SOL     OW27223   0.043   0.406  14.685  0.4018 -0.0218  0.1995
 5197SOL    HW127224   0.119   0.424  14.741 -0.0378 -0.4851  0.9468
 5197SOL    HW227225   0.074   0.334  14.631 -0.1917 -0.2830  0.2050
 5198SOL     OW27226   3.154   4.020  10.054  0.7384  0.1642 -0.2354
 5198SOL    HW127227   3.209   3.942  10.057  0.5334  0.0258 -0.1330
 5198SOL    HW227228   3.165   4.068   9.972  0.9440 -3.5791 -2.3431
 5199SOL     OW27229   4.314   0.272   5.775 -0.5789  0.7227 -0.1891
 5199SOL    HW127230   4.400   0.285   5.735 -0.4903  0.8482  0.0399
 5199SOL    HW227231   4.321   0.321   5.857  1.2593 -0.7282  0.5329
 5200SOL     OW27232   0.353   1.204   7.658 -0.1992  0.0796 -0.0327
 5200SOL    HW127233   0.331   1.111   7.665  1.0000 -0.1567  0.5287
 5200SOL    HW227234   0.336   1.213   7.564  1.4321 -0.2840 -0.3484
 5201SOL     OW27235   4.470   0.730   7.909 -0.1642  0.2162 -0.2178
 5201SOL    HW127236   4.426   0.768   7.833  1.1545  1.7170 -0.2340
 5201SOL    HW227237   4.477   0.637   7.887  0.7616  0.1213  0.4747
 5202SOL     OW27238   4.062   4.733   3.962 -0.0664  0.7983  0.3942
 5202SOL    HW127239   4.141   4.681   3.979 -0.8368 -1.2966 -2.6174
 5202SOL    HW227240   4.036   0.005   4.054 -0.5292 -1.2618  0.4177
 5203SOL     OW27241   3.071   2.978  13.904  0.7300  0.4925  0.3105
 5203SOL    HW127242   3.162   2.969  13.876  0.9035 -0.3418  1.1229
 5203SOL    HW227243   3.067   3.043  13.975 -0.1731  0.0359  0.6791
 5204SOL     OW27244   2.472   1.455  15.138  0.0505  0.2987 -0.1682
 5204SOL    HW127245   2.544   1.418  15.188  0.5158  1.0461 -0.2882
 5204SOL    HW227246   2.521   1.466  15.057 -1.9491  1.4532 -1.2395
 5205SOL     OW27247   3.919   4.531  14.962 -0.3409 -0.1953 -0.1516
 5205SOL    HW127248   3.852   4.598  14.947  0.7687  0.9111 -0.1770
 5205SOL    HW227249   3.939   4.524  14.868  2.6692 -0.4197  0.4919
 5206SOL     OW27250   3.161   2.088   5.677  0.1916  0.2642 -0.2452
 5206SOL    HW127251   3.207   2.027   5.618  0.8860  0.6112 -0.0617
 5206SOL    HW227252   3.079   2.087   5.626 -1.0302 -1.0687  1.7590
 5207SOL     OW27253   0.909   1.748  15.045 -0.1249  0.5529 -0.2025
 5207SOL    HW127254   0.985   1.789  15.003  1.8710 -2.0566  0.8623
 5207SOL    HW227255   0.888   1.677  14.984 -0.3013  0.0442  0.4534
 5208SOL     OW27256   4.479   1.028  13.916 -0.2263 -0.2747 -0.3115
 5208SOL    HW127257   4.469   1.094  13.984  1.7831 -0.1697 -0.1419
 5208SOL    HW227258   4.564   1.002  13.951 -0.4630 -0.6901 -0.0445
 5209SOL     OW27259   1.574   0.988   4.924  0.2677  0.5646  0.2838
 5209SOL    HW127260   1.502   0.959   4.868 -0.8301  0.4384  1.7659
 5209SOL    HW227261   1.656   0.990   4.874  1.6036 -1.2309  2.4319
 5210SOL     OW27262   1.638   0.569   3.530 -0.2967 -0.1795  0.1776
 5210SOL    HW127263   1.711   0.617   3.569  1.4329 -2.6432 -0.0319
 5210SOL    HW227264   1.572   0.582   3.597 -0.6737  1.0347 -0.4289
 5211SOL     OW27265   0.113   2.210   0.232 -0.0765 -0.5487  0.9443
 5211SOL    HW127266   0.139   2.157   0.307  1.3531 -0.8612  0.2106
 5211SOL    HW227267   0.183   2.275   0.231 -0.5357 -0.0957 -0.9504
 5212SOL     OW27268   4.474   4.349   4.613 -0.0608  0.1313  0.0601
 5212SOL    HW127269   4.436   4.295   4.682  1.2603 -1.5245 -0.4983
 5212SOL    HW227270   4.408   4.329   4.546  0.5256  3.1246 -1.4279
 5213SOL     OW27271   2.204   4.581   6.658  0.6760  0.3656 -0.2222
 5213SOL    HW127272   2.149   4.509   6.689  3.3814 -1.3800  0.5055
 5213SOL    HW227273   2.289   4.539   6.650  1.2665  1.5260 -0.1130
 5214SOL     OW27274   0.430   4.035   1.549  0.0410  0.0356 -0.6935
 5214SOL    HW127275   0.498   4.031   1.481  1.3635  1.1196  0.5547
 5214SOL    HW227276   0.386   3.953   1.530 -0.1616 -0.3346  1.3903
 5215SOL     OW27277   3.631   1.951  12.262 -0.1257  0.0293 -0.1613
 5215SOL    HW127278   3.628   2.020  12.328 -0.2103 -0.1704  0.0428
 5215SOL    HW227279   3.706   1.900  12.293  0.8344  1.4871 -0.0752
 5216SOL     OW27280   1.865   2.536   1.707  0.2984 -0.0926 -0.1761
 5216SOL    HW127281   1.845   2.589   1.630  1.9930  2.8744  1.4120
 5216SOL    HW227282   1.932   2.592   1.746 -1.9777  2.4978  0.0337
 5217SOL     OW27283   1.290   3.046   8.210 -0.4657  0.7497 -0.0712
 5217SOL    HW127284   1.277   3.141   8.207  1.2372  0.9214 -1.7394
 5217SOL    HW227285   1.224   3.016   8.147 -1.0843 -1.3369  1.5482
 5218SOL     OW27286   0.572   1.013   6.718  0.0392 -0.7405 -0.5212
 5218SOL    HW127287   0.633   0.949   6.754 -0.6384  0.0903  2.0719
 5218SOL    HW227288   0.489   0.995   6.763  0.1381 -0.2928 -0.1561
 5219SOL     OW27289   4.326   4.422   1.605 -0.3490 -0.0772 -0.4365
 5219SOL    HW127290   4.247   4.426   1.552 -1.0127  0.4186  0.5887
 5219SOL    HW227291   4.335   4.328   1.619 -0.7041  0.1814  1.5589
 5220SOL     OW27292   1.162   3.375  11.280 -0.3164 -0.5636 -0.6356
 5220SOL    HW127293   1.209   3.412  11.205 -1.1214 -0.8011 -1.2644
 5220SOL    HW227294   1.071   3.404  11.271 -0.2599 -0.2885 -0.3319
 5221SOL     OW27295   0.552   0.214   6.513  0.2799  0.2355 -0.2242
 5221SOL    HW127296   0.644   0.187   6.517  0.9010  2.1446 -1.6872
 5221SOL    HW227297   0.541   0.240   6.421  0.0973 -4.1373 -1.4344
 5222SOL     OW27298   2.794   2.540   8.033  0.6202  0.3232  0.2878
 5222SOL    HW127299   2.868   2.572   7.981 -0.6425 -1.3748 -2.5327
 5222SOL    HW227300   2.817   2.574   8.120  0.8489  1.6442 -0.2799
 5223SOL     OW27301   2.747   4.660   7.435  0.1959 -0.6055 -0.0864
 5223SOL    HW127302   2.655   4.664   7.409 -0.6610 -0.8584  2.8934
 5223SOL    HW227303   2.737   4.640   7.528  1.1899 -0.6168  0.0189
 5224SOL     OW27304   2.917   0.229   1.846 -0.8196  0.0283 -0.1272
 5224SOL    HW127305   2.891   0.306   1.896 -1.5064 -1.0641  1.1863
 5224SOL    HW227306   3.004   0.216   1.884 -0.8332 -1.8691 -0.7589
 5225SOL     OW27307   3.231   3.228   3.755  0.0700 -0.9082 -0.6087
 5225SOL    HW127308   3.235   3.167   3.829 -0.0758 -0.5071 -0.2685
 5225SOL    HW227309   3.217   3.309   3.803 -2.6060 -0.6350 -1.8549
 5226SOL     OW27310   2.958   4.124  12.541 -0.1789 -0.1430  0.3065
 5226SOL    HW127311   2.913   4.101  12.622 -0.8995 -3.0257 -0.9488
 5226SOL    HW227312   2.892   4.131  12.473  0.8565 -1.4402 -0.8214
 5227SOL     OW27313   1.893   1.074   4.495  0.3617 -0.2812  0.3842
 5227SOL    HW127314   1.906   1.152   4.441  2.1443 -0.2584  0.8517
 5227SOL    HW227315   1.864   1.002   4.438 -0.4875 -1.0501  1.7731
 5228SOL     OW27316   3.632   2.126   1.838 -0.1560  0.2071  0.4643
 5228SOL    HW127317   3.667   2.111   1.925 -1.7448 -0.3939  1.0129
 5228SOL    HW227318   3.538   2.132   1.859  0.3936 -0.5013  3.1259
 5229SOL     OW27319   3.689   1.859   2.870  0.6461  0.1600  0.4778
 5229SOL    HW127320   3.677   1.866   2.776 -1.2478 -1.8419  0.5634
 5229SOL    HW227321   3.750   1.785   2.866 -0.1146 -0.5758  2.3344
 5230SOL     OW27322   1.534   1.413   0.578  0.0740  0.4098  0.2595
 5230SOL    HW127323   1.587   1.492   0.573 -1.6781  1.6551  1.6418
 5230SOL    HW227324   1.531   1.389   0.670  1.5700  2.5257  0.8360
 5231SOL     OW27325   3.037   0.995   2.886  0.1060 -0.0082 -0.0223
 5231SOL    HW127326   2.941   0.997   2.885  0.1087  0.2157  0.0743
 5231SOL    HW227327   3.049   0.901   2.898  2.0121  0.2807  0.3129
 5232SOL     OW27328   0.692   3.001   7.762  0.0957  0.1054 -0.4410
 5232SOL    HW127329   0.708   2.973   7.852 -4.0526  0.2616  0.3547
 5232SOL    HW227330   0.618   2.945   7.741 -1.5951  2.3208 -0.4462
 5233SOL     OW27331   3.464   2.621   3.308 -0.0652 -0.5177  0.2325
 5233SOL    HW127332   3.490   2.696   3.363 -2.3384  0.4586 -0.0375
 5233SOL    HW227333   3.541   2.566   3.320  1.6884  2.3674  2.1157
 5234SOL     OW27334   0.293   2.782   2.906 -0.1655  0.1212  0.3955
 5234SOL    HW127335   0.206   2.810   2.935 -0.8058 -1.8887  0.3851
 5234SOL    HW227336   0.335   2.868   2.895  0.5753 -0.2310  0.4710
 5235SOL     OW27337   4.566   2.261   6.930  0.0173 -0.1479 -0.1021
 5235SOL    HW127338   4.621   2.219   6.863  2.0321  1.8316  0.2957
 5235SOL    HW227339   4.500   2.294   6.870 -1.4649  3.5693  3.5972
 5236SOL     OW27340   3.775   2.220   5.647  0.2364 -0.3953  0.2448
 5236SOL    HW127341   3.749   2.156   5.581 -0.6788  1.2474 -1.0088
 5236SOL    HW227342   3.827   2.279   5.592 -0.9232 -0.4716 -0.9359
 5237SOL     OW27343   0.228   3.414  12.856  0.1204  0.1759 -0.6177
 5237SOL    HW127344   0.254   3.334  12.810  1.2116 -0.5918  1.3092
 5237SOL    HW227345   0.313   3.456  12.866 -0.4311  0.9891  0.5960
 5238SOL     OW27346   3.872   0.266  12.469 -0.0322  0.2258 -0.0689
 5238SOL    HW127347   3.822   0.203  12.522 -1.8425  0.5969 -1.3067
 5238SOL    HW227348   3.918   0.209  12.407 -0.2060  0.8121 -0.7320
 5239SOL     OW27349   3.695   1.033   1.094 -0.0734 -0.2334 -0.3167
 5239SOL    HW127350   3.619   1.036   1.038 -0.2508 -0.6246 -0.0954
 5239SOL    HW227351   3.698   1.125   1.120 -0.4938 -0.5160  0.7447
 5240SOL     OW27352   3.067   2.349   0.848  0.1427 -0.0030  0.3680
 5240SOL    HW127353   3.158   2.336   0.873  0.4092  1.1278 -0.0158
 5240SOL    HW227354   3.035   2.259   0.836  1.6997 -0.3777 -1.0047
 5241SOL     OW27355   4.233   1.938   4.066  0.3781 -0.2664  0.2507
 5241SOL    HW127356   4.184   1.904   3.991  0.2588  0.2356  0.1028
 5241SOL    HW227357   4.309   1.967   4.016 -1.9706  0.0188 -3.1798
 5242SOL     OW27358   0.041   2.870  14.991 -0.0430 -0.4891  0.1571
 5242SOL    HW127359   4.681   2.870  14.978 -0.0918 -1.4455  0.4956
 5242SOL    HW227360   0.073   2.899  14.906 -0.9008  0.3716  0.1208
 5243SOL     OW27361   1.275   4.583   0.753 -0.0855  0.4831 -0.1149
 5243SOL    HW127362   1.241   4.671   0.735 -1.6561 -0.1740 -0.3878
 5243SOL    HW227363   1.286   4.550   0.663 -0.3410  2.8217 -1.0023
 5244SOL     OW27364   0.835   2.394   5.526  0.0457  0.2981 -0.1310
 5244SOL    HW127365   0.896   2.466   5.541  2.3120 -1.4495 -0.8796
 5244SOL    HW227366   0.750   2.429   5.551  0.0814  2.1212 -2.5907
 5245SOL     OW27367   2.366   0.266  10.661 -0.8161 -0.4414  0.1114
 5245SOL    HW127368   2.380   0.178  10.626  0.3690  0.4058 -1.5170
 5245SOL    HW227369   2.451   0.285  10.700 -0.3396  2.0958 -2.1056
 5246SOL     OW27370   1.477   3.329   2.027  0.2750 -0.1353  0.0297
 5246SOL    HW127371   1.437   3.282   2.100  0.1617 -1.9973 -1.2161
 5246SOL    HW227372   1.426   3.410   2.026 -1.3788 -1.1585  1.2643
 5247SOL     OW27373   2.021   1.514   8.444 -0.5396 -0.3025  0.3292
 5247SOL    HW127374   1.975   1.476   8.519  0.3520 -0.9405  0.5553
 5247SOL    HW227375   2.046   1.432   8.401  0.3763  0.9951 -1.6116
 5248SOL     OW27376   2.987   4.507   3.764  0.0386 -0.3408 -0.5259
 5248SOL    HW127377   3.082   4.512   3.774  0.2439 -2.6962 -1.4467
 5248SOL    HW227378   2.959   4.555   3.843  1.9348 -0.0587 -0.0329
 5249SOL     OW27379   0.242   1.823   6.300 -0.1600 -0.2052  0.4170
 5249SOL    HW127380   0.302   1.801   6.371 -2.0448  0.3304  2.2063
 5249SOL    HW227381   0.314   1.852   6.245  1.5387 -1.8241  1.8012
 5250SOL     OW27382   3.848   0.619   4.670 -0.1033  0.4954  0.2044
 5250SOL    HW127383   3.817   0.607   4.760  1.0626  1.3819  0.7324
 5250SOL    HW227384   3.922   0.678   4.687  1.2512 -1.8671  2.4651
 5251SOL     OW27385   3.511   3.613   7.007 -0.2439 -0.5110 -0.3142
 5251SOL    HW127386   3.528   3.564   6.927  3.2843  0.4033 -0.1054
 5251SOL    HW227387   3.459   3.547   7.053  0.4893 -0.7288  0.2016
 5252SOL     OW27388   1.816   4.468  11.880  0.3643 -0.2753  0.6392
 5252SOL    HW127389   1.813   4.561  11.904  0.3793 -0.3156  0.7977
 5252SOL    HW227390   1.731   4.452  11.838  0.7733  0.5534 -0.4872
 5253SOL     OW27391   0.647   4.557   5.706 -0.1696 -0.5567 -0.4565
 5253SOL    HW127392   0.696   4.614   5.646 -0.5744 -0.2336 -0.4793
 5253SOL    HW227393   0.597   4.618   5.759  0.6796 -0.8649  0.6997
 5254SOL     OW27394   4.385   3.477   6.939  0.1394  0.2560  0.2005
 5254SOL    HW127395   4.430   3.479   7.023 -0.7367  0.2629  0.6687
 5254SOL    HW227396   4.418   3.560   6.906 -0.8676  0.2681 -0.8077
 5255SOL     OW27397   4.186   3.472   7.681 -0.0028 -0.1488 -0.6976
 5255SOL    HW127398   4.178   3.495   7.589  0.4742  0.6066 -0.5535
 5255SOL    HW227399   4.168   3.556   7.723 -2.6919 -1.2273  0.3112
 5256SOL     OW27400   4.731   4.734   5.128  0.4552  0.0018  0.3635
 5256SOL    HW127401   0.023   0.065   5.064  1.2285 -1.0956 -0.4344
 5256SOL    HW227402   4.636   0.000   5.119  0.4261  2.7403  1.0296
 5257SOL     OW27403   3.964   1.263   5.618 -0.3312  0.5725  0.3463
 5257SOL    HW127404   4.048   1.278   5.576 -0.0793 -0.4561  0.4902
 5257SOL    HW227405   3.992   1.249   5.708 -0.5648  1.2316  0.5211
 5258SOL     OW27406   0.703   2.943   4.616  0.0669 -0.4372  0.3141
 5258SOL    HW127407   0.728   3.018   4.670 -0.2760  0.0149 -0.1613
 5258SOL    HW227408   0.784   2.912   4.575  0.0569 -0.4802  0.3273
 5259SOL     OW27409   1.120   1.032   7.123  0.0681  0.1126 -0.0487
 5259SOL    HW127410   1.036   0.988   7.137  0.7925 -1.3819 -0.3973
 5259SOL    HW227411   1.171   0.961   7.085 -1.2190 -0.1069 -1.3867
 5260SOL     OW27412   1.500   4.157   1.981 -0.1652 -0.2248 -0.3149
 5260SOL    HW127413   1.540   4.092   1.922 -1.5288 -0.4491 -0.9953
 5260SOL    HW227414   1.528   4.118   2.064 -1.3588 -1.6551 -0.5820
 5261SOL     OW27415   0.327   4.731   0.564 -0.5546 -0.3107  0.1136
 5261SOL    HW127416   0.353   4.645   0.531  0.8340  0.2996 -0.4125
 5261SOL    HW227417   0.248   4.709   0.613 -0.6465 -2.1498 -0.8581
 5262SOL     OW27418   4.618   0.420   5.929  0.3601 -0.0538  0.2850
 5262SOL    HW127419   4.705   0.458   5.917 -0.1183  0.0947 -2.6912
 5262SOL    HW227420   4.597   0.375   5.847  1.7783  0.5750 -0.4174
 5263SOL     OW27421   0.455   1.239   0.192  0.1733  0.2696 -0.8756
 5263SOL    HW127422   0.459   1.246   0.096  0.7341 -1.8042 -1.0080
 5263SOL    HW227423   0.546   1.213   0.202 -0.6721 -2.5048 -0.2576
 5264SOL     OW27424   0.142   1.746   5.388 -0.2405 -0.0977 -0.2953
 5264SOL    HW127425   0.052   1.750   5.420  1.6068  0.9104  4.7249
 5264SOL    HW227426   0.184   1.704   5.463  0.5114 -2.7251 -2.2195
 5265SOL     OW27427   0.017   4.383   8.724  0.0070  0.0956  0.2727
 5265SOL    HW127428   0.024   4.433   8.805 -1.5359  1.5845 -0.5173
 5265SOL    HW227429   4.681   4.322   8.745 -0.9265  1.0260 -0.2335
 5266SOL     OW27430   2.006   0.265   5.540  0.1209 -0.3373 -0.2309
 5266SOL    HW127431   2.030   0.240   5.451  0.1227 -0.3142 -0.2369
 5266SOL    HW227432   2.053   0.197   5.588 -0.4319  1.1221  2.3961
 5267SOL     OW27433   2.073   3.607   5.431 -0.0758  0.6026 -0.4980
 5267SOL    HW127434   2.126   3.575   5.359  0.5516 -1.1553  0.7393
 5267SOL    HW227435   2.134   3.652   5.490 -0.9505 -0.6569  1.3723
 5268SOL     OW27436   0.211   0.600  15.223 -0.5731  0.1799 -0.2337
 5268SOL    HW127437   0.142   0.591  15.289 -1.0570 -1.3641 -0.9586
 5268SOL    HW227438   0.225   0.695  15.217 -0.0052  0.2722  2.2329
 5269SOL     OW27439   4.488   0.928   8.096  0.1051  0.3403 -0.4308
 5269SOL    HW127440   4.493   0.849   8.042  0.4373  1.1582 -1.5881
 5269SOL    HW227441   4.401   0.955   8.068 -0.1950 -1.9498 -1.6961
 5270SOL     OW27442   3.249   3.645  15.125  0.6815 -0.0419 -1.2082
 5270SOL    HW127443   3.159   3.666  15.148  0.4249 -1.4851 -0.9176
 5270SOL    HW227444   3.249   3.662  15.031  2.6288  2.7717 -0.7106
 5271SOL     OW27445   1.665   1.443  11.412 -0.0577 -1.1460 -0.2305
 5271SOL    HW127446   1.675   1.483  11.326  0.6447 -2.1879 -0.6291
 5271SOL    HW227447   1.579   1.482  11.429  1.2986  1.5210  0.6304
 5272SOL     OW27448   2.302   4.229   5.578 -0.2358 -0.8016  0.3010
 5272SOL    HW127449   2.248   4.297   5.538  0.8250  0.3349  0.7974
 5272SOL    HW227450   2.275   4.154   5.526  1.2656 -0.1841 -1.3842
 5273SOL     OW27451   0.416   4.661   3.415 -0.0241  0.2039 -0.4229
 5273SOL    HW127452   0.396   4.702   3.331 -0.1516  0.7378 -0.1384
 5273SOL    HW227453   0.382   4.716   3.486 -1.6235 -1.1751 -0.1346
 5274SOL     OW27454   0.312   1.854  17.325 -0.0768  0.4449 -0.4244
 5274SOL    HW127455   0.389   1.900  17.359 -0.0204  0.7562 -0.9807
 5274SOL    HW227456   0.291   1.788  17.391 -3.3404  2.5615  0.6407
 5275SOL     OW27457   3.525   2.068   8.475 -0.5358  0.2539 -0.1552
 5275SOL    HW127458   3.529   2.151   8.521  1.0133  0.9356 -1.5206
 5275SOL    HW227459   3.519   1.993   8.534  2.5385  0.2867  0.1642
 5276SOL     OW27460   0.850   0.517  11.340  0.2513  0.0911  0.4279
 5276SOL    HW127461   0.916   0.541  11.405  0.0993  1.3987  0.0978
 5276SOL    HW227462   0.794   0.462  11.394 -0.6944  1.5227  0.9034
 5277SOL     OW27463   1.175   1.171  13.258 -0.4801  0.0082  0.5524
 5277SOL    HW127464   1.263   1.135  13.242 -1.3968 -0.3914 -3.5738
 5277SOL    HW227465   1.196   1.229  13.331 -1.9682 -0.7949  1.6243
 5278SOL     OW27466   2.703   1.746   2.978  0.3517  1.1327 -0.2389
 5278SOL    HW127467   2.750   1.829   2.977  3.2452 -0.5537 -1.7109
 5278SOL    HW227468   2.744   1.713   3.058  0.7507  1.0592 -0.4769
 5279SOL     OW27469   1.989   2.171   7.614  0.1484  0.3912  0.3273
 5279SOL    HW127470   1.896   2.157   7.598  0.4283 -2.8512  1.6262
 5279SOL    HW227471   2.033   2.116   7.550 -0.4260 -0.1269  0.3882
 5280SOL     OW27472   4.408   4.166  10.137 -0.1459 -0.1121  0.2590
 5280SOL    HW127473   4.484   4.113  10.112 -0.9117 -0.9070 -0.3733
 5280SOL    HW227474   4.382   4.118  10.216  0.8991  0.1940  0.7927
 5281SOL     OW27475   2.325   1.600  14.328  0.7352 -0.1541  0.5224
 5281SOL    HW127476   2.285   1.519  14.359  0.4806 -0.7778 -1.3950
 5281SOL    HW227477   2.343   1.586  14.234  0.5004  1.6148  0.2198
 5282SOL     OW27478   4.115   1.846   7.115  0.1009 -0.0458 -0.1315
 5282SOL    HW127479   4.130   1.786   7.042 -2.4889 -0.4537 -0.3241
 5282SOL    HW227480   4.030   1.823   7.154  0.0008 -1.2292 -1.0258
 5283SOL     OW27481   3.595   3.975   2.046  0.0250 -0.1358  0.5251
 5283SOL    HW127482   3.663   3.908   2.054  0.5158  0.3344  0.2421
 5283SOL    HW227483   3.538   3.947   2.118  0.4492  0.3739  1.0605
 5284SOL     OW27484   0.887   2.033   8.038  0.1808  0.0225  0.3173
 5284SOL    HW127485   0.884   2.097   7.967 -0.8972 -1.2504 -0.7748
 5284SOL    HW227486   0.803   1.989   8.027  0.0551  0.3207  0.0947
 5285SOL     OW27487   4.636   3.416   9.627 -0.4223  0.0999  0.6048
 5285SOL    HW127488   4.664   3.336   9.581 -1.0137 -0.9033  1.9786
 5285SOL    HW227489   4.600   3.465   9.554 -0.3798 -1.1608 -0.2577
 5286SOL     OW27490   4.079   1.011   6.030 -0.2528 -0.1189  0.5141
 5286SOL    HW127491   4.152   0.986   5.973  0.8723  2.2812  0.9366
 5286SOL    HW227492   4.053   0.922   6.054  2.1493 -0.9537 -0.0360
 5287SOL     OW27493   0.931   3.623  12.699 -0.0262  0.0047 -0.6869
 5287SOL    HW127494   0.985   3.700  12.717 -0.4284  0.5112 -1.5880
 5287SOL    HW227495   0.905   3.602  12.788 -0.9567 -2.0461 -1.4354
 5288SOL     OW27496   1.234   4.617   5.570  0.4744 -0.3379 -0.0317
 5288SOL    HW127497   1.162   4.672   5.540  1.6038  1.5424  0.7149
 5288SOL    HW227498   1.198   4.596   5.656 -1.4275 -0.7427 -0.9409
 5289SOL     OW27499   1.267   3.921   7.478  0.0146  0.2726 -0.5473
 5289SOL    HW127500   1.301   3.960   7.398  1.6497 -1.4443 -0.7067
 5289SOL    HW227501   1.217   3.844   7.449 -0.0125  1.0247 -2.5225
 5290SOL     OW27502   3.091   1.456   2.973 -0.2858 -0.4833 -0.4826
 5290SOL    HW127503   3.146   1.534   2.977 -1.0584  0.1411 -1.8729
 5290SOL    HW227504   3.098   1.425   2.882 -0.4659 -0.9476 -0.3377
 5291SOL     OW27505   3.052   4.696   7.623 -0.1609  0.2848 -0.5410
 5291SOL    HW127506   2.960   4.682   7.646 -0.4012  2.2785 -0.3223
 5291SOL    HW227507   3.057   0.049   7.659 -2.5627  0.3731 -0.4222
 5292SOL     OW27508   1.653   3.240   3.442 -0.0062 -0.4189  0.0561
 5292SOL    HW127509   1.708   3.201   3.374 -1.0139  0.5825 -1.3223
 5292SOL    HW227510   1.602   3.304   3.393 -0.1652 -0.3911  0.2613
 5293SOL     OW27511   4.537   2.706   0.568 -0.3631 -0.2344  0.2428
 5293SOL    HW127512   4.532   2.638   0.501 -0.6774  0.2918 -0.2634
 5293SOL    HW227513   4.629   2.729   0.578 -0.1562 -0.6922 -0.6084
 5294SOL     OW27514   0.634   1.146   3.607 -0.0747  0.2813 -0.4468
 5294SOL    HW127515   0.566   1.208   3.579 -1.2409 -1.6999 -2.0137
 5294SOL    HW227516   0.714   1.195   3.623 -0.3035  1.2630 -2.2470
 5295SOL     OW27517   0.421   2.472   6.331 -0.0474  0.7134 -0.6657
 5295SOL    HW127518   0.330   2.488   6.306 -0.9654 -3.5647 -0.1382
 5295SOL    HW227519   0.428   2.391   6.280 -1.3315 -0.2144  0.6481
 5296SOL     OW27520   3.973   1.390  17.073  0.5732  0.4946 -0.9316
 5296SOL    HW127521   4.043   1.331  17.103  0.4997  1.6850  1.6390
 5296SOL    HW227522   4.019   1.473  17.067 -2.1290  2.0527 -0.2476
 5297SOL     OW27523   3.173   0.924   9.777 -0.2655 -0.3726 -0.3275
 5297SOL    HW127524   3.163   1.010   9.737  0.1732  0.2952  1.0008
 5297SOL    HW227525   3.179   0.870   9.699 -0.4283  1.0064 -1.2887
 5298SOL     OW27526   1.215   0.369   5.981 -0.3582 -0.1571 -0.5617
 5298SOL    HW127527   1.200   0.420   5.902 -1.3199  0.9429  0.3425
 5298SOL    HW227528   1.310   0.367   5.996 -0.7119 -3.0981  1.4426
 5299SOL     OW27529   2.314   1.113   1.238 -0.3280  0.4265 -0.5374
 5299SOL    HW127530   2.325   1.048   1.168 -0.2959 -0.1793  0.0240
 5299SOL    HW227531   2.300   1.047   1.306 -1.0193  1.5742  0.4052
 5300SOL     OW27532   3.351   0.846   3.404 -0.4061 -0.1316 -0.2504
 5300SOL    HW127533   3.365   0.875   3.494  0.5359 -0.5615 -0.2531
 5300SOL    HW227534   3.304   0.916   3.360  0.7627  1.7686  1.4923
 5301SOL     OW27535   0.481   2.469   3.247 -0.3102 -0.0730  0.5754
 5301SOL    HW127536   0.546   2.539   3.240 -0.6485  0.1632 -0.1598
 5301SOL    HW227537   0.412   2.489   3.185  0.9345 -0.8156 -1.0503
 5302SOL     OW27538   4.521   1.184   8.424  0.4448  0.4828  1.0154
 5302SOL    HW127539   4.579   1.158   8.352  1.3877  0.2235  1.8796
 5302SOL    HW227540   4.531   1.279   8.425 -0.7397  0.6145  0.7169
 5303SOL     OW27541   3.271   3.942   2.471 -0.2953 -0.2955  0.1079
 5303SOL    HW127542   3.295   4.006   2.538  0.5468 -0.2854 -0.1923
 5303SOL    HW227543   3.315   3.863   2.504  1.1098  0.7465  0.7180
 5304SOL     OW27544   3.297   3.531  16.599 -0.3672 -0.8097  0.1749
 5304SOL    HW127545   3.217   3.533  16.547  0.5083  0.1883 -1.1268
 5304SOL    HW227546   3.260   3.539  16.687  2.1149  0.3025  1.1375
 5305SOL     OW27547   2.738   0.623   8.604 -0.1669 -0.1481 -0.2796
 5305SOL    HW127548   2.663   0.668   8.565 -2.3524 -1.2592  2.6617
 5305SOL    HW227549   2.806   0.628   8.537  0.0918  1.3040  0.0921
 5306SOL     OW27550   1.595   0.111   3.407  0.0614  0.2357  0.0971
 5306SOL    HW127551   1.590   0.108   3.312  2.0497 -0.1271  0.0159
 5306SOL    HW227552   1.643   0.193   3.413 -2.2748  1.6593 -0.5575
 5307SOL     OW27553   1.962   4.110   6.791 -0.1666 -0.5268 -1.3519
 5307SOL    HW127554   1.868   4.095   6.799  0.2368 -1.4567  1.4832
 5307SOL    HW227555   2.008   4.032   6.822 -1.1985 -0.4224  0.4822
 5308SOL     OW27556   3.307   0.952  11.129 -0.0150  0.2846  0.4123
 5308SOL    HW127557   3.294   0.892  11.202 -1.0489  0.2870  0.2374
 5308SOL    HW227558   3.401   0.950  11.112 -0.0683 -4.0498  0.6208
 5309SOL     OW27559   1.603   2.818   5.840  0.0042 -0.3385  0.0551
 5309SOL    HW127560   1.596   2.906   5.804  0.5120 -0.6944 -0.9411
 5309SOL    HW227561   1.654   2.771   5.773  1.2814  3.7052 -1.7835
 5310SOL     OW27562   2.371   4.704   4.684  0.1428 -0.9339 -0.0384
 5310SOL    HW127563   2.390   4.628   4.629  2.6817 -0.4285  0.1541
 5310SOL    HW227564   2.416   4.675   4.764 -0.9029  0.9475  1.2320
 5311SOL     OW27565   0.932   0.940  17.503 -0.4202 -0.3090 -0.0543
 5311SOL    HW127566   0.979   0.866  17.467 -1.4470  0.8647 -3.7914
 5311SOL    HW227567   0.853   0.887  17.513 -0.4092 -0.2084  0.5926
 5312SOL     OW27568   0.393   1.494   5.815 -0.0534  0.1384 -0.3932
 5312SOL    HW127569   0.386   1.426   5.749  0.6318  0.2451 -0.5719
 5312SOL    HW227570   0.339   1.455   5.884  0.0638  0.3787 -0.1638
 5313SOL     OW27571   0.327   1.571  17.713 -0.7226 -0.4041  0.7230
 5313SOL    HW127572   0.251   1.520  17.684 -0.9841  0.1200  0.4819
 5313SOL    HW227573   0.352   1.525   0.053  0.7799  0.2138  0.6017
 5314SOL     OW27574   4.307   4.401   8.063  0.2811 -0.1051  0.1329
 5314SOL    HW127575   4.266   4.485   8.047  1.8603  0.3911 -1.2927
 5314SOL    HW227576   4.355   4.377   7.983  1.3025  1.9231  0.1502
 5315SOL     OW27577   0.133   2.223   5.151  0.2395  0.6137  0.3153
 5315SOL    HW127578   0.148   2.151   5.213 -1.3476 -0.1989 -0.2356
 5315SOL    HW227579   0.224   2.254   5.141  0.4016 -0.0326 -0.2516
 5316SOL     OW27580   4.288   0.119   9.527  0.2690  0.2802  0.1832
 5316SOL    HW127581   4.195   0.121   9.551  0.5786  0.5357  1.3596
 5316SOL    HW227582   4.318   0.168   9.603 -3.0769  0.4335  1.4447
 5317SOL     OW27583   4.007   3.024   7.778 -0.3662  0.2041 -0.5107
 5317SOL    HW127584   3.980   3.057   7.864  0.0174  0.4804 -0.4941
 5317SOL    HW227585   4.060   3.093   7.737  0.0072  0.4307  0.3568
 5318SOL     OW27586   0.349   3.245  16.092 -0.3056 -0.3240 -0.2853
 5318SOL    HW127587   0.403   3.275  16.165 -0.4262 -0.4879 -0.1239
 5318SOL    HW227588   0.270   3.204  16.129 -1.4080  1.9121 -0.1953
 5319SOL     OW27589   3.976   1.767   8.960  0.6070  0.1533 -0.3492
 5319SOL    HW127590   3.987   1.835   9.026  1.8164  0.0613 -0.4515
 5319SOL    HW227591   3.961   1.691   9.016 -1.8392  0.6703 -0.3211
 5320SOL     OW27592   3.855   1.578   7.666  0.4758  0.1161 -0.3007
 5320SOL    HW127593   3.817   1.634   7.733 -1.1795 -1.1182 -0.2048
 5320SOL    HW227594   3.951   1.577   7.675  0.5667  0.4982 -1.2535
 5321SOL     OW27595   2.690   3.371   1.577 -0.1983 -0.2189  0.2204
 5321SOL    HW127596   2.768   3.420   1.604  0.2542 -0.3128 -0.9047
 5321SOL    HW227597   2.679   3.404   1.487  0.8195 -3.0339 -0.9171
 5322SOL     OW27598   3.179   0.960   9.014 -0.3410  0.1133  0.1535
 5322SOL    HW127599   3.249   1.018   8.984  0.2290 -2.6591 -3.9242
 5322SOL    HW227600   3.134   1.017   9.077 -0.2148  0.0639  0.2894
 5323SOL     OW27601   1.867   2.781   5.376  0.3201 -0.0633 -0.0080
 5323SOL    HW127602   1.785   2.808   5.418 -0.7355 -0.6214 -1.7330
 5323SOL    HW227603   1.827   2.702   5.338  0.1554  0.1194 -0.2093
 5324SOL     OW27604   2.968   3.985   5.892  0.3534 -0.2635  0.1786
 5324SOL    HW127605   2.997   3.939   5.813 -0.1778 -0.0900 -0.1123
 5324SOL    HW227606   2.920   4.055   5.848 -1.2329 -1.0498  0.6690
 5325SOL     OW27607   4.609   0.612   0.227 -0.4079  0.1152 -0.6544
 5325SOL    HW127608   4.660   0.531   0.225 -3.2486 -1.6570 -1.5017
 5325SOL    HW227609   4.519   0.583   0.216 -0.2171 -0.9477  0.5958
 5326SOL     OW27610   0.824   4.270  11.608 -0.2078  0.2053 -0.1620
 5326SOL    HW127611   0.907   4.314  11.627  0.5605  0.0895 -3.3249
 5326SOL    HW227612   0.856   4.224  11.531 -1.0278 -0.9890  0.2138
 5327SOL     OW27613   3.511   2.229   5.137  0.0569 -0.2658  0.3488
 5327SOL    HW127614   3.446   2.212   5.205 -0.6016  1.0570  0.0557
 5327SOL    HW227615   3.481   2.312   5.099 -0.0179 -0.6439 -0.4137
 5328SOL     OW27616   2.077   4.683   2.568 -0.0067  0.2911  0.2731
 5328SOL    HW127617   2.021   4.654   2.640  0.4770 -0.4360  0.3494
 5328SOL    HW227618   2.144   4.616   2.560 -1.3730 -1.0821  0.2589
 5329SOL     OW27619   0.589   1.402  16.159  0.1127  0.2741  0.3537
 5329SOL    HW127620   0.653   1.399  16.230  0.1067 -3.5833  0.1560
 5329SOL    HW227621   0.648   1.425  16.087  0.1062  2.0207  0.8923
 5330SOL     OW27622   0.642   4.664   8.620  0.4859 -0.0188 -0.5593
 5330SOL    HW127623   0.586   4.716   8.563  0.5391 -1.8096 -2.2445
 5330SOL    HW227624   0.575   4.622   8.674  2.5446  0.1377  2.1439
 5331SOL     OW27625   1.994   0.759   7.805 -0.3237  0.3988 -0.1384
 5331SOL    HW127626   2.030   0.847   7.792  0.2480  0.2265  0.3118
 5331SOL    HW227627   2.032   0.713   7.730 -0.3477  0.4952 -0.2100
 5332SOL     OW27628   1.366   2.123   7.258  0.1374  0.3734  0.0678
 5332SOL    HW127629   1.452   2.141   7.297  0.0469 -0.9253  0.8521
 5332SOL    HW227630   1.370   2.031   7.234 -2.2247  0.3660 -0.2957
 5333SOL     OW27631   4.463   3.330  11.446 -0.2790 -0.5892 -0.1894
 5333SOL    HW127632   4.555   3.306  11.435  0.3032  1.6506 -0.2756
 5333SOL    HW227633   4.457   3.289  11.532  0.8468 -0.0597  0.1413
 5334SOL     OW27634   3.361   3.329   2.859  0.1753 -0.5002  0.2833
 5334SOL    HW127635   3.388   3.416   2.832  1.4132 -0.8411  0.4240
 5334SOL    HW227636   3.437   3.301   2.910  1.0289 -0.7041 -1.1066
 5335SOL     OW27637   4.132   0.139   5.511 -0.0201 -0.2948  0.2340
 5335SOL    HW127638   4.051   0.169   5.471  0.4998  2.0919  0.9890
 5335SOL    HW227639   4.164   0.063   5.461  0.6969 -1.8746  3.0953
 5336SOL     OW27640   2.565   1.365   6.916  0.3648 -0.3723 -0.1761
 5336SOL    HW127641   2.586   1.277   6.886 -1.5453 -0.5804 -0.9047
 5336SOL    HW227642   2.479   1.378   6.875  0.7544  1.3550 -0.4276
 5337SOL     OW27643   4.331   1.222   2.693  0.6140  0.0315  0.1605
 5337SOL    HW127644   4.336   1.259   2.781 -1.5223  3.3158 -1.1147
 5337SOL    HW227645   4.272   1.277   2.641 -0.0278  0.2053  1.0853
 5338SOL     OW27646   1.000   1.289   1.215  0.7597  0.5622 -0.0986
 5338SOL    HW127647   1.014   1.302   1.121  0.2166  0.3437 -0.2061
 5338SOL    HW227648   1.089   1.316   1.240  1.5276 -0.9687 -1.1773
 5339SOL     OW27649   1.206   1.682  11.302 -0.4406 -0.0921  0.0150
 5339SOL    HW127650   1.261   1.723  11.235 -0.7137 -1.4727 -1.0389
 5339SOL    HW227651   1.191   1.746  11.372 -1.2684  0.8719 -1.0452
 5340SOL     OW27652   0.507   0.928  15.117 -0.7669  0.3024  0.5894
 5340SOL    HW127653   0.413   0.913  15.113 -0.9529  1.6830 -0.0592
 5340SOL    HW227654   0.531   1.003  15.064  1.2930 -0.4490  0.4394
 5341SOL     OW27655   3.130   1.221  13.123  0.5665 -0.4424 -0.4364
 5341SOL    HW127656   3.132   1.126  13.136  0.0043 -0.6650 -1.9755
 5341SOL    HW227657   3.042   1.237  13.159  0.2197 -0.8813 -1.0881
 5342SOL     OW27658   1.217   0.938  14.064 -0.1140 -0.7340 -0.2023
 5342SOL    HW127659   1.212   0.980  13.978  1.3806  0.8386  0.4615
 5342SOL    HW227660   1.138   0.975  14.103 -1.4327 -0.1970 -3.4396
 5343SOL     OW27661   0.670   3.967   8.150  0.0204 -0.0711 -0.7095
 5343SOL    HW127662   0.736   4.022   8.192  0.8160  1.0904 -3.4732
 5343SOL    HW227663   0.612   4.036   8.118  1.2662  1.6871  0.7735
 5344SOL     OW27664   1.756   3.418   7.638 -0.5513 -0.2908 -0.7098
 5344SOL    HW127665   1.664   3.442   7.624 -0.5207  1.5229  2.1597
 5344SOL    HW227666   1.774   3.436   7.731  0.4724 -1.6430 -0.6486
 5345SOL     OW27667   4.010   2.022   1.279 -0.3777  0.3178  0.4377
 5345SOL    HW127668   4.049   2.056   1.360  0.9378  1.7977 -0.8230
 5345SOL    HW227669   4.009   2.109   1.239  0.9551 -0.6369 -1.7011
 5346SOL     OW27670   4.185   3.808  14.842  0.4978 -0.0069 -0.4843
 5346SOL    HW127671   4.211   3.861  14.767 -0.2759  0.5574 -0.3548
 5346SOL    HW227672   4.224   3.725  14.816 -1.1445 -0.3725 -1.7451
 5347SOL     OW27673   3.106   2.881   4.385  0.1342  0.5915  0.6388
 5347SOL    HW127674   3.173   2.931   4.430 -0.1797  1.3028  0.3233
 5347SOL    HW227675   3.115   2.799   4.434  0.5653  1.4171  1.9470
 5348SOL     OW27676   4.290   4.546  16.857  0.2567  0.0163 -0.0779
 5348SOL    HW127677   4.217   4.536  16.796 -0.8864  2.2780  0.9246
 5348SOL    HW227678   4.277   4.464  16.905 -2.0184  1.7202  2.2476
 5349SOL     OW27679   4.255   2.251   5.302  0.0211  0.2918  0.3987
 5349SOL    HW127680   4.310   2.221   5.374  0.6099 -1.6066 -0.8439
 5349SOL    HW227681   4.260   2.172   5.249  1.1646 -1.9795  3.9009
 5350SOL     OW27682   0.994   3.263   3.032 -0.2454 -0.0244 -0.0350
 5350SOL    HW127683   0.938   3.339   3.016 -0.8262 -0.2052  1.1077
 5350SOL    HW227684   1.029   3.259   2.943  1.2528 -0.7925  0.5963
 5351SOL     OW27685   0.083   0.050   7.889 -0.1526 -0.1159 -0.3197
 5351SOL    HW127686   0.002   0.095   7.911  0.1490  0.4419 -0.3556
 5351SOL    HW227687   0.123   0.050   7.977 -0.1111  0.3765 -0.3407
 5352SOL     OW27688   0.412   1.541  12.141 -0.2316  0.3154  0.3783
 5352SOL    HW127689   0.361   1.616  12.109 -2.5618 -1.6039 -0.3180
 5352SOL    HW227690   0.348   1.471  12.136 -1.7759  1.8326 -0.9216
 5353SOL     OW27691   0.785   4.448   7.271 -0.0514 -0.1150 -0.4016
 5353SOL    HW127692   0.764   4.482   7.358  1.4998  0.0761 -0.1002
 5353SOL    HW227693   0.869   4.488   7.250 -0.6297 -0.7177 -3.7810
 5354SOL     OW27694   4.388   2.130   0.858 -0.2049  0.0953  0.8368
 5354SOL    HW127695   4.304   2.145   0.815 -0.0467 -1.3608  0.0174
 5354SOL    HW227696   4.384   2.058   0.922  1.3668 -0.8055 -0.0704
 5355SOL     OW27697   0.160   4.574   9.320 -0.5998 -0.1816 -0.3207
 5355SOL    HW127698   0.134   4.503   9.378 -1.0178  0.6669  0.5376
 5355SOL    HW227699   0.190   4.517   9.249  2.0383  1.2155 -0.3059
 5356SOL     OW27700   1.354   1.448   2.040  0.0369 -0.0868 -0.6721
 5356SOL    HW127701   1.326   1.357   2.027  1.7561 -0.6025 -0.9062
 5356SOL    HW227702   1.395   1.429   2.124 -0.7829  2.5752  0.2908
 5357SOL     OW27703   3.924   3.031   9.961 -0.6975 -0.3423 -0.0854
 5357SOL    HW127704   3.919   3.124   9.984  0.0313 -0.0757 -1.0314
 5357SOL    HW227705   3.942   2.992  10.047 -0.3502 -0.3054 -0.1414
 5358SOL     OW27706   1.963   4.391   8.687  0.1453  0.5269  0.1931
 5358SOL    HW127707   1.889   4.433   8.729 -0.8447 -1.0687  0.0367
 5358SOL    HW227708   1.922   4.310   8.657  0.4334  0.9658 -1.3828
 5359SOL     OW27709   2.205   3.296   2.195  0.4463  0.0727  0.1015
 5359SOL    HW127710   2.282   3.265   2.148 -1.4262 -2.4290 -1.3325
 5359SOL    HW227711   2.191   3.234   2.267 -3.1735 -1.7030 -2.1332
 5360SOL     OW27712   3.688   3.142   5.494  0.2819 -0.1118  0.1132
 5360SOL    HW127713   3.728   3.080   5.554  1.5269  0.8107  0.2449
 5360SOL    HW227714   3.730   3.223   5.524  0.1874 -0.9792  2.5681
 5361SOL     OW27715   3.271   0.481  14.623  0.1857  0.0827 -0.8959
 5361SOL    HW127716   3.178   0.499  14.611 -0.0932 -0.3592  0.5640
 5361SOL    HW227717   3.282   0.438  14.708  1.1953 -0.8138 -1.4792
 5362SOL     OW27718   0.809   1.195  15.668 -0.0352  0.4774 -0.4569
 5362SOL    HW127719   0.870   1.127  15.696 -0.6988  1.3422  3.1417
 5362SOL    HW227720   0.785   1.226  15.756  1.1402 -2.0101  0.7406
 5363SOL     OW27721   1.116   0.819  16.797 -0.1205 -0.1862  0.5253
 5363SOL    HW127722   1.179   0.756  16.832 -0.2303  0.9705  2.7970
 5363SOL    HW227723   1.042   0.814  16.857  1.2469 -1.4456  2.0872
 5364SOL     OW27724   0.936   0.259   8.598  0.5886 -0.2601  0.0079
 5364SOL    HW127725   0.955   0.202   8.673 -0.6048 -1.3799 -0.5373
 5364SOL    HW227726   0.871   0.318   8.637  1.8331  0.0665  1.5735
 5365SOL     OW27727   4.033   2.822  12.977  0.1014  0.4266 -0.1279
 5365SOL    HW127728   3.962   2.829  12.913 -0.7666  1.7904  0.9577
 5365SOL    HW227729   4.112   2.825  12.923 -0.1609 -0.0892 -0.5358
 5366SOL     OW27730   0.618   4.718   3.087  0.1868  0.3236 -0.2264
 5366SOL    HW127731   0.633   4.728   2.993 -2.1175 -0.0652 -0.6104
 5366SOL    HW227732   0.527   0.009   3.100  1.0572  3.1574  0.0710
 5367SOL     OW27733   2.624   4.310   8.455 -0.0571  0.0317 -0.4392
 5367SOL    HW127734   2.654   4.269   8.537  0.0675 -2.0160 -1.4966
 5367SOL    HW227735   2.594   4.237   8.400  0.1140 -0.1347 -0.3142
 5368SOL     OW27736   2.077   0.201   2.593  0.2532  0.1749 -0.2977
 5368SOL    HW127737   2.168   0.231   2.598  0.0974  0.7254 -0.7595
 5368SOL    HW227738   2.088   0.107   2.584 -1.9920 -0.1000 -0.0552
 5369SOL     OW27739   2.731   3.567   4.633  0.2812 -0.0693 -0.1061
 5369SOL    HW127740   2.740   3.481   4.592  4.2979 -0.0017  0.6890
 5369SOL    HW227741   2.687   3.554   4.717 -1.1765  1.3822 -0.6527
 5370SOL     OW27742   2.603   0.344   2.784 -0.0644 -0.6925  0.1534
 5370SOL    HW127743   2.638   0.291   2.713  2.4078 -0.5136  1.2418
 5370SOL    HW227744   2.673   0.343   2.849 -0.5535  0.7868  0.7059
 5371SOL     OW27745   1.821   3.925   3.027 -0.0837 -0.2747 -0.8387
 5371SOL    HW127746   1.785   3.847   3.070 -0.3557  0.4865  0.3218
 5371SOL    HW227747   1.865   3.880   2.955 -0.2742 -0.5678 -0.7738
 5372SOL     OW27748   1.502   1.294   6.514 -0.0771  0.4112 -0.4764
 5372SOL    HW127749   1.430   1.349   6.545 -1.2258 -0.0156 -2.4608
 5372SOL    HW227750   1.457   1.211   6.499 -2.1937  2.0067 -2.8242
 5373SOL     OW27751   2.943   1.277   3.740  0.1271 -0.6737 -0.1364
 5373SOL    HW127752   2.916   1.274   3.832 -1.1025 -4.0516 -0.5787
 5373SOL    HW227753   2.870   1.326   3.703 -0.1524 -1.4990 -0.6963
 5374SOL     OW27754   2.967   1.380   4.673 -0.2491 -0.6298 -0.2943
 5374SOL    HW127755   2.911   1.351   4.745 -1.5707  0.6588 -0.8034
 5374SOL    HW227756   3.058   1.375   4.702  0.4372  1.1428 -2.1220
 5375SOL     OW27757   4.262   1.095   7.913  0.0399 -0.4231 -0.2758
 5375SOL    HW127758   4.179   1.135   7.938  1.5861  1.5702  1.6665
 5375SOL    HW227759   4.241   1.015   7.865 -4.4272  0.0839  0.8498
 5376SOL     OW27760   4.080   3.772   2.518 -0.1861  0.1101 -0.3595
 5376SOL    HW127761   4.149   3.839   2.524 -0.2082  0.3580 -2.8400
 5376SOL    HW227762   4.066   3.755   2.611 -1.0272 -1.5102 -0.7822
 5377SOL     OW27763   4.170   3.338   4.608 -0.1550  0.4538  0.4175
 5377SOL    HW127764   4.130   3.415   4.569  1.0710  1.1207  0.4758
 5377SOL    HW227765   4.249   3.378   4.644  0.9181  0.3983 -1.8849
 5378SOL     OW27766   3.956   2.674   7.167 -0.1471  0.0841  0.0190
 5378SOL    HW127767   4.041   2.681   7.124  0.0519 -2.0174  0.0713
 5378SOL    HW227768   3.939   2.760   7.205 -3.0653 -0.2174 -0.6207
 5379SOL     OW27769   1.613   3.475  17.249 -0.3441 -0.3015  0.1236
 5379SOL    HW127770   1.531   3.499  17.206 -0.8753 -1.4441  0.4898
 5379SOL    HW227771   1.575   3.437  17.329 -0.1995  1.3723  0.9881
 5380SOL     OW27772   0.910   2.933   6.320 -0.0994 -0.1151 -0.2480
 5380SOL    HW127773   0.866   2.938   6.235 -0.5551  2.4619  0.1637
 5380SOL    HW227774   0.855   3.003   6.356 -0.6979 -0.1990 -1.0102
 5381SOL     OW27775   4.200   4.327   8.974 -0.4234  0.5177  0.2801
 5381SOL    HW127776   4.224   4.234   8.977  0.7575  0.8492  1.2475
 5381SOL    HW227777   4.109   4.320   9.002  0.2183 -0.1003  2.2383
 5382SOL     OW27778   2.615   2.793  10.899 -0.1300  0.5433  0.0159
 5382SOL    HW127779   2.652   2.869  10.854 -0.1623  0.9028  0.5998
 5382SOL    HW227780   2.662   2.804  10.982  1.5381  0.9935 -1.0016
 5383SOL     OW27781   1.883   0.932   9.524 -0.6509 -0.1472 -0.3713
 5383SOL    HW127782   1.836   0.850   9.539  0.5942 -0.9709 -0.9399
 5383SOL    HW227783   1.803   0.984   9.518 -0.8656 -0.3995  0.3009
 5384SOL     OW27784   0.879   3.058  11.740 -0.3369 -0.1257  0.4810
 5384SOL    HW127785   0.954   3.025  11.689  0.8285  2.8628  0.2764
 5384SOL    HW227786   0.925   3.110  11.806 -0.7528  2.3674 -1.1985
 5385SOL     OW27787   2.648   1.926   8.129  0.5496  0.5976 -0.3818
 5385SOL    HW127788   2.586   1.860   8.097  1.0813  0.9747 -2.2411
 5385SOL    HW227789   2.674   1.963   8.044 -0.5036  1.0688 -0.4889
 5386SOL     OW27790   3.385   3.982   0.556 -0.4372 -0.3165 -0.2641
 5386SOL    HW127791   3.465   4.013   0.598  0.1100  0.5662 -1.9946
 5386SOL    HW227792   3.321   4.037   0.601  0.4725 -1.1831  2.0954
 5387SOL     OW27793   0.921   2.795   9.222  0.2251  0.0178  0.6048
 5387SOL    HW127794   0.837   2.829   9.251  0.1909  0.5753 -0.1359
 5387SOL    HW227795   0.932   2.719   9.279  0.0115  0.2280  0.9260
 5388SOL     OW27796   0.688   1.642   9.318  0.4807  0.5115  0.3865
 5388SOL    HW127797   0.663   1.616   9.407 -0.1390  0.6565  0.2576
 5388SOL    HW227798   0.690   1.738   9.313 -0.9299  0.4346 -1.6269
 5389SOL     OW27799   4.639   0.421   0.546 -0.3660  0.1176  0.1311
 5389SOL    HW127800   4.691   0.386   0.474 -0.9584 -1.1572  0.3276
 5389SOL    HW227801   4.554   0.394   0.512 -0.7905  1.5661  0.0078
 5390SOL     OW27802   0.510   3.906  12.191 -0.4301 -0.2561 -0.2179
 5390SOL    HW127803   0.603   3.889  12.207 -0.3386  0.2786 -0.1691
 5390SOL    HW227804   0.498   3.995  12.226  3.3132 -0.6300  2.0125
 5391SOL     OW27805   0.718   2.045  13.037 -0.3955  0.1100 -0.0189
 5391SOL    HW127806   0.645   1.985  13.020  0.5159 -0.9040 -0.3988
 5391SOL    HW227807   0.725   2.098  12.958  2.1920 -0.2188 -0.0137
 5392SOL     OW27808   1.614   1.026   2.522  0.1978  0.5243 -0.3994
 5392SOL    HW127809   1.587   1.005   2.612  1.8295 -0.0612 -0.0452
 5392SOL    HW227810   1.709   1.035   2.525  0.1037  1.2189  0.6706
 5393SOL     OW27811   0.978   2.233   7.649 -0.1351 -0.5426  0.5846
 5393SOL    HW127812   1.043   2.303   7.654  0.0637 -0.6300 -0.7829
 5393SOL    HW227813   0.926   2.253   7.727  1.6584 -0.4720  1.7666
 5394SOL     OW27814   2.399   4.358  12.674 -0.5471 -0.2612 -0.2640
 5394SOL    HW127815   2.406   4.273  12.631  2.5830  0.6713 -1.5717
 5394SOL    HW227816   2.440   4.408  12.603 -1.3547  1.1849  0.2795
 5395SOL     OW27817   1.822   4.460  11.040 -0.9207  0.1502 -0.2520
 5395SOL    HW127818   1.775   4.442  11.122  0.7414  0.2912  0.7228
 5395SOL    HW227819   1.783   4.404  10.973  0.2144 -1.6705  0.6084
 5396SOL     OW27820   2.938   1.002   4.772  0.2748  0.8080  0.2669
 5396SOL    HW127821   2.952   0.977   4.863  2.6045 -2.3500 -0.9395
 5396SOL    HW227822   2.901   1.090   4.774 -0.0114  0.7070 -0.6635
 5397SOL     OW27823   1.428   2.207   2.059 -0.1624  0.2998 -0.1957
 5397SOL    HW127824   1.390   2.275   2.114  1.0323  0.7041  0.1193
 5397SOL    HW227825   1.488   2.157   2.116  0.5107  1.1969 -0.1214
 5398SOL     OW27826   4.515   3.305   0.028  0.0947  0.2049  0.3614
 5398SOL    HW127827   4.433   3.351   0.012 -1.1453 -1.6751  1.3247
 5398SOL    HW227828   4.517   3.311   0.123 -0.2802  0.6643  0.3437
 5399SOL     OW27829   2.035   0.816   4.397  0.3386 -0.1646  0.6825
 5399SOL    HW127830   2.101   0.881   4.419  2.8335 -2.4619  0.1147
 5399SOL    HW227831   2.061   0.799   4.307  0.9112  3.0242  0.2620
 5400SOL     OW27832   1.471   3.644   9.752  0.2134 -0.4957  0.7622
 5400SOL    HW127833   1.438   3.651   9.663  1.1857 -5.9179 -0.0677
 5400SOL    HW227834   1.454   3.732   9.785  0.4500  1.1469 -3.5919
 5401SOL     OW27835   3.138   1.460  12.978 -0.0543 -0.7345 -0.5607
 5401SOL    HW127836   3.158   1.376  13.020  0.0003 -0.7753 -0.6698
 5401SOL    HW227837   3.215   1.493  12.933  0.3196 -1.1996 -0.2646
 5402SOL     OW27838   2.566   1.887   1.258  0.0298  0.1792  0.2718
 5402SOL    HW127839   2.519   1.957   1.304 -1.5919  0.8835 -2.4370
 5402SOL    HW227840   2.496   1.838   1.214  0.0418  0.2735  0.1476
 5403SOL     OW27841   0.087   0.878   8.623  0.1754  0.6921  0.4936
 5403SOL    HW127842   0.135   0.936   8.564  1.2660 -1.0519 -0.3380
 5403SOL    HW227843   0.156   0.844   8.680 -0.0999  1.9401  1.5613
 5404SOL     OW27844   2.052   1.344   2.988 -0.3453  0.0071 -0.3710
 5404SOL    HW127845   2.106   1.268   3.014 -0.6255  0.5311  1.7098
 5404SOL    HW227846   2.068   1.414   3.051  1.4164  0.7506 -1.6557
 5405SOL     OW27847   1.168   4.539   9.409  0.6870 -0.3225 -0.0286
 5405SOL    HW127848   1.204   4.625   9.388 -1.4690  0.4195 -0.7504
 5405SOL    HW227849   1.177   4.535   9.504 -0.2028  1.1572  0.1267
 5406SOL     OW27850   0.691   3.132   4.397  0.4633  0.2271 -0.1594
 5406SOL    HW127851   0.745   3.093   4.465  1.9028  2.5086  0.0079
 5406SOL    HW227852   0.697   3.225   4.421  4.5277  0.9666 -4.1974
 5407SOL     OW27853   3.143   1.095   2.668 -0.9038  0.0751  0.3167
 5407SOL    HW127854   3.101   1.181   2.672  1.0769  0.9423  2.6573
 5407SOL    HW227855   3.113   1.052   2.748  1.8982 -2.9493 -0.2695
 5408SOL     OW27856   2.044   2.702   5.115 -0.3254 -0.1758  0.2219
 5408SOL    HW127857   1.978   2.762   5.150  0.6478  0.0043  1.7366
 5408SOL    HW227858   2.028   2.724   5.023  2.7540  0.7172 -0.0912
 5409SOL     OW27859   0.656   1.805   6.332  0.7780  0.2453 -0.0165
 5409SOL    HW127860   0.660   1.761   6.417 -1.1855  0.0993  0.0151
 5409SOL    HW227861   0.677   1.896   6.350 -0.4408  0.6927 -0.7959
 5410SOL     OW27862   2.173   1.972   3.473  0.7375  0.4478  0.1917
 5410SOL    HW127863   2.077   1.971   3.473  0.7928 -2.7723  0.6857
 5410SOL    HW227864   2.183   2.064   3.449  1.1294 -0.0647 -1.6313
 5411SOL     OW27865   4.099   3.918   7.344 -0.3233 -0.2118  0.1555
 5411SOL    HW127866   4.080   3.827   7.319 -0.2921 -0.6899  1.8350
 5411SOL    HW227867   4.048   3.925   7.425  0.0606  0.5875  0.3267
 5412SOL     OW27868   2.959   3.301   8.364 -0.0145 -0.1691 -0.0789
 5412SOL    HW127869   3.020   3.372   8.385  0.5809 -0.5116 -0.6313
 5412SOL    HW227870   2.897   3.358   8.319  0.1348  0.4087  0.4476
 5413SOL     OW27871   2.018   2.142   8.983  0.1624  0.0799  0.0611
 5413SOL    HW127872   2.030   2.052   9.013  0.7607  0.4932  1.0537
 5413SOL    HW227873   2.105   2.165   8.951 -0.2446  2.0266  0.3295
 5414SOL     OW27874   2.815   2.477   7.711  0.2778  0.0477  0.1737
 5414SOL    HW127875   2.823   2.572   7.709 -1.8307  0.2214 -0.3194
 5414SOL    HW227876   2.900   2.454   7.747 -0.0799 -2.0122 -0.3148
 5415SOL     OW27877   0.314   0.231   5.744 -0.0676  0.5688  0.3836
 5415SOL    HW127878   0.390   0.287   5.764  0.4557 -0.2968  0.8077
 5415SOL    HW227879   0.241   0.292   5.757 -1.3324 -1.3954  2.3518
 5416SOL     OW27880   2.184   3.260   5.898 -0.5459  0.0398  0.3672
 5416SOL    HW127881   2.179   3.175   5.854  2.1016  0.9089 -1.5902
 5416SOL    HW227882   2.251   3.248   5.965 -1.0837  0.9053  1.0571
 5417SOL     OW27883   2.927   0.636   9.286  0.9437 -0.1329 -0.4605
 5417SOL    HW127884   2.968   0.587   9.215  0.4978 -0.4847 -0.4746
 5417SOL    HW227885   2.965   0.584   9.356 -1.2216  0.6653  1.3292
 5418SOL     OW27886   4.013   1.614   5.089 -0.3187  0.1961 -0.9164
 5418SOL    HW127887   3.988   1.554   5.159  1.9197 -0.3622 -0.5947
 5418SOL    HW227888   4.066   1.676   5.140 -0.0035  0.9001 -2.0896
 5419SOL     OW27889   4.307   2.741   6.455  0.2572 -0.1403  0.2653
 5419SOL    HW127890   4.281   2.831   6.433 -1.8318 -0.8751 -0.2540
 5419SOL    HW227891   4.387   2.725   6.404  2.2385  0.3071  3.2146
 5420SOL     OW27892   2.317   4.538  14.654  0.5677  0.1395  0.5299
 5420SOL    HW127893   2.308   4.500  14.742  0.2841 -0.3411  0.2934
 5420SOL    HW227894   2.398   4.500  14.619 -1.1530 -2.6163 -0.4065
 5421SOL     OW27895   2.545   1.583  12.914 -0.8123 -0.3079  0.5371
 5421SOL    HW127896   2.634   1.587  12.948 -0.7538 -1.7963  0.5314
 5421SOL    HW227897   2.559   1.510  12.854 -0.3678  0.9648 -0.9224
 5422SOL     OW27898   3.022   4.087   7.534  0.0478  0.7869 -0.0546
 5422SOL    HW127899   3.059   4.046   7.613  0.1243 -3.0182 -2.0472
 5422SOL    HW227900   2.992   4.010   7.487  0.4392  0.6593 -0.0987
 5423SOL     OW27901   3.202   0.802   9.509 -0.3043  0.1806  0.3775
 5423SOL    HW127902   3.214   0.715   9.471  1.4919  0.0471  1.2523
 5423SOL    HW227903   3.237   0.852   9.435 -1.0783  3.3994  2.1917
 5424SOL     OW27904   0.381   4.520   0.140  0.1646  0.5075  0.1517
 5424SOL    HW127905   0.428   4.603   0.129 -0.2058  0.8617  1.2196
 5424SOL    HW227906   0.337   4.526   0.225  1.5017  0.2342  0.8597
 5425SOL     OW27907   3.858   1.458   2.264 -0.5503  0.1955  0.2605
 5425SOL    HW127908   3.821   1.479   2.178 -1.2592 -1.1600  0.2444
 5425SOL    HW227909   3.882   1.366   2.253 -1.1051  0.0808  0.0393
 5426SOL     OW27910   3.610   2.647   6.087  0.1125 -0.0686  0.1125
 5426SOL    HW127911   3.575   2.600   6.163 -0.0674  0.6369  0.4671
 5426SOL    HW227912   3.587   2.575   6.028 -0.7529 -0.8862  1.4416
 5427SOL     OW27913   2.800   4.184   5.729  0.6585  0.4121 -0.6154
 5427SOL    HW127914   2.734   4.175   5.660  0.7081 -0.1299 -0.5920
 5427SOL    HW227915   2.776   4.273   5.755  1.6345  0.3426  0.5154
 5428SOL     OW27916   2.144   0.841   8.774  0.0970 -0.0223  0.0698
 5428SOL    HW127917   2.225   0.807   8.735 -0.0025  1.1313 -1.1836
 5428SOL    HW227918   2.086   0.836   8.697  1.0084 -2.3917 -0.4606
 5429SOL     OW27919   2.932   2.177   9.777  0.2963 -0.7102  0.2999
 5429SOL    HW127920   3.004   2.114   9.778  1.2533  0.3899  1.8157
 5429SOL    HW227921   2.920   2.185   9.872  0.0809  0.8193  0.1468
 5430SOL     OW27922   0.507   0.638   5.098 -0.2035  0.1963  0.0594
 5430SOL    HW127923   0.517   0.707   5.032  2.2764 -0.7407 -0.5109
 5430SOL    HW227924   0.504   0.561   5.042  0.2159 -0.7502  1.3260
 5431SOL     OW27925   3.807   4.197   4.320  0.8624  0.1903  0.2557
 5431SOL    HW127926   3.739   4.244   4.368  0.7404 -0.7717  1.0177
 5431SOL    HW227927   3.865   4.162   4.388 -0.1853 -1.5261  0.2662
 5432SOL     OW27928   4.283   0.834   0.275 -0.5283  0.1096 -0.3977
 5432SOL    HW127929   4.300   0.904   0.211 -0.3108  2.1548  1.8958
 5432SOL    HW227930   4.221   0.772   0.236  0.4851 -1.5733  0.6769
 5433SOL     OW27931   0.945   3.387   8.688 -0.3696 -0.0000  0.1786
 5433SOL    HW127932   0.995   3.314   8.651  2.3013  0.9060  2.0042
 5433SOL    HW227933   0.860   3.381   8.645 -0.3883  1.8554 -0.0524
 5434SOL     OW27934   3.984   3.292  14.667 -0.9320  0.0894  0.3847
 5434SOL    HW127935   4.071   3.333  14.668 -1.8117  2.0031 -1.6263
 5434SOL    HW227936   3.938   3.361  14.620  0.9253  1.0854  0.0056
 5435SOL     OW27937   1.955   1.392   6.038 -0.6961  0.1786  0.1762
 5435SOL    HW127938   1.891   1.461   6.054 -0.4228  0.3872  0.3778
 5435SOL    HW227939   1.988   1.375   6.126 -1.6577 -2.5270  0.0020
 5436SOL     OW27940   4.109   1.580   2.774 -0.4722  0.4162  0.3043
 5436SOL    HW127941   4.121   1.675   2.764  2.0200  0.1291  0.8182
 5436SOL    HW227942   4.079   1.548   2.689 -0.8177  0.3906  0.4346
 5437SOL     OW27943   3.525   1.129   3.969  0.0297  0.3234 -0.2905
 5437SOL    HW127944   3.499   1.040   3.945 -0.7085  0.1632  1.0944
 5437SOL    HW227945   3.517   1.180   3.888  0.3965  0.7577 -0.0558
 5438SOL     OW27946   4.338   4.196   5.631 -0.2567 -0.1897 -0.5806
 5438SOL    HW127947   4.294   4.234   5.707  1.7324 -1.2015  1.0834
 5438SOL    HW227948   4.391   4.128   5.671 -1.7399 -0.1914  1.4018
 5439SOL     OW27949   4.708   3.273  12.092 -0.2515  0.2019  0.4328
 5439SOL    HW127950   4.716   3.194  12.145  0.7946 -0.1138 -0.1845
 5439SOL    HW227951   0.045   3.265  12.030 -0.7328 -0.1910 -0.0743
 5440SOL     OW27952   2.547   1.051  11.464 -0.1154  0.1905 -0.0845
 5440SOL    HW127953   2.635   1.024  11.437  0.0380 -0.0321  0.6386
 5440SOL    HW227954   2.537   1.004  11.547 -0.1340 -0.7231 -0.6005
 5441SOL     OW27955   0.694   4.620  13.013 -0.5608 -0.2767 -0.0244
 5441SOL    HW127956   0.681   4.713  13.032  0.2002  0.1839 -1.7880
 5441SOL    HW227957   0.608   4.586  13.035 -0.5515 -0.8580 -0.8868
 5442SOL     OW27958   3.062   2.594   7.937 -0.2663 -0.0963  0.0919
 5442SOL    HW127959   3.085   2.631   7.852 -2.6553 -1.4181 -1.1331
 5442SOL    HW227960   3.084   2.503   7.922  4.1427  1.1229 -0.7722
 5443SOL     OW27961   2.532   1.794   9.922  0.3149 -0.2390 -0.2519
 5443SOL    HW127962   2.500   1.765  10.007  3.1657 -0.6821  0.6748
 5443SOL    HW227963   2.608   1.839   9.960 -0.3301  0.0114  0.7333
 5444SOL     OW27964   3.153   2.316   9.443  0.0860  0.2917 -0.2242
 5444SOL    HW127965   3.223   2.374   9.415  0.7124 -1.6119 -2.6830
 5444SOL    HW227966   3.191   2.307   9.530  0.4927 -2.9960 -0.7231
 5445SOL     OW27967   0.504   1.169   4.839 -0.0075  0.1674  0.0179
 5445SOL    HW127968   0.488   1.148   4.748 -1.2178  1.2656 -0.0262
 5445SOL    HW227969   0.599   1.158   4.841  0.1507  1.6263  0.6228
 5446SOL     OW27970   1.236   3.427   4.284 -0.3740 -0.1466 -0.1172
 5446SOL    HW127971   1.323   3.394   4.263  0.4787  1.2399  1.1905
 5446SOL    HW227972   1.195   3.341   4.297  1.5020 -1.2375 -1.3963
 5447SOL     OW27973   3.868   1.795   5.483  0.1892 -0.5002  0.2139
 5447SOL    HW127974   3.806   1.866   5.469 -0.0634 -0.6358  0.6449
 5447SOL    HW227975   3.872   1.798   5.578  0.6355 -0.1259  0.1853
 5448SOL     OW27976   2.016   4.125   4.082  0.0290 -0.1687 -0.1721
 5448SOL    HW127977   1.940   4.181   4.063  1.4954  1.9285  0.1709
 5448SOL    HW227978   2.033   4.093   3.994 -2.2326 -2.3604  0.1989
 5449SOL     OW27979   0.658   3.252   0.543 -0.1171 -0.2634 -0.1006
 5449SOL    HW127980   0.722   3.323   0.544 -0.6323  0.1662  1.5245
 5449SOL    HW227981   0.687   3.193   0.612 -0.9104  1.1563  1.4418
 5450SOL     OW27982   2.724   4.670   2.977 -0.6220  0.0099 -0.8021
 5450SOL    HW127983   2.632   4.695   2.972 -1.0054 -1.1619  0.4162
 5450SOL    HW227984   2.715   4.574   2.977 -2.3874  0.1683 -2.3040
 5451SOL     OW27985   1.520   3.385   7.216  1.0552  0.3006  0.3098
 5451SOL    HW127986   1.528   3.344   7.130 -1.9568 -2.1529  1.1989
 5451SOL    HW227987   1.584   3.456   7.204 -0.7246  1.6579 -0.9998
 5452SOL     OW27988   1.802   1.038   4.753  0.0721 -0.0926 -0.3597
 5452SOL    HW127989   1.843   1.048   4.667 -0.1596  0.7502 -0.3664
 5452SOL    HW227990   1.842   1.113   4.797  0.8784 -1.0132  0.4818
 5453SOL     OW27991   2.002   3.925   5.873  0.2998  0.2250  0.1490
 5453SOL    HW127992   2.039   3.852   5.923 -0.6854 -1.7445 -1.9752
 5453SOL    HW227993   2.074   3.987   5.880 -0.4527  1.2390 -1.2906
 5454SOL     OW27994   3.624   4.282   6.667 -0.4027 -0.2156 -0.1564
 5454SOL    HW127995   3.530   4.270   6.681 -0.6036  0.4576 -0.9761
 5454SOL    HW227996   3.640   4.197   6.628  0.8262 -0.4986  0.9725
 5455SOL     OW27997   3.191   1.711   2.675 -0.3887  0.3751 -0.0668
 5455SOL    HW127998   3.236   1.634   2.711  0.1706  1.1270  0.8255
 5455SOL    HW227999   3.266   1.766   2.653 -0.4440  0.4832  0.0194
 5456SOL     OW28000   4.262   1.674   4.220 -0.5682  0.1362 -0.6067
 5456SOL    HW128001   4.297   1.761   4.202 -1.0663  0.3801 -0.3839
 5456SOL    HW228002   4.333   1.618   4.188  0.1523  1.0798 -0.6559
 5457SOL     OW28003   4.106   3.201   8.295  0.6390 -0.5678  0.0737
 5457SOL    HW128004   4.196   3.180   8.268 -0.5085 -3.1133 -1.7350
 5457SOL    HW228005   4.126   3.238   8.381 -1.8807 -2.6139  1.5160
 5458SOL     OW28006   4.371   2.364   3.296  0.3252  0.0583 -0.7283
 5458SOL    HW128007   4.279   2.362   3.320  0.7181 -4.0990  0.3475
 5458SOL    HW228008   4.359   2.417   3.217 -1.6569  1.7377  0.7050
 5459SOL     OW28009   2.272   0.921   7.176 -0.8141 -0.0374 -0.7328
 5459SOL    HW128010   2.198   0.973   7.145 -0.0857  0.1903 -2.0911
 5459SOL    HW228011   2.229   0.859   7.235 -0.2539  0.2169 -0.0527
 5460SOL     OW28012   1.619   4.635  10.017  0.8248  0.1146 -0.2661
 5460SOL    HW128013   1.638   4.669   9.929 -0.0813  0.7268 -0.2200
 5460SOL    HW228014   1.672   4.556  10.014 -1.8913 -1.7462  0.6347
 5461SOL     OW28015   2.238   2.763   7.168  0.6449  0.2693 -0.0205
 5461SOL    HW128016   2.265   2.815   7.244 -0.0066  1.4311 -0.5724
 5461SOL    HW228017   2.318   2.718   7.141 -2.2987 -3.8005 -1.8296
 5462SOL     OW28018   4.215   4.233   9.967  0.2534 -0.1067 -1.1891
 5462SOL    HW128019   4.159   4.167  10.009 -1.9143  1.4477 -1.6554
 5462SOL    HW228020   4.291   4.224  10.025 -0.1739  2.5533 -0.2129
 5463SOL     OW28021   4.279   0.362   1.819 -0.3131  0.2655  0.1616
 5463SOL    HW128022   4.216   0.318   1.761 -0.2607  0.4939 -0.0656
 5463SOL    HW228023   4.332   0.412   1.758  1.4039  0.2228  1.6029
 5464SOL     OW28024   3.299   1.489   6.219 -0.0623 -0.0837 -0.5880
 5464SOL    HW128025   3.318   1.568   6.271 -0.6099 -1.1226  1.1942
 5464SOL    HW228026   3.249   1.530   6.148 -0.2831 -1.3560 -1.1626
 5465SOL     OW28027   0.045   4.517   8.935 -0.2012  0.2552  0.1995
 5465SOL    HW128028   0.058   4.611   8.949 -1.5951  0.3792  0.6178
 5465SOL    HW228029   0.117   4.476   8.984 -0.7190  0.1954  0.9150
 5466SOL     OW28030   1.567   3.828  16.718  0.2837  0.3653  0.6736
 5466SOL    HW128031   1.478   3.802  16.741 -0.6438  1.8475 -1.2499
 5466SOL    HW228032   1.606   3.785  16.795  1.4423 -2.0923 -1.2896
 5467SOL     OW28033   2.969   3.287   5.720 -0.2797  0.3979  0.0290
 5467SOL    HW128034   2.882   3.291   5.680 -1.4305 -2.6407  2.1752
 5467SOL    HW228035   2.992   3.202   5.682  2.3411  0.7359  0.8531
 5468SOL     OW28036   2.981   3.601   8.524 -0.0917  0.4700  0.2256
 5468SOL    HW128037   3.015   3.687   8.499  0.7717  0.2490  0.6235
 5468SOL    HW228038   2.900   3.601   8.472  0.5176 -0.4191 -0.7322
 5469SOL     OW28039   0.111   2.137   2.503  0.5365  0.0133 -0.7624
 5469SOL    HW128040   0.030   2.087   2.510  0.8178 -0.4029 -0.4473
 5469SOL    HW228041   0.147   2.120   2.417  0.2037  1.0451 -1.1039
 5470SOL     OW28042   1.196   1.693   5.568 -0.0858 -0.1503 -0.3841
 5470SOL    HW128043   1.168   1.661   5.653 -1.2323  1.3253 -0.1943
 5470SOL    HW228044   1.242   1.620   5.527  0.6095  0.2400 -0.2893
 5471SOL     OW28045   3.971   1.866   7.537  0.4880 -0.1054 -0.0149
 5471SOL    HW128046   4.007   1.948   7.503 -0.3310  0.3497  0.2259
 5471SOL    HW228047   3.877   1.881   7.548  1.0500  3.5657 -0.4300
 5472SOL     OW28048   2.843   1.372  17.570 -0.1725  0.6991 -0.0844
 5472SOL    HW128049   2.884   1.286  17.572 -0.5262  0.5079 -1.1239
 5472SOL    HW228050   2.776   1.360  17.637 -1.0008  1.0493 -0.8461
 5473SOL     OW28051   2.301   1.555  10.249  0.1215 -0.0988  0.3806
 5473SOL    HW128052   2.261   1.640  10.267  0.4889  0.6394 -2.3754
 5473SOL    HW228053   2.249   1.495  10.303 -1.9591 -0.0269 -1.5246
 5474SOL     OW28054   3.806   3.948  10.217 -0.3972 -0.2231 -0.3298
 5474SOL    HW128055   3.743   4.015  10.242 -2.1760 -2.1431  0.3190
 5474SOL    HW228056   3.786   3.880  10.281  0.2133 -1.1277 -1.0926
 5475SOL     OW28057   3.294   4.143  11.945  0.0954 -0.3307  0.0020
 5475SOL    HW128058   3.367   4.145  11.884  1.1827  4.0973  1.4693
 5475SOL    HW228059   3.331   4.086  12.012  0.9882 -1.8760 -1.8034
 5476SOL     OW28060   3.327   3.805  13.889 -0.4302  0.1222  0.2233
 5476SOL    HW128061   3.241   3.780  13.857  0.1584 -1.5041 -0.1174
 5476SOL    HW228062   3.324   3.755  13.971  1.4335  0.6658  0.6294
 5477SOL     OW28063   3.214   0.854   6.102 -0.3043 -0.3193 -0.7906
 5477SOL    HW128064   3.162   0.878   6.026  0.0209  0.7627 -0.6620
 5477SOL    HW228065   3.284   0.919   6.095 -1.4454  1.1606  1.9333
 5478SOL     OW28066   1.602   0.140   3.141  0.6943 -0.5643 -0.5029
 5478SOL    HW128067   1.511   0.167   3.148  0.9916  0.5234 -0.7514
 5478SOL    HW228068   1.645   0.220   3.111  3.7831 -2.2327 -0.6101
 5479SOL     OW28069   3.357   0.023   5.887 -0.1161 -0.4514  0.0696
 5479SOL    HW128070   3.289   0.089   5.904 -0.3116 -0.7871  0.5738
 5479SOL    HW228071   3.409   0.061   5.815 -0.2923 -0.0785  0.1370
 5480SOL     OW28072   1.872   0.531   2.088  0.4611 -0.3404  0.0232
 5480SOL    HW128073   1.862   0.487   2.004  2.1218  0.7524 -0.7415
 5480SOL    HW228074   1.809   0.603   2.087  0.2677 -0.5279 -1.3980
 5481SOL     OW28075   0.849   2.221   2.562  0.5101 -0.2335 -0.3797
 5481SOL    HW128076   0.864   2.128   2.545 -0.0816 -0.5702  0.9169
 5481SOL    HW228077   0.834   2.216   2.656 -0.3024 -0.1403 -0.5051
 5482SOL     OW28078   3.054   2.685   7.409 -0.3131 -0.5993  0.0854
 5482SOL    HW128079   2.963   2.713   7.413 -0.0750 -0.1168  2.3170
 5482SOL    HW228080   3.062   2.641   7.325  1.2299  0.9198 -0.5546
 5483SOL     OW28081   1.517   3.947   8.500  0.2879 -0.5675  0.0417
 5483SOL    HW128082   1.601   3.993   8.506 -0.2027  0.1682  1.3318
 5483SOL    HW228083   1.476   3.965   8.584 -2.1861 -2.3716 -0.7765
 5484SOL     OW28084   0.405   0.069  12.855  0.0491  0.4168 -0.0501
 5484SOL    HW128085   0.476   0.049  12.794  0.8583 -3.3071  2.0805
 5484SOL    HW228086   0.398   4.724  12.908 -1.6199 -1.5503 -3.2460
 5485SOL     OW28087   2.140   4.438   7.913 -0.6304  0.3338 -0.2635
 5485SOL    HW128088   2.085   4.495   7.967 -0.2874  2.0169 -1.6645
 5485SOL    HW228089   2.218   4.427   7.967 -0.0470 -1.0931 -1.3935
 5486SOL     OW28090   2.553   3.214  13.552  0.2236 -0.0792  0.0743
 5486SOL    HW128091   2.597   3.227  13.468  1.1002 -0.7189  0.4388
 5486SOL    HW228092   2.629   3.189  13.604 -0.2518 -0.9025  0.3828
 5487SOL     OW28093   3.009   3.575  17.662  0.8060 -0.1680  0.5049
 5487SOL    HW128094   2.972   3.487  17.663 -1.3741  0.7269  0.3959
 5487SOL    HW228095   2.931   3.622  17.632  0.7721 -1.5287 -1.5296
 5488SOL     OW28096   1.110   0.438   3.601 -0.1515  0.0306  0.0230
 5488SOL    HW128097   1.147   0.523   3.627  0.9614 -0.5885  0.4549
 5488SOL    HW228098   1.188   0.394   3.566 -0.8358 -2.3143  1.5288
 5489SOL     OW28099   2.112   0.014   4.955 -0.0975  0.3548  0.4126
 5489SOL    HW128100   2.140   0.066   4.880 -1.8214 -0.8901 -1.0902
 5489SOL    HW228101   2.171   0.050   5.021 -1.1168 -1.0802  2.0950
 5490SOL     OW28102   3.864   3.733   4.955 -0.1857 -0.3412 -0.2459
 5490SOL    HW128103   3.778   3.766   4.930  1.2902  2.4409 -1.6191
 5490SOL    HW228104   3.853   3.643   4.923  1.3826 -0.0813 -1.5331
 5491SOL     OW28105   0.421   1.079   3.871  0.0968 -0.1515  0.0685
 5491SOL    HW128106   0.462   1.096   3.786 -1.8506 -1.4983 -1.1393
 5491SOL    HW228107   0.490   1.123   3.922 -1.5836  1.9756  0.5002
 5492SOL     OW28108   2.756   1.145   6.770 -0.1820 -0.2894 -0.2920
 5492SOL    HW128109   2.665   1.114   6.767 -0.3184  0.0675  0.1110
 5492SOL    HW228110   2.808   1.086   6.716  1.3014  0.4315  0.3380
 5493SOL     OW28111   3.334   2.161   7.872 -0.1339 -0.2840 -0.4789
 5493SOL    HW128112   3.398   2.228   7.897  1.0459 -1.4600 -0.3202
 5493SOL    HW228113   3.380   2.134   7.793  0.6839 -0.0843 -0.0708
 5494SOL     OW28114   0.644   0.650   3.263  0.2854  0.7136  0.7994
 5494SOL    HW128115   0.712   0.678   3.201 -1.0145 -2.6829 -2.1942
 5494SOL    HW228116   0.686   0.566   3.284 -0.4606  0.5455  1.6050
 5495SOL     OW28117   1.123   3.874   4.432  0.4124  0.1022  0.2107
 5495SOL    HW128118   1.175   3.804   4.393 -0.2432  0.1143 -0.6974
 5495SOL    HW228119   1.184   3.948   4.427  0.6288  0.0657  2.2720
 5496SOL     OW28120   1.636   0.556   6.820 -0.0284  0.1861 -0.0622
 5496SOL    HW128121   1.704   0.490   6.809  0.4931  0.7734 -0.3893
 5496SOL    HW228122   1.679   0.632   6.781  1.3630 -1.1114 -1.0701
 5497SOL     OW28123   3.070   2.484   3.208  0.6256 -0.1759 -0.4771
 5497SOL    HW128124   3.033   2.526   3.130  0.0330 -0.7143 -0.4848
 5497SOL    HW228125   3.018   2.404   3.220  0.9780 -0.5158 -1.1485
 5498SOL     OW28126   0.716   1.846   8.544 -0.0678 -0.1297 -0.4403
 5498SOL    HW128127   0.655   1.920   8.536  0.7190  0.5160 -0.5015
 5498SOL    HW228128   0.686   1.821   8.631 -1.1090 -5.0837 -2.2520
 5499SOL     OW28129   2.733   4.678   7.703 -0.0859  0.6178 -0.0599
 5499SOL    HW128130   2.683   4.606   7.742 -0.2078 -0.5783 -2.4119
 5499SOL    HW228131   2.690   0.009   7.757 -0.4482 -0.3780  0.8675
 5500SOL     OW28132   4.123   1.528  13.837  0.5090  0.2499  0.1113
 5500SOL    HW128133   4.043   1.482  13.862  0.4454  0.9925  1.2768
 5500SOL    HW228134   4.101   1.592  13.770  1.7982  1.9338  1.3108
 5501SOL     OW28135   3.945   2.445   5.564  0.3861  0.4981  0.2895
 5501SOL    HW128136   4.015   2.483   5.512 -1.1396  1.3385 -1.1386
 5501SOL    HW228137   3.997   2.394   5.627  2.3034  1.5446 -0.4334
 5502SOL     OW28138   0.865   0.338  10.051  0.1772 -0.2279 -0.3729
 5502SOL    HW128139   0.872   0.276  10.124 -0.8882 -0.6124 -0.5960
 5502SOL    HW228140   0.933   0.301   9.995  1.2915  0.1957  0.7026
 5503SOL     OW28141   3.075   2.755   4.084 -0.1168 -0.0513  0.3307
 5503SOL    HW128142   3.086   2.766   4.179 -1.2159  0.3599  0.4101
 5503SOL    HW228143   3.160   2.768   4.043 -0.3488  1.0174  0.2049
 5504SOL     OW28144   1.092   2.500   8.798 -0.3294 -0.1557  0.2446
 5504SOL    HW128145   1.097   2.504   8.894  1.7675  0.3427  0.1027
 5504SOL    HW228146   1.101   2.595   8.787  3.4111 -0.8347 -2.3757
 5505SOL     OW28147   3.532   3.857   6.206 -0.0957 -0.1423 -0.1466
 5505SOL    HW128148   3.618   3.894   6.221 -0.2588 -0.1643  0.8013
 5505SOL    HW228149   3.499   3.921   6.143 -0.2730 -0.5752 -0.5000
 5506SOL     OW28150   0.076   2.557   4.345 -0.6809 -0.7454 -0.2693
 5506SOL    HW128151   0.048   2.490   4.282  1.6435 -1.6064 -0.3734
 5506SOL    HW228152   0.099   2.627   4.284  0.3836 -2.1596 -1.4870
 5507SOL     OW28153   4.063   4.173  10.370 -0.3962 -0.2523  0.0564
 5507SOL    HW128154   4.080   4.264  10.347  1.0002 -0.7790 -0.9568
 5507SOL    HW228155   4.152   4.142  10.355 -0.7138 -0.7495 -0.8597
 5508SOL     OW28156   4.337   3.008   1.746  0.2274 -0.4918 -0.4594
 5508SOL    HW128157   4.414   2.951   1.742  0.6231 -0.0344  0.7646
 5508SOL    HW228158   4.381   3.090   1.724 -0.5452  0.1086  0.2343
 5509SOL     OW28159   4.547   0.380   9.505  0.2773 -0.1733 -0.3420
 5509SOL    HW128160   4.567   0.287   9.512 -1.4616 -0.5609 -0.6931
 5509SOL    HW228161   4.617   0.413   9.563  1.4953 -1.2949 -1.1694
 5510SOL     OW28162   3.247   0.374   7.078  0.1805 -0.0963  0.2049
 5510SOL    HW128163   3.308   0.301   7.094  0.4840  0.2938  0.8749
 5510SOL    HW228164   3.249   0.413   7.166 -0.8529 -0.6939  0.4956
 5511SOL     OW28165   4.591   2.817   0.841  0.2432 -0.1642 -1.0267
 5511SOL    HW128166   4.496   2.812   0.836  0.1451  2.4501 -2.0459
 5511SOL    HW228167   4.624   2.766   0.767  0.3869  0.6206 -1.5154
 5512SOL     OW28168   0.060   1.317   4.982  0.2587  0.2736  0.4541
 5512SOL    HW128169   4.723   1.312   5.045  1.6772 -1.4062  1.9632
 5512SOL    HW228170   0.112   1.388   5.019 -0.6913  0.5742  1.2142
 5513SOL     OW28171   4.642   2.966   5.417  0.2592 -0.8118 -0.2101
 5513SOL    HW128172   4.726   2.956   5.462 -0.0020 -2.4719 -0.0774
 5513SOL    HW228173   4.656   2.916   5.337 -1.1076 -0.8469 -0.4201
 5514SOL     OW28174   3.694   1.228  17.529 -0.6681  0.2432 -0.0340
 5514SOL    HW128175   3.602   1.205  17.516 -1.3262  1.2918  2.9267
 5514SOL    HW228176   3.701   1.316  17.493 -0.0012  0.0131 -0.4678
 5515SOL     OW28177   3.811   2.486   6.457  0.0263 -0.1654 -0.8773
 5515SOL    HW128178   3.816   2.579   6.432  0.5674 -0.8741 -3.4074
 5515SOL    HW228179   3.900   2.476   6.491 -0.6037 -1.5047  0.3846
 5516SOL     OW28180   3.590   1.216   6.938 -0.3568 -0.5593  0.3373
 5516SOL    HW128181   3.683   1.226   6.959 -0.2145 -0.2184 -0.4438
 5516SOL    HW228182   3.546   1.249   7.016  0.1908 -1.5643  1.0747
 5517SOL     OW28183   1.949   4.015  16.842 -0.1628  0.3485 -0.4068
 5517SOL    HW128184   1.857   4.033  16.861  0.0185  0.4835  0.3615
 5517SOL    HW228185   1.968   4.081  16.775  1.7009 -0.8032 -1.0323
 5518SOL     OW28186   1.573   2.043   8.234 -0.4984  0.2074  0.1689
 5518SOL    HW128187   1.632   1.991   8.180  0.8296 -0.1441  1.9780
 5518SOL    HW228188   1.619   2.127   8.230 -0.5988  0.2128 -0.9270
 5519SOL     OW28189   2.690   2.454   6.757  0.2199 -0.1295 -0.6060
 5519SOL    HW128190   2.753   2.526   6.764 -0.1867  0.2540 -0.8894
 5519SOL    HW228191   2.717   2.400   6.831  2.5419  0.9417 -0.6659
 5520SOL     OW28192   0.610   0.814   0.002  0.4877  0.0284  0.0421
 5520SOL    HW128193   0.581   0.811   0.092 -0.3225 -0.0356 -0.2253
 5520SOL    HW228194   0.700   0.780  17.738  0.6100  0.4065 -0.4794
 5521SOL     OW28195   3.312   2.210   5.340 -0.1916  0.4305 -0.6366
 5521SOL    HW128196   3.379   2.272   5.369  0.0465  0.0499 -0.3791
 5521SOL    HW228197   3.236   2.237   5.392 -0.1301 -1.8449  0.6181
 5522SOL     OW28198   2.913   0.108  17.677 -0.5080 -0.2951  0.9636
 5522SOL    HW128199   2.961   0.155  17.609  0.0786  0.7277  2.0913
 5522SOL    HW228200   2.984   0.111   0.000 -0.2742  0.0423  0.6822
 5523SOL     OW28201   3.831   0.669  12.870 -0.4005 -0.4112 -0.6424
 5523SOL    HW128202   3.860   0.634  12.954 -0.0056 -0.0382 -0.6234
 5523SOL    HW228203   3.904   0.730  12.858 -0.9293  0.4588  0.5514
 5524SOL     OW28204   1.530   3.055   2.817  0.1137 -0.0098  0.9350
 5524SOL    HW128205   1.494   3.104   2.743 -1.5836 -1.1633  0.9803
 5524SOL    HW228206   1.452   3.018   2.859 -0.2488  0.7139  0.8950
 5525SOL     OW28207   2.761   0.078   7.970 -0.3529  0.1569 -0.5172
 5525SOL    HW128208   2.706   0.137   8.023 -0.6298 -1.3660  0.9076
 5525SOL    HW228209   2.756   4.733   8.022 -1.8366  1.0290  0.6937
 5526SOL     OW28210   0.391   3.783   1.869  0.4537 -0.2850 -0.2722
 5526SOL    HW128211   0.471   3.788   1.922  1.5147  0.0420 -1.8890
 5526SOL    HW228212   0.427   3.779   1.780  0.1598  4.3132 -0.6252
 5527SOL     OW28213   0.569   0.890   7.786  0.0121  0.7931 -0.4874
 5527SOL    HW128214   0.557   0.922   7.696  0.5534  0.3571 -0.7125
 5527SOL    HW228215   0.561   0.974   7.831  0.0638  1.0909 -1.0386
 5528SOL     OW28216   3.999   0.856   4.755 -0.3926  0.2684  0.7156
 5528SOL    HW128217   4.003   0.908   4.836 -1.7968 -0.9862  1.6031
 5528SOL    HW228218   4.063   0.904   4.703  0.4092  0.3353  1.7591
 5529SOL     OW28219   0.720   1.324   4.593 -0.0846 -0.3489 -0.6616
 5529SOL    HW128220   0.701   1.399   4.648  0.6022  0.1121 -1.0647
 5529SOL    HW228221   0.634   1.282   4.581  0.2205 -0.8026 -1.2810
 5530SOL     OW28222   1.530   0.607   5.366 -0.2728 -0.3485  0.0907
 5530SOL    HW128223   1.611   0.562   5.341 -1.3496 -2.9269  1.2674
 5530SOL    HW228224   1.481   0.588   5.286  2.1273  0.8263 -1.6709
 5531SOL     OW28225   2.240   0.639   3.169 -0.6944 -0.0107 -0.3548
 5531SOL    HW128226   2.238   0.565   3.109  0.3012 -0.2668 -0.0768
 5531SOL    HW228227   2.333   0.662   3.161  0.2003 -3.3661  0.6537
 5532SOL     OW28228   0.278   1.926   3.882 -0.7858  0.2204  0.1317
 5532SOL    HW128229   0.261   1.936   3.788  0.5351 -0.5715 -0.2000
 5532SOL    HW228230   0.360   1.877   3.875 -0.6957  0.4865 -0.7143
 5533SOL     OW28231   2.879   0.596   7.299  0.1382 -0.3816  0.3573
 5533SOL    HW128232   2.799   0.643   7.323  1.8507  3.2691 -1.0489
 5533SOL    HW228233   2.956   0.650   7.314 -0.1768  0.1216  0.1768
 5534SOL     OW28234   2.228   0.073  12.459 -0.0636  0.2598 -0.0729
 5534SOL    HW128235   2.262   4.719  12.448  1.8583  1.2800 -2.4614
 5534SOL    HW228236   2.264   0.089  12.546 -0.2443  0.5461 -0.0531
 5535SOL     OW28237   3.204   0.154  13.423  0.3116  0.1770  0.2082
 5535SOL    HW128238   3.171   0.067  13.447  1.6134  0.1441  1.8795
 5535SOL    HW228239   3.115   0.190  13.413  0.6054  0.5261 -1.1831
 5536SOL     OW28240   3.334   2.853   8.673  0.2049  0.1613 -0.1226
 5536SOL    HW128241   3.294   2.895   8.749  2.8993 -0.1467  1.4387
 5536SOL    HW228242   3.248   2.847   8.630  0.2564 -0.6528 -0.1112
 5537SOL     OW28243   3.333   3.189   4.169  0.2261  0.0502 -0.0588
 5537SOL    HW128244   3.354   3.249   4.240  1.1459  0.9997 -1.1367
 5537SOL    HW228245   3.397   3.208   4.100 -1.9329  1.4671 -1.6826
 5538SOL     OW28246   4.608   4.425   8.210  1.1923  0.3111  0.0888
 5538SOL    HW128247   4.536   4.483   8.187  0.7646 -0.0125  0.5917
 5538SOL    HW228248   4.640   4.462   8.293  2.6266 -1.1401  0.1857
 5539SOL     OW28249   1.288   1.019   7.341 -0.2305  0.0524 -0.2358
 5539SOL    HW128250   1.273   0.924   7.341  0.9697 -0.1394  1.1000
 5539SOL    HW228251   1.239   1.045   7.263  1.0211 -1.5364 -1.5529
 5540SOL     OW28252   2.808   2.920   7.229  0.0618 -0.9960  0.3918
 5540SOL    HW128253   2.850   3.002   7.205 -0.8658 -1.4076 -2.6661
 5540SOL    HW228254   2.751   2.945   7.302  1.2269  1.0024  0.6082
 5541SOL     OW28255   2.018   0.124   5.887 -0.4734  0.7707  0.0863
 5541SOL    HW128256   2.076   0.199   5.887 -0.1033  0.4914  1.0406
 5541SOL    HW228257   2.038   0.085   5.973  0.7754 -2.0510 -1.4870
 5542SOL     OW28258   3.185   4.308   9.822  0.2229 -0.3356  0.5379
 5542SOL    HW128259   3.220   4.223   9.793  0.0259  0.3226 -1.6132
 5542SOL    HW228260   3.214   4.319   9.912  0.5341 -0.6139  0.4755
 5543SOL     OW28261   1.701   1.182  16.240  0.3080 -0.1091 -0.1406
 5543SOL    HW128262   1.677   1.178  16.333  1.4995  0.0684  0.1733
 5543SOL    HW228263   1.784   1.134  16.243  1.3458  1.6825  0.0192
 5544SOL     OW28264   3.096   0.692   4.640  0.7002 -0.7059  0.3204
 5544SOL    HW128265   3.053   0.680   4.725  1.0610 -0.4921  0.5328
 5544SOL    HW228266   3.093   0.787   4.629 -0.9420 -0.8948 -0.7964
 5545SOL     OW28267   2.791   3.701   5.798 -0.1404 -0.4830  0.1531
 5545SOL    HW128268   2.712   3.689   5.850  0.2141  2.9728  1.5221
 5545SOL    HW228269   2.867   3.673   5.849 -0.0986  0.0698  0.3920
 5546SOL     OW28270   2.428   2.606  10.967  0.4697 -0.6101 -0.2083
 5546SOL    HW128271   2.358   2.658  10.927 -0.1666  0.6987  2.6345
 5546SOL    HW228272   2.498   2.669  10.947 -0.6195  1.0812  1.3130
 5547SOL     OW28273   4.324   2.863   6.032  0.1065 -0.2448  0.3771
 5547SOL    HW128274   4.388   2.860   5.960 -0.6286  1.0165 -0.3501
 5547SOL    HW228275   4.380   2.891   6.104  0.9375  0.9872 -0.7478
 5548SOL     OW28276   4.365   2.029   5.936  0.0798  0.1188 -0.4337
 5548SOL    HW128277   4.403   1.953   5.981  1.1112  0.1122 -1.2996
 5548SOL    HW228278   4.354   2.085   6.014  0.6718  1.0738 -1.0269
 5549SOL     OW28279   4.437   0.439   9.251 -0.5178  0.6363 -0.2857
 5549SOL    HW128280   4.518   0.459   9.205  0.6114 -0.1959  1.3428
 5549SOL    HW228281   4.483   0.431   9.334  2.0743  0.0153 -1.7871
 5550SOL     OW28282   3.362   4.192   3.681  0.4081  0.7228  0.2529
 5550SOL    HW128283   3.291   4.142   3.720  0.9557 -1.3681 -1.4199
 5550SOL    HW228284   3.440   4.149   3.717 -0.1793 -2.7034 -2.6067
 5551SOL     OW28285   0.598   3.464   3.714 -0.7224  0.6661  0.3529
 5551SOL    HW128286   0.573   3.436   3.626  0.2826 -2.8243  1.1550
 5551SOL    HW228287   0.582   3.382   3.760 -2.3832  0.5166 -0.4778
 5552SOL     OW28288   3.103   3.210   4.699 -0.2292 -0.3471  0.6959
 5552SOL    HW128289   3.016   3.183   4.728 -0.2875 -0.9501 -0.0581
 5552SOL    HW228290   3.146   3.211   4.785  2.2224 -1.0837 -0.5138
 5553SOL     OW28291   3.732   1.510   1.974 -0.2114  0.3530 -0.5057
 5553SOL    HW128292   3.692   1.450   1.912 -0.2346 -0.6175  0.4484
 5553SOL    HW228293   3.821   1.529   1.943  0.2160 -1.9339 -0.7079
 5554SOL     OW28294   3.429   3.740   2.570 -0.2571 -0.2229  0.5989
 5554SOL    HW128295   3.495   3.770   2.633  0.3236  1.4379 -0.8043
 5554SOL    HW228296   3.383   3.676   2.625 -0.4889 -0.7838 -0.2610
 5555SOL     OW28297   2.648   3.503   6.559 -0.2123  0.3640  0.0807
 5555SOL    HW128298   2.627   3.411   6.577  2.4657 -0.2207  0.2027
 5555SOL    HW228299   2.634   3.506   6.464  1.9389 -0.6755 -0.2637
 5556SOL     OW28300   3.658   1.999  16.975 -0.4833 -0.9951 -0.0553
 5556SOL    HW128301   3.747   1.997  16.941 -0.0721 -1.1175  1.0241
 5556SOL    HW228302   3.666   2.079  17.027  1.2399 -1.2472  0.0643
 5557SOL     OW28303   0.934   0.177  17.032  0.2889 -0.4563  0.2783
 5557SOL    HW128304   0.881   0.111  16.986 -1.8569  1.3976  0.0847
 5557SOL    HW228305   1.008   0.123  17.058  1.1225  0.0121 -1.1348
 5558SOL     OW28306   1.066   0.570  11.465  0.6829  0.0075 -0.8075
 5558SOL    HW128307   1.090   0.478  11.468 -1.3653 -0.4493  1.9448
 5558SOL    HW228308   1.118   0.604  11.392  0.8792  0.6048 -0.3878
 5559SOL     OW28309   4.608   1.717   9.704 -0.1233  0.0947 -0.0869
 5559SOL    HW128310   4.566   1.701   9.789  0.3535 -1.9170 -0.2458
 5559SOL    HW228311   4.547   1.682   9.639  2.0139  0.0981 -2.0821
 5560SOL     OW28312   3.466   4.377   7.832 -0.2126  0.1067  0.2394
 5560SOL    HW128313   3.468   4.328   7.914  0.4438  1.3429  0.9586
 5560SOL    HW228314   3.370   4.372   7.821 -0.2383 -2.3049  1.5346
 5561SOL     OW28315   0.610   4.280   0.214 -0.3993  0.4277 -0.6293
 5561SOL    HW128316   0.530   4.292   0.163 -1.7870  1.3549  1.7222
 5561SOL    HW228317   0.629   4.189   0.195 -2.8627 -0.0746 -0.7198
 5562SOL     OW28318   0.193   0.636  13.792 -0.1628  0.4297  0.1044
 5562SOL    HW128319   0.130   0.664  13.725 -0.5384  0.3517  0.4212
 5562SOL    HW228320   0.175   0.709  13.852  2.8920  1.6014 -0.4211
 5563SOL     OW28321   0.704   0.154   5.846 -0.3223 -0.0438  0.3942
 5563SOL    HW128322   0.784   0.141   5.897 -0.3374  0.6021  0.5762
 5563SOL    HW228323   0.714   0.247   5.824  1.3181 -0.0995  0.9167
 5564SOL     OW28324   3.718   3.405  10.297 -0.3082 -0.3993  0.3964
 5564SOL    HW128325   3.751   3.348  10.228  0.8480  0.2587  0.3914
 5564SOL    HW228326   3.775   3.480  10.277 -1.6155 -0.0222 -1.9648
 5565SOL     OW28327   2.079   3.986   4.725  0.0634  0.0948 -0.1700
 5565SOL    HW128328   2.039   3.934   4.656 -0.2819 -0.2422  0.2875
 5565SOL    HW228329   2.130   3.914   4.762 -1.6676 -1.4931 -0.9515
 5566SOL     OW28330   3.996   3.694  16.585 -0.2269  0.1917 -0.0057
 5566SOL    HW128331   3.932   3.714  16.517  1.0753  0.6517 -1.0910
 5566SOL    HW228332   4.080   3.714  16.542 -0.0590  0.6941  0.5438
 5567SOL     OW28333   3.359   2.213   3.436  0.2191  0.5366  0.1159
 5567SOL    HW128334   3.292   2.169   3.384  0.9080 -0.0039 -0.3125
 5567SOL    HW228335   3.325   2.303   3.432  0.7427  0.6968 -0.9243
 5568SOL     OW28336   0.508   4.604   2.809  0.4490  0.2711 -0.1141
 5568SOL    HW128337   0.419   4.630   2.834  0.5658  2.7198 -2.2417
 5568SOL    HW228338   0.504   4.599   2.714 -1.8952  0.2253 -0.0321
 5569SOL     OW28339   2.762   2.217   7.577 -0.1582  0.2994 -0.1138
 5569SOL    HW128340   2.850   2.181   7.564 -0.4385  0.5064 -2.4668
 5569SOL    HW228341   2.798   2.290   7.629  1.8263  0.3043 -1.4810
 5570SOL     OW28342   2.409   2.109   1.027  0.2477 -0.0876 -0.7258
 5570SOL    HW128343   2.392   2.049   1.100  0.6795  0.4288 -0.2062
 5570SOL    HW228344   2.323   2.142   0.998 -0.0352 -1.5960 -1.6316
 5571SOL     OW28345   0.589   1.990   9.827 -0.4825  0.0812 -0.2702
 5571SOL    HW128346   0.556   2.072   9.864  1.5527  1.3160 -1.1603
 5571SOL    HW228347   0.574   1.993   9.733 -0.7578 -0.9906 -0.2605
 5572SOL     OW28348   0.142   2.349   8.008 -0.1770  0.0305 -0.0282
 5572SOL    HW128349   0.139   2.371   7.915 -1.3448 -0.6056 -0.1443
 5572SOL    HW228350   0.052   2.317   8.015 -0.2117  0.0196 -0.5679
 5573SOL     OW28351   2.881   0.217  15.619  0.5053 -0.1433  0.3702
 5573SOL    HW128352   2.946   0.189  15.684 -0.8913 -1.0293  1.4020
 5573SOL    HW228353   2.885   0.312  15.629 -1.6070  0.2000 -2.1048
 5574SOL     OW28354   2.824   2.606  10.623 -0.3820  0.7555  0.3762
 5574SOL    HW128355   2.887   2.570  10.686 -1.7975  0.1908  1.4716
 5574SOL    HW228356   2.880   2.596  10.546  0.0595 -0.4422  0.8558
 5575SOL     OW28357   2.457   3.762   8.185  0.0643 -0.4601  0.6459
 5575SOL    HW128358   2.362   3.772   8.192 -0.1284 -2.5810  1.0900
 5575SOL    HW228359   2.490   3.844   8.222  0.7333 -0.5541  0.2484
 5576SOL     OW28360   3.159   3.429   1.851  0.0127  0.0907 -0.1377
 5576SOL    HW128361   3.065   3.410   1.854  0.5171 -2.5160 -0.4069
 5576SOL    HW228362   3.198   3.360   1.905  0.6255  0.1533 -0.4929
 5577SOL     OW28363   2.812   3.162  14.681 -1.0473 -0.8348 -0.6105
 5577SOL    HW128364   2.807   3.252  14.713 -2.3233 -1.3674  0.7025
 5577SOL    HW228365   2.857   3.121  14.755 -1.0090  0.2476 -0.0396
 5578SOL     OW28366   3.060   3.881   5.263  0.0429 -0.1007  0.1189
 5578SOL    HW128367   3.094   3.946   5.201 -0.1563 -2.6302 -2.5989
 5578SOL    HW228368   2.999   3.932   5.317 -1.4715  0.7422 -2.3889
 5579SOL     OW28369   3.197   1.216   4.756 -0.1778  0.5510  0.0144
 5579SOL    HW128370   3.282   1.195   4.717 -0.0490  1.4489 -0.1803
 5579SOL    HW228371   3.209   1.150   4.825 -0.5072  0.3486 -0.1252
 5580SOL     OW28372   3.901   4.392  15.892 -0.9146  0.1424 -0.0843
 5580SOL    HW128373   3.927   4.424  15.806 -2.2216  0.5157 -0.3362
 5580SOL    HW228374   3.829   4.451  15.914 -0.9964  0.8733 -2.3533
 5581SOL     OW28375   0.771   2.317   0.893 -0.1743 -0.5092 -0.0051
 5581SOL    HW128376   0.777   2.231   0.935  0.2488  0.1109  1.2008
 5581SOL    HW228377   0.861   2.340   0.868 -0.5762  0.4748 -0.5327
 5582SOL     OW28378   2.031   3.969   3.576 -0.3517 -0.5227 -0.2300
 5582SOL    HW128379   2.045   4.042   3.516 -1.4995  1.0446  1.4007
 5582SOL    HW228380   1.947   3.933   3.548  1.5417 -4.3576 -0.9915
 5583SOL     OW28381   1.336   2.020   8.064  0.4078 -0.0403  0.5529
 5583SOL    HW128382   1.380   1.953   8.012 -0.5606 -0.8872  0.8216
 5583SOL    HW228383   1.402   2.050   8.127 -1.1292  1.3427  1.4980
 5584SOL     OW28384   2.931   0.238   7.807 -0.0072 -0.2711  0.4385
 5584SOL    HW128385   2.884   0.300   7.751 -1.8491 -1.1951  0.9768
 5584SOL    HW228386   2.862   0.181   7.840  0.6800 -0.4291  1.6082
 5585SOL     OW28387   4.060   4.287   7.576 -0.4261 -0.1579 -0.1188
 5585SOL    HW128388   4.128   4.352   7.555 -1.0728  1.2324  2.0353
 5585SOL    HW228389   4.111   4.212   7.605  0.9700  0.6431 -0.4868
 5586SOL     OW28390   2.460   2.443   8.213 -0.5523  0.0004  0.1030
 5586SOL    HW128391   2.518   2.367   8.208 -0.0475  0.4958 -1.6133
 5586SOL    HW228392   2.384   2.412   8.263 -1.0672 -1.0444 -1.3325
 5587SOL     OW28393   2.019   0.364   7.095 -0.0201 -0.4994 -0.7021
 5587SOL    HW128394   2.075   0.306   7.045  1.0171  0.3428 -0.5249
 5587SOL    HW228395   1.934   0.346   7.054 -1.3528  1.9191  0.9650
 5588SOL     OW28396   3.265   0.794   2.135 -0.0391 -0.3879  0.2351
 5588SOL    HW128397   3.324   0.786   2.061 -0.2661  1.1492 -0.1123
 5588SOL    HW228398   3.298   0.726   2.194  0.7889 -0.4965 -0.3606
 5589SOL     OW28399   3.962   4.108   2.460 -0.2994  0.4209  0.1653
 5589SOL    HW128400   3.950   4.046   2.532  0.7748  0.1661  0.1386
 5589SOL    HW228401   4.058   4.108   2.457 -0.4224 -1.4120 -2.7808
 5590SOL     OW28402   2.332   3.880   9.147 -0.4399 -0.0709 -0.6405
 5590SOL    HW128403   2.370   3.873   9.235  0.7938 -0.4204 -1.1973
 5590SOL    HW228404   2.271   3.952   9.163  0.5352  0.0830  2.4348
 5591SOL     OW28405   1.216   1.880   3.344 -0.1236  0.9298 -0.0195
 5591SOL    HW128406   1.187   1.829   3.419  1.1183 -0.4113 -0.4451
 5591SOL    HW228407   1.274   1.952   3.369  0.7027  1.2112 -2.7603
 5592SOL     OW28408   2.973   2.159  10.282 -0.0334  0.2439 -0.4393
 5592SOL    HW128409   2.879   2.173  10.297 -0.1648 -0.3279 -0.7079
 5592SOL    HW228410   3.011   2.181  10.367  0.8665 -0.1781 -0.7304
 5593SOL     OW28411   0.903   4.617  13.228 -0.5434 -0.0181 -0.3958
 5593SOL    HW128412   0.880   4.559  13.156 -2.4080  1.2178 -0.7947
 5593SOL    HW228413   0.878   4.556  13.297 -1.0588 -0.5835 -1.0788
 5594SOL     OW28414   1.499   3.838   2.643 -0.4029  0.6886 -0.1179
 5594SOL    HW128415   1.444   3.915   2.626 -0.7853  0.4599  0.0939
 5594SOL    HW228416   1.580   3.882   2.669  0.8316 -0.6427 -1.7749
 5595SOL     OW28417   2.280   1.031   9.180 -0.3217 -0.4893  0.4762
 5595SOL    HW128418   2.307   1.092   9.249 -1.1108  1.0301 -0.5494
 5595SOL    HW228419   2.191   1.016   9.212 -0.5840  1.6631  0.8005
 5596SOL     OW28420   3.514   0.496   1.380 -0.0683  0.0209 -0.5747
 5596SOL    HW128421   3.572   0.549   1.435  3.6515 -1.2164 -3.2898
 5596SOL    HW228422   3.508   0.412   1.427 -1.6910  0.2716 -0.3546
 5597SOL     OW28423   3.174   4.502   5.021  0.2167  0.3974 -0.0189
 5597SOL    HW128424   3.115   4.563   5.066 -2.1786 -0.4977 -1.9560
 5597SOL    HW228425   3.255   4.553   5.017  0.3688  0.0073 -1.8458
 5598SOL     OW28426   2.056   0.690   1.728 -0.2417 -0.0259 -0.3881
 5598SOL    HW128427   2.117   0.674   1.800  1.0715  0.6762 -1.3566
 5598SOL    HW228428   1.988   0.750   1.760  0.5123 -0.6727  2.3951
 5599SOL     OW28429   1.702   2.778   2.763 -0.0601 -0.1857 -0.6555
 5599SOL    HW128430   1.744   2.843   2.707 -0.4897  1.7886  1.3389
 5599SOL    HW228431   1.611   2.807   2.767 -0.0667 -0.1509 -1.0405
 5600SOL     OW28432   3.080   1.020   5.912 -0.3775 -0.5823 -0.3749
 5600SOL    HW128433   3.102   1.108   5.943 -1.3604 -0.2615 -0.5597
 5600SOL    HW228434   2.992   1.008   5.949 -0.1539 -0.5155  0.1655
 5601SOL     OW28435   1.341   1.513   5.344 -0.3034  0.2062  0.1676
 5601SOL    HW128436   1.293   1.586   5.305  0.5295  0.4520 -0.3900
 5601SOL    HW228437   1.390   1.477   5.270  1.0219 -0.5080  1.3827
 5602SOL     OW28438   4.438   4.064   2.916 -0.1565 -0.1344  0.8777
 5602SOL    HW128439   4.455   4.122   2.841 -0.8716  0.7762  1.4228
 5602SOL    HW228440   4.499   3.993   2.896 -0.2709 -0.2506  0.9420
 5603SOL     OW28441   2.401   1.391  13.749  0.1875  0.4979  0.1782
 5603SOL    HW128442   2.474   1.328  13.752  0.3362  0.6935  0.8671
 5603SOL    HW228443   2.431   1.461  13.691  1.8860 -0.4499 -0.1055
 5604SOL     OW28444   1.474   2.087  12.233 -0.2072 -0.0506 -0.5495
 5604SOL    HW128445   1.543   2.093  12.167 -0.6691 -0.9181 -1.1089
 5604SOL    HW228446   1.412   2.151  12.197  1.5635  2.2219  0.4257
 5605SOL     OW28447   0.018   1.484   8.805 -0.3360  0.2510 -0.5658
 5605SOL    HW128448   4.666   1.454   8.833 -0.1759 -1.2315 -1.6257
 5605SOL    HW228449   0.057   1.397   8.795 -0.7552 -0.1828  1.6595
 5606SOL     OW28450   4.189   1.262   5.482 -0.0409 -0.4032  0.0744
 5606SOL    HW128451   4.228   1.190   5.531 -0.5625  0.0920  1.2003
 5606SOL    HW228452   4.179   1.225   5.394 -0.6876 -0.6633  0.2560
 5607SOL     OW28453   2.938   3.484   2.877  0.2995 -0.6547 -0.4764
 5607SOL    HW128454   2.881   3.505   2.803  0.8900 -0.2530 -0.8269
 5607SOL    HW228455   2.917   3.546   2.947  1.3221 -0.0216 -0.7233
 5608SOL     OW28456   0.128   3.286   6.090  0.3209 -0.7087 -0.0444
 5608SOL    HW128457   0.044   3.324   6.063  0.5627  0.0154  0.1988
 5608SOL    HW228458   0.168   3.371   6.111 -1.0777  0.0793 -0.5588
 5609SOL     OW28459   2.836   0.834   1.893 -0.1715 -0.3623  0.1117
 5609SOL    HW128460   2.908   0.774   1.912  0.5249  0.9903  1.8045
 5609SOL    HW228461   2.805   0.857   1.981 -1.7877  0.0643 -0.5598
 5610SOL     OW28462   2.419   0.853   5.016  0.5552  0.0889 -0.0467
 5610SOL    HW128463   2.384   0.907   4.945 -2.1406 -2.0004 -0.3277
 5610SOL    HW228464   2.335   0.852   5.063  1.8511  0.6077  2.2478
 5611SOL     OW28465   2.283   0.932  17.634  1.2728 -0.1947 -0.1978
 5611SOL    HW128466   2.220   0.970  17.573 -0.9656 -2.6182  0.6511
 5611SOL    HW228467   2.334   0.878  17.573  2.0368  0.4317 -0.1086
 5612SOL     OW28468   0.025   3.095   2.773 -0.1833 -0.0517  0.3907
 5612SOL    HW128469   0.077   3.031   2.725  0.4232 -1.4708  2.9063
 5612SOL    HW228470   0.029   3.064   2.864 -0.0574  0.1712  0.4614
 5613SOL     OW28471   4.283   0.417   7.423  0.1021 -0.4664  0.3628
 5613SOL    HW128472   4.188   0.427   7.436  0.1505  1.6467 -0.8872
 5613SOL    HW228473   4.298   0.355   7.494 -1.2502  0.6460  1.6068
 5614SOL     OW28474   3.021   1.522  17.312  0.1801  0.4939  0.0532
 5614SOL    HW128475   2.951   1.457  17.314  1.1271 -0.5855 -1.5901
 5614SOL    HW228476   2.982   1.595  17.264 -2.4699  0.0616  1.5722
 5615SOL     OW28477   2.269   4.279   0.322  0.4836  0.6615  0.0065
 5615SOL    HW128478   2.351   4.277   0.371 -0.7611 -0.7752  1.9803
 5615SOL    HW228479   2.198   4.289   0.386 -1.1561 -1.1824 -1.5312
 5616SOL     OW28480   2.562   1.955  17.622 -0.7126 -0.1291 -0.3445
 5616SOL    HW128481   2.628   1.892  17.592  1.1081  2.0443 -0.9056
 5616SOL    HW228482   2.617   2.033  17.628 -2.6740  1.1423  1.3721
 5617SOL     OW28483   0.868   0.309   4.158 -0.5785 -0.4219 -0.3033
 5617SOL    HW128484   0.886   0.398   4.187  0.0292 -0.5881 -0.1665
 5617SOL    HW228485   0.800   0.317   4.091 -0.3834  2.0989 -0.1988
 5618SOL     OW28486   1.342   3.059   8.740 -0.2595 -0.2195 -0.2596
 5618SOL    HW128487   1.369   3.027   8.655 -0.5883 -0.6143 -0.2157
 5618SOL    HW228488   1.431   3.076   8.770 -0.6893  2.0123 -0.2483
 5619SOL     OW28489   2.309   2.060   3.232  0.0577  0.1154 -0.4513
 5619SOL    HW128490   2.397   2.039   3.199  0.3956  0.9703 -0.0757
 5619SOL    HW228491   2.330   2.109   3.311 -2.3520  0.1833  0.1663
 5620SOL     OW28492   0.894   1.922   2.570  0.2450  0.1138  0.0386
 5620SOL    HW128493   0.988   1.928   2.558  0.2461  0.2139  0.0948
 5620SOL    HW228494   0.892   1.836   2.613 -0.3887  1.2336  2.2567
 5621SOL     OW28495   3.276   1.121  14.814 -0.2734  0.8586 -0.0433
 5621SOL    HW128496   3.356   1.072  14.794 -0.0513  2.0895 -2.0899
 5621SOL    HW228497   3.303   1.194  14.759 -2.2922  0.0171 -2.1740
 5622SOL     OW28498   4.392   1.286  10.055  0.2668  0.3325 -0.1022
 5622SOL    HW128499   4.316   1.343  10.062 -0.3157 -0.6150  1.4437
 5622SOL    HW228500   4.343   1.205  10.041 -0.5570  0.8586 -0.2118
 5623SOL     OW28501   2.026   4.665  11.704  0.4129  0.1103  0.4652
 5623SOL    HW128502   2.013   4.594  11.767 -0.9374 -1.3067 -1.4331
 5623SOL    HW228503   2.069   4.732  11.758  0.2075 -0.9479  1.9535
 5624SOL     OW28504   0.169   1.073  11.662 -0.2351  0.1213 -0.2478
 5624SOL    HW128505   0.263   1.061  11.651 -0.2270  1.3622 -1.3853
 5624SOL    HW228506   0.160   1.067  11.758 -1.3264 -0.2495 -0.3730
 5625SOL     OW28507   3.002   4.639   6.369  0.8076  0.0769  0.0808
 5625SOL    HW128508   3.071   4.648   6.303  1.0799  3.6313  0.8617
 5625SOL    HW228509   3.032   4.683   6.448  2.6276 -1.8773  0.4799
 5626SOL     OW28510   0.968   1.545  14.886  0.3861 -0.1340  0.1114
 5626SOL    HW128511   0.913   1.502  14.821  0.7771 -1.1518  0.4518
 5626SOL    HW228512   1.042   1.579  14.835 -0.6266  1.3218 -0.3987
 5627SOL     OW28513   1.445   2.287   8.825  0.0167  0.3811 -0.8300
 5627SOL    HW128514   1.417   2.326   8.742  0.1794  1.4210 -0.4039
 5627SOL    HW228515   1.379   2.218   8.830  1.1372 -0.7253 -1.2524
 5628SOL     OW28516   4.405   4.244  16.449  0.2587 -0.0036 -0.2693
 5628SOL    HW128517   4.410   4.275  16.358 -0.8655 -1.8353 -0.9533
 5628SOL    HW228518   4.371   4.323  16.490 -0.3135 -1.1439  1.4379
 5629SOL     OW28519   3.798   0.619   4.939 -0.0245 -0.2295 -0.2598
 5629SOL    HW128520   3.830   0.682   5.004 -1.2628 -1.0946  1.1958
 5629SOL    HW228521   3.802   0.545   4.999 -1.6198 -0.4675 -0.4489
 5630SOL     OW28522   3.382   4.320   6.853 -0.5852  0.7090  0.2539
 5630SOL    HW128523   3.332   4.238   6.849  0.9348 -0.0985 -1.5630
 5630SOL    HW228524   3.333   4.370   6.919  0.3259 -1.3304  2.5137
 5631SOL     OW28525   0.165   4.689  10.533 -0.3485 -0.4146 -0.2465
 5631SOL    HW128526   0.162   4.691  10.628  0.4399 -1.2394 -0.2076
 5631SOL    HW228527   0.237   0.015  10.517 -1.8382  1.7319  1.3457
 5632SOL     OW28528   0.650   3.076   3.693 -0.1698  0.2857 -0.1934
 5632SOL    HW128529   0.626   3.025   3.615 -1.9003  1.5433 -0.4731
 5632SOL    HW228530   0.713   3.133   3.650  0.3048  0.7073  1.0568
 5633SOL     OW28531   2.511   3.524   4.154  0.3687  0.2786  0.0482
 5633SOL    HW128532   2.490   3.570   4.236  0.6434  0.4769  0.0057
 5633SOL    HW228533   2.456   3.445   4.152 -0.0693  0.6202 -1.3655
 5634SOL     OW28534   4.384   4.377   6.464 -0.2510 -0.0137  0.5569
 5634SOL    HW128535   4.336   4.294   6.466  0.5148 -0.4172  2.0289
 5634SOL    HW228536   4.359   4.398   6.554 -0.2215 -2.6384  1.1828
 5635SOL     OW28537   2.099   1.221   8.630 -0.0618  0.7901  0.0213
 5635SOL    HW128538   2.127   1.223   8.721  0.8180  0.1625 -0.2334
 5635SOL    HW228539   2.019   1.172   8.650  0.6215 -0.8368 -1.2295
 5636SOL     OW28540   4.242   1.820   8.121  0.3166 -0.0664  0.7781
 5636SOL    HW128541   4.165   1.849   8.072  1.8986  1.1989 -0.9423
 5636SOL    HW228542   4.301   1.894   8.130 -0.0345  0.1971  0.9085
 5637SOL     OW28543   0.641   2.526   9.265  0.3059  0.2620 -0.3885
 5637SOL    HW128544   0.631   2.431   9.267  0.5096  0.2515  0.0989
 5637SOL    HW228545   0.561   2.552   9.311 -0.0652 -0.4121 -0.6484
 5638SOL     OW28546   2.351   4.329   6.760 -0.3419 -0.2514 -0.4625
 5638SOL    HW128547   2.435   4.371   6.778  0.1425 -1.9950  1.2425
 5638SOL    HW228548   2.342   4.262   6.827 -0.5577  0.1211 -0.1153
 5639SOL     OW28549   2.769   1.240   4.870  0.0148  0.2965 -0.2604
 5639SOL    HW128550   2.689   1.198   4.901 -1.5924  0.9047 -3.5541
 5639SOL    HW228551   2.823   1.241   4.949 -1.2878  0.1071  0.6203
 5640SOL     OW28552   3.642   2.899  10.654 -0.0911  0.5527 -0.6598
 5640SOL    HW128553   3.733   2.891  10.684  0.3311  0.9643 -1.8538
 5640SOL    HW228554   3.612   2.978  10.699  0.9684  0.2231  0.6408
 5641SOL     OW28555   3.378   4.237  10.170  0.4754  0.1686 -0.3932
 5641SOL    HW128556   3.323   4.168  10.132  0.9213  0.7431 -2.1143
 5641SOL    HW228557   3.318   4.286  10.226 -2.4793 -0.6194 -2.8138
 5642SOL     OW28558   0.845   4.525  17.380  0.6060 -0.0514  0.2295
 5642SOL    HW128559   0.879   4.609  17.350 -1.3539  0.1402 -1.4908
 5642SOL    HW228560   0.895   4.506  17.460  1.7767  1.2181 -0.2099
 5643SOL     OW28561   0.017   0.705   5.430  0.5201 -0.2013 -0.4866
 5643SOL    HW128562   0.094   0.731   5.379  2.1778 -0.9376  1.6540
 5643SOL    HW228563   4.698   0.777   5.400 -2.2087 -0.9833  2.6415
 5644SOL     OW28564   3.883   0.422   5.157 -0.2284 -0.5779  0.0351
 5644SOL    HW128565   3.876   0.493   5.221 -1.9544  0.5646 -1.4323
 5644SOL    HW228566   3.906   0.363   5.229 -1.1453 -1.6408 -0.5389
 5645SOL     OW28567   0.893   4.353   1.706 -0.3162  0.2597  0.0273
 5645SOL    HW128568   0.981   4.349   1.668 -1.0586  0.0464 -1.6428
 5645SOL    HW228569   0.887   4.263   1.740 -1.3328  0.2581 -0.1484
 5646SOL     OW28570   3.865   3.151   5.272  0.0324  0.2240 -0.0116
 5646SOL    HW128571   3.847   3.243   5.294 -1.2408  0.0794 -0.5114
 5646SOL    HW228572   3.863   3.118   5.362 -2.3334 -0.9170 -0.4997
 5647SOL     OW28573   2.088   1.031   7.478  0.5587  0.0221  0.5102
 5647SOL    HW128574   2.077   1.065   7.389 -0.7396 -0.2175  0.5779
 5647SOL    HW228575   2.078   0.939   7.455  1.5623 -0.1877  0.9171
 5648SOL     OW28576   0.385   0.641   9.111  0.3492 -0.3198 -0.2078
 5648SOL    HW128577   0.367   0.550   9.088  3.3296 -0.6650 -1.1027
 5648SOL    HW228578   0.477   0.644   9.136  0.2748  2.8681 -0.3561
 5649SOL     OW28579   1.048   1.022   6.688 -0.1346 -0.2646  0.3464
 5649SOL    HW128580   1.075   0.996   6.600  0.2375  1.0160  0.0855
 5649SOL    HW228581   1.066   0.937   6.727  2.6787  0.1300 -0.0947
 5650SOL     OW28582   2.672   4.265   6.285  0.5145  0.1687 -0.7109
 5650SOL    HW128583   2.767   4.256   6.278  0.5152 -0.5448  0.1099
 5650SOL    HW228584   2.650   4.204   6.356  0.9738  0.2891 -0.4626
 5651SOL     OW28585   0.307   0.702   7.409 -0.2863 -0.0064  0.1110
 5651SOL    HW128586   0.312   0.630   7.471  0.6039 -0.9105 -1.0030
 5651SOL    HW228587   0.212   0.710   7.403 -0.4444  0.0317  2.6675
 5652SOL     OW28588   2.248   3.010   8.545  0.0125  1.0094  0.2083
 5652SOL    HW128589   2.218   2.963   8.468  1.6576  3.1832 -1.7382
 5652SOL    HW228590   2.342   2.993   8.547  0.5138  3.7608 -0.5640
 5653SOL     OW28591   0.215   1.119   5.952 -0.2026  0.0372  0.4806
 5653SOL    HW128592   0.238   1.150   5.864 -1.3624 -0.3939  0.0090
 5653SOL    HW228593   0.229   1.198   6.004 -1.3714  1.8983 -2.0195
 5654SOL     OW28594   2.113   2.369   9.622  0.1595  0.4231 -0.5879
 5654SOL    HW128595   2.053   2.417   9.680 -0.1994  0.4374 -0.9731
 5654SOL    HW228596   2.108   2.422   9.542  0.5702  0.0761 -0.8414
 5655SOL     OW28597   0.775   3.645  16.108 -0.0749  0.2253 -0.3614
 5655SOL    HW128598   0.723   3.594  16.170  1.3285 -0.6937  0.0613
 5655SOL    HW228599   0.856   3.650  16.159 -0.0935  0.5102 -0.3614
 5656SOL     OW28600   4.469   3.669   9.003 -0.2825  0.6886 -0.0419
 5656SOL    HW128601   4.530   3.659   9.077 -0.8248  2.0314  0.5840
 5656SOL    HW228602   4.492   3.760   8.984  1.3574  0.2476 -0.2317
 5657SOL     OW28603   0.376   2.231   5.425 -0.0979 -0.3057  0.4590
 5657SOL    HW128604   0.350   2.190   5.508  0.9580 -1.1007  0.4023
 5657SOL    HW228605   0.447   2.171   5.400 -1.4252 -1.4924 -0.4677
 5658SOL     OW28606   3.197   0.532   3.157 -0.0414  0.1071 -0.3902
 5658SOL    HW128607   3.123   0.493   3.109 -0.9612  0.3838  0.8067
 5658SOL    HW228608   3.265   0.474   3.124 -0.3441  0.7127 -2.1083
 5659SOL     OW28609   1.234   4.691  12.292  0.2880 -0.1177 -0.0370
 5659SOL    HW128610   1.176   4.704  12.367  0.2714 -0.2033 -0.0352
 5659SOL    HW228611   1.305   0.014  12.319  1.4314 -1.4117 -0.2762
 5660SOL     OW28612   0.335   4.207   6.066 -0.4087  0.4729 -0.1237
 5660SOL    HW128613   0.398   4.262   6.114 -1.6154  0.7244  1.1583
 5660SOL    HW228614   0.404   4.155   6.024  2.2311  1.4548  2.9403
 5661SOL     OW28615   2.173   2.884   4.740  0.6109 -0.0945  0.3987
 5661SOL    HW128616   2.188   2.808   4.797  1.5803 -0.9749 -1.0457
 5661SOL    HW228617   2.143   2.940   4.812 -0.4841 -1.3406  0.9147
 5662SOL     OW28618   2.381   2.178   4.774 -0.3095 -0.2560  0.1203
 5662SOL    HW128619   2.472   2.158   4.750 -0.1277  0.3366  0.3114
 5662SOL    HW228620   2.348   2.214   4.692  0.0570  0.1102  0.1326
 5663SOL     OW28621   3.378   3.783   3.259  0.1181 -0.8849 -0.3418
 5663SOL    HW128622   3.358   3.787   3.353  0.6149 -0.1382 -0.2634
 5663SOL    HW228623   3.414   3.872   3.251 -1.9275  0.2063  2.5751
 5664SOL     OW28624   1.884   3.457   4.232  0.1521 -0.1930 -0.0220
 5664SOL    HW128625   1.934   3.379   4.206 -0.3854 -0.3169 -0.6691
 5664SOL    HW228626   1.952   3.516   4.200 -1.4061  1.3835 -0.3641
 5665SOL     OW28627   0.171   0.470   4.939 -0.7437 -0.1886 -0.7344
 5665SOL    HW128628   0.259   0.440   4.914 -0.6819  0.8258 -1.7512
 5665SOL    HW228629   0.150   0.548   4.887  3.1024  0.8804 -0.6924
 5666SOL     OW28630   2.381   0.051  14.304 -0.1275  0.0803 -0.1275
 5666SOL    HW128631   2.314   0.094  14.251  1.0278  4.0096  1.5519
 5666SOL    HW228632   2.391   4.705  14.255  2.1435 -1.7123  3.2886
 5667SOL     OW28633   2.693   2.014  13.892  0.2500  0.3303 -0.3846
 5667SOL    HW128634   2.774   2.065  13.884  0.4189  0.4705  2.2978
 5667SOL    HW228635   2.627   2.077  13.864  0.2339 -0.0002 -1.0977
 5668SOL     OW28636   2.263   3.320   7.353  0.8943  0.2233  0.6842
 5668SOL    HW128637   2.269   3.400   7.301  1.1401 -0.4643 -0.3559
 5668SOL    HW228638   2.199   3.264   7.308  0.0595  0.5459  1.4686
 5669SOL     OW28639   1.868   2.797  12.432  0.3071 -0.1601 -0.5309
 5669SOL    HW128640   1.951   2.833  12.461  0.2366 -0.8097  0.4689
 5669SOL    HW228641   1.883   2.704  12.449  0.9118  0.0663  0.1392
 5670SOL     OW28642   0.672   2.153   4.696 -0.0045 -1.0594  0.3320
 5670SOL    HW128643   0.603   2.215   4.672  1.3129  1.2538  2.4087
 5670SOL    HW228644   0.621   2.096   4.753 -2.3119 -0.1985 -0.8737
 5671SOL     OW28645   4.485   1.757  10.212 -0.2384  0.1458 -0.2974
 5671SOL    HW128646   4.452   1.729  10.298  0.1117  0.3284 -0.1051
 5671SOL    HW228647   4.555   1.814  10.245 -1.8769  2.4709 -0.7926
 5672SOL     OW28648   0.010   1.793  11.029 -0.1018  0.2941  0.4429
 5672SOL    HW128649   4.654   1.804  11.052 -0.5028 -1.7086 -0.2177
 5672SOL    HW228650   0.052   1.740  11.097 -2.3022 -0.8680  0.8651
 5673SOL     OW28651   3.464   3.786  10.848 -0.1370  0.0696 -0.4775
 5673SOL    HW128652   3.518   3.819  10.920  0.8118  1.3324 -1.7596
 5673SOL    HW228653   3.473   3.692  10.864 -3.8585  0.0959  1.6496
 5674SOL     OW28654   2.298   3.044   7.031  0.1212  0.0830  0.0621
 5674SOL    HW128655   2.255   2.967   7.068 -3.0240  1.5441 -0.5901
 5674SOL    HW228656   2.224   3.099   7.006  1.4240  1.6045 -0.4465
 5675SOL     OW28657   0.348   0.048   4.125 -0.5974  0.1862  0.7793
 5675SOL    HW128658   0.397   4.701   4.122 -2.0842 -0.6648 -0.2644
 5675SOL    HW228659   0.268   0.033   4.175  0.0231  1.3241  2.1076
 5676SOL     OW28660   3.320   4.709  12.015  0.0273  0.1509  0.4750
 5676SOL    HW128661   3.395   4.651  12.005 -0.8690 -1.1501  1.3904
 5676SOL    HW228662   3.350   0.063  12.032  1.0148  0.2882 -2.0440
 5677SOL     OW28663   4.013   3.556   3.944 -0.1510  0.1394  0.3933
 5677SOL    HW128664   4.054   3.479   3.984  1.1917  1.0584  0.7962
 5677SOL    HW228665   4.087   3.614   3.957  1.2031 -2.0058  2.3161
 5678SOL     OW28666   0.691   4.469   8.431 -0.0982  0.1298  0.3038
 5678SOL    HW128667   0.603   4.430   8.426 -0.9227  2.1313 -0.8490
 5678SOL    HW228668   0.674   4.545   8.487  0.9185 -0.0888  0.9036
 5679SOL     OW28669   0.434   0.708   7.172 -0.2230 -0.6440  0.1502
 5679SOL    HW128670   0.419   0.691   7.265  0.2966  1.3137  0.5785
 5679SOL    HW228671   0.400   0.623   7.143  0.6120 -0.6899 -0.7085
 5680SOL     OW28672   2.658   0.928   5.109  0.5812  0.1316  0.0794
 5680SOL    HW128673   2.567   0.915   5.082  0.4470 -0.0177  0.6103
 5680SOL    HW228674   2.707   0.922   5.027 -1.6623 -2.3658 -1.0802
 5681SOL     OW28675   4.388   4.551   7.266  0.0436  0.2999  0.6492
 5681SOL    HW128676   4.349   4.561   7.353 -0.8018 -0.4842  0.3604
 5681SOL    HW228677   4.384   4.456   7.254  2.4630  0.5508 -2.1081
 5682SOL     OW28678   4.079   4.417   1.441  0.4070  0.4685  0.1794
 5682SOL    HW128679   4.112   4.332   1.412 -2.9911 -0.6926 -0.2942
 5682SOL    HW228680   4.094   4.472   1.365  0.3120 -3.3082 -2.5784
 5683SOL     OW28681   1.972   2.804  13.636  0.3119  0.6181 -0.2234
 5683SOL    HW128682   2.005   2.860  13.706 -0.5870  0.4865  0.3018
 5683SOL    HW228683   2.042   2.806  13.571  0.5812  0.5069  0.0616
 5684SOL     OW28684   4.140   1.013   1.239  0.0616 -0.7657  0.6137
 5684SOL    HW128685   4.079   1.047   1.304 -1.4098 -0.4964 -0.9239
 5684SOL    HW228686   4.203   1.086   1.240  0.2147 -0.8419 -2.1431
 5685SOL     OW28687   1.582   1.514   1.502  0.1491  0.1386  0.6250
 5685SOL    HW128688   1.669   1.502   1.464 -0.9076 -1.4351 -1.2557
 5685SOL    HW228689   1.589   1.602   1.538  0.8884  0.1825  0.3808
 5686SOL     OW28690   0.590   1.615   8.138 -0.3120  0.1709 -0.0903
 5686SOL    HW128691   0.669   1.622   8.193 -0.7046  0.9953  0.3649
 5686SOL    HW228692   0.538   1.559   8.195 -0.7886  0.8600  0.1480
 5687SOL     OW28693   4.292   1.644   8.889  0.0007 -0.0862  0.5443
 5687SOL    HW128694   4.202   1.624   8.912 -0.3379  0.2762 -0.4933
 5687SOL    HW228695   4.318   1.593   8.813 -2.7320 -3.4460  1.8822
 5688SOL     OW28696   1.192   0.726   4.621 -0.7229 -0.5761  0.1766
 5688SOL    HW128697   1.172   0.816   4.646 -2.2246 -1.0222  0.5487
 5688SOL    HW228698   1.107   0.685   4.607 -0.4861 -0.1984 -2.2723
 5689SOL     OW28699   1.939   0.967  16.328 -0.2278 -0.1715  0.4135
 5689SOL    HW128700   2.010   0.986  16.268 -0.0106 -1.2617  0.3190
 5689SOL    HW228701   1.968   1.034  16.389 -0.2898 -0.2886  0.5738
 5690SOL     OW28702   2.541   0.286   3.092 -0.2013 -0.1145  0.2954
 5690SOL    HW128703   2.635   0.295   3.076 -0.3593  0.5602 -0.2972
 5690SOL    HW228704   2.531   0.298   3.186 -3.5099 -1.6335  0.1054
 5691SOL     OW28705   0.169   0.966  12.197 -0.4783  0.1539  0.1225
 5691SOL    HW128706   0.180   0.975  12.291 -3.2469  0.6370  0.4132
 5691SOL    HW228707   0.152   0.872  12.189 -0.5616  0.2299 -0.6400
 5692SOL     OW28708   0.466   4.733   4.449 -0.1075 -0.7614  0.0455
 5692SOL    HW128709   0.535   0.063   4.443 -2.0391  1.2118 -0.6760
 5692SOL    HW228710   0.481   4.700   4.538 -0.3448  2.0993  1.1561
 5693SOL     OW28711   0.437   0.460  11.306  0.3877  0.2567 -0.0336
 5693SOL    HW128712   0.468   0.529  11.249 -1.2972 -0.8986 -2.3497
 5693SOL    HW228713   0.378   0.410  11.249 -1.2329  1.0951  0.8979
 5694SOL     OW28714   0.095   1.783   6.743 -0.6088  0.1536 -0.1409
 5694SOL    HW128715   0.177   1.758   6.699 -0.1238 -0.5797  1.1490
 5694SOL    HW228716   0.091   1.731   6.823 -1.9064 -1.7389 -1.4236
 5695SOL     OW28717   3.304   3.324   1.004  0.6070  0.0516 -0.3278
 5695SOL    HW128718   3.260   3.260   1.061  0.8610  0.7023  0.5926
 5695SOL    HW228719   3.364   3.363   1.067  0.6689  0.6344 -0.7536
 5696SOL     OW28720   3.126   1.989   8.001 -0.5629 -0.2492  0.4892
 5696SOL    HW128721   3.134   2.065   7.943 -0.2399 -0.6251  0.0435
 5696SOL    HW228722   3.121   2.035   8.085 -0.4193 -0.5546  0.6641
 5697SOL     OW28723   0.717   2.193   3.844  0.3935 -0.1481 -0.4827
 5697SOL    HW128724   0.644   2.170   3.786 -0.8590  3.2704 -0.2421
 5697SOL    HW228725   0.769   2.254   3.790 -0.4762  0.8033 -0.2459
 5698SOL     OW28726   3.768   1.597  17.647 -0.3155 -0.7543 -0.6761
 5698SOL    HW128727   3.793   1.558  17.563 -3.5904 -0.9694 -1.5291
 5698SOL    HW228728   3.683   1.555  17.661 -0.5141 -0.1579 -0.1061
 5699SOL     OW28729   3.062   4.242  13.248  0.0017 -0.0513  0.7359
 5699SOL    HW128730   3.089   4.256  13.339  0.1545 -0.8659  0.8167
 5699SOL    HW228731   3.035   4.150  13.245 -0.7835  0.2298 -0.9408
 5700SOL     OW28732   4.211   4.440   3.928 -0.2065  0.5438 -0.2660
 5700SOL    HW128733   4.203   4.499   3.853  0.0351 -1.0259 -1.5124
 5700SOL    HW228734   4.162   4.366   3.892 -0.7235  1.3123 -1.1272
 5701SOL     OW28735   1.775   2.368   4.257  0.8552 -0.5605  0.4725
 5701SOL    HW128736   1.852   2.310   4.260 -0.6050 -2.4941  0.2400
 5701SOL    HW228737   1.708   2.300   4.264  0.1597  0.1029  0.1074
 5702SOL     OW28738   4.484   1.450   3.866  0.0762 -0.1583 -0.2963
 5702SOL    HW128739   4.448   1.391   3.800 -0.6047 -0.5129  0.3777
 5702SOL    HW228740   4.461   1.533   3.826 -0.9309  0.2595  1.1150
 5703SOL     OW28741   0.052   2.805   3.474  0.1986  0.1855  0.2036
 5703SOL    HW128742   4.711   2.753   3.452  0.3708  1.4651 -3.3310
 5703SOL    HW228743   0.108   2.729   3.455 -0.8706 -0.1989 -1.3741
 5704SOL     OW28744   4.492   2.755   2.225  0.0656  0.6509 -0.2063
 5704SOL    HW128745   4.456   2.676   2.265 -0.6603  0.5548 -1.0591
 5704SOL    HW228746   4.460   2.823   2.284  1.2190  0.9709  0.0398
 5705SOL     OW28747   3.930   0.760   8.311  0.4411 -0.2645 -0.0610
 5705SOL    HW128748   3.931   0.852   8.336 -1.9316 -0.2524  0.0464
 5705SOL    HW228749   3.921   0.707   8.390 -0.5138  0.8602  0.5711
 5706SOL     OW28750   0.693   0.429   5.935  0.6536 -0.7790 -0.2545
 5706SOL    HW128751   0.742   0.511   5.929  1.2863 -1.2757 -1.7959
 5706SOL    HW228752   0.709   0.404   6.026 -0.6230 -2.2878 -0.4615
 5707SOL     OW28753   1.088   4.284   6.795 -0.3248  0.1435 -0.1555
 5707SOL    HW128754   1.090   4.255   6.704  3.5818 -1.7268  0.5154
 5707SOL    HW228755   0.995   4.267   6.809 -0.4646  2.4614  1.6834
 5708SOL     OW28756   3.273   0.811  11.369 -0.2683 -0.1301 -0.2044
 5708SOL    HW128757   3.261   0.832  11.462  3.1761 -1.5828  0.5632
 5708SOL    HW228758   3.328   0.733  11.372  1.7820  1.2558 -1.3068
 5709SOL     OW28759   2.858   4.534  12.118  0.4013  0.1008  0.0501
 5709SOL    HW128760   2.954   4.537  12.118  0.3897  0.4363 -1.0701
 5709SOL    HW228761   2.848   4.541  12.023  1.5351  2.2340  0.0898
 5710SOL     OW28762   0.417   4.460   7.712  0.0500 -0.2549  0.4174
 5710SOL    HW128763   0.439   4.474   7.620 -2.6888 -4.2799 -0.8507
 5710SOL    HW228764   0.508   4.443   7.740  0.3352  0.9459  0.2277
 5711SOL     OW28765   1.605   2.794  14.963 -0.0829  0.4179  0.3398
 5711SOL    HW128766   1.692   2.833  14.951  0.0863  0.3023  1.2001
 5711SOL    HW228767   1.605   2.745  14.881  0.4197  2.8085 -1.1024
 5712SOL     OW28768   3.085   0.137   2.999  0.0944  0.1171 -0.0132
 5712SOL    HW128769   3.140   0.211   2.973  0.6530 -0.7338 -1.2822
 5712SOL    HW228770   3.148   0.095   3.058 -0.4845 -1.1269 -0.2765
 5713SOL     OW28771   3.412   3.171   3.366  0.2135  0.2127 -0.4375
 5713SOL    HW128772   3.364   3.113   3.307  1.8663  0.6565 -2.2304
 5713SOL    HW228773   3.337   3.213   3.407 -0.3883  0.5490 -1.9007
 5714SOL     OW28774   3.963   0.811   1.481  0.3517 -0.1405 -0.1722
 5714SOL    HW128775   3.979   0.901   1.453 -0.0157  0.1622  0.5781
 5714SOL    HW228776   3.988   0.808   1.573  0.2555  3.9774 -0.0073
 5715SOL     OW28777   1.129   1.578  17.510  0.5791  0.6166  0.0299
 5715SOL    HW128778   1.129   1.581  17.606 -0.7070  0.0511  0.0441
 5715SOL    HW228779   1.217   1.545  17.494 -0.6023 -1.3689 -2.3340
 5716SOL     OW28780   0.751   0.317  13.321  0.1353  0.4829 -0.0189
 5716SOL    HW128781   0.751   0.282  13.232  1.0049  0.3511  0.0383
 5716SOL    HW228782   0.777   0.237  13.367 -0.6899 -0.2232 -0.7715
 5717SOL     OW28783   3.870   0.098  12.211 -0.0650  0.4657  0.3654
 5717SOL    HW128784   3.946   0.066  12.260  0.4970 -1.4442 -1.8092
 5717SOL    HW228785   3.906   0.148  12.138 -0.3021  1.1043  0.6775
 5718SOL     OW28786   0.585   3.801   5.368  0.5812 -0.0756  0.4217
 5718SOL    HW128787   0.497   3.834   5.388 -0.1878 -0.5165 -2.1939
 5718SOL    HW228788   0.617   3.884   5.333 -1.9181  0.6091 -0.3011
 5719SOL     OW28789   3.581   2.019  12.003  0.2160 -0.3177 -0.2411
 5719SOL    HW128790   3.673   2.012  11.977  0.5577  3.7150 -0.1622
 5719SOL    HW228791   3.590   2.002  12.097 -0.9823  1.1769  0.1444
 5720SOL     OW28792   1.447   1.223  11.352  0.1042 -0.9279 -0.0860
 5720SOL    HW128793   1.464   1.313  11.379  0.8308  0.4247 -5.1184
 5720SOL    HW228794   1.513   1.174  11.401  1.3195  0.2641 -0.5344
 5721SOL     OW28795   3.390   1.269  17.486  0.3927 -0.1484  0.4583
 5721SOL    HW128796   3.309   1.220  17.496 -0.2038  0.6344 -0.5285
 5721SOL    HW228797   3.416   1.247  17.397 -1.5174  2.6150 -0.8069
 5722SOL     OW28798   3.504   4.032   3.231 -0.1125  0.4330  0.0724
 5722SOL    HW128799   3.599   4.036   3.244  0.3476 -0.9928 -2.8208
 5722SOL    HW228800   3.484   4.118   3.268 -0.8992  0.5131 -0.5359
 5723SOL     OW28801   0.710   2.991   4.124 -0.2407 -0.5921 -0.4871
 5723SOL    HW128802   0.747   3.062   4.174 -1.6351 -0.2608  0.0764
 5723SOL    HW228803   0.614   2.994   4.133 -0.2357  1.1401 -1.1371
 5724SOL     OW28804   2.576   2.664  10.672 -0.4106 -0.3328  0.2970
 5724SOL    HW128805   2.596   2.720  10.747 -2.6230 -0.4641  0.9814
 5724SOL    HW228806   2.665   2.642  10.644 -0.6901 -1.6996  0.4978
 5725SOL     OW28807   1.152   3.458   5.048  0.3730  0.1922 -0.0764
 5725SOL    HW128808   1.096   3.483   4.975  0.2019 -0.1945 -0.0748
 5725SOL    HW228809   1.116   3.517   5.115 -1.3118 -1.6505  0.6494
 5726SOL     OW28810   4.615   3.858   0.522  0.0247  0.3174  0.0554
 5726SOL    HW128811   4.699   3.895   0.496  0.4390 -0.9663 -0.4148
 5726SOL    HW228812   4.601   3.772   0.482  1.1800  0.2458 -0.1836
 5727SOL     OW28813   2.633   4.201   7.451 -0.6360  0.2088  0.3075
 5727SOL    HW128814   2.537   4.198   7.447 -0.5911 -1.3075  0.3914
 5727SOL    HW228815   2.641   4.150   7.370 -0.2311 -1.1158  1.1850
 5728SOL     OW28816   3.213   1.380   3.683  0.0037 -0.1241 -0.3993
 5728SOL    HW128817   3.172   1.440   3.621 -2.9042 -1.2213  0.4451
 5728SOL    HW228818   3.137   1.326   3.706 -1.1065  2.0701  1.1383
 5729SOL     OW28819   3.546   2.338   1.583 -0.0750 -0.6078  0.2437
 5729SOL    HW128820   3.526   2.431   1.591 -0.0185 -0.3438 -2.6946
 5729SOL    HW228821   3.562   2.339   1.489 -0.0337  0.0379  0.2573
 5730SOL     OW28822   0.402   0.448   7.469 -0.6478 -0.1515  0.6727
 5730SOL    HW128823   0.352   0.411   7.397 -1.2095 -0.8405  1.4112
 5730SOL    HW228824   0.492   0.444   7.438 -0.2723 -0.0236  1.7475
 5731SOL     OW28825   1.943   3.150   9.612  1.0023 -0.9821  0.4317
 5731SOL    HW128826   1.908   3.063   9.593 -0.2969  0.2442 -2.9369
 5731SOL    HW228827   2.029   3.125   9.646  0.6156 -2.1790  0.5329
 5732SOL     OW28828   0.214   2.619   4.682 -0.2957  0.2944  0.3291
 5732SOL    HW128829   0.223   2.618   4.777 -0.0336 -1.3741  0.2809
 5732SOL    HW228830   0.144   2.558   4.660  0.3604 -0.2515 -0.2624
 5733SOL     OW28831   0.970   3.766   7.274  0.5298  0.1306  0.1301
 5733SOL    HW128832   0.986   3.828   7.202 -0.2434  0.8144  0.5517
 5733SOL    HW228833   0.927   3.700   7.219  3.5597 -1.3053 -0.5222
 5734SOL     OW28834   3.975   1.149   9.933  0.1423  0.5692 -0.6461
 5734SOL    HW128835   3.993   1.056   9.922  0.4507  0.6265 -0.6502
 5734SOL    HW228836   3.881   1.163   9.926 -0.1753 -1.2933 -0.0590
 5735SOL     OW28837   2.062   0.186   5.274  0.3297  0.2841  0.4748
 5735SOL    HW128838   2.157   0.177   5.272  0.1862 -0.6334 -2.0999
 5735SOL    HW228839   2.036   0.094   5.281  1.1688  0.1618  2.1625
 5736SOL     OW28840   2.217   1.557   2.558  0.2600 -0.1032 -0.3499
 5736SOL    HW128841   2.176   1.582   2.474  0.2205  2.0330  0.2931
 5736SOL    HW228842   2.205   1.633   2.615 -1.2973 -1.5869  1.2705
 5737SOL     OW28843   3.669   1.194   3.202 -0.2152 -0.2794  0.2943
 5737SOL    HW128844   3.604   1.209   3.271  0.5407  0.7909  0.7754
 5737SOL    HW228845   3.679   1.099   3.193 -0.0377 -0.0496 -1.9606
 5738SOL     OW28846   1.833   2.198   8.342  0.2835 -0.4858 -0.2473
 5738SOL    HW128847   1.867   2.108   8.345 -0.6107 -0.8336 -0.4811
 5738SOL    HW228848   1.918   2.230   8.310 -1.2433  0.7367 -3.0453
 5739SOL     OW28849   0.355   3.470   4.339 -0.9532 -0.1814 -0.5243
 5739SOL    HW128850   0.300   3.393   4.324 -0.4351 -0.8525  1.0769
 5739SOL    HW228851   0.366   3.484   4.433 -0.3310 -0.2164 -0.5882
 5740SOL     OW28852   4.728   1.015   3.948  0.8026 -0.2769  0.3603
 5740SOL    HW128853   4.688   0.981   4.029 -0.9290  0.2004 -0.2909
 5740SOL    HW228854   4.716   1.108   3.967  3.3334  0.2348 -0.7083
 5741SOL     OW28855   2.896   0.592  12.628  0.5349  0.1848 -0.4171
 5741SOL    HW128856   2.870   0.617  12.716  3.0700  1.7361 -0.1044
 5741SOL    HW228857   2.856   0.666  12.583 -1.3957 -0.1105  0.8415
 5742SOL     OW28858   4.174   0.141  10.506  0.6359  0.3761  0.4704
 5742SOL    HW128859   4.184   0.164  10.598 -0.3764  0.6789  0.5101
 5742SOL    HW228860   4.115   0.214  10.488  0.0315 -0.0908  0.5504
 5743SOL     OW28861   2.578   4.643  17.079 -0.0570 -0.6702  0.5079
 5743SOL    HW128862   2.599   4.732  17.049  0.3397 -1.2250 -0.8519
 5743SOL    HW228863   2.485   4.637  17.061 -0.2141  1.0068  0.7290
 5744SOL     OW28864   2.523   0.631   6.031  0.0081 -0.6410 -0.5971
 5744SOL    HW128865   2.443   0.584   6.054 -0.0255  0.2700  1.1461
 5744SOL    HW228866   2.484   0.718   6.019  0.6362 -0.2875 -0.0339
 5745SOL     OW28867   1.255   1.722  15.712  0.0496  0.2028 -0.3287
 5745SOL    HW128868   1.260   1.785  15.640  2.0349 -0.5564 -0.8681
 5745SOL    HW228869   1.336   1.671  15.706 -1.0472 -1.4482 -1.4630
 5746SOL     OW28870   3.808   2.561  16.217  0.7361  0.1644 -0.1688
 5746SOL    HW128871   3.783   2.493  16.280 -1.1555 -0.6453 -1.8095
 5746SOL    HW228872   3.724   2.568  16.173  1.0565  1.5505 -0.5400
 5747SOL     OW28873   4.245   4.169   2.433  0.0747  0.1854 -0.7953
 5747SOL    HW128874   4.267   4.201   2.346 -0.8754  1.5413 -0.5323
 5747SOL    HW228875   4.311   4.217   2.482 -0.1574 -0.4942  0.1935
 5748SOL     OW28876   0.982   0.527   4.353  0.0623  0.5933  0.2424
 5748SOL    HW128877   1.054   0.467   4.375  1.2929  0.0092 -5.4433
 5748SOL    HW228878   0.956   0.554   4.441  0.3126  0.4537  0.3622
 5749SOL     OW28879   1.552   1.439   1.845 -0.1131  0.8792 -0.1900
 5749SOL    HW128880   1.479   1.443   1.908  0.9895 -0.3441  1.1726
 5749SOL    HW228881   1.606   1.381   1.899 -0.2358  1.7172  0.8254
 5750SOL     OW28882   0.290   0.153  12.138 -0.3289  0.5718  0.0879
 5750SOL    HW128883   0.236   0.220  12.178 -0.6876 -0.0323  0.6121
 5750SOL    HW228884   0.217   0.108  12.094 -0.0618 -0.9509  1.2007
 5751SOL     OW28885   1.024   4.438  15.847 -0.1051 -0.7386  0.1121
 5751SOL    HW128886   1.111   4.401  15.834  1.3971  3.3540 -1.4246
 5751SOL    HW228887   0.978   4.387  15.780  1.5798  0.4123 -1.9020
 5752SOL     OW28888   0.507   2.496  16.885 -0.0369 -0.5819  0.6679
 5752SOL    HW128889   0.528   2.435  16.956 -0.6244  0.9229  2.1395
 5752SOL    HW228890   0.597   2.521  16.861 -0.7204  2.5939  1.3887
 5753SOL     OW28891   1.721   1.366   6.327 -0.6585  0.8408  0.4904
 5753SOL    HW128892   1.671   1.344   6.405 -0.8332 -0.3632  0.0273
 5753SOL    HW228893   1.796   1.311   6.349 -1.8545 -0.9766  0.0447
 5754SOL     OW28894   1.504   0.686   8.504  0.5210 -0.0182  0.3599
 5754SOL    HW128895   1.464   0.686   8.591  0.9869  0.5890  0.5763
 5754SOL    HW228896   1.426   0.673   8.449  1.2150 -2.1071 -0.1148
 5755SOL     OW28897   0.865   4.505   3.561  0.9620  0.2339  0.2283
 5755SOL    HW128898   0.783   4.475   3.522  0.3422  2.0099  0.1468
 5755SOL    HW228899   0.830   4.538   3.645 -0.2668 -0.9304  0.1690
 5756SOL     OW28900   0.970   4.163  11.407  0.3115 -0.4442 -0.5556
 5756SOL    HW128901   0.907   4.186  11.338 -0.2349  0.4801  0.2632
 5756SOL    HW228902   0.951   4.069  11.410  1.0257 -0.7080 -3.4297
 5757SOL     OW28903   0.557   0.603   4.461 -0.0202  0.2447  0.1276
 5757SOL    HW128904   0.515   0.663   4.398  3.4845  3.6023  0.9872
 5757SOL    HW228905   0.591   0.531   4.407  0.7967  0.3632  0.4990
 5758SOL     OW28906   1.214   1.955   5.459 -0.3232 -0.2434 -0.2588
 5758SOL    HW128907   1.240   2.008   5.534  0.7126 -1.2767  0.1096
 5758SOL    HW228908   1.209   1.866   5.495  0.9613  0.7730  2.3529
 5759SOL     OW28909   4.382   2.747   9.159 -0.1248 -0.0663 -0.2620
 5759SOL    HW128910   4.293   2.713   9.169 -0.2179 -0.0755 -1.0501
 5759SOL    HW228911   4.419   2.746   9.247  0.3399  0.1574 -0.4602
 5760SOL     OW28912   3.773   0.155   1.960  0.2380 -0.6436  0.1488
 5760SOL    HW128913   3.690   0.113   1.937 -1.4311  2.3261  0.7651
 5760SOL    HW228914   3.820   0.122   1.884 -2.0810  2.4401 -2.6328
 5761SOL     OW28915   2.045   2.063   3.135 -0.2924  0.7127 -0.0644
 5761SOL    HW128916   2.106   2.129   3.103 -1.5073  1.1822 -1.4484
 5761SOL    HW228917   2.103   2.031   3.203  1.1486  2.9968 -0.2318
 5762SOL     OW28918   3.371   3.879   4.530 -0.0291 -0.4284 -0.5242
 5762SOL    HW128919   3.392   3.965   4.493  1.4907 -0.4334  0.3318
 5762SOL    HW228920   3.304   3.910   4.591 -0.7721 -0.2224 -1.4479
 5763SOL     OW28921   0.532   4.024   7.555 -0.1530 -0.3308  0.2534
 5763SOL    HW128922   0.481   4.002   7.477  0.0274 -0.3874  0.1542
 5763SOL    HW228923   0.614   4.061   7.525  0.1016 -0.0989  1.2240
 5764SOL     OW28924   1.130   0.156   7.150 -0.1251  0.5716  0.5339
 5764SOL    HW128925   1.092   0.222   7.092  2.0285  0.4817 -0.9595
 5764SOL    HW228926   1.210   0.204   7.169  0.4504 -0.1655 -0.0292
 5765SOL     OW28927   2.514   3.076   9.177  0.2712  0.5357  0.1157
 5765SOL    HW128928   2.589   3.044   9.229  1.3632  1.6145 -0.7875
 5765SOL    HW228929   2.520   3.013   9.105  1.7218  1.9555 -1.0185
 5766SOL     OW28930   4.610   0.391   2.736  0.1051 -0.5442 -0.5965
 5766SOL    HW128931   4.667   0.331   2.784 -1.7561 -3.4445 -2.0248
 5766SOL    HW228932   4.523   0.350   2.739  0.4605 -1.2025  1.0082
 5767SOL     OW28933   4.079   1.851   2.744  0.1648  0.3844  0.0396
 5767SOL    HW128934   4.084   1.943   2.719 -0.6996  0.1925 -0.8482
 5767SOL    HW228935   4.166   1.824   2.716  0.6397  0.9102  0.9802
 5768SOL     OW28936   3.845   0.985   5.554 -0.4821  0.0921  0.2119
 5768SOL    HW128937   3.862   1.078   5.538  1.4798  0.1729  2.7794
 5768SOL    HW228938   3.924   0.976   5.608 -2.2134 -1.7123  2.4138
 5769SOL     OW28939   1.884   4.635   3.845 -0.0003  0.3648 -0.3983
 5769SOL    HW128940   1.905   4.572   3.776  0.4715  2.3934 -2.1469
 5769SOL    HW228941   1.970   4.652   3.884  1.5907 -1.4233 -3.0860
 5770SOL     OW28942   1.400   4.411  16.425 -0.2191  0.2276  0.0893
 5770SOL    HW128943   1.334   4.342  16.424 -0.8656  0.8391  0.7732
 5770SOL    HW228944   1.365   4.466  16.495  0.7477 -0.1618  0.8961
 5771SOL     OW28945   0.944   3.817  17.292 -0.5712  0.0806 -0.1173
 5771SOL    HW128946   0.882   3.830  17.220  1.4088 -2.1633 -2.2069
 5771SOL    HW228947   1.009   3.887  17.283  1.1860 -1.4529  0.8127
 5772SOL     OW28948   3.020   3.012   7.001 -0.1951 -0.0216  0.0249
 5772SOL    HW128949   2.992   2.935   6.952 -2.3231  0.3512  0.6434
 5772SOL    HW228950   3.007   3.076   6.931  2.1996 -3.0106 -3.1280
 5773SOL     OW28951   2.611   0.025   7.110  0.2418 -0.5407  0.2519
 5773SOL    HW128952   2.662   4.681   7.121 -0.2229 -0.8757  0.0304
 5773SOL    HW228953   2.569   0.021   7.024  1.7562  0.6202 -0.5220
 5774SOL     OW28954   1.804   1.958   5.626  0.5126 -0.1140 -0.5199
 5774SOL    HW128955   1.740   1.977   5.694 -0.8801 -0.4968 -1.7134
 5774SOL    HW228956   1.819   1.864   5.638  0.8514 -0.1286 -1.0782
 5775SOL     OW28957   3.856   1.773   7.118  0.3545 -0.1601 -0.6039
 5775SOL    HW128958   3.781   1.752   7.174 -0.2888 -2.4833 -2.3657
 5775SOL    HW228959   3.818   1.817   7.043  0.8841 -0.2370 -0.9191
 5776SOL     OW28960   3.718   2.101   2.972  0.1203 -0.0228  0.6306
 5776SOL    HW128961   3.722   2.008   2.948  1.1977  0.1022  0.3427
 5776SOL    HW228962   3.743   2.151   2.895  1.6247 -1.5739  0.1102
 5777SOL     OW28963   1.442   1.604   2.987 -0.2484 -0.2999  0.1671
 5777SOL    HW128964   1.444   1.680   3.044  1.4071  0.1222 -0.4572
 5777SOL    HW228965   1.453   1.539   3.056 -1.3938  1.4699  2.0090
 5778SOL     OW28966   4.667   0.443   3.927  0.2308  0.5354 -0.4644
 5778SOL    HW128967   4.666   0.499   4.005  0.9839 -0.6950  0.4386
 5778SOL    HW228968   0.019   0.459   3.890  0.5255 -0.2438 -0.1092
 5779SOL     OW28969   4.703   4.442  10.308 -0.1842 -0.3021 -0.2697
 5779SOL    HW128970   0.016   4.359  10.300  1.5918  0.6018  0.9528
 5779SOL    HW228971   4.656   4.420  10.389 -2.7246 -0.3725 -1.7760
 5780SOL     OW28972   1.045   2.899   2.552 -0.0426  0.2044  0.2447
 5780SOL    HW128973   1.002   2.835   2.495 -2.1768  1.3683  0.5661
 5780SOL    HW228974   1.085   2.839   2.615 -3.0323 -1.3892  0.6302
 5781SOL     OW28975   0.057   0.668   7.406 -0.1792 -0.2434 -0.1683
 5781SOL    HW128976   0.023   0.671   7.316  2.3322 -0.8072 -1.1386
 5781SOL    HW228977   4.717   0.650   7.462 -0.3778 -2.0376 -0.9876
 5782SOL     OW28978   0.118   3.805   9.702 -0.0960 -0.1744 -0.4417
 5782SOL    HW128979   0.095   3.728   9.651 -0.4263 -2.1824  2.7505
 5782SOL    HW228980   0.203   3.787   9.742  0.2880 -0.4139 -1.3730
 5783SOL     OW28981   2.600   0.167  11.116 -0.0041  0.2131 -0.9216
 5783SOL    HW128982   2.661   0.188  11.186 -1.4555  0.5914  0.2249
 5783SOL    HW228983   2.603   0.072  11.126  0.3610  0.2195 -0.9765
 5784SOL     OW28984   2.641   3.831  17.013 -0.4891 -0.3784  0.3353
 5784SOL    HW128985   2.555   3.873  17.015 -0.2670  0.0865  0.1699
 5784SOL    HW228986   2.618   3.751  17.061  1.1970 -0.7333  0.5308
 5785SOL     OW28987   0.586   4.609  17.026  0.0171  0.9131  0.1101
 5785SOL    HW128988   0.542   4.635  16.946 -0.0071 -0.8134 -0.4350
 5785SOL    HW228989   0.588   4.515  17.011 -0.9763  0.8684  0.2585
 5786SOL     OW28990   0.485   1.525  16.965  0.3788 -0.0543 -0.0299
 5786SOL    HW128991   0.557   1.518  16.902  0.5058  3.3245 -0.2162
 5786SOL    HW228992   0.460   1.617  16.961 -0.9670 -0.4878 -1.2697
 5787SOL     OW28993   1.662   1.127   1.782  0.2523 -0.1404  0.5116
 5787SOL    HW128994   1.611   1.172   1.714  1.1633  0.3878  0.1808
 5787SOL    HW228995   1.749   1.167   1.781  0.4276 -0.5107  2.6486
 5788SOL     OW28996   1.560   2.649   0.669 -0.0934 -0.1118 -0.2674
 5788SOL    HW128997   1.553   2.632   0.575  1.4073 -0.5741 -0.2957
 5788SOL    HW228998   1.565   2.745   0.662  3.3465 -0.3563 -1.0794
 5789SOL     OW28999   1.256   2.438   3.751 -0.5168 -0.3523 -0.4386
 5789SOL    HW129000   1.257   2.465   3.659 -0.6747 -1.1100 -0.6615
 5789SOL    HW229001   1.244   2.343   3.744 -1.7941 -0.2030 -0.3782
 5790SOL     OW29002   2.621   1.018   9.566 -0.0391 -0.5869 -0.0430
 5790SOL    HW129003   2.529   1.001   9.546  0.2826 -1.3069 -0.9609
 5790SOL    HW229004   2.605   1.100   9.613  0.3522 -0.6646  0.2207
 5791SOL     OW29005   3.422   4.412   2.832  1.1661 -0.4474  0.5251
 5791SOL    HW129006   3.331   4.433   2.853  0.9492 -2.0453  1.2187
 5791SOL    HW229007   3.436   4.336   2.889  0.6488 -1.0210 -0.1056
 5792SOL     OW29008   1.043   3.137  10.728  1.0215 -0.1253  0.2393
 5792SOL    HW129009   1.133   3.110  10.711  0.7208 -1.2081  0.3665
 5792SOL    HW229010   1.049   3.158  10.821  1.4369  0.0536  0.1718
 5793SOL     OW29011   4.168   1.072  16.631 -0.0793 -0.0769  0.6022
 5793SOL    HW129012   4.073   1.062  16.621 -0.2204  0.8187  1.0665
 5793SOL    HW229013   4.193   1.025  16.551  0.2333  1.5006 -0.2389
 5794SOL     OW29014   1.174   1.632   8.659  0.6443 -0.3721 -0.3534
 5794SOL    HW129015   1.130   1.667   8.581 -1.1846  2.6217  2.0099
 5794SOL    HW229016   1.255   1.596   8.622  0.5732 -1.0800  0.1829
 5795SOL     OW29017   4.405   2.969   6.331  0.3065 -0.4600 -0.4069
 5795SOL    HW129018   4.467   2.955   6.402  0.8810  1.7814 -0.4530
 5795SOL    HW229019   4.440   3.052   6.299  0.5601 -0.9371 -1.3630
 5796SOL     OW29020   0.127   2.070  10.092 -0.0425  0.0424 -0.4663
 5796SOL    HW129021   0.140   2.001  10.027 -0.3436 -2.2142  1.8563
 5796SOL    HW229022   0.215   2.105  10.109  0.0611  0.4549 -1.7957
 5797SOL     OW29023   2.103   4.720   5.649 -0.1333 -0.0932  0.4448
 5797SOL    HW129024   2.074   0.021   5.733 -1.8632 -0.9081  0.1933
 5797SOL    HW229025   2.109   4.631   5.684 -0.8352 -0.7995 -1.2440
 5798SOL     OW29026   1.023   0.191  16.020 -0.1628 -0.5508  0.1337
 5798SOL    HW129027   0.994   0.122  16.081 -0.2466 -0.3874  0.2775
 5798SOL    HW229028   1.099   0.139  15.991  1.7469  1.6190  1.2386
 5799SOL     OW29029   1.113   0.506   8.092 -0.2569  0.1171 -0.3864
 5799SOL    HW129030   1.065   0.487   8.012 -1.6011  3.3376 -0.3391
 5799SOL    HW229031   1.165   0.580   8.059 -0.1871  1.1048  1.9238
 5800SOL     OW29032   2.117   2.216   5.368 -0.3929  0.1960 -0.6207
 5800SOL    HW129033   2.031   2.194   5.404 -0.1423  2.6226  1.4921
 5800SOL    HW229034   2.173   2.214   5.446  0.3338  0.8008 -1.1247
 5801SOL     OW29035   0.683   0.995   1.849  0.5442 -0.5277 -0.1345
 5801SOL    HW129036   0.639   0.915   1.821 -0.3489 -0.4242  0.9652
 5801SOL    HW229037   0.762   0.989   1.796  0.1050 -2.4770 -0.5966
 5802SOL     OW29038   4.600   0.140  14.590 -0.9945  0.0105  0.1607
 5802SOL    HW129039   4.544   0.188  14.528  1.1395  1.1610 -0.8684
 5802SOL    HW229040   4.688   0.171  14.567 -1.1283 -0.1569 -0.5747
 5803SOL     OW29041   1.173   0.058   4.969  0.1626 -0.0502  0.1077
 5803SOL    HW129042   1.178   0.009   4.887  1.7529 -0.5476  0.5152
 5803SOL    HW229043   1.132   0.139   4.938 -1.0243 -0.6609  0.0675
 5804SOL     OW29044   2.160   1.243  11.513  0.4940 -0.1999  0.1442
 5804SOL    HW129045   2.125   1.329  11.538  2.6596  0.6048  0.3666
 5804SOL    HW229046   2.182   1.265  11.423  0.7787 -0.7680  0.0769
 5805SOL     OW29047   4.462   2.443   5.614 -0.5457  0.2768 -0.9362
 5805SOL    HW129048   4.451   2.350   5.631 -1.1200  0.5442  0.1715
 5805SOL    HW229049   4.429   2.487   5.693  0.4947 -0.1849 -0.2433
 5806SOL     OW29050   4.334   4.287   7.783  0.5052  0.0088  0.6449
 5806SOL    HW129051   4.329   4.254   7.694  2.0679  0.1031  0.5066
 5806SOL    HW229052   4.352   4.205   7.828  1.7819  0.0250  0.1678
 5807SOL     OW29053   3.283   2.679   3.117  0.4440  0.2612 -0.9967
 5807SOL    HW129054   3.343   2.669   3.191  1.1526  0.0613 -1.5919
 5807SOL    HW229055   3.243   2.593   3.114  0.0145  0.4284  0.1053
 5808SOL     OW29056   1.840   1.748   2.068  0.0853 -0.1513  0.2229
 5808SOL    HW129057   1.902   1.785   2.131 -0.3492 -0.9632  1.1269
 5808SOL    HW229058   1.903   1.737   1.997  2.4477  2.7007  1.8393
 5809SOL     OW29059   4.276   0.310  17.133 -0.4980 -0.0624 -0.3671
 5809SOL    HW129060   4.183   0.335  17.136 -0.8372 -1.2866 -0.3400
 5809SOL    HW229061   4.291   0.264  17.216  1.5124  0.5696 -0.3915
 5810SOL     OW29062   4.226   3.246   9.090 -0.7640  0.6626  0.1631
 5810SOL    HW129063   4.257   3.161   9.060 -3.4570 -0.9067  1.7967
 5810SOL    HW229064   4.261   3.301   9.020 -2.6498 -0.1956 -1.4654
 5811SOL     OW29065   1.992   0.074   3.213  0.2809 -0.3261 -0.5169
 5811SOL    HW129066   2.072   0.080   3.265  0.0579  0.7648 -0.3185
 5811SOL    HW229067   1.926   0.037   3.272  1.3012 -2.3432 -0.6179
 5812SOL     OW29068   0.601   1.223   0.987  0.0921  0.5464  0.5175
 5812SOL    HW129069   0.524   1.277   1.001  0.5044  1.6725 -1.4999
 5812SOL    HW229070   0.646   1.281   0.925  1.0940  0.4166  1.1241
 5813SOL     OW29071   1.540   1.890   5.779  0.1009  0.1931 -0.5315
 5813SOL    HW129072   1.543   1.795   5.762 -1.9863  0.1302 -0.5416
 5813SOL    HW229073   1.521   1.889   5.873 -3.3624 -3.4481 -1.2759
 5814SOL     OW29074   0.295   2.023   7.245 -0.2305  0.0653  0.2748
 5814SOL    HW129075   0.335   1.946   7.203 -1.4460  0.5338 -1.7513
 5814SOL    HW229076   0.289   1.982   7.332 -2.7533 -1.1519 -0.4529
 5815SOL     OW29077   1.190   1.623   7.950  0.5658 -0.1409  0.6456
 5815SOL    HW129078   1.118   1.568   7.922  0.2787  1.0699 -0.9423
 5815SOL    HW229079   1.148   1.693   7.999  0.9992 -0.4989  1.5534
 5816SOL     OW29080   0.499   0.911   9.012  0.6722 -0.3634 -0.2827
 5816SOL    HW129081   0.425   0.860   9.046 -1.2612  2.2044 -0.6710
 5816SOL    HW229082   0.479   0.921   8.919 -1.3442  2.6365  0.4933
 5817SOL     OW29083   0.947   1.199  14.473  0.0549  0.4822 -0.8156
 5817SOL    HW129084   0.912   1.277  14.515  0.2247 -0.0568  0.3314
 5817SOL    HW229085   0.969   1.148  14.552 -1.4250  1.9566  0.5445
 5818SOL     OW29086   2.394   3.356   4.526  0.5801 -0.2206 -0.0902
 5818SOL    HW129087   2.383   3.358   4.621  0.4198  1.7159 -0.1508
 5818SOL    HW229088   2.488   3.348   4.515  0.2173 -2.3105 -1.6667
 5819SOL     OW29089   2.634   3.180   0.287 -0.0202 -0.1797 -0.0841
 5819SOL    HW129090   2.647   3.201   0.194  0.8775 -2.1558 -0.4147
 5819SOL    HW229091   2.693   3.104   0.289  0.8129  0.4819  0.6667
 5820SOL     OW29092   3.246   2.907   5.348  0.0093  0.4750 -1.0284
 5820SOL    HW129093   3.261   2.819   5.312  0.3338  0.7071 -1.4559
 5820SOL    HW229094   3.334   2.934   5.375  0.9040 -2.4730 -0.8992
 5821SOL     OW29095   0.772   1.117   2.728  0.3855 -0.1818 -0.4480
 5821SOL    HW129096   0.858   1.074   2.725 -0.4490 -1.7984 -0.8397
 5821SOL    HW229097   0.748   1.094   2.818  0.1771 -0.6669 -0.6318
 5822SOL     OW29098   2.353   4.179   3.944  0.2798 -0.3636 -0.2365
 5822SOL    HW129099   2.343   4.108   4.007  0.0712 -1.6506 -1.7058
 5822SOL    HW229100   2.271   4.183   3.895 -0.3831  0.0454  0.9272
 5823SOL     OW29101   0.854   4.651   6.672 -0.2813  0.0351 -0.1670
 5823SOL    HW129102   0.809   4.569   6.690  0.6988 -0.1197  1.6017
 5823SOL    HW229103   0.937   4.636   6.717 -0.2496 -1.8053 -0.8679
 5824SOL     OW29104   1.934   0.403  11.713  0.3568 -0.0370 -0.2008
 5824SOL    HW129105   1.866   0.337  11.697  0.3641 -0.5807  1.9892
 5824SOL    HW229106   1.942   0.456  11.633  0.9561 -0.9057 -0.7152
 5825SOL     OW29107   2.919   3.417  13.342 -0.1535 -0.2329  0.2378
 5825SOL    HW129108   2.837   3.370  13.357 -0.5154  0.1920 -0.3959
 5825SOL    HW229109   2.973   3.399  13.418 -0.0484  1.5352  0.5734
 5826SOL     OW29110   3.167   0.078   0.085 -0.1910  0.1021 -0.2728
 5826SOL    HW129111   3.244   0.083   0.141 -0.9375 -1.3825  0.9076
 5826SOL    HW229112   3.148   4.722   0.105 -1.0957  0.7123  1.6431
 5827SOL     OW29113   4.098   4.159   5.297 -0.0381 -0.6073  0.4365
 5827SOL    HW129114   4.105   4.095   5.368 -1.2409  0.2821  1.3554
 5827SOL    HW229115   4.164   4.130   5.234  0.8742  1.6671  0.3373
 5828SOL     OW29116   0.434   0.776   4.656  0.1966 -0.0231 -0.1453
 5828SOL    HW129117   0.473   0.830   4.587 -2.8302 -0.0769 -1.8887
 5828SOL    HW229118   0.456   0.689   4.624 -0.3473  0.5282 -2.0063
 5829SOL     OW29119   4.154   4.627   1.271 -0.0409  0.5457  0.3740
 5829SOL    HW129120   4.230   4.601   1.220  0.1737  0.7139  0.6041
 5829SOL    HW229121   4.154   4.718   1.239  1.2319  0.2664 -0.3908
 5830SOL     OW29122   2.200   3.818   2.387  0.5001 -0.3600 -0.0435
 5830SOL    HW129123   2.167   3.895   2.342  0.6009 -1.6249 -2.2745
 5830SOL    HW229124   2.149   3.743   2.357 -1.5204  0.0839  2.3031
 5831SOL     OW29125   3.693   4.633   6.770 -0.1289  0.8830 -0.2477
 5831SOL    HW129126   3.635   4.634   6.694 -0.8397  1.5483  0.3084
 5831SOL    HW229127   3.665   4.718   6.802  1.5267  1.9786 -1.6770
 5832SOL     OW29128   3.894   1.478  14.189  0.6921 -0.1424  0.6289
 5832SOL    HW129129   3.977   1.443  14.156  0.8463  2.0485 -1.3397
 5832SOL    HW229130   3.835   1.405  14.172 -1.1065  1.0755  1.6622
 5833SOL     OW29131   2.825   3.378  12.774  0.0355  0.6192 -0.0393
 5833SOL    HW129132   2.918   3.397  12.786 -0.2558  0.9441  1.7537
 5833SOL    HW229133   2.784   3.438  12.836  2.2965  1.8078  0.3350
 5834SOL     OW29134   0.431   4.458   8.045  0.5689  0.3684  0.3738
 5834SOL    HW129135   0.442   4.541   7.999 -0.3047 -1.2906 -2.7927
 5834SOL    HW229136   0.397   4.402   7.975  1.8360 -1.4754  1.2250
 5835SOL     OW29137   2.910   1.701   7.990  0.0542  0.2082 -0.6014
 5835SOL    HW129138   2.847   1.702   8.061  0.0919 -1.0552 -0.5355
 5835SOL    HW229139   2.890   1.627   7.932 -0.7755 -0.6476  0.7817
 5836SOL     OW29140   4.219   0.219   7.060 -0.5463 -0.2072  0.1336
 5836SOL    HW129141   4.195   0.128   7.077  1.8156 -0.8007  0.3587
 5836SOL    HW229142   4.198   0.229   6.967  0.0490 -0.1758  0.0034
 5837SOL     OW29143   2.840   0.837   1.288  0.1208 -0.0934 -0.1349
 5837SOL    HW129144   2.875   0.783   1.217 -1.5789  1.6704 -2.3329
 5837SOL    HW229145   2.893   0.789   1.351 -1.7581 -3.5810 -1.2086
 5838SOL     OW29146   1.432   1.425   5.608  0.2331 -0.1043  0.3173
 5838SOL    HW129147   1.361   1.368   5.636 -0.9136  1.1524 -0.0250
 5838SOL    HW229148   1.402   1.455   5.522  1.8937 -1.5153 -0.7472
 5839SOL     OW29149   0.917   0.563   5.053  0.0867  0.0475 -0.6680
 5839SOL    HW129150   0.899   0.615   5.131  1.6647  3.0364 -2.3025
 5839SOL    HW229151   0.913   0.634   4.989 -2.7898  0.3567 -0.1252
 5840SOL     OW29152   2.605   2.586  16.249  0.1293 -0.4451  0.5065
 5840SOL    HW129153   2.533   2.567  16.189 -1.7742 -1.2341  3.0259
 5840SOL    HW229154   2.683   2.601  16.196 -0.6396 -0.0780 -0.5156
 5841SOL     OW29155   0.065   0.019  10.820 -0.1872 -0.3463 -0.4492
 5841SOL    HW129156   0.154   0.052  10.806 -0.1493  0.0399  0.7568
 5841SOL    HW229157   0.065   0.034  10.914 -2.8935  0.0053 -0.4935
 5842SOL     OW29158   1.337   3.558   2.077 -0.6097  0.0086  0.0160
 5842SOL    HW129159   1.269   3.550   2.010  1.4435 -0.8207 -1.9224
 5842SOL    HW229160   1.285   3.553   2.158  1.2298  1.1900  1.2748
 5843SOL     OW29161   1.380   0.326  11.050 -0.2070  0.2476 -0.5116
 5843SOL    HW129162   1.286   0.313  11.038 -0.2271  0.0641 -0.1656
 5843SOL    HW229163   1.405   0.369  10.968  0.6867  0.3167 -0.1986
 5844SOL     OW29164   0.619   3.597   6.855 -0.1710  0.0325  0.0094
 5844SOL    HW129165   0.600   3.594   6.761  0.8746  0.0029 -0.2055
 5844SOL    HW229166   0.657   3.509   6.863  1.6691  1.1350  3.3788
 5845SOL     OW29167   4.674   0.400  16.406  0.1192  0.7137  0.1987
 5845SOL    HW129168   4.626   0.473  16.444 -1.4227 -0.2100  0.0017
 5845SOL    HW229169   4.609   0.332  16.392  1.7125 -0.7393 -0.1012
 5846SOL     OW29170   2.459   3.248   4.977 -0.3189  0.3657  0.3451
 5846SOL    HW129171   2.437   3.218   5.066  1.0218 -0.6148  0.3365
 5846SOL    HW229172   2.552   3.266   4.984 -0.3931  1.0514 -0.4089
 5847SOL     OW29173   4.333   2.944  11.380 -0.0001  0.0586  0.0357
 5847SOL    HW129174   4.393   2.896  11.438 -1.1520 -0.7628  0.5592
 5847SOL    HW229175   4.387   2.941  11.301 -1.1897 -3.0353 -0.6730
 5848SOL     OW29176   2.930   0.504   2.759  0.0343  0.7650  0.1011
 5848SOL    HW129177   2.874   0.484   2.684  1.3447 -3.6034  0.2794
 5848SOL    HW229178   2.955   0.594   2.738  1.8848 -0.1766 -1.7532
 5849SOL     OW29179   1.980   1.627  15.679 -0.1318  0.0327 -0.4967
 5849SOL    HW129180   2.025   1.676  15.748 -0.1740 -0.7153  0.0541
 5849SOL    HW229181   2.052   1.644  15.617  0.5060  0.2998  0.3231
 5850SOL     OW29182   4.617   3.015  16.708 -0.5769  0.3095 -0.5025
 5850SOL    HW129183   4.568   3.084  16.662 -1.7839  1.0947  1.8873
 5850SOL    HW229184   4.547   2.976  16.761 -0.7407  2.2670  0.7371
 5851SOL     OW29185   2.696   0.704   5.323 -0.2134  0.0817 -0.3955
 5851SOL    HW129186   2.691   0.789   5.281 -2.1992  0.7467  1.1974
 5851SOL    HW229187   2.606   0.692   5.354  0.0164  1.6941  0.8661
 5852SOL     OW29188   1.958   0.238  16.061 -0.4556  0.2003 -0.3775
 5852SOL    HW129189   1.939   0.298  16.134  0.2256  0.2675 -0.2534
 5852SOL    HW229190   1.904   0.275  15.991  1.8503 -1.6826 -3.1405
 5853SOL     OW29191   0.541   3.357   9.855  0.1332 -0.0275 -0.0011
 5853SOL    HW129192   0.613   3.408   9.820 -0.6345  2.0797  1.4508
 5853SOL    HW229193   0.590   3.297   9.911  1.5124 -0.6949 -1.9339
 5854SOL     OW29194   4.415   2.212   8.689  0.5778 -0.2853  0.3030
 5854SOL    HW129195   4.477   2.159   8.638 -3.1088 -1.3505 -3.0606
 5854SOL    HW229196   4.403   2.286   8.630 -1.8994 -1.1825 -0.3332
 5855SOL     OW29197   1.107   3.636   7.916 -0.0223 -0.0414  0.1872
 5855SOL    HW129198   1.066   3.580   7.981  1.5105 -1.7164 -0.2735
 5855SOL    HW229199   1.117   3.715   7.968 -0.6786 -1.2030  2.0763
 5856SOL     OW29200   1.258   1.569  14.762  0.3254  0.4151 -0.1507
 5856SOL    HW129201   1.340   1.529  14.734  0.7443  0.8734  0.4246
 5856SOL    HW229202   1.264   1.655  14.719 -1.0909  1.3329  1.4530
 5857SOL     OW29203   1.949   2.027   6.602 -1.0212  0.0424 -0.2213
 5857SOL    HW129204   1.902   2.103   6.568 -1.3939 -0.0820  0.0165
 5857SOL    HW229205   1.939   2.052   6.694 -1.9153  1.7186 -0.7737
 5858SOL     OW29206   3.266   4.391   6.592  0.3748  0.1959 -0.0817
 5858SOL    HW129207   3.285   4.477   6.554 -1.0605  0.3196 -0.5387
 5858SOL    HW229208   3.316   4.389   6.674 -0.3741 -1.9635  0.3107
 5859SOL     OW29209   2.818   1.390  15.964  0.1303  0.9329  0.4453
 5859SOL    HW129210   2.888   1.399  15.899  0.4749  0.0401  0.7002
 5859SOL    HW229211   2.833   1.300  15.990  0.1374  0.3669 -1.4946
 5860SOL     OW29212   1.800   1.461   1.301 -0.1214 -0.0028 -0.6125
 5860SOL    HW129213   1.878   1.468   1.355  0.1558 -1.8774 -0.7502
 5860SOL    HW229214   1.830   1.420   1.220  0.4593  0.7883 -0.7990
 5861SOL     OW29215   3.412   2.654   4.239 -0.1003  0.3906 -0.2270
 5861SOL    HW129216   3.490   2.606   4.212  0.1679  0.2054  0.8904
 5861SOL    HW229217   3.434   2.682   4.328  0.8382 -0.5007 -0.1845
 5862SOL     OW29218   3.537   0.399  16.937  0.1546  0.3972  0.0816
 5862SOL    HW129219   3.456   0.353  16.960 -0.6565  1.4099 -0.7253
 5862SOL    HW229220   3.516   0.473  16.879  1.4658 -1.3563 -2.6301
 5863SOL     OW29221   3.554   4.703   5.183 -0.0818  0.1719  0.3960
 5863SOL    HW129222   3.574   4.612   5.162  0.8416  0.7896 -1.3353
 5863SOL    HW229223   3.609   0.000   5.255  1.1921 -0.8803 -0.1136
 5864SOL     OW29224   4.569   3.103   7.599  0.3586  0.1053  0.0936
 5864SOL    HW129225   4.508   3.096   7.673 -0.6298  0.2842 -0.7101
 5864SOL    HW229226   4.513   3.126   7.525  0.0588  1.4721  0.7405
 5865SOL     OW29227   4.445   0.230   3.046 -0.2909 -0.1485  0.1902
 5865SOL    HW129228   4.430   0.206   3.137 -0.7710 -1.0021 -0.1107
 5865SOL    HW229229   4.496   0.310   3.052  0.3080 -0.5046 -0.1313
 5866SOL     OW29230   1.482   1.337   1.298 -0.6082 -0.5828 -0.0304
 5866SOL    HW129231   1.571   1.319   1.266 -0.2245  0.0941  0.6620
 5866SOL    HW229232   1.503   1.362   1.388 -0.8587  0.9193 -0.4014
 5867SOL     OW29233   2.098   4.010   1.158 -0.3806 -0.8751 -0.3136
 5867SOL    HW129234   2.033   4.000   1.227 -0.8220 -1.5990 -0.8297
 5867SOL    HW229235   2.059   4.081   1.107  3.2321  1.2695 -0.0129
 5868SOL     OW29236   1.899   0.114   3.532  0.3180 -0.2704 -0.5031
 5868SOL    HW129237   1.893   0.124   3.627  1.9057  0.5817 -0.4922
 5868SOL    HW229238   1.903   0.206   3.506  0.4907 -0.1406 -0.0166
 5869SOL     OW29239   0.931   3.227  17.268 -0.1379  0.2358  0.7612
 5869SOL    HW129240   0.921   3.245  17.361 -1.1033  1.5460  0.3914
 5869SOL    HW229241   1.008   3.170  17.268 -0.9083 -0.7935  2.4726
 5870SOL     OW29242   2.417   1.662   5.038 -0.0745  0.0368  0.4466
 5870SOL    HW129243   2.337   1.708   5.064 -0.9021 -1.4204  0.5359
 5870SOL    HW229244   2.425   1.633   5.129  1.8951 -2.4012 -0.5208
 5871SOL     OW29245   1.568   2.169  13.716  0.0146  0.3501  0.3436
 5871SOL    HW129246   1.597   2.254  13.749  0.4870  0.9489 -1.5916
 5871SOL    HW229247   1.648   2.122  13.736  0.2734  0.4962 -0.3562
 5872SOL     OW29248   0.898   0.357  15.376 -0.3730  0.3995  0.3906
 5872SOL    HW129249   0.899   0.394  15.287  2.2220 -1.5475 -0.3854
 5872SOL    HW229250   0.863   0.439  15.411  0.1486  0.9667 -0.3876
 5873SOL     OW29251   4.458   3.945   5.672 -0.4143  0.0681  0.1438
 5873SOL    HW129252   4.527   3.905   5.725  1.0600  0.1565 -1.7492
 5873SOL    HW229253   4.422   3.862   5.642  0.8413  0.1181 -1.4959
 5874SOL     OW29254   0.661   4.231   2.832 -0.2969 -0.4403  0.4923
 5874SOL    HW129255   0.721   4.156   2.833  2.7654  2.0156  0.3554
 5874SOL    HW229256   0.655   4.245   2.927  1.7841  0.2106  0.5226
 5875SOL     OW29257   1.545   2.086  12.836 -0.1479 -0.1822  0.1372
 5875SOL    HW129258   1.592   2.013  12.796  1.5630 -0.5080  2.7576
 5875SOL    HW229259   1.484   2.103  12.764 -0.2452 -2.2764 -0.2548
 5876SOL     OW29260   1.725   0.297  11.960  0.1899  0.2921  0.1128
 5876SOL    HW129261   1.664   0.347  11.907 -0.1614 -1.5542 -1.1984
 5876SOL    HW229262   1.685   0.270  12.042 -1.6462  0.8544 -0.6126
 5877SOL     OW29263   1.558   0.990   5.643  0.6114  0.0846 -0.4068
 5877SOL    HW129264   1.635   1.044   5.663  0.9454  0.6096 -3.0221
 5877SOL    HW229265   1.580   0.971   5.552 -1.5305 -2.9766 -0.2661
 5878SOL     OW29266   2.688   2.129   0.959  0.1932 -0.4380  0.4302
 5878SOL    HW129267   2.596   2.150   0.976 -0.7772 -3.2805 -1.1560
 5878SOL    HW229268   2.675   2.040   0.926 -0.6398 -0.3852  0.6153
 5879SOL     OW29269   4.590   4.148   6.133 -0.4146 -0.3653 -0.1709
 5879SOL    HW129270   4.545   4.113   6.210 -1.2023  1.1687  0.0572
 5879SOL    HW229271   4.676   4.176   6.163 -0.6011  0.8225 -0.7450
 5880SOL     OW29272   2.407   3.784   1.134  0.0349  0.6628  0.6529
 5880SOL    HW129273   2.449   3.732   1.065 -0.3877  1.1008  0.0563
 5880SOL    HW229274   2.465   3.752   1.203  1.2214  0.8683 -0.2476
 5881SOL     OW29275   3.631   1.484   7.548 -0.2246  0.1349  0.2398
 5881SOL    HW129276   3.664   1.563   7.590  0.8239  0.6387 -1.5202
 5881SOL    HW229277   3.713   1.460   7.505 -0.3663 -1.7958  1.0405
 5882SOL     OW29278   1.276   1.059   4.478 -0.6435  0.0396 -0.3666
 5882SOL    HW129279   1.264   1.092   4.567 -1.2111 -1.8720  0.2471
 5882SOL    HW229280   1.370   1.040   4.475 -0.5020  0.3952  1.9460
 5883SOL     OW29281   0.329   3.263   5.388 -0.1127 -0.1965  0.2610
 5883SOL    HW129282   0.420   3.280   5.413 -0.0634 -1.7045  1.0941
 5883SOL    HW229283   0.333   3.170   5.368  1.6853  0.1674 -1.1371
 5884SOL     OW29284   2.731   1.289   3.346  0.1092 -0.4398  0.2326
 5884SOL    HW129285   2.735   1.309   3.440  1.7052 -1.8522  0.4644
 5884SOL    HW229286   2.816   1.248   3.330 -1.7055 -2.7872 -3.2237
 5885SOL     OW29287   0.521   1.985  16.772  0.3179 -0.5987  0.3157
 5885SOL    HW129288   0.604   1.943  16.751 -0.0105 -0.9588 -0.2882
 5885SOL    HW229289   0.553   2.067  16.810 -1.9948  0.0625  0.8649
 5886SOL     OW29290   0.107   3.069   5.722  0.1013 -0.1196  0.2013
 5886SOL    HW129291   0.105   3.012   5.799 -1.3580 -0.8969 -0.4215
 5886SOL    HW229292   0.134   2.996   5.667  0.0993 -0.1932  0.2993
 5887SOL     OW29293   3.638   1.657   7.221  0.7717  0.1887  0.7551
 5887SOL    HW129294   3.556   1.687   7.260 -0.4216 -2.3188  0.1817
 5887SOL    HW229295   3.646   1.565   7.248 -1.4673  0.0411  0.8723
 5888SOL     OW29296   2.144   1.592  16.557  0.0607 -0.4556 -0.2696
 5888SOL    HW129297   2.147   1.521  16.621 -1.0653  0.2521  0.5635
 5888SOL    HW229298   2.229   1.582  16.512  0.2973 -1.1996  0.3405
 5889SOL     OW29299   2.160   4.258   4.277 -0.0752  0.6160 -0.3790
 5889SOL    HW129300   2.117   4.209   4.207  0.5416 -1.9304  1.0218
 5889SOL    HW229301   2.193   4.185   4.329 -0.9476  2.9912  3.4857
 5890SOL     OW29302   3.026   2.244   6.929  0.1953  0.2309 -0.1223
 5890SOL    HW129303   3.072   2.308   6.874  3.2166 -1.7710  0.0804
 5890SOL    HW229304   3.089   2.248   7.001  2.2604  0.3803 -1.9194
 5891SOL     OW29305   3.315   1.311  14.638 -0.2294  0.7092  0.0262
 5891SOL    HW129306   3.244   1.358  14.594  0.4135  3.0978  1.5313
 5891SOL    HW229307   3.344   1.236  14.586 -4.2771 -0.4566 -0.5751
 5892SOL     OW29308   3.923   3.618   3.020  0.7057  0.0312 -0.2265
 5892SOL    HW129309   3.883   3.663   3.094  0.1541 -0.2380 -0.3680
 5892SOL    HW229310   3.937   3.534   3.064  1.0529  0.1248 -0.1521
 5893SOL     OW29311   4.325   2.593   3.923 -0.5458 -0.4401  0.4648
 5893SOL    HW129312   4.242   2.641   3.918 -0.9156 -1.1314  0.0849
 5893SOL    HW229313   4.295   2.503   3.922 -1.0671 -0.2616 -0.6869
 5894SOL     OW29314   2.916   3.907   8.926  0.3010  0.3914 -0.3554
 5894SOL    HW129315   2.843   3.846   8.918 -0.8915  1.7050  0.3264
 5894SOL    HW229316   2.917   3.941   8.837 -0.7247  0.2531 -0.4226
 5895SOL     OW29317   2.412   4.158   8.674 -0.5037 -0.5937 -0.1664
 5895SOL    HW129318   2.380   4.223   8.737 -0.1447  0.3051 -0.9229
 5895SOL    HW229319   2.506   4.172   8.678 -0.5915  0.1291 -0.7862
 5896SOL     OW29320   1.463   4.146   8.147 -0.1940 -0.2516  0.7200
 5896SOL    HW129321   1.472   4.089   8.223 -1.7395 -1.2014  0.1974
 5896SOL    HW229322   1.406   4.218   8.176 -0.4409 -0.6431  1.2041
 5897SOL     OW29323   0.179   3.199   9.729  0.1484  0.2222  0.2185
 5897SOL    HW129324   0.237   3.268   9.696 -1.5868 -0.0360 -3.4766
 5897SOL    HW229325   0.103   3.250   9.757  0.3435  0.9924 -0.6232
 5898SOL     OW29326   0.677   1.008   9.865  0.1268  0.7426 -0.6711
 5898SOL    HW129327   0.768   0.985   9.845  0.0436  0.7011 -0.9891
 5898SOL    HW229328   0.674   1.101   9.841 -0.1713  0.5311 -1.4381
 5899SOL     OW29329   0.683   0.086   3.647 -0.0213  0.1344 -0.3275
 5899SOL    HW129330   0.740   0.161   3.633 -0.4213  0.7626  1.3965
 5899SOL    HW229331   0.748   0.028   3.687 -0.1218  1.4266  1.7057
 5900SOL     OW29332   0.356   4.249   0.049  0.0698  0.4367 -0.5822
 5900SOL    HW129333   0.380   4.261  17.697  0.9062  0.2653 -0.3872
 5900SOL    HW229334   0.328   4.339   0.067 -0.9473 -0.3837  1.8298
 5901SOL     OW29335   0.839   2.602   5.267  0.4672  0.0907 -0.1922
 5901SOL    HW129336   0.768   2.538   5.263 -1.4902  2.1970  0.8016
 5901SOL    HW229337   0.873   2.587   5.355  1.7798  1.2102 -0.5063
 5902SOL     OW29338   0.521   1.168  13.941  0.6962  0.2595 -0.0669
 5902SOL    HW129339   0.543   1.134  13.854 -2.5429 -1.1984 -0.2936
 5902SOL    HW229340   0.530   1.261  13.920  1.5169 -0.1110 -1.4153
 5903SOL     OW29341   2.474   3.519   5.229  0.7657 -0.3775  0.1229
 5903SOL    HW129342   2.390   3.472   5.228  0.7463 -0.3615  0.8793
 5903SOL    HW229343   2.444   3.606   5.201 -1.7658 -1.5402 -0.8356
 5904SOL     OW29344   4.392   2.970  15.285 -0.4308  0.2651 -0.8976
 5904SOL    HW129345   4.473   2.927  15.313 -0.9950 -0.5571 -0.5564
 5904SOL    HW229346   4.343   2.897  15.248  0.2180 -0.9505  0.6595
 5905SOL     OW29347   1.029   3.833   2.615  0.1386  0.4206  0.2031
 5905SOL    HW129348   1.033   3.888   2.538  1.6476  2.5841  1.8327
 5905SOL    HW229349   1.115   3.845   2.654  0.3356 -2.3280  0.6431
 5906SOL     OW29350   2.026   0.699   1.268  0.8980 -0.0944  0.4771
 5906SOL    HW129351   1.954   0.701   1.331  0.9170  1.0370  0.4684
 5906SOL    HW229352   2.091   0.685   1.336 -1.2219  2.3774  3.0242
 5907SOL     OW29353   4.486   0.624   8.379  0.6274 -0.0011 -0.1343
 5907SOL    HW129354   4.514   0.681   8.451  0.9970 -0.9319  0.4679
 5907SOL    HW229355   4.416   0.683   8.351 -0.0044  0.5686  2.6818
 5908SOL     OW29356   0.754   3.330   6.868 -0.5333 -0.2113 -0.2427
 5908SOL    HW129357   0.716   3.308   6.783 -0.8456  1.1399 -0.4508
 5908SOL    HW229358   0.695   3.273   6.917 -2.1157  1.8113  0.1871
 5909SOL     OW29359   1.976   1.577   4.255 -0.1806 -0.3734  0.1242
 5909SOL    HW129360   1.901   1.577   4.195 -0.6436  1.8779  0.7177
 5909SOL    HW229361   1.997   1.670   4.252 -2.5897  0.1315 -1.1675
 5910SOL     OW29362   0.675   3.772   9.464  0.6588 -0.4947 -0.1501
 5910SOL    HW129363   0.615   3.782   9.391  0.5036 -1.7413 -0.1930
 5910SOL    HW229364   0.618   3.736   9.531 -1.3086  1.6016 -0.7130
 5911SOL     OW29365   3.543   4.031   3.801  0.0368  0.0427 -0.3760
 5911SOL    HW129366   3.607   4.049   3.870 -0.2432 -2.2381  0.4936
 5911SOL    HW229367   3.599   3.986   3.737  0.3144  0.5805 -0.5104
 5912SOL     OW29368   1.482   1.861  14.651 -0.8893 -0.1522  0.3426
 5912SOL    HW129369   1.555   1.805  14.680 -1.7240 -1.4779 -0.1095
 5912SOL    HW229370   1.526   1.903  14.577 -3.0942  1.2456 -0.1639
 5913SOL     OW29371   0.296   1.741   9.161  0.3265 -0.5548  0.0261
 5913SOL    HW129372   0.255   1.689   9.092  1.2141 -0.0941 -0.8387
 5913SOL    HW229373   0.383   1.703   9.159  0.6947  0.2295  0.9146
 5914SOL     OW29374   2.627   2.933  14.374  0.0622  0.1083 -0.2182
 5914SOL    HW129375   2.620   3.003  14.439  0.0496 -1.1025  1.0713
 5914SOL    HW229376   2.536   2.919  14.346  0.3190  0.1227 -1.0573
 5915SOL     OW29377   3.729   3.894   3.685  0.4225 -0.1654  0.0064
 5915SOL    HW129378   3.809   3.894   3.737  0.4274 -1.8600  0.0167
 5915SOL    HW229379   3.768   3.871   3.600 -0.7107 -2.6229  0.1380
 5916SOL     OW29380   0.361   2.259   1.416 -0.3437  0.5947 -0.1798
 5916SOL    HW129381   0.443   2.258   1.466 -0.3321  0.3375 -0.2041
 5916SOL    HW229382   0.335   2.167   1.410 -2.8256  1.2345  0.9932
 5917SOL     OW29383   1.346   4.436   2.272 -0.0932  0.2312 -0.1028
 5917SOL    HW129384   1.313   4.352   2.302  1.4246 -0.6372 -0.9054
 5917SOL    HW229385   1.297   4.483   2.340  1.6749  0.8641  0.7413
 5918SOL     OW29386   1.388   3.794   8.317  0.4239 -0.2301 -0.5126
 5918SOL    HW129387   1.451   3.840   8.373  0.0382  1.7441 -1.7006
 5918SOL    HW229388   1.341   3.768   8.397 -1.2303  3.0416 -0.3836
 5919SOL     OW29389   0.704   4.456   4.285  0.0746  0.4180 -0.0306
 5919SOL    HW129390   0.772   4.404   4.243 -0.8413  0.2280 -1.2896
 5919SOL    HW229391   0.732   4.476   4.374 -0.9079 -2.1623  0.8733
 5920SOL     OW29392   0.509   4.156  12.281 -0.1180  0.3400 -0.7618
 5920SOL    HW129393   0.489   4.230  12.224 -0.1521  0.4334 -0.6296
 5920SOL    HW229394   0.471   4.198  12.359 -1.2568 -1.6394 -0.2522
 5921SOL     OW29395   4.314   2.543   5.851  0.4154 -0.2887  0.3038
 5921SOL    HW129396   4.340   2.548   5.943  0.6063 -1.0536  0.2968
 5921SOL    HW229397   4.251   2.614   5.842  0.9289  0.0035 -0.9641
 5922SOL     OW29398   0.583   4.045   5.679  0.1644  0.2928  0.3948
 5922SOL    HW129399   0.553   4.136   5.673 -0.0459  0.3230  1.9924
 5922SOL    HW229400   0.661   4.045   5.624 -0.1124 -1.7089  0.0044
 5923SOL     OW29401   1.320   0.269   6.357  0.3122 -0.1949 -0.3415
 5923SOL    HW129402   1.232   0.249   6.327 -0.2373  1.4393  0.1500
 5923SOL    HW229403   1.371   0.204   6.310 -1.4319 -1.9228  0.1752
 5924SOL     OW29404   1.302   1.954   3.867  0.3244 -0.9497  0.2076
 5924SOL    HW129405   1.229   1.975   3.809  0.1943  1.0535  1.0976
 5924SOL    HW229406   1.276   1.865   3.892  0.7482 -0.3311  2.8596
 5925SOL     OW29407   2.267   4.716   8.050  0.1855 -0.3871  0.4210
 5925SOL    HW129408   2.218   4.697   8.131  2.0321 -0.0120  1.6147
 5925SOL    HW229409   2.243   0.073   8.045  0.6021 -0.3289 -0.4822
 5926SOL     OW29410   2.987   4.663   9.684  0.7536  0.1377 -0.0174
 5926SOL    HW129411   2.991   4.568   9.691  0.7485  0.1555  0.2398
 5926SOL    HW229412   3.055   4.680   9.749  0.5088  1.0946 -0.0052
 5927SOL     OW29413   1.051   0.346   1.732 -0.3744 -0.1236  0.6085
 5927SOL    HW129414   1.000   0.424   1.709  0.9977  0.4657 -0.4450
 5927SOL    HW229415   1.090   0.326   1.647  0.2274  2.9987  0.1425
 5928SOL     OW29416   3.896   1.031   6.802 -0.4133 -0.0120  0.2902
 5928SOL    HW129417   3.851   0.952   6.831  0.1186 -0.2741  0.4018
 5928SOL    HW229418   3.978   0.998   6.766 -0.0794 -0.4158  1.4280
 5929SOL     OW29419   4.272   2.386   7.363 -0.1314 -0.0752 -0.2834
 5929SOL    HW129420   4.266   2.319   7.294  0.3215  0.6207 -1.0029
 5929SOL    HW229421   4.304   2.458   7.308  0.3903 -1.8304 -2.2970
 5930SOL     OW29422   3.055   4.059   7.109  0.6936  0.3352 -0.1277
 5930SOL    HW129423   3.017   4.111   7.038  1.7139  2.1866  0.7050
 5930SOL    HW229424   3.130   4.016   7.069  1.5435  1.4321  0.3100
 5931SOL     OW29425   0.781   3.550   3.380  0.2535  0.2409 -0.8224
 5931SOL    HW129426   0.723   3.477   3.401  0.0430  0.7125  0.2661
 5931SOL    HW229427   0.859   3.509   3.343  0.7141  1.8163 -1.5932
 5932SOL     OW29428   0.883   1.417  11.462  0.4766 -0.1972  0.2878
 5932SOL    HW129429   0.869   1.481  11.393 -0.6625  1.0756  1.7052
 5932SOL    HW229430   0.794   1.381  11.468 -0.4623  2.0321 -0.1599
 5933SOL     OW29431   1.543   3.817   7.859  0.3233 -0.1936  0.0389
 5933SOL    HW129432   1.476   3.877   7.892  0.9238  1.1212 -1.1530
 5933SOL    HW229433   1.503   3.799   7.774  0.2025  2.2198 -0.4290
 5934SOL     OW29434   3.008   1.160   7.474 -0.0933  0.2296  0.5844
 5934SOL    HW129435   2.968   1.077   7.501  0.0905 -0.1550 -0.3227
 5934SOL    HW229436   2.933   1.216   7.459 -1.0180 -0.4650  2.6180
 5935SOL     OW29437   1.087   2.599   9.054 -0.3183 -0.4254 -0.3433
 5935SOL    HW129438   0.997   2.576   9.075 -0.7451  2.1841  0.6842
 5935SOL    HW229439   1.086   2.695   9.054  0.6395 -0.4159 -0.2373
 5936SOL     OW29440   1.559   0.439   1.414 -0.4682  0.1917 -0.2216
 5936SOL    HW129441   1.526   0.353   1.390 -3.3778  0.2773  3.5681
 5936SOL    HW229442   1.607   0.408   1.491  1.7295  4.1815  0.0480
 5937SOL     OW29443   2.039   1.786   3.035  0.1820  0.3869  0.0649
 5937SOL    HW129444   2.081   1.763   3.118 -1.8363 -1.6719  0.4800
 5937SOL    HW229445   2.036   1.881   3.048 -0.5269  0.5934 -1.6356
 5938SOL     OW29446   1.518   1.295   1.635 -0.0370  0.6093 -0.6947
 5938SOL    HW129447   1.529   1.338   1.720  1.1400 -0.8359 -0.1170
 5938SOL    HW229448   1.544   1.370   1.581  0.9311  1.3926  0.8533
 5939SOL     OW29449   1.078   0.450   1.987 -0.5750  0.0207 -0.4276
 5939SOL    HW129450   1.079   0.419   1.897  1.2275  0.3550 -0.5324
 5939SOL    HW229451   1.077   0.373   2.044  1.0945  0.5841  0.3554
 5940SOL     OW29452   2.550   1.458   3.221 -0.0890  0.0642  0.3485
 5940SOL    HW129453   2.608   1.393   3.260  0.5739 -0.1560 -1.0033
 5940SOL    HW229454   2.602   1.539   3.220  0.7564 -0.4580  2.2625
 5941SOL     OW29455   0.012   0.112   5.508 -0.1991  0.3576  0.1723
 5941SOL    HW129456   4.654   0.089   5.512 -0.3121  0.6271 -1.1099
 5941SOL    HW229457   0.017   0.105   5.413 -1.2894 -3.6196  0.3975
 5942SOL     OW29458   2.954   3.256   3.359 -0.1417  0.1966 -0.3651
 5942SOL    HW129459   2.982   3.197   3.288 -2.2837  1.0761 -1.9077
 5942SOL    HW229460   3.029   3.254   3.420  0.6461  0.9778 -1.3161
 5943SOL     OW29461   2.510   4.583   0.846  0.1622 -0.3440 -0.6103
 5943SOL    HW129462   2.435   4.525   0.836  0.5206 -1.3044  2.3817
 5943SOL    HW229463   2.556   4.536   0.915 -1.5048  1.5832  1.7937
 5944SOL     OW29464   2.578   3.770   4.941 -0.0114 -0.3841 -0.1744
 5944SOL    HW129465   2.560   3.789   5.033  2.5589 -0.9427  0.4615
 5944SOL    HW229466   2.674   3.772   4.946  0.1262  0.7397 -3.7636
 5945SOL     OW29467   3.562   1.157   0.882  0.0450  0.1219  0.1577
 5945SOL    HW129468   3.530   1.212   0.953 -0.8277 -0.1581 -0.0198
 5945SOL    HW229469   3.595   1.219   0.818 -0.1717  0.8333  0.7377
 5946SOL     OW29470   4.557   3.744  14.702  0.6789  0.3418  0.4409
 5946SOL    HW129471   4.471   3.708  14.682  1.3067 -1.0511  0.2392
 5946SOL    HW229472   4.582   3.687  14.775 -1.9340 -0.6379  0.5555
 5947SOL     OW29473   4.078   1.102  11.881  0.6033  0.5535  0.5268
 5947SOL    HW129474   3.983   1.105  11.866  0.7977  0.5548 -0.6953
 5947SOL    HW229475   4.083   1.074  11.972  0.4452  2.0593  0.9989
 5948SOL     OW29476   1.017   3.243   1.822  0.2367  0.3903 -0.5605
 5948SOL    HW129477   0.948   3.198   1.871 -0.6748 -1.1667 -3.3039
 5948SOL    HW229478   1.088   3.180   1.822 -0.5636 -0.5229 -0.5705
 5949SOL     OW29479   0.459   4.362   2.078  0.2133  0.2424 -0.0693
 5949SOL    HW129480   0.382   4.383   2.025  1.0417  0.3535 -1.2258
 5949SOL    HW229481   0.442   4.268   2.084  3.2122 -0.3799 -1.6402
 5950SOL     OW29482   2.782   2.952   4.867  0.3595  0.3083  0.0747
 5950SOL    HW129483   2.782   2.991   4.955 -0.6926  0.1080  0.1641
 5950SOL    HW229484   2.856   2.896   4.887 -1.0350 -1.6210 -0.2170
 5951SOL     OW29485   1.374   4.242   4.633  0.5876  0.2481  0.2317
 5951SOL    HW129486   1.466   4.214   4.632  0.0311 -1.6030  2.2121
 5951SOL    HW229487   1.350   4.193   4.554 -0.4032 -1.1080  1.3912
 5952SOL     OW29488   3.518   1.366   2.216  0.2322 -1.0909  0.2609
 5952SOL    HW129489   3.485   1.372   2.126 -0.6657  1.5836  0.7749
 5952SOL    HW229490   3.435   1.347   2.258  0.0148  0.7578  0.6646
 5953SOL     OW29491   0.624   3.485  16.280 -0.4094 -0.1864  0.1509
 5953SOL    HW129492   0.611   3.393  16.258 -0.1357 -0.2241  0.1488
 5953SOL    HW229493   0.673   3.476  16.361 -0.7797  1.0703  0.5115
 5954SOL     OW29494   4.564   0.167   2.194 -0.5274 -0.1491  0.3857
 5954SOL    HW129495   4.538   0.078   2.170  0.6489 -0.4640  0.2509
 5954SOL    HW229496   4.545   0.209   2.110  0.2787 -0.9036 -0.1781
 5955SOL     OW29497   3.356   2.362   7.607 -0.2324  0.1889 -0.2788
 5955SOL    HW129498   3.376   2.273   7.578  0.1813 -0.5329  2.1680
 5955SOL    HW229499   3.327   2.403   7.526 -1.3702  0.3005  0.1930
 5956SOL     OW29500   2.331   0.432   8.598  0.0784  0.8746  0.7265
 5956SOL    HW129501   2.355   0.445   8.506  0.5522  0.8692  0.8527
 5956SOL    HW229502   2.356   0.518   8.630  1.3504  0.4772  0.8129
 5957SOL     OW29503   3.699   1.903   6.871 -0.2654 -0.2404  0.0486
 5957SOL    HW129504   3.606   1.915   6.849  0.2083 -2.3210 -3.0597
 5957SOL    HW229505   3.736   1.991   6.871 -0.5417 -0.1178 -3.7287
 5958SOL     OW29506   4.393   2.478   1.738  0.1751 -0.6580  0.7989
 5958SOL    HW129507   4.459   2.516   1.796 -0.8731  2.4454 -0.0288
 5958SOL    HW229508   4.326   2.545   1.754  0.6114  0.1789 -0.9713
 5959SOL     OW29509   1.605   3.452  16.657  0.5144 -0.0049  0.2435
 5959SOL    HW129510   1.511   3.431  16.658  0.8573 -1.5401  0.7709
 5959SOL    HW229511   1.618   3.449  16.562  0.7965 -1.0097  0.3123
 5960SOL     OW29512   0.107   4.270   4.096 -0.1729  0.3790  0.1755
 5960SOL    HW129513   0.033   4.275   4.157  0.1433 -1.0101  0.6663
 5960SOL    HW229514   0.101   4.356   4.054  0.8908  1.6455  2.5769
 5961SOL     OW29515   1.906   4.644   2.784 -0.1304  0.0772  0.6344
 5961SOL    HW129516   1.830   4.670   2.835 -1.8654 -3.1210 -0.3221
 5961SOL    HW229517   1.975   4.662   2.848  1.4027 -0.4287 -0.8607
 5962SOL     OW29518   2.196   2.758  11.803 -0.3672 -0.4310 -0.2697
 5962SOL    HW129519   2.113   2.772  11.849  0.8325  1.2734  1.3470
 5962SOL    HW229520   2.260   2.759  11.875  2.4974  0.1623 -2.8207
 5963SOL     OW29521   0.259   4.629  12.247  0.7126  0.2783 -0.5161
 5963SOL    HW129522   0.238   4.722  12.263  2.3866  0.3326  1.3345
 5963SOL    HW229523   0.200   4.579  12.303  1.5913  1.2217  1.2649
 5964SOL     OW29524   3.686   3.035   9.036 -0.1625  0.2447  0.3782
 5964SOL    HW129525   3.652   3.014   9.123  0.8974  0.3226  0.8210
 5964SOL    HW229526   3.621   3.087   8.990 -0.6743 -1.2462 -0.5698
 5965SOL     OW29527   2.257   3.861   3.045  0.1102 -0.1493  0.4184
 5965SOL    HW129528   2.215   3.777   3.063 -0.3201  0.0833  0.4786
 5965SOL    HW229529   2.349   3.837   3.058  1.0676  1.2792 -3.9698
 5966SOL     OW29530   0.880   0.027   1.086  0.2242 -0.5593  0.0737
 5966SOL    HW129531   0.794   0.065   1.099  0.8735  1.1804 -0.6723
 5966SOL    HW229532   0.911   0.072   1.007 -0.2740 -0.6642 -0.1812
 5967SOL     OW29533   0.755   3.386   2.015  0.1396 -0.2093 -0.3396
 5967SOL    HW129534   0.717   3.317   2.069  1.7624 -0.1938  0.8153
 5967SOL    HW229535   0.808   3.334   1.955 -0.1096 -0.0381 -0.7094
 5968SOL     OW29536   0.437   1.605   1.473  1.0115 -0.5495 -0.2924
 5968SOL    HW129537   0.468   1.695   1.475 -2.0622  0.5484 -0.8652
 5968SOL    HW229538   0.368   1.620   1.408  0.4161  2.9534  1.1574
 5969SOL     OW29539   3.288   1.400   5.700 -0.0981  0.3357  0.0372
 5969SOL    HW129540   3.354   1.403   5.769 -1.7736  1.1396  1.5847
 5969SOL    HW229541   3.279   1.305   5.689 -2.6460  0.5685  0.2064
 5970SOL     OW29542   0.721   4.512   3.217 -0.3417 -0.4680 -0.2278
 5970SOL    HW129543   0.679   4.589   3.180  0.0855 -0.4972 -0.7813
 5970SOL    HW229544   0.688   4.522   3.306 -0.2632  0.1530 -0.2698
 5971SOL     OW29545   1.302   3.677   5.433  0.4286 -0.4257 -0.5130
 5971SOL    HW129546   1.242   3.653   5.363  1.5647  0.0890 -1.6627
 5971SOL    HW229547   1.298   3.591   5.476  0.6876 -0.4318 -0.4979
 5972SOL     OW29548   3.035   1.534   5.098  0.3691 -0.1161  0.1737
 5972SOL    HW129549   2.986   1.570   5.025  0.9691  1.5735  0.6007
 5972SOL    HW229550   2.986   1.452   5.104 -0.8218  0.7186  2.1763
 5973SOL     OW29551   0.251   0.621  11.767 -0.2139 -0.0411  0.2354
 5973SOL    HW129552   0.339   0.628  11.731 -0.0883 -1.1741  0.3368
 5973SOL    HW229553   0.196   0.680  11.715 -1.5399 -1.1894  0.3415
 5974SOL     OW29554   0.436   1.038  11.611 -0.6583 -0.4244  0.5499
 5974SOL    HW129555   0.497   0.966  11.599 -0.8137 -0.5033  0.2506
 5974SOL    HW229556   0.459   1.068  11.699 -0.7887  2.3566 -0.3752
 5975SOL     OW29557   0.427   0.542   9.820 -0.3095  0.3708  0.2467
 5975SOL    HW129558   0.500   0.597   9.791  0.0511 -1.0266 -1.4508
 5975SOL    HW229559   0.457   0.453   9.804  1.8023  1.2286 -0.5367
 5976SOL     OW29560   3.762   1.787   4.324 -0.2413  0.0652 -0.1628
 5976SOL    HW129561   3.849   1.764   4.358 -0.3390 -0.2535 -0.1305
 5976SOL    HW229562   3.776   1.791   4.230  1.5900  3.1810  0.2070
 5977SOL     OW29563   2.614   1.374   8.451  0.0418 -0.1220 -0.4097
 5977SOL    HW129564   2.523   1.377   8.481  0.3009 -2.7451  0.6000
 5977SOL    HW229565   2.644   1.449   8.502  1.1191  0.9050 -2.5370
 5978SOL     OW29566   3.525   1.975   5.881  0.1738 -0.7433 -0.2607
 5978SOL    HW129567   3.617   1.968   5.906  0.1058 -1.4964 -0.2205
 5978SOL    HW229568   3.523   1.943   5.791  2.0941  2.0672 -1.2860
 5979SOL     OW29569   0.830   0.982  11.483 -0.3572 -0.1008 -0.4485
 5979SOL    HW129570   0.830   0.922  11.408 -0.4543 -0.0585 -0.4824
 5979SOL    HW229571   0.896   1.045  11.454 -1.8413  0.6046 -2.2725
 5980SOL     OW29572   1.580   0.832   9.188  0.7253  0.0462  0.0758
 5980SOL    HW129573   1.658   0.827   9.132  0.3205  2.1388 -0.6652
 5980SOL    HW229574   1.556   0.740   9.193 -2.1903  0.9499  2.8917
 5981SOL     OW29575   3.894   3.187  15.300 -0.4632  0.2764 -0.3165
 5981SOL    HW129576   3.864   3.181  15.209 -1.2080 -1.2833  0.0162
 5981SOL    HW229577   3.888   3.094  15.323 -1.3527 -0.2740 -2.6892
 5982SOL     OW29578   0.687   0.887   3.533  0.6143  0.7680 -1.0892
 5982SOL    HW129579   0.659   0.969   3.574  0.9073 -0.0316  0.7217
 5982SOL    HW229580   0.753   0.905   3.466  0.9456  1.5190 -0.5669
 5983SOL     OW29581   0.961   2.578   9.723  0.1927 -0.7315 -0.4703
 5983SOL    HW129582   0.958   2.503   9.664  0.3788 -0.5588 -0.6959
 5983SOL    HW229583   0.984   2.537   9.806 -0.6823 -0.5517 -0.1380
 5984SOL     OW29584   1.538   3.898   4.591  0.3382 -0.4075 -0.1155
 5984SOL    HW129585   1.511   3.852   4.670  2.2813  1.5486  1.6796
 5984SOL    HW229586   1.550   3.819   4.539 -2.1048 -0.5578 -0.4837
 5985SOL     OW29587   2.591   2.461   4.744 -0.3844  0.1311 -0.6451
 5985SOL    HW129588   2.646   2.444   4.667 -0.3278 -0.4079 -0.4842
 5985SOL    HW229589   2.516   2.497   4.697 -1.2264  0.2958  0.8345
 5986SOL     OW29590   1.638   0.730   1.702  0.4034 -0.6292  0.3404
 5986SOL    HW129591   1.700   0.722   1.774  1.5580  3.4353 -0.2059
 5986SOL    HW229592   1.576   0.785   1.751  1.4653 -2.2724  3.5410
 5987SOL     OW29593   3.288   2.537  11.369 -0.3368  0.6028  0.9692
 5987SOL    HW129594   3.221   2.604  11.384  0.7108  1.6727  0.9609
 5987SOL    HW229595   3.276   2.541  11.274  1.7488  1.5654  0.7333
 5988SOL     OW29596   1.944   2.094   4.139 -0.4035  0.1876 -0.5183
 5988SOL    HW129597   2.032   2.123   4.114 -0.0018 -0.8501 -0.2793
 5988SOL    HW229598   1.945   2.094   4.234 -0.2527  0.7785 -0.5154
 5989SOL     OW29599   1.444   0.591  14.710 -0.0613 -0.2092  0.4257
 5989SOL    HW129600   1.369   0.533  14.696  0.1736 -0.9649  2.3692
 5989SOL    HW229601   1.511   0.523  14.704  0.5562  0.4005  0.4685
 5990SOL     OW29602   4.732   3.243   8.125  0.3524 -0.5733  0.0740
 5990SOL    HW129603   4.722   3.320   8.070 -0.8874  1.8221  3.6644
 5990SOL    HW229604   4.643   3.230   8.157 -0.0553 -0.5300 -1.0534
 5991SOL     OW29605   1.836   2.879   9.574  0.3803 -0.6734  0.2838
 5991SOL    HW129606   1.911   2.825   9.549  0.4493  0.1576 -1.2518
 5991SOL    HW229607   1.813   2.912   9.487 -0.3519  2.0574  1.5051
 5992SOL     OW29608   1.373   1.895  16.296 -0.7371 -0.2453 -0.1437
 5992SOL    HW129609   1.377   1.874  16.389  2.9489  0.3059 -0.1942
 5992SOL    HW229610   1.424   1.827  16.251 -0.1245 -1.5534  2.5666
 5993SOL     OW29611   4.419   4.630   2.372 -0.0816  0.0980  0.1993
 5993SOL    HW129612   4.511   4.654   2.375  0.0702 -0.4249 -0.4601
 5993SOL    HW229613   4.419   4.643   2.277 -1.2639  2.2137  0.4734
 5994SOL     OW29614   2.191   1.776   5.165  0.7008 -0.2930 -0.7686
 5994SOL    HW129615   2.200   1.766   5.260  1.6247  2.3870 -0.5834
 5994SOL    HW229616   2.212   1.869   5.158  2.1692 -0.4648  1.2747
 5995SOL     OW29617   2.394   1.619   5.614 -0.4536  0.3166  0.2276
 5995SOL    HW129618   2.442   1.697   5.642  2.8285 -1.6570  0.1003
 5995SOL    HW229619   2.461   1.555   5.589 -2.2552 -0.6945 -1.9870
 5996SOL     OW29620   1.932   3.166  12.932 -0.0473 -0.1792 -0.5452
 5996SOL    HW129621   1.952   3.079  12.896 -1.2913 -0.7907  0.2404
 5996SOL    HW229622   2.012   3.194  12.976  0.1547  0.5530 -1.3821
 5997SOL     OW29623   2.279   2.423   3.278 -0.6284 -0.4992 -0.3461
 5997SOL    HW129624   2.365   2.382   3.277 -0.4126 -0.0339 -0.5084
 5997SOL    HW229625   2.231   2.376   3.347  0.0983 -0.3666  0.2612
 5998SOL     OW29626   3.586   1.088  16.879 -0.3249  0.0156  0.4732
 5998SOL    HW129627   3.658   1.107  16.938 -0.2328 -1.0110  0.6901
 5998SOL    HW229628   3.523   1.151  16.915  0.7310  2.2499 -1.5420
 5999SOL     OW29629   2.864   2.804  14.596  0.1780 -0.1705 -0.6748
 5999SOL    HW129630   2.801   2.773  14.531 -0.5706 -0.6759  0.2924
 5999SOL    HW229631   2.942   2.806  14.540  2.3344  1.8144  2.4136
 6000SOL     OW29632   2.372   1.820   2.172  0.3576  0.3116 -0.6170
 6000SOL    HW129633   2.466   1.800   2.179 -0.1959 -2.3286 -0.9541
 6000SOL    HW229634   2.375   1.894   2.233  3.8707 -0.5526  0.2762
 6001SOL     OW29635   2.920   2.527   5.535 -0.2015  0.1064 -0.2249
 6001SOL    HW129636   2.939   2.621   5.538  1.4155 -0.2023 -0.6555
 6001SOL    HW229637   2.879   2.512   5.620  3.1047  0.6052  1.4655
 6002SOL     OW29638   2.603   1.060   4.694  0.2434  0.3068 -0.0588
 6002SOL    HW129639   2.591   1.060   4.599  1.7349 -0.7330 -0.2597
 6002SOL    HW229640   2.645   1.144   4.712  1.0195  0.3502 -2.1194
 6003SOL     OW29641   0.472   0.914  15.428 -0.1618  0.3147  0.4260
 6003SOL    HW129642   0.391   0.962  15.416 -0.4221 -1.0188 -3.1993
 6003SOL    HW229643   0.501   0.907  15.337  0.9868  0.1281  0.8011
 6004SOL     OW29644   1.060   0.381   8.947 -0.2946  0.1651 -0.4919
 6004SOL    HW129645   1.137   0.332   8.916  1.3639  1.5095  1.4951
 6004SOL    HW229646   1.101   0.450   8.999  0.9443 -2.1081  1.5462
 6005SOL     OW29647   1.028   1.297   4.392  0.1756 -0.0471  0.0662
 6005SOL    HW129648   0.975   1.369   4.358 -0.4192  0.2404  1.5706
 6005SOL    HW229649   1.098   1.343   4.438  1.3977 -0.8479 -0.9951
 6006SOL     OW29650   1.840   4.489  13.643 -0.0530  0.4541  0.3622
 6006SOL    HW129651   1.860   4.580  13.664  0.9831 -0.1088  1.7668
 6006SOL    HW229652   1.783   4.469  13.717 -1.1537  0.1699 -0.5517
 6007SOL     OW29653   0.383   1.691   1.808  0.0140 -0.3437  0.1633
 6007SOL    HW129654   0.402   1.688   1.901  2.9880  0.3353 -0.4208
 6007SOL    HW229655   0.451   1.631   1.776 -0.7908 -1.0088 -0.3277
 6008SOL     OW29656   1.713   0.405   1.158 -0.3103 -0.1571 -0.1803
 6008SOL    HW129657   1.758   0.321   1.165  1.8384  1.0928  1.0733
 6008SOL    HW229658   1.662   0.410   1.238 -0.4402 -0.7835 -0.2272
 6009SOL     OW29659   2.312   4.460   5.874  0.1469  0.1001  0.2176
 6009SOL    HW129660   2.287   4.398   5.944  0.9679 -1.1666 -0.6148
 6009SOL    HW229661   2.387   4.495   5.923  1.0741 -1.5942  0.0143
 6010SOL     OW29662   3.337   3.615   4.499  0.4574 -0.6035  0.0957
 6010SOL    HW129663   3.346   3.707   4.523 -1.2891 -0.5639  0.5773
 6010SOL    HW229664   3.249   3.622   4.461  0.9114  3.0238 -0.2584
 6011SOL     OW29665   3.852   0.503   4.246 -0.5270 -0.7476 -0.0979
 6011SOL    HW129666   3.913   0.499   4.172  1.7684 -0.3072  1.7647
 6011SOL    HW229667   3.792   0.565   4.205 -0.9438 -0.4628  0.9421
 6012SOL     OW29668   3.836   4.442   3.663 -0.3652 -0.0218  0.6736
 6012SOL    HW129669   3.845   4.534   3.686 -0.5269 -0.0515  0.8561
 6012SOL    HW229670   3.896   4.426   3.590 -0.1227  0.0480  0.8560
 6013SOL     OW29671   2.248   1.426  15.321 -0.4991  0.0749 -0.2698
 6013SOL    HW129672   2.215   1.357  15.264 -1.1681  0.6774 -0.6125
 6013SOL    HW229673   2.315   1.470  15.269  1.6325 -0.1785  2.2337
 6014SOL     OW29674   4.323   2.552   6.875  0.0765 -0.1888 -0.3436
 6014SOL    HW129675   4.261   2.613   6.837  1.2086 -0.0405 -1.9501
 6014SOL    HW229676   4.282   2.466   6.875  0.1636 -0.2264 -1.3694
 6015SOL     OW29677   0.972   0.654   9.053 -0.2803  0.0515 -0.2244
 6015SOL    HW129678   0.937   0.567   9.071  1.2464 -0.6026 -0.4439
 6015SOL    HW229679   0.888   0.700   9.060 -0.3131  0.0004 -0.2781
 6016SOL     OW29680   2.792   0.441   6.938 -0.0727 -0.1710 -0.9621
 6016SOL    HW129681   2.797   0.426   7.033  3.6565  0.4543 -1.0706
 6016SOL    HW229682   2.712   0.391   6.921 -0.8067  0.5185  0.4725
 6017SOL     OW29683   4.690   1.844   7.125  0.1836 -0.0645 -0.5142
 6017SOL    HW129684   0.027   1.898   7.093  1.0542 -1.0391 -0.2117
 6017SOL    HW229685   4.606   1.864   7.084 -0.1470 -0.6759 -0.1353
 6018SOL     OW29686   1.241   0.537   9.072  0.4207  0.1830  0.0112
 6018SOL    HW129687   1.231   0.535   9.167 -1.1967 -0.6519 -0.1718
 6018SOL    HW229688   1.324   0.583   9.060  1.2439 -1.6014 -1.0738
 6019SOL     OW29689   0.733   4.706   8.196 -0.2996 -0.1722  0.3287
 6019SOL    HW129690   0.663   0.037   8.197 -1.2130 -1.0959 -1.9735
 6019SOL    HW229691   0.751   4.694   8.103 -1.2283 -0.1245  0.1415
 6020SOL     OW29692   4.666   0.118   1.669  0.1528  0.2805 -0.7120
 6020SOL    HW129693   4.720   0.060   1.616  0.8984 -0.4386  0.8562
 6020SOL    HW229694   4.580   0.131   1.629  0.0495  0.5841 -0.3884
 6021SOL     OW29695   4.730   1.232   3.085 -0.4106  0.1247  0.6195
 6021SOL    HW129696   4.644   1.237   3.044 -0.8377  1.8691  1.7445
 6021SOL    HW229697   0.018   1.139   3.085 -2.6746 -0.4437  1.9300
 6022SOL     OW29698   4.520   2.369   1.520 -0.2313 -0.0164  0.0010
 6022SOL    HW129699   4.608   2.371   1.558 -0.3246  1.1498  0.1446
 6022SOL    HW229700   4.468   2.406   1.591  1.3479  0.7828  0.7387
 6023SOL     OW29701   0.037   2.044   7.524 -0.4066  0.4564 -0.2811
 6023SOL    HW129702   4.706   2.027   7.457 -1.9199  0.0623  1.3217
 6023SOL    HW229703   4.732   1.995   7.595 -2.0006  0.4605 -1.1859
 6024SOL     OW29704   1.839   2.581   8.668  0.3210  0.5779  0.3965
 6024SOL    HW129705   1.914   2.640   8.665  0.1859  0.8077  1.7162
 6024SOL    HW229706   1.836   2.551   8.759  0.5066  0.0695  0.2337
 6025SOL     OW29707   0.857   0.063   7.258 -0.1178  0.4873  0.4410
 6025SOL    HW129708   0.817   0.091   7.176 -2.6561 -0.8399  1.2469
 6025SOL    HW229709   0.939   0.031   7.220  1.0322  1.5736  1.9856
 6026SOL     OW29710   3.378   2.360   1.031 -0.2807  0.3768 -0.0947
 6026SOL    HW129711   3.453   2.349   1.089 -0.7487  2.1034  0.8350
 6026SOL    HW229712   3.367   2.280   0.979 -0.4979 -0.7123  1.6537
 6027SOL     OW29713   0.528   2.454   5.535  0.0708 -0.1261 -0.6435
 6027SOL    HW129714   0.488   2.400   5.466 -1.3665 -1.1501  0.9821
 6027SOL    HW229715   0.451   2.484   5.584  1.0432  0.0993  0.7252
 6028SOL     OW29716   0.954   4.137   2.196 -0.0154 -0.3550 -0.0767
 6028SOL    HW129717   0.895   4.173   2.262 -1.5504  0.4764 -1.9062
 6028SOL    HW229718   0.918   4.172   2.115  0.7048  2.0979  0.6424
 6029SOL     OW29719   1.107   0.875   6.160  0.6489 -0.0849 -0.1409
 6029SOL    HW129720   1.111   0.957   6.110 -3.3068 -0.3619 -0.9299
 6029SOL    HW229721   1.013   0.860   6.165  0.9957 -1.9273  0.6370
 6030SOL     OW29722   4.193   2.247   3.533 -0.4444 -0.4427 -0.5149
 6030SOL    HW129723   4.121   2.236   3.471  0.2250 -1.8568 -1.0413
 6030SOL    HW229724   4.247   2.170   3.513  3.3324  1.9516  0.4300
 6031SOL     OW29725   2.760   1.437   2.853 -0.2889 -0.3521 -0.0893
 6031SOL    HW129726   2.815   1.485   2.915  2.3969 -2.4515 -0.8889
 6031SOL    HW229727   2.686   1.498   2.851  0.2713  0.2470 -2.2702
 6032SOL     OW29728   0.780   2.308  13.940 -0.2927 -0.5872 -0.2616
 6032SOL    HW129729   0.759   2.399  13.963 -0.4307 -0.9753  1.1062
 6032SOL    HW229730   0.875   2.320  13.936 -0.1797 -1.5109 -0.3817
 6033SOL     OW29731   4.246   2.497   1.373 -0.3974 -0.2529 -0.2914
 6033SOL    HW129732   4.199   2.442   1.435 -2.0091  1.3167 -0.1158
 6033SOL    HW229733   4.340   2.482   1.383 -0.7460 -1.0715  1.5833
 6034SOL     OW29734   2.787   3.863   8.038  0.0271 -0.2740  0.1254
 6034SOL    HW129735   2.723   3.921   7.996  0.2784 -2.2185 -2.9755
 6034SOL    HW229736   2.867   3.892   7.994  0.0905  1.8374  1.6517
 6035SOL     OW29737   0.012   0.641   4.775 -0.4390 -0.1129  0.3686
 6035SOL    HW129738   4.707   0.675   4.695 -0.0221  1.5221  0.8337
 6035SOL    HW229739   0.016   0.722   4.827  0.0176  0.2277 -0.1900
 6036SOL     OW29740   2.342   2.026   1.320  0.8836  0.8009  0.0169
 6036SOL    HW129741   2.304   1.968   1.385  2.5055  0.6350  0.8025
 6036SOL    HW229742   2.349   2.113   1.359 -0.8218 -0.2229  2.5743
 6037SOL     OW29743   3.284   4.137  15.180 -0.0889  0.4483 -0.7959
 6037SOL    HW129744   3.300   4.093  15.263 -1.7631 -0.0674 -0.7518
 6037SOL    HW229745   3.365   4.188  15.169 -0.0646  0.5913  0.0702
 6038SOL     OW29746   1.168   2.732   2.740 -1.0509  0.3399  0.3852
 6038SOL    HW129747   1.120   2.650   2.727 -0.4062 -0.0087  0.1724
 6038SOL    HW229748   1.178   2.734   2.835 -1.1682 -0.2052  0.4099
 6039SOL     OW29749   3.127   4.557  12.152  0.1713  0.2156  0.2187
 6039SOL    HW129750   3.183   4.629  12.124 -0.9947  0.8736 -0.3599
 6039SOL    HW229751   3.154   4.486  12.093  0.1529 -0.0050  0.4725
 6040SOL     OW29752   2.805   2.422   9.675  0.5063  0.3781  0.1750
 6040SOL    HW129753   2.858   2.501   9.667  1.8148 -0.7219 -1.8229
 6040SOL    HW229754   2.865   2.352   9.699 -0.8546 -1.1279 -0.8042
 6041SOL     OW29755   3.994   3.203   2.689 -0.4815 -0.3878  0.1291
 6041SOL    HW129756   4.007   3.192   2.783 -0.3445 -0.0759  0.1463
 6041SOL    HW229757   3.973   3.296   2.682 -1.2662 -0.4653  1.4620
 6042SOL     OW29758   1.697   3.449   2.897 -0.0389  0.8020  0.2590
 6042SOL    HW129759   1.744   3.381   2.848 -1.7152  0.6073 -1.1135
 6042SOL    HW229760   1.616   3.407   2.925  0.6142  0.7163  1.9676
 6043SOL     OW29761   4.335   3.992  13.851  0.1376  0.6652  0.0743
 6043SOL    HW129762   4.350   3.924  13.786 -2.3195 -0.2475  0.4875
 6043SOL    HW229763   4.385   3.953  13.923  0.5918 -1.8328 -1.6211
 6044SOL     OW29764   0.628   0.493   6.582  0.4410 -0.0635 -0.2479
 6044SOL    HW129765   0.639   0.435   6.507 -1.4783  0.2696 -0.7852
 6044SOL    HW229766   0.715   0.489   6.620  2.0732  3.3016 -3.5540
 6045SOL     OW29767   0.338   0.753   4.254 -0.2855  0.6095  0.2076
 6045SOL    HW129768   0.297   0.674   4.219  1.5493 -0.6718  0.9522
 6045SOL    HW229769   0.382   0.783   4.173  0.2265  1.3697  0.7604
 6046SOL     OW29770   4.165   2.523   0.669  0.5123 -0.0602 -0.4916
 6046SOL    HW129771   4.204   2.442   0.635 -0.2551 -0.3425 -0.6880
 6046SOL    HW229772   4.077   2.489   0.688 -0.3222  1.3180 -1.9037
 6047SOL     OW29773   4.467   1.426   5.353 -0.0780  0.5630 -0.4821
 6047SOL    HW129774   4.502   1.394   5.436  1.4878 -2.0980 -2.1676
 6047SOL    HW229775   4.492   1.359   5.290 -0.4799  0.7212 -0.8135
 6048SOL     OW29776   1.803   3.265   8.411 -0.1203 -0.1618  0.1390
 6048SOL    HW129777   1.897   3.270   8.397 -0.3791 -0.2174 -1.6476
 6048SOL    HW229778   1.805   3.179   8.453  0.3690  0.2854  1.0468
 6049SOL     OW29779   2.975   1.186   3.362  0.2075  0.1128  0.3793
 6049SOL    HW129780   2.951   1.106   3.409  3.3697 -2.0292 -1.6655
 6049SOL    HW229781   3.049   1.153   3.312  0.8680  3.2526 -0.7507
 6050SOL     OW29782   2.026   3.646   6.884 -0.0410 -0.3019  0.3340
 6050SOL    HW129783   2.039   3.589   6.959 -4.4827 -1.7083  0.0195
 6050SOL    HW229784   1.962   3.607   6.824  0.1937 -1.0533  0.5763
 6051SOL     OW29785   0.085   1.631   6.963  0.2955  0.6044 -0.2140
 6051SOL    HW129786   0.106   1.569   7.033  1.5624  2.4328  1.0204
 6051SOL    HW229787   0.039   1.692   7.021  1.2916  1.4441 -0.2968
 6052SOL     OW29788   0.095   4.708   1.892  0.0494 -0.2236 -0.1241
 6052SOL    HW129789   0.117   4.693   1.800  0.2238 -0.9780  0.0424
 6052SOL    HW229790   0.001   4.690   1.886  0.1050 -1.3754  2.3131
 6053SOL     OW29791   4.518   4.342  11.149 -0.4697 -0.1560  0.7048
 6053SOL    HW129792   4.469   4.391  11.215  1.2738  0.3241  1.6466
 6053SOL    HW229793   4.510   4.257  11.191 -0.8239  0.0352  1.0320
 6054SOL     OW29794   4.681   0.384   5.221 -0.0881  0.0039 -0.0246
 6054SOL    HW129795   4.636   0.400   5.304  0.7839  0.7228  0.3161
 6054SOL    HW229796   0.035   0.381   5.256  0.7797  0.2832 -2.2087
 6055SOL     OW29797   0.020   4.162   5.706 -0.6756  0.3213 -0.1633
 6055SOL    HW129798   4.728   4.112   5.783  0.5696 -2.1890 -1.3460
 6055SOL    HW229799   0.073   4.228   5.750  0.4749 -1.5826  1.2963
 6056SOL     OW29800   0.283   0.862   1.908  0.0305 -0.1152  0.1765
 6056SOL    HW129801   0.372   0.885   1.933 -0.1249 -0.0140  0.6239
 6056SOL    HW229802   0.287   0.782   1.854 -0.8627  0.0597 -0.1457
 6057SOL     OW29803   4.495   1.960   9.599  0.4489 -0.2474 -0.0978
 6057SOL    HW129804   4.525   1.904   9.671 -0.1942  0.7060  0.9087
 6057SOL    HW229805   4.456   2.035   9.643 -0.5542  0.2157 -1.8042
 6058SOL     OW29806   3.078   2.142   5.945  0.1513 -0.1457  0.0450
 6058SOL    HW129807   3.060   2.096   5.863 -3.0835 -0.1260  0.7443
 6058SOL    HW229808   3.156   2.192   5.918 -0.5937 -0.1418 -2.1233
 6059SOL     OW29809   1.041   1.554   1.510  0.0368 -0.0361  0.2593
 6059SOL    HW129810   1.129   1.521   1.491 -0.3227 -1.2681  0.7653
 6059SOL    HW229811   1.043   1.563   1.605 -2.1324 -1.2494  0.4069
 6060SOL     OW29812   4.420   0.463   7.870 -0.3923  0.2743  0.2457
 6060SOL    HW129813   4.358   0.391   7.861  2.3591 -2.3107  2.1167
 6060SOL    HW229814   4.396   0.493   7.957 -1.3911  0.0937  0.0301
 6061SOL     OW29815   2.974   0.812   4.020  0.1277  0.1652  0.3591
 6061SOL    HW129816   2.963   0.907   4.015 -0.5565  0.1023  0.7665
 6061SOL    HW229817   2.955   0.788   4.111 -1.7785 -0.0727 -0.1123
 6062SOL     OW29818   1.663   2.924   4.932  0.5729 -0.1175  0.1241
 6062SOL    HW129819   1.704   2.999   4.889 -1.3185  0.1119 -1.2792
 6062SOL    HW229820   1.630   2.876   4.856 -0.1660 -0.1027  0.4304
 6063SOL     OW29821   4.120   1.746   6.311  0.0038  0.4479 -0.4489
 6063SOL    HW129822   4.064   1.687   6.262  2.3513 -3.1205  1.1853
 6063SOL    HW229823   4.116   1.710   6.400  0.8329  1.2195 -0.0875
 6064SOL     OW29824   1.183   2.162  14.399  0.3436  0.0510 -0.0005
 6064SOL    HW129825   1.171   2.162  14.494 -0.5198  0.5270 -0.1091
 6064SOL    HW229826   1.118   2.103  14.361  1.9042 -1.8805  0.3649
 6065SOL     OW29827   1.774   3.803   1.430 -0.1655  0.0906 -0.0295
 6065SOL    HW129828   1.748   3.890   1.399  2.4812  0.6562 -0.7417
 6065SOL    HW229829   1.867   3.823   1.443 -0.2039  0.9069 -0.9816
 6066SOL     OW29830   2.798   3.982   1.016  0.2824 -0.0535 -0.5826
 6066SOL    HW129831   2.882   4.017   1.048  0.8727 -2.7193  0.7591
 6066SOL    HW229832   2.799   3.896   1.059 -2.2133 -0.5442 -1.5114
 6067SOL     OW29833   2.594   0.408   4.191  0.4633  0.2069 -0.3178
 6067SOL    HW129834   2.545   0.480   4.229 -1.6793 -1.2090 -0.3764
 6067SOL    HW229835   2.664   0.408   4.256 -0.9879  0.8163  1.2502
 6068SOL     OW29836   4.339   0.033   7.945  0.5568  0.0361  0.9445
 6068SOL    HW129837   4.377   4.687   7.913 -1.3124 -0.4110 -0.1404
 6068SOL    HW229838   4.258   4.735   7.984  0.8243 -0.5796  0.9666
 6069SOL     OW29839   0.764   4.008   4.976 -0.1699 -0.6951 -0.7789
 6069SOL    HW129840   0.763   4.075   4.907 -3.6017 -0.1691 -0.1923
 6069SOL    HW229841   0.751   3.933   4.917 -0.2462 -1.8788  0.7585
 6070SOL     OW29842   3.768   0.213   4.237  0.0301 -0.0441  0.1035
 6070SOL    HW129843   3.773   0.309   4.237 -1.2124  0.0261 -0.6456
 6070SOL    HW229844   3.800   0.185   4.151 -2.1636 -3.4043  0.4090
 6071SOL     OW29845   1.012   3.593   4.458  0.1870  0.0581  0.4409
 6071SOL    HW129846   1.071   3.599   4.534 -1.4677  0.8288  1.6557
 6071SOL    HW229847   1.069   3.566   4.386 -1.5544  0.0432 -0.9278
 6072SOL     OW29848   0.380   1.515  14.778  0.3575  0.3766  0.1774
 6072SOL    HW129849   0.434   1.563  14.715 -1.1331 -0.4906 -1.7556
 6072SOL    HW229850   0.308   1.488  14.721  2.8116 -3.5983 -0.9567
 6073SOL     OW29851   3.850   0.613   5.353 -0.3748 -0.0453 -0.4580
 6073SOL    HW129852   3.890   0.649   5.432 -1.2149  2.3898 -1.1359
 6073SOL    HW229853   3.758   0.588   5.359 -0.1294 -0.9413 -0.4163
 6074SOL     OW29854   2.505   4.098   4.537 -0.0664 -0.3514  0.0849
 6074SOL    HW129855   2.493   4.038   4.611  2.7963 -1.3221 -0.2200
 6074SOL    HW229856   2.530   4.180   4.578 -0.0302 -0.4505  0.2645
 6075SOL     OW29857   2.286   4.602  10.857 -0.2076 -0.7476  0.7462
 6075SOL    HW129858   2.361   4.626  10.802 -0.1474 -1.5407  0.4898
 6075SOL    HW229859   2.278   4.677  10.917 -1.4392 -1.1843  1.1333
 6076SOL     OW29860   3.995   1.087   7.182 -0.5416 -0.1049  0.7573
 6076SOL    HW129861   3.953   1.116   7.101  0.7202 -2.1749 -0.6469
 6076SOL    HW229862   4.038   1.169   7.205 -1.7320 -0.0522  2.8151
 6077SOL     OW29863   0.637   2.540   2.300 -0.5811 -0.2194 -0.2529
 6077SOL    HW129864   0.590   2.501   2.374 -1.1429  0.6127 -0.1654
 6077SOL    HW229865   0.721   2.494   2.311 -0.7118  0.0315  1.8299
 6078SOL     OW29866   0.907   0.534  10.780 -0.0937 -0.1024  0.0305
 6078SOL    HW129867   0.903   0.459  10.839  0.6296 -0.4116 -0.3114
 6078SOL    HW229868   0.995   0.523  10.744 -0.8279  1.0172 -2.0567
 6079SOL     OW29869   4.543   1.468   4.718  0.6463  0.2534 -0.3876
 6079SOL    HW129870   4.529   1.430   4.805 -1.5227  0.6152 -0.6024
 6079SOL    HW229871   4.456   1.462   4.681  0.9929 -0.2125 -1.1258
 6080SOL     OW29872   4.464   4.178   1.879  0.2155 -0.2285 -0.5576
 6080SOL    HW129873   4.539   4.120   1.863  0.1715 -0.1432 -1.0816
 6080SOL    HW229874   4.499   4.262   1.850  0.7452  0.1066  1.0431
 6081SOL     OW29875   1.685   2.297  17.723 -0.0851  0.4417  0.9141
 6081SOL    HW129876   1.657   2.216   0.024  1.5996 -0.7000 -0.1859
 6081SOL    HW229877   1.621   2.359   0.017  0.1628  0.4978  1.2711
 6082SOL     OW29878   1.487   2.473   0.108  0.2486  0.1542  0.5029
 6082SOL    HW129879   1.482   2.565   0.082 -0.8003 -0.8277 -2.8498
 6082SOL    HW229880   1.501   2.476   0.202  0.0706  2.1526  0.4783
 6083SOL     OW29881   1.834   1.442   6.954  0.2723 -0.2711 -0.3354
 6083SOL    HW129882   1.825   1.403   6.868  0.1669  0.1253 -0.5030
 6083SOL    HW229883   1.746   1.450   6.991  1.8904  2.6098  2.9595
 6084SOL     OW29884   1.046   4.047  13.471  0.5645 -0.7176  0.2506
 6084SOL    HW129885   1.008   3.966  13.504 -2.4917 -0.0631 -1.6486
 6084SOL    HW229886   0.981   4.110  13.500  1.5096  0.7945 -0.8818
 6085SOL     OW29887   2.985   1.579   7.276 -0.3369 -0.1570 -0.3219
 6085SOL    HW129888   2.978   1.647   7.343  1.0240 -0.0257 -0.3086
 6085SOL    HW229889   2.949   1.499   7.313 -0.8527  0.8265  1.3134
 6086SOL     OW29890   3.264   4.607   5.637  0.1405  0.3633 -0.7781
 6086SOL    HW129891   3.297   4.538   5.695  0.5998  0.3711 -1.0283
 6086SOL    HW229892   3.186   4.622   5.689  2.8980  0.7764  3.2517
 6087SOL     OW29893   0.522   1.539   5.514 -0.5003  0.1127  0.5498
 6087SOL    HW129894   0.555   1.535   5.604 -0.6896  1.5561  0.6829
 6087SOL    HW229895   0.589   1.598   5.480 -1.3353  0.5710 -0.2902
 6088SOL     OW29896   3.172   1.026   2.238  0.0764 -0.4656 -0.1955
 6088SOL    HW129897   3.129   0.984   2.312 -2.0142  0.2597 -0.9984
 6088SOL    HW229898   3.206   0.947   2.196  0.8771 -1.6883  2.7903
 6089SOL     OW29899   4.396   4.656   5.984  0.3923  0.1374  0.1390
 6089SOL    HW129900   4.427   4.711   5.911  0.8176 -0.0982  0.1398
 6089SOL    HW229901   4.444   4.576   5.962  0.0604 -0.6644  2.4479
 6090SOL     OW29902   2.576   1.741   2.685 -0.5235 -0.4039  0.2118
 6090SOL    HW129903   2.601   1.657   2.646  5.4251  2.0731 -1.3113
 6090SOL    HW229904   2.611   1.741   2.774 -2.1168  0.3327  0.8396
 6091SOL     OW29905   0.213   2.063   1.990 -0.4993  0.0166 -0.1202
 6091SOL    HW129906   0.204   1.969   1.980  1.1528 -0.1275 -0.2036
 6091SOL    HW229907   0.307   2.070   2.007 -0.5532  0.6833 -0.0682
 6092SOL     OW29908   1.595   1.384  16.048 -0.7856 -0.6145 -0.9001
 6092SOL    HW129909   1.660   1.431  15.996 -0.0162 -0.6766 -0.0039
 6092SOL    HW229910   1.652   1.330  16.102 -1.8067  1.0652  1.9207
 6093SOL     OW29911   2.575   0.330   5.914 -0.7053  0.1365 -0.0675
 6093SOL    HW129912   2.598   0.260   5.854 -2.2050 -0.4775  0.0787
 6093SOL    HW229913   2.612   0.412   5.880 -0.6202  0.5756  1.0514
 6094SOL     OW29914   3.131   4.406   1.963  0.1787 -0.3505  0.2112
 6094SOL    HW129915   3.106   4.429   2.052 -2.0634 -2.4075  0.1084
 6094SOL    HW229916   3.173   4.321   1.979  0.4841 -0.1184  0.6509
 6095SOL     OW29917   1.249   2.517   0.668  0.6251  0.6489  0.9447
 6095SOL    HW129918   1.317   2.543   0.730  1.3426  1.0156 -0.0014
 6095SOL    HW229919   1.165   2.511   0.713  0.0399 -1.1748 -0.3901
 6096SOL     OW29920   2.158   2.285   6.474  0.0175 -0.3510 -0.0527
 6096SOL    HW129921   2.186   2.213   6.418 -0.6514 -0.8086  0.1930
 6096SOL    HW229922   2.083   2.247   6.521 -1.0279 -0.5843 -1.9386
 6097SOL     OW29923   4.454   4.694  17.134 -0.0956  0.1448 -0.0141
 6097SOL    HW129924   4.390   4.657  17.195  1.2626  0.1243  1.4154
 6097SOL    HW229925   4.536   4.697  17.184  0.5235  4.8090 -1.3633
 6098SOL     OW29926   1.431   4.119   3.034 -0.5206 -0.0165 -0.5025
 6098SOL    HW129927   1.462   4.169   2.958 -0.4527  1.1206  0.2640
 6098SOL    HW229928   1.443   4.028   3.008 -0.3934 -0.8025  2.2232
 6099SOL     OW29929   1.661   4.018   1.046 -0.1063  0.3226 -0.0755
 6099SOL    HW129930   1.664   3.929   1.081  0.1887 -0.0327 -1.0157
 6099SOL    HW229931   1.735   4.019   0.986  0.8021  0.0499  1.0249
 6100SOL     OW29932   2.079   4.445   8.442 -0.1565  0.1781 -0.2710
 6100SOL    HW129933   2.158   4.391   8.438  1.9276  3.0154  1.9981
 6100SOL    HW229934   2.073   4.463   8.536 -1.4767  1.1575 -0.5450
 6101SOL     OW29935   4.372   2.990   9.015 -0.0841  0.3584  0.2003
 6101SOL    HW129936   4.311   2.956   8.950  1.8037 -2.6225 -0.0058
 6101SOL    HW229937   4.381   2.919   9.078  0.0176 -0.6460 -0.9502
 6102SOL     OW29938   3.021   1.573   1.902 -0.6004  0.1998 -0.2949
 6102SOL    HW129939   3.067   1.644   1.947  1.5672  0.1244 -2.3924
 6102SOL    HW229940   3.067   1.495   1.933 -4.4679 -2.1247 -0.3949
 6103SOL     OW29941   1.685   1.748  13.484  0.5697  0.3287  0.1246
 6103SOL    HW129942   1.626   1.821  13.498 -1.1400 -0.9730 -0.3389
 6103SOL    HW229943   1.703   1.751  13.390  2.7120 -1.7698  0.4613
 6104SOL     OW29944   1.769   1.107   3.135 -0.0750 -0.0918  0.1110
 6104SOL    HW129945   1.845   1.048   3.127 -0.1627 -0.6465  3.1882
 6104SOL    HW229946   1.802   1.170   3.199 -2.3198  1.5146 -0.3535
 6105SOL     OW29947   0.657   2.420   5.181  0.7753  1.0376  0.0037
 6105SOL    HW129948   0.585   2.483   5.169 -1.4182 -1.8857 -2.2067
 6105SOL    HW229949   0.682   2.427   5.089 -1.3478  2.8907 -0.4445
 6106SOL     OW29950   2.345   3.780  17.079 -0.2510  0.2257 -0.2678
 6106SOL    HW129951   2.378   3.870  17.087  0.9806 -0.3813  1.5579
 6106SOL    HW229952   2.267   3.794  17.026 -0.2958 -2.3152 -0.8606
 6107SOL     OW29953   1.274   2.383   8.628 -0.1442  0.1927 -0.6695
 6107SOL    HW129954   1.207   2.317   8.611 -0.5139  0.3154  0.3199
 6107SOL    HW229955   1.222   2.442   8.683 -0.2867  0.0293 -0.6296
 6108SOL     OW29956   0.091   3.694   8.553  1.1784 -0.4396 -0.1604
 6108SOL    HW129957   0.070   3.765   8.614 -0.6342 -0.5011 -0.7090
 6108SOL    HW229958   0.152   3.744   8.499  0.9829 -0.7487 -0.6673
 6109SOL     OW29959   2.964   3.963   2.738 -0.2242 -0.2012  0.4850
 6109SOL    HW129960   3.026   4.021   2.782  0.1557 -1.0662  1.0848
 6109SOL    HW229961   3.021   3.889   2.717 -1.1998 -0.9931  0.6713
 6110SOL     OW29962   3.261   0.469   6.039  0.0380 -0.0099 -0.2487
 6110SOL    HW129963   3.278   0.444   5.948  0.9419 -3.7727  0.9423
 6110SOL    HW229964   3.191   0.532   6.025  3.1388  3.4493 -0.2345
 6111SOL     OW29965   0.654   4.496  11.314 -0.5411 -0.2987  0.5518
 6111SOL    HW129966   0.562   4.478  11.295 -0.6019  0.9823 -0.3979
 6111SOL    HW229967   0.692   4.412  11.290 -1.0122 -1.1185  2.7130
 6112SOL     OW29968   2.205   1.695   9.559 -0.2195 -0.3420 -0.2368
 6112SOL    HW129969   2.260   1.731   9.629 -0.9043  0.3657 -0.0628
 6112SOL    HW229970   2.234   1.604   9.556  0.3139 -0.1745 -0.1550
 6113SOL     OW29971   3.138   0.041   2.617 -0.1789 -0.7801 -0.0911
 6113SOL    HW129972   3.078   0.019   2.688 -0.4899  0.4707  0.0311
 6113SOL    HW229973   3.122   0.135   2.617  1.7050 -0.4530  1.4016
 6114SOL     OW29974   2.464   2.383  11.483 -0.5956  0.4002  0.0770
 6114SOL    HW129975   2.526   2.456  11.491 -1.1204  0.7815  0.6628
 6114SOL    HW229976   2.520   2.305  11.482  1.2142  1.6920 -0.5010
 6115SOL     OW29977   0.182   2.991  16.193  0.0487 -0.2758 -0.2901
 6115SOL    HW129978   0.147   2.998  16.281  1.7573  0.1246  0.3511
 6115SOL    HW229979   0.268   2.953  16.213 -0.1782 -0.6476 -0.0444
 6116SOL     OW29980   0.859   1.719   3.591 -0.4151 -0.1828  0.3784
 6116SOL    HW129981   0.862   1.671   3.674 -1.0820  0.3657  0.7213
 6116SOL    HW229982   0.828   1.803   3.626 -2.2551 -0.1497 -1.3652
 6117SOL     OW29983   2.237   1.719   3.645 -0.1622 -0.2756  0.1329
 6117SOL    HW129984   2.299   1.748   3.712  1.5065 -0.8453 -1.1834
 6117SOL    HW229985   2.195   1.800   3.615  3.3200  1.0547 -1.0728
 6118SOL     OW29986   2.635   1.051   4.084  0.3118 -0.1084 -0.4091
 6118SOL    HW129987   2.614   1.103   4.162 -0.5402 -0.8818 -0.1267
 6118SOL    HW229988   2.566   1.078   4.023  0.1981  1.7271  0.5025
 6119SOL     OW29989   0.783   0.918   8.976 -0.0881  0.6981  0.7497
 6119SOL    HW129990   0.691   0.909   9.001 -0.4319 -1.8449 -1.4681
 6119SOL    HW229991   0.808   1.007   9.002 -2.0433  1.6041 -0.4984
 6120SOL     OW29992   2.273   1.756   8.953 -0.2027  0.3109 -0.0885
 6120SOL    HW129993   2.360   1.794   8.961  0.4110 -0.9183 -1.0318
 6120SOL    HW229994   2.287   1.712   8.870 -1.5387  0.1979 -0.2563
 6121SOL     OW29995   1.573   0.291   3.803  0.2181 -0.0703  0.3667
 6121SOL    HW129996   1.565   0.375   3.848 -0.0821  0.5513 -0.8371
 6121SOL    HW229997   1.662   0.296   3.770 -0.3983 -1.4007 -1.4912
 6122SOL     OW29998   1.551   0.979   2.808 -0.2192 -0.6198  0.1204
 6122SOL    HW129999   1.458   0.959   2.806 -0.4506  0.2983  2.0219
 6122SOL    HW230000   1.592   0.900   2.844  0.6045 -0.0893  0.3640
 6123SOL     OW30001   0.037   4.243  11.018  0.2480 -0.1579 -0.1042
 6123SOL    HW130002   0.055   4.298  10.942  0.9243  1.3171  1.1257
 6123SOL    HW230003   4.690   4.283  11.047  0.4472 -0.2778  0.6268
 6124SOL     OW30004   3.775   0.056   4.442  0.2327 -0.2773 -0.2021
 6124SOL    HW130005   3.759   0.120   4.372  2.3482  0.8107  0.3105
 6124SOL    HW230006   3.788   0.107   4.522  1.8555  1.6631 -1.6802
 6125SOL     OW30007   1.757   3.269   1.251  0.0838  0.1754 -0.2754
 6125SOL    HW130008   1.695   3.268   1.324  2.2756 -0.2142  1.5787
 6125SOL    HW230009   1.816   3.338   1.282  2.3103 -1.6796 -0.3999
 6126SOL     OW30010   0.462   1.049   8.069  0.6480 -0.0488 -0.6714
 6126SOL    HW130011   0.491   1.095   7.990  2.0332  1.3247  0.6310
 6126SOL    HW230012   0.549   1.041   8.108  1.2307  2.9256 -1.3339
 6127SOL     OW30013   4.710   2.532   6.059 -0.6187 -0.1687  0.2037
 6127SOL    HW130014   4.713   2.490   5.973  2.2596 -0.7614  0.5824
 6127SOL    HW230015   0.010   2.615   6.029 -3.3547  1.5164  1.6910
 6128SOL     OW30016   4.538   3.092  14.397 -0.1441  0.0842 -0.4238
 6128SOL    HW130017   4.626   3.124  14.419 -0.8356  2.2457 -0.7475
 6128SOL    HW230018   4.558   3.008  14.356  0.1754 -0.3052  0.5482
 6129SOL     OW30019   0.494   2.018   1.677  0.7402 -0.3229  0.2961
 6129SOL    HW130020   0.551   2.036   1.752 -0.5911  2.3717  0.6620
 6129SOL    HW230021   0.428   1.966   1.724  1.7688 -2.1121 -0.2278
 6130SOL     OW30022   2.786   0.546   6.126  0.0105 -0.6355 -0.5439
 6130SOL    HW130023   2.708   0.581   6.083 -2.2067 -2.9405  1.6415
 6130SOL    HW230024   2.757   0.466   6.169  0.7835 -0.7122 -0.1679
 6131SOL     OW30025   4.303   4.434  15.947 -0.3843  0.0438  0.2135
 6131SOL    HW130026   4.275   4.388  15.868  0.4629 -0.8983  0.4646
 6131SOL    HW230027   4.219   4.475  15.966 -0.4204 -0.1969  0.5576
 6132SOL     OW30028   2.840   1.626  11.296  0.3631 -0.1858  0.2240
 6132SOL    HW130029   2.750   1.655  11.311  0.2762  0.6698 -1.8720
 6132SOL    HW230030   2.869   1.614  11.386 -3.4843  0.5547  1.5870
 6133SOL     OW30031   4.054   4.643   6.877 -0.5686 -0.2223 -0.3307
 6133SOL    HW130032   4.112   4.630   6.951 -0.3295  0.8397 -0.3278
 6133SOL    HW230033   3.970   4.632   6.921 -0.3901  2.3408  0.6419
 6134SOL     OW30034   1.054   4.042   3.338  0.1701 -0.3091  0.1296
 6134SOL    HW130035   1.110   4.002   3.405 -0.1739  1.1317  1.2787
 6134SOL    HW230036   1.022   4.121   3.382 -1.2039 -0.0584 -1.3441
 6135SOL     OW30037   0.897   3.175   7.914  0.3257  0.1128 -0.0564
 6135SOL    HW130038   0.860   3.202   7.998 -0.7853 -0.0800 -0.4830
 6135SOL    HW230039   0.823   3.128   7.874  1.1373 -1.5037  0.3639
 6136SOL     OW30040   1.836   3.429   5.055 -0.9306  0.1168 -0.3379
 6136SOL    HW130041   1.930   3.430   5.037 -1.3201 -1.2137 -2.4212
 6136SOL    HW230042   1.831   3.459   5.146  1.9161 -2.8265  0.7649
 6137SOL     OW30043   1.600   1.415  17.353  0.1442  0.2622 -0.4319
 6137SOL    HW130044   1.538   1.357  17.310 -0.2648  0.2198  0.2118
 6137SOL    HW230045   1.688   1.384  17.329  0.0296 -0.5166  0.1755
 6138SOL     OW30046   2.535   0.825   3.790 -0.1478  0.0143  0.1358
 6138SOL    HW130047   2.549   0.745   3.740  1.1114  0.1704  0.2381
 6138SOL    HW230048   2.625   0.855   3.786  0.7856 -2.7401  0.7092
 6139SOL     OW30049   4.018   2.485   4.600  0.5229 -0.0678 -0.2681
 6139SOL    HW130050   3.956   2.425   4.641 -1.3871  1.7639 -0.4717
 6139SOL    HW230051   3.956   2.544   4.556  0.0421 -0.2683  0.1493
 6140SOL     OW30052   3.718   1.106   4.528  0.6210 -0.0257 -0.3963
 6140SOL    HW130053   3.756   1.072   4.608 -2.8230 -1.7517  0.5311
 6140SOL    HW230054   3.745   1.198   4.528  1.0015 -0.1374 -1.3377
 6141SOL     OW30055   1.261   0.983   5.509 -0.9250  0.4272 -0.1718
 6141SOL    HW130056   1.327   0.949   5.570 -1.0211 -2.0149 -1.4062
 6141SOL    HW230057   1.233   1.067   5.545 -2.3586  0.0982 -0.4926
 6142SOL     OW30058   0.793   2.344   9.874  0.0139  0.5336  0.3354
 6142SOL    HW130059   0.866   2.308   9.824 -0.6048 -1.3692  0.8201
 6142SOL    HW230060   0.748   2.272   9.917  2.0550 -0.0530  1.4597
 6143SOL     OW30061   1.630   2.593   7.204 -0.5606 -0.1738 -0.1773
 6143SOL    HW130062   1.704   2.650   7.227 -1.2001 -0.1150  1.7760
 6143SOL    HW230063   1.670   2.508   7.220 -0.5933 -0.4558 -1.6566
 6144SOL     OW30064   1.121   2.069   6.283  0.0813 -0.1561  0.3658
 6144SOL    HW130065   1.051   2.109   6.335 -1.3642 -0.5027 -1.3018
 6144SOL    HW230066   1.195   2.120   6.313  1.9959 -2.4669 -0.4340
 6145SOL     OW30067   4.017   0.608   9.309  0.0363 -0.0644  0.3404
 6145SOL    HW130068   3.976   0.568   9.233  1.8426  0.7692 -1.0720
 6145SOL    HW230069   4.054   0.537   9.362 -0.3678 -0.6594 -0.1742
 6146SOL     OW30070   2.796   0.810   6.520  0.0652 -0.0477 -0.4357
 6146SOL    HW130071   2.773   0.773   6.606 -0.3171  0.6145 -0.2507
 6146SOL    HW230072   2.866   0.870   6.548  0.2650 -1.5153  2.2838
 6147SOL     OW30073   1.950   4.676  11.110  0.1071 -0.2429  0.2441
 6147SOL    HW130074   1.903   4.593  11.115  1.8311 -1.2976 -1.0924
 6147SOL    HW230075   1.958   4.699  11.018 -0.8334  2.4050  0.8381
 6148SOL     OW30076   3.503   3.126   4.673 -0.3777 -0.1082 -0.0885
 6148SOL    HW130077   3.565   3.074   4.724 -0.4032  1.3539  1.4088
 6148SOL    HW230078   3.540   3.121   4.584 -0.9674 -2.1671 -0.2308
 6149SOL     OW30079   2.508   2.928   8.431  0.2348  0.9480  0.3754
 6149SOL    HW130080   2.584   2.973   8.395  0.4685 -0.7662 -1.2386
 6149SOL    HW230081   2.482   2.874   8.357  0.4423 -0.2489  1.1701
 6150SOL     OW30082   3.150   2.225   7.361  0.1135  0.0033  0.4514
 6150SOL    HW130083   3.178   2.314   7.382  1.9705 -0.3232 -0.6134
 6150SOL    HW230084   3.105   2.200   7.442  0.4840  1.2010  1.0273
 6151SOL     OW30085   0.863   3.790   1.957 -0.3781 -0.0038  0.1034
 6151SOL    HW130086   0.783   3.739   1.958 -0.1375 -0.3933 -0.8152
 6151SOL    HW230087   0.900   3.797   2.045 -2.3341  0.1150  0.8962
 6152SOL     OW30088   0.731   2.760  14.898  0.4676 -0.1823  0.3260
 6152SOL    HW130089   0.776   2.681  14.928 -1.5174 -0.7276  1.8814
 6152SOL    HW230090   0.654   2.726  14.852  0.7863 -0.5115  0.0332
 6153SOL     OW30091   3.419   1.936   9.944 -0.8446 -0.0582  0.4368
 6153SOL    HW130092   3.410   1.902  10.033  0.5586  2.8446  1.6811
 6153SOL    HW230093   3.389   2.027   9.944  0.4628  0.3786  3.0745
 6154SOL     OW30094   0.222   0.129   4.418  0.0275 -0.1396  1.2381
 6154SOL    HW130095   0.264   0.202   4.464  2.8133 -0.8568 -0.1451
 6154SOL    HW230096   0.298   0.072   4.419 -0.0370 -0.2308  0.5904
 6155SOL     OW30097   0.378   3.596   0.632  0.1508 -0.2310  0.3021
 6155SOL    HW130098   0.318   3.635   0.569 -0.0017 -2.2808 -0.8346
 6155SOL    HW230099   0.378   3.666   0.697  0.2363 -0.3880  0.4740
 6156SOL     OW30100   0.049   2.309   4.169  0.0195 -0.0113  0.8573
 6156SOL    HW130101   0.024   2.266   4.251 -1.8872  0.7217  0.6604
 6156SOL    HW230102   0.112   2.252   4.125  0.4921  0.2768  1.1610
 6157SOL     OW30103   3.764   0.108   0.947  0.2369  0.3771 -0.1397
 6157SOL    HW130104   3.830   0.040   0.933  0.5339  0.3723  1.3493
 6157SOL    HW230105   3.750   0.102   1.041 -2.6745 -1.2076 -0.6604
 6158SOL     OW30106   1.021   2.072   4.760 -0.7730  0.3152 -0.2993
 6158SOL    HW130107   1.055   2.161   4.767 -1.7003  0.6719 -0.3422
 6158SOL    HW230108   1.081   2.015   4.808 -1.2588  1.2255  1.3906
 6159SOL     OW30109   4.654   2.887   6.127  0.4707 -0.9195  0.2782
 6159SOL    HW130110   4.598   2.942   6.182  0.4312 -2.4829  1.7986
 6159SOL    HW230111   4.712   2.842   6.188  2.9558  1.1924 -0.5277
 6160SOL     OW30112   3.875   1.397   7.394 -0.2789  0.3441 -0.1338
 6160SOL    HW130113   3.940   1.349   7.445 -0.5370 -0.1892 -0.3049
 6160SOL    HW230114   3.891   1.489   7.417 -0.4171  0.2719  0.2633
 6161SOL     OW30115   2.275   2.429   5.899  0.1089  0.1386 -0.1122
 6161SOL    HW130116   2.202   2.484   5.928 -1.1376 -1.6281  0.1127
 6161SOL    HW230117   2.236   2.342   5.908 -0.4269  0.3200 -0.7215
 6162SOL     OW30118   0.299   2.340  12.204 -0.4161 -0.6794 -0.0063
 6162SOL    HW130119   0.249   2.385  12.272  1.9295 -0.4335  1.5654
 6162SOL    HW230120   0.373   2.323  12.262 -0.7205  0.2685  0.6605
 6163SOL     OW30121   0.651   1.544   4.733 -0.3697  0.0877 -0.0250
 6163SOL    HW130122   0.561   1.568   4.756 -1.6198 -3.1099 -1.5651
 6163SOL    HW230123   0.710   1.559   4.806 -0.0898  1.3450 -0.5082
 6164SOL     OW30124   1.819   0.751   3.539 -0.4612  0.9746 -0.5355
 6164SOL    HW130125   1.826   0.776   3.447  0.2031  0.5940 -0.5920
 6164SOL    HW230126   1.895   0.793   3.580  0.5044 -2.2006  0.9561
 6165SOL     OW30127   1.052   0.260   6.279 -0.0477 -0.0836 -0.0774
 6165SOL    HW130128   0.961   0.239   6.258 -0.7829  0.8441  2.1603
 6165SOL    HW230129   1.056   0.355   6.268  2.9843 -0.4640 -2.2583
 6166SOL     OW30130   3.466   2.227   6.616  0.2177 -0.4876 -0.0295
 6166SOL    HW130131   3.417   2.181   6.684 -1.3194  0.0674 -0.7537
 6166SOL    HW230132   3.553   2.190   6.623  1.0117  1.2594 -0.6731
 6167SOL     OW30133   1.449   3.346  17.435 -0.1632 -0.3503 -0.2463
 6167SOL    HW130134   1.358   3.331  17.408  0.3299  1.2073 -2.7718
 6167SOL    HW230135   1.429   3.402  17.510 -0.4837 -0.9399  0.1016
 6168SOL     OW30136   0.902   0.779   4.892 -0.0858  0.8879  0.0552
 6168SOL    HW130137   0.970   0.814   4.836 -0.1157  0.5195 -0.2144
 6168SOL    HW230138   0.822   0.779   4.840  0.6489  0.4133 -1.0785
 6169SOL     OW30139   2.166   3.761   8.214  0.3496 -0.0541 -0.0004
 6169SOL    HW130140   2.085   3.786   8.171 -0.0824 -2.1798 -0.4256
 6169SOL    HW230141   2.133   3.677   8.246  0.1667  0.3868  0.9905
 6170SOL     OW30142   4.606   0.810   2.511  0.5049 -0.6292  0.1597
 6170SOL    HW130143   4.523   0.761   2.509  1.2326 -1.8861  0.7695
 6170SOL    HW230144   4.573   0.899   2.525  2.0530 -0.0910  0.3169
 6171SOL     OW30145   1.558   1.217  12.163  0.2858  0.6843 -0.0173
 6171SOL    HW130146   1.556   1.195  12.256  0.8914  0.7630  0.0092
 6171SOL    HW230147   1.485   1.279  12.157 -0.0836  0.2138 -0.3878
 6172SOL     OW30148   2.022   3.189   3.489 -0.2383 -0.3903  0.5544
 6172SOL    HW130149   2.076   3.134   3.546  0.6617  0.6096  0.6721
 6172SOL    HW230150   1.976   3.127   3.432  1.8454  0.9765 -2.6305
 6173SOL     OW30151   3.141   3.832   8.150  1.1562 -0.9107  0.2667
 6173SOL    HW130152   3.199   3.775   8.099  1.6521 -1.2277  1.1912
 6173SOL    HW230153   3.074   3.841   8.082 -0.7197 -0.3591  2.2111
 6174SOL     OW30154   1.520   2.183   3.497 -0.4164 -0.0633  0.3200
 6174SOL    HW130155   1.462   2.216   3.429 -1.4624 -0.6535  0.9324
 6174SOL    HW230156   1.597   2.239   3.490 -1.4248  1.4828  1.8054
 6175SOL     OW30157   1.286   2.243   7.684  0.2199  0.1601 -0.2507
 6175SOL    HW130158   1.223   2.175   7.708 -0.2169  0.6574  0.0222
 6175SOL    HW230159   1.365   2.205   7.723 -0.1365 -1.1119 -0.7810
 6176SOL     OW30160   4.455   2.586   4.513  0.0755  0.2706 -0.1527
 6176SOL    HW130161   4.381   2.528   4.532  1.4940 -0.8853  1.9141
 6176SOL    HW230162   4.451   2.601   4.419 -0.3860  0.9128 -0.0317
 6177SOL     OW30163   3.243   0.451  12.187  0.2271  0.0559 -0.6907
 6177SOL    HW130164   3.151   0.457  12.161  0.0287  2.5493  0.5447
 6177SOL    HW230165   3.229   0.465  12.281 -2.6824  0.6477 -1.2126
 6178SOL     OW30166   3.680   0.715   6.029 -0.2008  0.3682 -0.2017
 6178SOL    HW130167   3.702   0.808   6.041 -0.1820  0.3125  0.2180
 6178SOL    HW230168   3.614   0.707   6.099 -1.9437  0.4228 -1.8377
 6179SOL     OW30169   1.997   0.567  10.504 -0.1425  0.1626  0.5299
 6179SOL    HW130170   1.932   0.499  10.525  1.0292 -1.1028  0.0550
 6179SOL    HW230171   1.965   0.604  10.421 -2.0105  0.4922  1.4008
 6180SOL     OW30172   4.302   3.675   5.642 -0.4310  0.0306 -0.0019
 6180SOL    HW130173   4.297   3.591   5.595 -1.8384 -0.7198  1.5143
 6180SOL    HW230174   4.291   3.640   5.730  0.1082  1.0115  0.4497
 6181SOL     OW30175   1.353   4.657   3.104 -0.0104  0.1504 -0.3346
 6181SOL    HW130176   1.258   4.666   3.111  0.0405  0.6780 -0.2831
 6181SOL    HW230177   1.377   0.014   3.109 -1.7722  0.5882  0.1482
 6182SOL     OW30178   4.530   1.149  16.729 -0.1804  0.3176  0.1980
 6182SOL    HW130179   4.510   1.139  16.822  0.6938 -1.1686  0.2311
 6182SOL    HW230180   4.619   1.114  16.722 -1.0397 -1.4804 -1.8483
 6183SOL     OW30181   2.501   3.179   5.246  0.4292 -0.4086 -0.0571
 6183SOL    HW130182   2.536   3.108   5.300 -0.8789 -0.9190  0.1160
 6183SOL    HW230183   2.551   3.252   5.282 -0.3953  1.0979 -1.9691
 6184SOL     OW30184   0.156   2.413   5.542 -0.1538  0.0645  0.8252
 6184SOL    HW130185   0.166   2.408   5.447 -0.6792 -0.2078  0.7836
 6184SOL    HW230186   0.178   2.324   5.568  1.0330  0.4433  1.1042
 6185SOL     OW30187   1.650   0.940   6.412  0.4738  0.3660  0.8547
 6185SOL    HW130188   1.572   0.911   6.365  1.8469 -0.6485 -0.8279
 6185SOL    HW230189   1.672   0.854   6.448 -1.3665 -0.9403 -1.0612
 6186SOL     OW30190   2.176   3.855   2.650  0.2201 -0.4634  0.1240
 6186SOL    HW130191   2.183   3.824   2.559 -3.5990  3.6125 -1.5594
 6186SOL    HW230192   2.259   3.824   2.685  0.0217  0.1100  1.0745
 6187SOL     OW30193   1.402   3.425   3.062  0.1693 -0.7188  0.4280
 6187SOL    HW130194   1.363   3.507   3.094  0.7485 -0.0363 -0.5862
 6187SOL    HW230195   1.389   3.429   2.967 -2.1269 -0.7078  0.7398
 6188SOL     OW30196   1.688   3.383  13.076 -0.2920  0.2701 -0.1184
 6188SOL    HW130197   1.667   3.311  13.135  0.1133  1.9699  2.0901
 6188SOL    HW230198   1.638   3.345  13.003  0.3875  0.0659 -0.4761
 6189SOL     OW30199   3.602   2.704   2.835 -0.1390  0.3314  0.3503
 6189SOL    HW130200   3.642   2.750   2.760  1.6848 -0.3768  0.8911
 6189SOL    HW230201   3.512   2.688   2.808  0.2962  0.6025 -1.2703
 6190SOL     OW30202   1.279   1.282   7.365 -0.0063 -0.4359  0.2022
 6190SOL    HW130203   1.373   1.271   7.382  0.6312 -0.3930 -3.3397
 6190SOL    HW230204   1.248   1.197   7.336  2.3044 -1.3079  0.2330
 6191SOL     OW30205   0.211   3.114   6.309 -0.3780  0.0680  0.4733
 6191SOL    HW130206   0.200   3.165   6.228 -0.5429 -1.2410 -0.3343
 6191SOL    HW230207   0.162   3.152   6.381  1.0441  0.8498  1.0286
 6192SOL     OW30208   4.074   4.510  16.044 -0.4653  0.6375  0.4553
 6192SOL    HW130209   4.003   4.463  15.999 -1.5266  1.2817  1.4521
 6192SOL    HW230210   4.072   4.479  16.135  0.5744  1.1163  0.6350
 6193SOL     OW30211   4.160   2.992   6.411 -0.1481 -0.0692 -1.1267
 6193SOL    HW130212   4.241   3.001   6.361  0.0812  1.4157 -0.4940
 6193SOL    HW230213   4.123   3.070   6.369 -0.8598  0.6728  0.8276
 6194SOL     OW30214   0.049   0.667   7.761  0.3317  0.2889  0.5067
 6194SOL    HW130215   0.124   0.663   7.701 -0.3958 -2.7885 -0.1875
 6194SOL    HW230216   4.714   0.631   7.707 -0.2770  0.3664  1.2517
 6195SOL     OW30217   4.389   3.677   7.322  0.2610 -0.3140 -0.4060
 6195SOL    HW130218   4.430   3.639   7.244  1.3754  2.3088 -1.0849
 6195SOL    HW230219   4.337   3.741   7.274  2.0341  0.8485 -0.7699
 6196SOL     OW30220   2.048   4.296   3.719  0.2541 -1.0903 -0.1561
 6196SOL    HW130221   2.131   4.307   3.672  0.6863 -1.5718  0.5060
 6196SOL    HW230222   1.994   4.361   3.674  0.2166 -1.0525 -0.0553
 6197SOL     OW30223   1.685   3.750   8.091  0.0524  0.0845 -0.0092
 6197SOL    HW130224   1.666   3.759   7.998 -0.5341  0.4520  0.1459
 6197SOL    HW230225   1.703   3.838   8.125 -2.3398  0.3889  0.4607
 6198SOL     OW30226   0.706   3.297   5.999 -0.0500 -0.8398  0.1862
 6198SOL    HW130227   0.717   3.305   6.093  5.2900  3.0572 -0.7447
 6198SOL    HW230228   0.618   3.330   5.980 -0.0905 -0.6260  0.7453
 6199SOL     OW30229   1.870   4.123  15.350 -0.0719 -0.4261  0.1591
 6199SOL    HW130230   1.795   4.111  15.407  0.4388 -1.3904  0.6277
 6199SOL    HW230231   1.917   4.040  15.364  1.9905  1.0443  1.9007
 6200SOL     OW30232   3.001   4.394   9.658  0.0305 -0.4836 -0.1202
 6200SOL    HW130233   3.048   4.391   9.575  0.5578 -0.8713  0.1918
 6200SOL    HW230234   3.067   4.359   9.718  1.1524 -0.2298 -1.2139
 6201SOL     OW30235   0.968   1.506   2.409 -0.4703 -0.0457  1.0515
 6201SOL    HW130236   0.982   1.433   2.469  2.7196  0.2209  0.6156
 6201SOL    HW230237   0.875   1.509   2.386 -0.5254  3.4397  1.6831
 6202SOL     OW30238   4.138   0.942   3.136  0.5104 -0.0382 -0.5846
 6202SOL    HW130239   4.165   0.925   3.226 -0.2861 -0.4236 -0.4126
 6202SOL    HW230240   4.113   1.034   3.135  3.8089  0.8425 -2.1270
 6203SOL     OW30241   1.922   0.280   4.720  0.1500 -0.2960  0.2643
 6203SOL    HW130242   1.988   0.211   4.714 -1.0117 -1.5085  1.2530
 6203SOL    HW230243   1.906   0.283   4.626  1.6795 -1.2045 -0.0316
 6204SOL     OW30244   2.190   3.812  16.813 -0.3191  0.3524  0.6659
 6204SOL    HW130245   2.280   3.832  16.786 -0.7482  0.3374 -0.7706
 6204SOL    HW230246   2.141   3.865  16.749  1.1699  1.9247  0.8021
 6205SOL     OW30247   1.834   0.127   4.189  0.0859 -0.4713 -0.1220
 6205SOL    HW130248   1.826   0.034   4.170 -1.7316 -0.4755  0.7300
 6205SOL    HW230249   1.904   0.151   4.128  1.7984 -1.6454  1.3766
 6206SOL     OW30250   3.338   1.399   9.216 -0.1957 -0.1816 -0.4203
 6206SOL    HW130251   3.351   1.313   9.254  1.3349  0.1114 -0.3109
 6206SOL    HW230252   3.266   1.426   9.273  0.6343  1.3497 -0.0926
 6207SOL     OW30253   3.670   2.930   6.086 -0.1259  0.4716 -0.8539
 6207SOL    HW130254   3.664   2.838   6.060  0.2148  0.2857 -0.2792
 6207SOL    HW230255   3.762   2.944   6.062  0.2806  1.7898  1.3767
 6208SOL     OW30256   2.121   0.719   4.164 -0.3946 -0.0337  0.1593
 6208SOL    HW130257   2.168   0.741   4.083 -1.3979 -1.3353 -0.7852
 6208SOL    HW230258   2.082   0.635   4.141 -0.7502  0.0604  0.4197
 6209SOL     OW30259   2.673   0.905   5.740  0.1953 -0.0665  0.1791
 6209SOL    HW130260   2.625   0.975   5.695 -2.1250 -1.3550  0.6714
 6209SOL    HW230261   2.641   0.830   5.689 -0.1169 -0.2802  0.6958
 6210SOL     OW30262   3.132   1.064  16.566  0.3311 -0.2303 -0.6278
 6210SOL    HW130263   3.067   0.996  16.553  0.4016 -0.2814 -0.7125
 6210SOL    HW230264   3.151   1.088  16.476  0.5728 -1.0450 -0.7955
 6211SOL     OW30265   0.213   1.869   9.886 -0.4228  0.4203  0.5292
 6211SOL    HW130266   0.199   1.775   9.889  0.7327  0.3161  2.4460
 6211SOL    HW230267   0.176   1.896   9.802 -2.7105  1.9804  2.0321
 6212SOL     OW30268   2.135   1.724   8.316  0.5001 -1.0034 -0.2260
 6212SOL    HW130269   2.076   1.655   8.346 -1.2451  1.1915  1.3235
 6212SOL    HW230270   2.217   1.676   8.300  0.8644 -1.6987  3.7874
 6213SOL     OW30271   2.398   0.613  16.279 -0.4507  0.1379 -0.1826
 6213SOL    HW130272   2.309   0.583  16.295 -0.3533 -0.1654 -0.2032
 6213SOL    HW230273   2.452   0.545  16.320 -1.3027  0.1651  0.9599
 6214SOL     OW30274   2.012   0.825   3.708 -0.0788 -0.1364  0.9083
 6214SOL    HW130275   2.031   0.734   3.732 -1.2410 -0.7592 -0.5246
 6214SOL    HW230276   1.982   0.865   3.789  2.4155 -0.7713  2.1638
 6215SOL     OW30277   4.385   3.826   8.642 -0.7109 -0.0357 -0.4407
 6215SOL    HW130278   4.411   3.891   8.576  2.8258 -0.9358  0.0735
 6215SOL    HW230279   4.467   3.777   8.647 -0.8263 -0.2587 -0.7315
 6216SOL     OW30280   1.747   3.370  10.491 -0.7102 -0.1164 -0.0895
 6216SOL    HW130281   1.684   3.434  10.523 -1.1802 -0.1684 -0.8989
 6216SOL    HW230282   1.734   3.379  10.396 -1.8963  0.6892  0.1487
 6217SOL     OW30283   2.455   3.181   2.811 -0.2362 -0.1179 -0.3640
 6217SOL    HW130284   2.446   3.261   2.759  2.0107 -0.2340 -0.9212
 6217SOL    HW230285   2.371   3.139   2.795 -0.7948  1.6837 -2.1380
 6218SOL     OW30286   2.970   3.547   1.143  0.7417 -0.1342 -0.3110
 6218SOL    HW130287   3.020   3.476   1.103 -0.6145 -0.5255 -1.3162
 6218SOL    HW230288   3.037   3.591   1.194  1.7408 -0.1509 -1.6165
 6219SOL     OW30289   4.043   3.867   4.458  0.5955 -0.4525  0.0162
 6219SOL    HW130290   4.032   3.959   4.479  0.9307 -0.5004  0.3966
 6219SOL    HW230291   4.058   3.831   4.545 -2.0780  0.8356  0.9642
 6220SOL     OW30292   1.562   3.841   4.239 -0.4606  0.2045  0.1008
 6220SOL    HW130293   1.468   3.841   4.257 -0.4617  0.8167  0.0705
 6220SOL    HW230294   1.585   3.750   4.220  2.2538  0.5703  1.6479
 6221SOL     OW30295   0.376   1.545   6.973  0.2344  0.6009  0.3330
 6221SOL    HW130296   0.287   1.580   6.963  1.4685  3.6427  0.0597
 6221SOL    HW230297   0.409   1.538   6.884 -1.9377  0.0784 -0.4265
 6222SOL     OW30298   0.385   4.395  12.210 -0.2373  0.0346 -0.0404
 6222SOL    HW130299   0.323   4.324  12.225 -0.2987  0.1083  0.0493
 6222SOL    HW230300   0.336   4.468  12.246 -0.0037  0.0015  0.3436
 6223SOL     OW30301   3.400   4.454  14.353  0.8266  0.2078 -0.1102
 6223SOL    HW130302   3.313   4.435  14.316  1.3319 -0.5084 -0.9368
 6223SOL    HW230303   3.431   4.494  14.272 -1.6240  2.5620  0.1200
 6224SOL     OW30304   0.164   3.477   6.448 -0.3720  0.3701 -0.2167
 6224SOL    HW130305   0.100   3.533   6.492 -0.0530 -1.7719  2.9609
 6224SOL    HW230306   0.208   3.542   6.393  0.8699 -0.0904  0.2240
 6225SOL     OW30307   2.466   1.402   9.542  0.5356 -0.1576 -0.4555
 6225SOL    HW130308   2.514   1.349   9.605  0.0917 -2.8506 -2.3716
 6225SOL    HW230309   2.407   1.448   9.602  2.4223 -1.3113  2.2943
 6226SOL     OW30310   4.543   4.703   3.031 -0.2291  0.3891  0.2828
 6226SOL    HW130311   4.486   4.679   3.104 -0.5836  0.2675 -0.0302
 6226SOL    HW230312   4.510   0.057   3.020 -2.2726 -0.1371  2.2500
 6227SOL     OW30313   4.287   1.037   4.360  0.1906 -0.0502 -0.9088
 6227SOL    HW130314   4.277   1.130   4.382  1.7475 -0.0674 -0.1399
 6227SOL    HW230315   4.221   1.018   4.294 -0.6023 -0.4600  0.0112
 6228SOL     OW30316   0.050   2.403   1.656 -0.1052 -0.5315 -0.1333
 6228SOL    HW130317   0.105   2.339   1.702 -1.3338 -0.8826  0.8564
 6228SOL    HW230318   0.014   2.458   1.725  0.6282  0.2395 -0.3691
 6229SOL     OW30319   1.290   4.321   5.151 -0.3979 -0.3053 -0.9209
 6229SOL    HW130320   1.304   4.369   5.233 -0.8404 -0.9843 -0.4518
 6229SOL    HW230321   1.194   4.326   5.142 -0.3037  0.3416 -1.6357
 6230SOL     OW30322   2.759   1.894   0.395  0.2920  0.1953  0.2155
 6230SOL    HW130323   2.667   1.911   0.411  0.2108 -1.3561  1.4952
 6230SOL    HW230324   2.747   1.828   0.326  1.0241 -0.8890  1.1180
 6231SOL     OW30325   2.599   3.660   6.799  0.0350 -0.3131  0.0398
 6231SOL    HW130326   2.603   3.579   6.851  1.4646  1.4163  2.5990
 6231SOL    HW230327   2.603   3.620   6.712 -0.4472 -1.3626  0.4923
 6232SOL     OW30328   4.045   1.201   6.598 -0.5311  0.2661  0.0535
 6232SOL    HW130329   4.078   1.270   6.655 -1.7626  0.2944  0.7543
 6232SOL    HW230330   3.952   1.223   6.608 -0.5275  1.0244 -1.7884
 6233SOL     OW30331   0.148   2.893   2.638  0.2620 -0.2832  0.1841
 6233SOL    HW130332   0.106   2.817   2.679  0.4924  0.3450  1.5816
 6233SOL    HW230333   0.239   2.868   2.624  0.4738 -0.0750  1.1260
 6234SOL     OW30334   3.194   1.287   1.624 -0.1155 -0.0569  0.2401
 6234SOL    HW130335   3.190   1.192   1.626 -2.4689  0.0346  0.5695
 6234SOL    HW230336   3.113   1.309   1.578 -1.1911 -0.3985  1.9464
 6235SOL     OW30337   2.809   3.493   3.760  0.0793 -0.2424 -0.0105
 6235SOL    HW130338   2.734   3.531   3.714 -0.1880  0.2285  0.8206
 6235SOL    HW230339   2.794   3.519   3.850 -1.3291  0.3344 -0.4088
 6236SOL     OW30340   0.128   4.574  14.407 -0.5859 -0.1424  0.2552
 6236SOL    HW130341   0.147   4.666  14.390 -1.7160  0.1303  0.5097
 6236SOL    HW230342   0.082   4.539  14.331 -0.3508  0.1128 -0.0048
 6237SOL     OW30343   3.357   2.567   2.859 -0.7175  0.6687  0.3456
 6237SOL    HW130344   3.349   2.618   2.940  1.6591  1.7502 -0.1133
 6237SOL    HW230345   3.267   2.565   2.827  0.1423  1.7251 -2.1347
 6238SOL     OW30346   4.127   4.373  14.620  0.0563  0.7242 -0.4354
 6238SOL    HW130347   4.068   4.416  14.681  0.2238 -0.9767  0.9329
 6238SOL    HW230348   4.202   4.355  14.676 -0.3039 -2.9340 -1.0983
 6239SOL     OW30349   1.788   2.246   2.434  0.0192 -0.0116  0.1973
 6239SOL    HW130350   1.848   2.315   2.462  1.4636 -0.4963 -1.6788
 6239SOL    HW230351   1.801   2.189   2.510  1.1685 -0.3575 -0.2483
 6240SOL     OW30352   4.296   1.962   6.405 -0.2904 -0.2162 -0.1455
 6240SOL    HW130353   4.260   1.875   6.384 -1.9875  0.9921 -2.2867
 6240SOL    HW230354   4.386   1.935   6.424 -0.2472 -0.0310 -0.0910
 6241SOL     OW30355   4.606   3.862   2.817 -0.0679  0.6039  0.0848
 6241SOL    HW130356   4.623   3.831   2.728 -0.8309  0.8041 -0.1337
 6241SOL    HW230357   4.547   3.793   2.847  0.1230 -0.6405 -2.4188
 6242SOL     OW30358   3.324   1.340  13.413  0.3830 -0.2483 -0.1692
 6242SOL    HW130359   3.337   1.433  13.434  0.4386 -0.5481  1.0734
 6242SOL    HW230360   3.283   1.346  13.326  2.2749 -1.2349 -1.1408
 6243SOL     OW30361   3.283   0.371   2.732 -0.2617  0.0880  0.6201
 6243SOL    HW130362   3.197   0.353   2.694  0.2557  0.9440 -1.0074
 6243SOL    HW230363   3.328   0.293   2.700 -0.6500 -0.9861  2.6993
 6244SOL     OW30364   2.585   1.505   2.270  0.2569  0.1361  0.0967
 6244SOL    HW130365   2.494   1.503   2.239 -0.1416 -0.0498  1.2752
 6244SOL    HW230366   2.625   1.463   2.193 -1.3862  0.4479 -0.9279
 6245SOL     OW30367   3.529   4.197   5.958  0.0656 -0.1783  0.0811
 6245SOL    HW130368   3.592   4.209   6.029  0.0416 -0.5731  0.1712
 6245SOL    HW230369   3.489   4.284   5.960  1.7348  0.5591  1.4098
 6246SOL     OW30370   4.405   0.014   4.369 -0.2633  0.1918  0.3368
 6246SOL    HW130371   4.349   0.062   4.430 -1.9451 -0.9892 -0.2744
 6246SOL    HW230372   4.425   4.675   4.425 -0.1863  0.1450  0.2463
 6247SOL     OW30373   1.437   0.085   7.234 -0.4702  0.2392 -0.5284
 6247SOL    HW130374   1.528   0.109   7.251 -0.5548 -0.4619  0.9057
 6247SOL    HW230375   1.446   0.022   7.163  0.1871 -1.4807  1.0869
 6248SOL     OW30376   3.772   4.351   2.491  0.0111  0.0650 -0.2235
 6248SOL    HW130377   3.864   4.326   2.489 -0.0504 -0.0744 -0.9362
 6248SOL    HW230378   3.780   4.402   2.411  1.0953 -1.3221 -0.9848
 6249SOL     OW30379   1.805   1.584   5.749  0.2390 -0.2193  0.9067
 6249SOL    HW130380   1.722   1.591   5.796 -1.1898 -1.1858 -1.4714
 6249SOL    HW230381   1.810   1.491   5.731 -1.0746 -0.5944  2.4176
 6250SOL     OW30382   0.918   0.621   7.137 -0.1253  0.8208 -0.2021
 6250SOL    HW130383   0.901   0.528   7.119 -0.1627  0.8472 -0.2996
 6250SOL    HW230384   0.892   0.621   7.229 -1.6364  0.7615 -0.6394
 6251SOL     OW30385   0.884   1.165  14.875 -0.1430 -0.2074 -0.0040
 6251SOL    HW130386   0.964   1.121  14.848 -0.8268 -1.8053  0.5793
 6251SOL    HW230387   0.874   1.135  14.965  1.4950  0.1812  0.3186
 6252SOL     OW30388   2.677   1.408   0.052 -0.2457  0.2626  0.2598
 6252SOL    HW130389   2.692   1.330   0.105 -1.6602 -0.8894 -1.0390
 6252SOL    HW230390   2.610   1.449   0.106  0.7372  1.9056  0.2265
 6253SOL     OW30391   4.633   0.340   4.426  0.0604  0.0630  0.8065
 6253SOL    HW130392   4.604   0.405   4.490  2.6441  2.3756 -0.3923
 6253SOL    HW230393   4.624   0.256   4.472  1.0791  0.3418  1.5130
 6254SOL     OW30394   1.707   0.510  14.844  0.0641  0.8441  0.3471
 6254SOL    HW130395   1.760   0.480  14.770  0.1671  0.0951  0.7243
 6254SOL    HW230396   1.694   0.604  14.831  2.3981  0.5886 -3.7916
 6255SOL     OW30397   0.155   1.976   6.963  0.6177 -0.6342 -0.2659
 6255SOL    HW130398   0.099   1.961   6.886 -0.0504 -1.9320  0.4796
 6255SOL    HW230399   0.244   1.960   6.932 -0.0980 -2.6148 -1.2982
 6256SOL     OW30400   3.393   4.057   7.869 -0.2343 -0.3390  0.0171
 6256SOL    HW130401   3.467   4.073   7.810  0.8211 -1.5579  1.0064
 6256SOL    HW230402   3.417   4.113   7.942 -2.4820  0.2552  0.2865
 6257SOL     OW30403   1.507   2.277   8.023  0.0975  0.6064  0.4136
 6257SOL    HW130404   1.421   2.276   8.065  0.4651 -1.0672  1.1156
 6257SOL    HW230405   1.539   2.357   8.065  0.5853  0.2652  0.6852
 6258SOL     OW30406   4.115   2.346   1.560  0.8232  0.1105  0.3659
 6258SOL    HW130407   4.124   2.305   1.646  3.8944  0.4599  0.2117
 6258SOL    HW230408   4.021   2.344   1.540  1.0274 -0.0304 -0.5923
 6259SOL     OW30409   0.686   1.015  17.319  0.2867 -0.4139 -0.0502
 6259SOL    HW130410   0.670   0.988  17.409  0.1901 -3.5686 -1.0234
 6259SOL    HW230411   0.595   1.018  17.290 -0.3113  2.6348  2.0807
 6260SOL     OW30412   3.215   3.149  16.373 -0.2558  0.1341  0.2120
 6260SOL    HW130413   3.149   3.219  16.372 -0.7268 -0.3128 -0.6150
 6260SOL    HW230414   3.264   3.183  16.448 -1.9581  1.3880  0.7658
 6261SOL     OW30415   1.307   2.504  12.259  0.4473  0.2137 -0.3961
 6261SOL    HW130416   1.319   2.597  12.276 -2.7936  0.8819 -1.8744
 6261SOL    HW230417   1.214   2.495  12.277  0.3972  1.0737 -0.2257
 6262SOL     OW30418   4.359   1.528   8.644 -0.4393 -0.3512 -0.1249
 6262SOL    HW130419   4.284   1.477   8.613 -1.7879 -0.5656  3.5391
 6262SOL    HW230420   4.438   1.483   8.614  0.4165  0.6558  0.6495
 6263SOL     OW30421   2.116   2.905  17.482 -0.1543  0.2113  0.2583
 6263SOL    HW130422   2.069   2.884  17.563 -0.7727  3.0269  0.6140
 6263SOL    HW230423   2.131   2.999  17.491  0.9409  0.2926 -2.4286
 6264SOL     OW30424   3.691   0.800   2.211 -0.2453 -0.1816 -0.2442
 6264SOL    HW130425   3.703   0.728   2.273 -0.9472  0.0943  0.2069
 6264SOL    HW230426   3.625   0.845   2.263 -0.3176 -1.5913  0.8583
 6265SOL     OW30427   3.608   4.345   4.458 -0.5465 -0.3697  0.3403
 6265SOL    HW130428   3.609   4.393   4.541  1.8727 -0.1250  0.1809
 6265SOL    HW230429   3.538   4.285   4.485  1.3546 -1.8257  2.0749
 6266SOL     OW30430   2.096   2.918  12.451 -0.0387 -0.2097 -0.0045
 6266SOL    HW130431   2.157   2.889  12.518  0.9811 -0.9544 -1.2605
 6266SOL    HW230432   2.049   2.987  12.497 -1.5131 -1.5538  0.5098
 6267SOL     OW30433   1.831   3.193   7.511 -0.0975 -0.4023 -0.2211
 6267SOL    HW130434   1.796   3.271   7.556  1.8300  0.1211  0.3475
 6267SOL    HW230435   1.766   3.189   7.441  1.3781  2.2350 -1.7146
 6268SOL     OW30436   0.911   0.394   1.067 -0.0541 -0.0172 -0.2963
 6268SOL    HW130437   0.976   0.423   1.004 -0.9106  0.7321 -0.8370
 6268SOL    HW230438   0.952   0.408   1.152 -1.6131  0.8894  0.3223
 6269SOL     OW30439   1.655   3.203   3.993  0.1336 -0.6627 -0.2990
 6269SOL    HW130440   1.750   3.210   4.003  0.1476 -0.0833 -0.7877
 6269SOL    HW230441   1.647   3.182   3.900 -1.6376  2.2586 -0.8182
 6270SOL     OW30442   2.118   3.591   7.595 -1.0366  0.2108  0.3865
 6270SOL    HW130443   2.049   3.600   7.661  1.2630  3.5739  2.3142
 6270SOL    HW230444   2.084   3.641   7.521 -1.3963  0.7310  0.8986
 6271SOL     OW30445   0.463   1.269  14.590 -0.2531 -0.2041  0.5726
 6271SOL    HW130446   0.547   1.226  14.606  0.8505  0.9573 -2.2172
 6271SOL    HW230447   0.451   1.317  14.672 -4.2798  2.6892 -1.7553
 6272SOL     OW30448   3.555   0.484   5.880 -0.3700 -0.0595  0.2300
 6272SOL    HW130449   3.638   0.442   5.902  0.0054  0.2351 -0.6511
 6272SOL    HW230450   3.594   0.568   5.905 -1.2844  0.0392  1.3443
 6273SOL     OW30451   3.249   2.468   3.436  0.2477 -0.2471 -0.3492
 6273SOL    HW130452   3.310   2.536   3.407 -1.7416  0.9899 -1.6241
 6273SOL    HW230453   3.198   2.453   3.356  0.3896  0.1049 -0.5061
 6274SOL     OW30454   0.204   3.518   9.333  0.6318  0.3227 -0.3196
 6274SOL    HW130455   0.298   3.535   9.325  0.8187  1.1210  3.8753
 6274SOL    HW230456   0.165   3.593   9.378 -0.3268 -1.2847  1.5501
 6275SOL     OW30457   0.158   0.918   3.509 -0.4659  0.7504 -0.2182
 6275SOL    HW130458   0.177   0.884   3.421  1.3618  1.2738 -0.0203
 6275SOL    HW230459   0.242   0.902   3.551 -1.7585 -2.1531  1.2008
 6276SOL     OW30460   3.490   0.201  13.347  0.0516  0.4017 -0.2632
 6276SOL    HW130461   3.519   0.161  13.265 -0.6825  0.0475 -0.3516
 6276SOL    HW230462   3.414   0.150  13.376  0.6291 -0.5972 -0.5022
 6277SOL     OW30463   4.650   1.230   7.572 -0.2845 -0.5986  0.0549
 6277SOL    HW130464   4.596   1.228   7.494  2.2018  1.2306 -1.7246
 6277SOL    HW230465   4.660   1.137   7.595  1.0904 -0.7711 -1.2710
 6278SOL     OW30466   0.800   4.340  13.917  0.0663 -0.2021 -0.3765
 6278SOL    HW130467   0.759   4.285  13.984  1.0814 -1.2674 -0.6368
 6278SOL    HW230468   0.737   4.413  13.918  0.7153  0.3607  0.0423
 6279SOL     OW30469   3.490   1.495   6.850  0.1034 -0.3291  0.1571
 6279SOL    HW130470   3.507   1.422   6.910 -5.1371 -2.4988 -0.9925
 6279SOL    HW230471   3.579   1.516   6.821  1.1548 -3.4410  1.0775
 6280SOL     OW30472   1.805   3.590   7.436  0.2059 -0.3030  0.2425
 6280SOL    HW130473   1.891   3.591   7.394  0.3595 -1.8204  0.5123
 6280SOL    HW230474   1.800   3.520   7.501 -1.9505  1.0853  1.5636
 6281SOL     OW30475   0.445   4.267   8.453 -0.8229 -0.1452  0.0359
 6281SOL    HW130476   0.501   4.196   8.482  0.9363  1.5621  0.8012
 6281SOL    HW230477   0.399   4.277   8.536  1.6000 -1.5969  1.5278
 6282SOL     OW30478   3.395   4.000   5.186  0.2346  0.6561  0.2443
 6282SOL    HW130479   3.325   4.063   5.168  0.0876  0.4261  0.0216
 6282SOL    HW230480   3.470   4.060   5.193  0.5266  0.0698  2.0561
 6283SOL     OW30481   2.202   2.977  11.420 -0.2316 -0.0572  0.3302
 6283SOL    HW130482   2.241   2.974  11.507  0.6836  3.1739  0.0356
 6283SOL    HW230483   2.188   2.883  11.406 -1.2907  0.5029 -2.5203
 6284SOL     OW30484   1.456   1.608  11.868 -0.0005  0.2458  0.3969
 6284SOL    HW130485   1.367   1.633  11.894 -0.4974 -0.3258 -0.7492
 6284SOL    HW230486   1.512   1.639  11.940 -1.0694 -0.8790  1.7174
 6285SOL     OW30487   2.179   0.808   5.138 -0.1797 -0.0091 -0.1396
 6285SOL    HW130488   2.088   0.838   5.134 -0.7679 -1.7476  0.4125
 6285SOL    HW230489   2.157   0.715   5.146  3.7676 -1.1066 -2.3291
 6286SOL     OW30490   0.659   4.521   0.353  0.1524 -0.0805  0.2026
 6286SOL    HW130491   0.680   4.591   0.292  0.5661  0.6086  1.1404
 6286SOL    HW230492   0.692   4.438   0.317 -0.0078 -0.3835  0.7413
 6287SOL     OW30493   1.689   0.715   1.964 -0.0038 -0.2478 -0.0503
 6287SOL    HW130494   1.660   0.782   2.025  1.6471  0.2147  0.2384
 6287SOL    HW230495   1.633   0.645   1.997  2.3041 -2.5062 -0.9566
 6288SOL     OW30496   3.597   1.877   8.907  0.0669 -0.1716  0.0566
 6288SOL    HW130497   3.565   1.922   8.986  0.3747  0.5170 -0.2188
 6288SOL    HW230498   3.663   1.940   8.879  1.3826 -1.4587  0.2394
 6289SOL     OW30499   0.703   3.521   4.769 -0.1451 -0.1200  0.5199
 6289SOL    HW130500   0.723   3.608   4.803 -1.0305 -0.3654  1.6505
 6289SOL    HW230501   0.777   3.476   4.810  1.4490  0.5035 -1.6739
 6290SOL     OW30502   0.555   0.795  16.145  0.5133 -0.1320 -0.5212
 6290SOL    HW130503   0.579   0.882  16.177 -2.1893 -0.0958  1.3738
 6290SOL    HW230504   0.503   0.819  16.069  1.0871  0.2513 -0.7979
 6291SOL     OW30505   0.051   3.642   7.192  0.4434 -0.1925  0.0936
 6291SOL    HW130506   0.109   3.648   7.268 -0.0415 -0.9510  0.5218
 6291SOL    HW230507   0.105   3.663   7.116 -0.6561  0.7415 -0.4309
 6292SOL     OW30508   4.544   4.583   1.634  0.1550 -0.2508 -0.0244
 6292SOL    HW130509   4.563   4.618   1.547  2.7831 -1.5568  0.0059
 6292SOL    HW230510   4.457   4.545   1.620 -0.8338  1.7411  0.7508
 6293SOL     OW30511   1.475   4.677   3.582  0.6196  0.0667  0.5046
 6293SOL    HW130512   1.520   4.735   3.520 -0.2559 -0.0754 -0.2549
 6293SOL    HW230513   1.507   4.709   3.666  1.5698 -0.1708  0.2386
 6294SOL     OW30514   1.804   0.180  14.039  0.4558 -0.1683  0.1340
 6294SOL    HW130515   1.869   0.205  13.972  1.4362  2.2520  1.9860
 6294SOL    HW230516   1.844   0.162  14.124  1.2472 -2.1295 -0.6538
 6295SOL     OW30517   3.976   3.216  17.151  0.2530 -0.0101  0.1954
 6295SOL    HW130518   4.048   3.196  17.092  0.0198  0.7089 -0.3236
 6295SOL    HW230519   4.018   3.234  17.235 -0.4163  0.4549  0.4378
 6296SOL     OW30520   1.401   1.009   9.324 -0.7848  0.9145 -0.4255
 6296SOL    HW130521   1.308   1.008   9.346 -0.5612 -1.3352  0.4004
 6296SOL    HW230522   1.396   0.998   9.229 -2.3401 -3.2998  0.1319
 6297SOL     OW30523   4.523   3.706   4.129 -0.1108  0.5853  0.1491
 6297SOL    HW130524   4.452   3.643   4.129  0.1453  0.2921  2.1014
 6297SOL    HW230525   4.576   3.658   4.192  0.1408  0.9542  0.2182
 6298SOL     OW30526   2.498   1.934   0.465 -0.6655  0.5367  0.2407
 6298SOL    HW130527   2.457   2.008   0.510 -2.3455  0.6704 -1.5400
 6298SOL    HW230528   2.424   1.874   0.465  0.4784 -0.8794 -0.2415
 6299SOL     OW30529   1.618   3.637   6.521  0.3428  0.2629 -0.4071
 6299SOL    HW130530   1.611   3.555   6.472  0.0597 -0.5283  0.9274
 6299SOL    HW230531   1.570   3.686   6.455 -1.6757 -0.0103  0.8610
 6300SOL     OW30532   4.296   2.700  10.915 -0.1439 -0.8457  0.4454
 6300SOL    HW130533   4.282   2.613  10.953 -2.4383  0.1530  1.9207
 6300SOL    HW230534   4.347   2.671  10.839  0.5005 -0.8187  0.8699
 6301SOL     OW30535   1.271   1.078   1.262 -0.7390  0.9755 -0.2217
 6301SOL    HW130536   1.307   1.165   1.277 -1.6974  1.4975 -0.9280
 6301SOL    HW230537   1.264   1.048   1.353  0.4786  2.4732  0.3615
 6302SOL     OW30538   0.472   3.998   9.753 -0.4910 -0.3763 -0.1931
 6302SOL    HW130539   0.408   4.068   9.761 -1.5497 -1.1642 -1.6338
 6302SOL    HW230540   0.552   4.042   9.724 -1.1530  0.6224 -0.5027
 6303SOL     OW30541   4.230   4.621  13.792  0.0407  0.0177  0.4273
 6303SOL    HW130542   4.237   4.703  13.744 -0.8021 -0.5919 -0.7410
 6303SOL    HW230543   4.140   4.595  13.773  0.0520  0.4967 -0.2554
 6304SOL     OW30544   0.218   4.705   7.680 -0.3118  0.4508 -0.3322
 6304SOL    HW130545   0.175   4.724   7.764  0.6498 -3.0129  0.9204
 6304SOL    HW230546   0.150   4.656   7.633 -0.4465 -0.0199  0.3617
 6305SOL     OW30547   0.443   4.570  13.029 -0.2402  0.3554  0.0814
 6305SOL    HW130548   0.451   4.476  13.043  0.5549  0.2196 -1.2835
 6305SOL    HW230549   0.347   4.573  13.027 -0.2727 -0.3954  0.8267
 6306SOL     OW30550   4.507   4.612   0.516 -0.2931 -0.1839 -0.2988
 6306SOL    HW130551   4.453   4.557   0.573 -1.4904  2.8037  1.4515
 6306SOL    HW230552   4.486   4.692   0.564 -1.0581 -0.2478 -0.5207
 6307SOL     OW30553   1.225   2.971  13.451  0.6215  0.0283 -0.1679
 6307SOL    HW130554   1.305   2.921  13.468  0.3222  0.6152  3.1094
 6307SOL    HW230555   1.167   2.915  13.503  1.4499 -0.1545  0.5714
 6308SOL     OW30556   1.509   3.469   7.917  0.0008  0.7627  0.0138
 6308SOL    HW130557   1.433   3.496   7.866 -2.0667 -2.4443  1.3878
 6308SOL    HW230558   1.496   3.509   8.003 -2.8310 -0.2586  0.0426
 6309SOL     OW30559   2.238   2.452   6.265  0.2623  0.5459  0.3103
 6309SOL    HW130560   2.325   2.420   6.289 -0.9770 -3.5583 -0.6541
 6309SOL    HW230561   2.181   2.397   6.319  1.7293 -0.6989  0.5883
 6310SOL     OW30562   4.606   0.047   8.258 -0.2242  0.1324  0.2204
 6310SOL    HW130563   4.674   0.110   8.283 -0.8278  0.4825  0.9994
 6310SOL    HW230564   4.537   0.105   8.225 -0.0015 -0.1125 -0.6618
 6311SOL     OW30565   1.891   2.634   7.998  0.4662 -0.2090  0.0704
 6311SOL    HW130566   1.917   2.605   7.910  1.3208  0.4839  0.0961
 6311SOL    HW230567   1.935   2.719   8.010  1.5890 -1.1487  2.4408
 6312SOL     OW30568   0.371   4.097   2.100  0.0958  0.2053  0.3065
 6312SOL    HW130569   0.376   4.073   2.007  2.6692 -2.1508  1.0220
 6312SOL    HW230570   0.398   4.016   2.143  0.4650 -0.4319 -1.1413
 6313SOL     OW30571   4.554   1.165   0.214 -0.1848  0.0780  0.3716
 6313SOL    HW130572   4.630   1.197   0.262 -0.5875 -0.3040  1.2618
 6313SOL    HW230573   4.534   1.088   0.267  0.0761  1.4234  2.4275
 6314SOL     OW30574   2.036   4.129   6.439 -0.2404  0.0564  0.1343
 6314SOL    HW130575   2.091   4.101   6.366 -0.3855  0.7576 -0.2423
 6314SOL    HW230576   2.101   4.148   6.506 -1.7847  2.3499  0.9662
 6315SOL     OW30577   0.644   4.071   8.504 -0.5902 -0.6767 -0.6294
 6315SOL    HW130578   0.702   4.101   8.434  0.4119 -0.7040  0.1978
 6315SOL    HW230579   0.606   4.001   8.451 -1.5167 -0.1780 -0.6339
 6316SOL     OW30580   3.583   2.977   0.616 -0.0677  0.0083 -0.3920
 6316SOL    HW130581   3.567   2.908   0.553 -0.6771  0.9437 -1.2534
 6316SOL    HW230582   3.630   2.940   0.691  0.3131 -0.5679 -0.9156
 6317SOL     OW30583   2.664   2.219  17.608 -0.4521  0.1474  0.0928
 6317SOL    HW130584   2.575   2.220  17.641 -0.2529  1.6067  0.5622
 6317SOL    HW230585   2.672   2.306  17.569  0.4423 -1.5968 -3.6010
 6318SOL     OW30586   1.668   4.395  11.255 -0.1207 -0.2685  0.7710
 6318SOL    HW130587   1.595   4.380  11.315  1.0041 -0.1437  2.1514
 6318SOL    HW230588   1.703   4.472  11.300 -2.7591  0.1408  2.1574
 6319SOL     OW30589   4.468   0.388   1.152  0.6695 -0.0053 -0.1349
 6319SOL    HW130590   4.474   0.478   1.119 -0.1406  0.0065 -0.2542
 6319SOL    HW230591   4.516   0.398   1.234 -0.3742 -1.2015  0.6160
 6320SOL     OW30592   0.873   2.104   1.536 -0.4346  0.0859 -0.3563
 6320SOL    HW130593   0.918   2.023   1.512  0.6248 -0.1132  2.3102
 6320SOL    HW230594   0.903   2.120   1.625  0.6012  0.5039 -0.7823
 6321SOL     OW30595   1.972   3.484   1.293 -0.0452  0.1879 -0.6825
 6321SOL    HW130596   2.035   3.554   1.273  0.7651  0.2105  2.0257
 6321SOL    HW230597   2.009   3.441   1.370 -0.8047 -1.3352 -1.1659
 6322SOL     OW30598   2.060   3.989   9.181  0.3091 -0.0417 -0.1246
 6322SOL    HW130599   2.078   3.897   9.196  2.2393  0.3788  0.1395
 6322SOL    HW230600   2.038   4.024   9.268  0.7143  0.1127 -0.0805
 6323SOL     OW30601   4.426   1.661   5.688 -0.4997 -0.0983 -0.0683
 6323SOL    HW130602   4.445   1.616   5.606  0.2813  1.0701 -0.5410
 6323SOL    HW230603   4.346   1.709   5.669 -0.6095 -0.7376 -1.2038
 6324SOL     OW30604   0.527   1.582   3.628 -0.1263 -0.0099  0.2326
 6324SOL    HW130605   0.517   1.488   3.614  3.0651 -0.0623 -1.6251
 6324SOL    HW230606   0.436   1.603   3.606 -0.5707 -1.4890  0.6129
 6325SOL     OW30607   3.492   3.102   3.725 -0.6344 -0.2369 -0.2753
 6325SOL    HW130608   3.496   3.010   3.752 -1.9013 -0.3243 -0.3872
 6325SOL    HW230609   3.415   3.101   3.669 -1.0255 -2.7147  0.2911
 6326SOL     OW30610   2.381   0.763   6.406  0.2126  0.0295 -0.0794
 6326SOL    HW130611   2.389   0.766   6.501  0.2419 -1.5747 -0.0365
 6326SOL    HW230612   2.342   0.676   6.394 -2.4201  1.3517 -1.0702
 6327SOL     OW30613   0.494   1.253   2.420  0.2850  0.2258 -0.2890
 6327SOL    HW130614   0.441   1.202   2.359 -0.4228  0.8951 -0.2303
 6327SOL    HW230615   0.561   1.188   2.439  0.3768  0.8393  1.5100
 6328SOL     OW30616   4.061   2.959   4.138 -0.5840 -0.7550  0.0906
 6328SOL    HW130617   4.081   2.927   4.225  0.5876 -0.1435  0.0431
 6328SOL    HW230618   3.974   2.999   4.144  0.8711  2.4282  0.0510
 6329SOL     OW30619   3.011   2.225   8.533 -0.5293 -0.2771 -0.2606
 6329SOL    HW130620   3.036   2.170   8.608 -0.4023  1.8779  1.2867
 6329SOL    HW230621   2.960   2.292   8.579 -0.3428  0.6671 -1.4172
 6330SOL     OW30622   2.415   2.223  15.091  0.3988  0.9071 -0.0053
 6330SOL    HW130623   2.408   2.312  15.125  1.2142  1.6456 -1.7530
 6330SOL    HW230624   2.415   2.169  15.170 -2.4461  2.5049  1.0604
 6331SOL     OW30625   3.896   1.207   2.182  0.2551 -0.4499 -0.2625
 6331SOL    HW130626   3.959   1.152   2.228 -0.2755 -0.3806  0.5359
 6331SOL    HW230627   3.872   1.150   2.109  1.5128 -0.1908 -0.8794
 6332SOL     OW30628   0.334   4.627   8.704 -0.3563 -0.1055 -0.5469
 6332SOL    HW130629   0.279   4.550   8.713  1.0706 -0.9660  0.7307
 6332SOL    HW230630   0.276   4.697   8.674  0.4170  0.8302  0.1567
 6333SOL     OW30631   4.339   1.198   1.260  0.2353 -0.1441 -0.8618
 6333SOL    HW130632   4.399   1.232   1.193  0.4499 -1.5305 -1.3718
 6333SOL    HW230633   4.363   1.260   1.329 -0.0366  1.8049 -2.5124
 6334SOL     OW30634   2.677   2.969   2.818 -0.3019 -0.1428 -0.1678
 6334SOL    HW130635   2.641   2.909   2.753  0.2420 -0.1514 -0.4674
 6334SOL    HW230636   2.647   3.055   2.791 -1.4194 -1.1794 -2.1926
 6335SOL     OW30637   1.984   2.964  14.517 -0.2024 -0.4775  0.0414
 6335SOL    HW130638   2.009   2.934  14.605  0.0987  0.3303  0.2243
 6335SOL    HW230639   2.060   2.928  14.471 -1.0769  0.6275 -2.2637
 6336SOL     OW30640   3.192   1.373   2.676  0.8356 -0.2145  0.2914
 6336SOL    HW130641   3.216   1.403   2.588 -2.4298  1.2071 -0.1002
 6336SOL    HW230642   3.275   1.386   2.722  0.3411 -1.2771  1.4735
 6337SOL     OW30643   2.148   4.709   3.591  0.6888 -0.3848  0.2818
 6337SOL    HW130644   2.167   4.689   3.682  1.7378 -0.4194  0.0521
 6337SOL    HW230645   2.053   4.715   3.584  0.6632 -2.9093 -1.6086
 6338SOL     OW30646   3.887   3.726   6.162  0.0161 -0.1916 -0.0177
 6338SOL    HW130647   3.847   3.723   6.075 -0.0086  1.2161 -0.0507
 6338SOL    HW230648   3.885   3.820   6.176  0.1931 -0.0097 -1.1809
 6339SOL     OW30649   4.653   4.059  17.364 -0.0903 -0.1447  0.3888
 6339SOL    HW130650   4.626   4.019  17.281 -0.1276  2.3616 -0.8202
 6339SOL    HW230651   4.667   4.153  17.351  0.8980 -0.5766 -1.8182
 6340SOL     OW30652   1.771   4.567   7.952 -0.1366  0.4830  0.4211
 6340SOL    HW130653   1.794   4.640   8.010 -0.1040  0.0862  0.9038
 6340SOL    HW230654   1.812   4.592   7.869  0.1605 -1.6961 -0.0814
 6341SOL     OW30655   0.143   0.193   2.607 -0.0602 -0.4444 -0.0257
 6341SOL    HW130656   0.120   0.232   2.522  0.0723 -1.3098 -0.4581
 6341SOL    HW230657   0.238   0.193   2.601  0.0682 -1.2718  2.0881
 6342SOL     OW30658   3.548   0.800   4.913 -0.6212  0.2905 -0.0875
 6342SOL    HW130659   3.583   0.711   4.910 -0.8672  0.2490 -1.6009
 6342SOL    HW230660   3.605   0.844   4.976  0.2181  1.5512 -1.7413
 6343SOL     OW30661   2.530   0.128   7.676  0.1955  0.9647 -0.0741
 6343SOL    HW130662   2.450   0.148   7.725 -1.4693 -0.2736 -2.3135
 6343SOL    HW230663   2.518   0.039   7.643  1.8801  0.6940  0.0396
 6344SOL     OW30664   0.500   1.632  14.543  0.2299 -0.5471 -0.2692
 6344SOL    HW130665   0.495   1.577  14.465  0.2441  0.9402 -1.3206
 6344SOL    HW230666   0.555   1.705  14.512  0.2811  0.3048  1.8293
 6345SOL     OW30667   2.055   2.425   3.600 -0.5230 -0.0036  0.0502
 6345SOL    HW130668   2.020   2.364   3.665 -2.3061 -0.4004 -1.3031
 6345SOL    HW230669   2.004   2.506   3.603 -2.1852 -1.0764  0.1265
 6346SOL     OW30670   2.955   2.864  13.111 -0.5522  0.2089  0.6842
 6346SOL    HW130671   2.916   2.806  13.178  0.4541 -0.2336  0.8913
 6346SOL    HW230672   2.973   2.947  13.156 -1.8811  0.9174 -0.1064
 6347SOL     OW30673   0.900   0.482  16.280 -0.0688  0.2020  0.0783
 6347SOL    HW130674   0.841   0.498  16.353 -0.7851 -1.1333 -0.2219
 6347SOL    HW230675   0.988   0.471  16.318  1.0752  1.0228 -2.3355
 6348SOL     OW30676   4.306   1.631   3.288  0.4239  0.6855  0.2464
 6348SOL    HW130677   4.344   1.674   3.211 -0.0888  0.2132 -0.2754
 6348SOL    HW230678   4.384   1.617   3.342  1.2928 -1.8712 -1.6449
 6349SOL     OW30679   3.873   0.503  14.169  0.6398 -0.1319 -0.4461
 6349SOL    HW130680   3.812   0.537  14.105  1.5735  2.6095  0.1077
 6349SOL    HW230681   3.945   0.480  14.109  1.4902 -0.6148  0.7470
 6350SOL     OW30682   4.071   1.208   0.528  0.2088 -0.1256 -0.4494
 6350SOL    HW130683   4.082   1.221   0.433 -0.8391 -0.3603 -0.5993
 6350SOL    HW230684   4.066   1.113   0.534  0.7555 -0.1599 -0.5064
 6351SOL     OW30685   2.760   1.623   3.255  0.1655  0.4329 -1.0951
 6351SOL    HW130686   2.822   1.558   3.289 -0.9667 -0.2288 -0.3117
 6351SOL    HW230687   2.766   1.705   3.304 -1.6577  0.5178 -1.0162
 6352SOL     OW30688   1.178   4.096  10.486 -0.1797  1.0128 -0.0298
 6352SOL    HW130689   1.104   4.080  10.545 -0.0992  3.1078  0.6419
 6352SOL    HW230690   1.146   4.058  10.405  1.9703 -2.9169  0.9756
 6353SOL     OW30691   2.773   2.982   8.364 -0.0645  0.4219 -0.2079
 6353SOL    HW130692   2.800   3.038   8.437  2.5766 -0.7948 -0.2657
 6353SOL    HW230693   2.792   3.036   8.287 -0.2812 -0.0924 -0.6245
 6354SOL     OW30694   4.628   3.424   7.916 -0.0070  0.2356  0.3274
 6354SOL    HW130695   4.675   3.386   7.842  0.8805  1.8010  0.0901
 6354SOL    HW230696   4.634   3.517   7.896  0.3024  0.0183 -0.5803
 6355SOL     OW30697   2.107   0.220   6.889  0.2619  0.1062  0.0896
 6355SOL    HW130698   2.144   0.133   6.872  2.3529  1.1593 -0.7339
 6355SOL    HW230699   2.176   0.284   6.875  0.4428 -0.2428 -0.5928
 6356SOL     OW30700   3.913   3.387   5.070  0.0773 -0.5306  0.0293
 6356SOL    HW130701   3.923   3.294   5.050 -1.0468 -1.1493  2.3918
 6356SOL    HW230702   3.977   3.411   5.137 -0.5617  2.5592 -0.4505
 6357SOL     OW30703   2.071   3.668   7.294  0.3679  0.1310 -0.0684
 6357SOL    HW130704   2.093   3.761   7.293  0.9227 -0.0121 -1.0925
 6357SOL    HW230705   2.157   3.645   7.258 -0.0584  2.5516 -2.6683
 6358SOL     OW30706   0.819   1.931   4.621 -0.4982 -0.0661 -0.4317
 6358SOL    HW130707   0.901   1.959   4.661 -0.1385 -3.1746  1.0138
 6358SOL    HW230708   0.765   2.010   4.622 -1.8949 -1.0378  2.5099
 6359SOL     OW30709   0.508   3.435   8.540 -0.5160 -0.8023 -0.2233
 6359SOL    HW130710   0.454   3.388   8.604 -0.6040 -0.1639  0.1801
 6359SOL    HW230711   0.571   3.367   8.518  0.7826  0.8098 -1.4363
 6360SOL     OW30712   3.303   4.101   5.505 -0.3666  0.2229 -0.4112
 6360SOL    HW130713   3.280   4.013   5.477 -1.7189  0.1656  0.9113
 6360SOL    HW230714   3.225   4.134   5.550  0.6997  1.2328  0.7117
 6361SOL     OW30715   4.134   3.780   8.525  0.4383  0.4049  0.0459
 6361SOL    HW130716   4.083   3.714   8.572  0.3737  1.5964  1.6629
 6361SOL    HW230717   4.213   3.799   8.575  2.3535 -1.9202 -2.0864
 6362SOL     OW30718   2.732   2.722   8.626 -0.4776  0.0901 -0.2119
 6362SOL    HW130719   2.695   2.760   8.547 -0.4780 -0.6455 -0.5627
 6362SOL    HW230720   2.795   2.792   8.643  0.3746 -0.5272 -0.8130
 6363SOL     OW30721   3.917   2.711  13.475 -0.4355 -0.6104  0.3236
 6363SOL    HW130722   3.896   2.701  13.568  1.2119 -0.3704  0.7232
 6363SOL    HW230723   3.868   2.634  13.447 -1.5112  0.4884 -0.7923
 6364SOL     OW30724   0.650   1.780  12.965  0.3897 -0.4881  0.2252
 6364SOL    HW130725   0.610   1.797  12.879  1.3700  0.4510 -0.0433
 6364SOL    HW230726   0.743   1.789  12.947  0.2579  4.4667  2.0271
 6365SOL     OW30727   3.235   2.787   5.617 -0.0446 -0.3611  0.6316
 6365SOL    HW130728   3.253   2.833   5.535 -0.3456 -0.8194  0.3038
 6365SOL    HW230729   3.320   2.809   5.654  0.1938  0.1192 -0.2052
 6366SOL     OW30730   2.916   4.209   3.535  0.1456  0.4623 -0.3392
 6366SOL    HW130731   2.824   4.182   3.542 -0.1006  1.1766 -0.8469
 6366SOL    HW230732   2.914   4.304   3.524 -2.1702  0.3697 -0.7219
 6367SOL     OW30733   3.886   2.605   8.430  0.1451 -0.0582  0.4263
 6367SOL    HW130734   3.845   2.519   8.420  0.1647 -0.0982  0.6932
 6367SOL    HW230735   3.953   2.580   8.494  2.0838  0.2405 -1.4945
 6368SOL     OW30736   1.230   2.453   0.046 -0.2855  0.2887  0.2548
 6368SOL    HW130737   1.223   2.366   0.005  0.7027  0.6981 -0.7752
 6368SOL    HW230738   1.317   2.456   0.086 -0.2302  0.6799  0.1086
 6369SOL     OW30739   0.000   2.271   4.775 -0.1619 -1.2042 -0.0324
 6369SOL    HW130740   0.002   2.360   4.739 -1.4152 -1.6938 -1.3158
 6369SOL    HW230741   4.650   2.256   4.815  0.6076 -1.1709  1.6326
 6370SOL     OW30742   3.135   3.524   9.184 -0.2769 -0.1601  0.2120
 6370SOL    HW130743   3.115   3.581   9.110 -2.0974 -1.5580 -0.3598
 6370SOL    HW230744   3.113   3.437   9.150 -1.0270  0.5110 -0.9821
 6371SOL     OW30745   0.326   3.468   3.002 -0.0646 -0.6842 -0.1543
 6371SOL    HW130746   0.408   3.423   2.986 -0.0326 -0.5552 -0.3516
 6371SOL    HW230747   0.283   3.416   3.070  0.0355 -0.6930 -0.0988
 6372SOL     OW30748   2.336   2.004   9.507 -0.2687 -0.0629 -0.0544
 6372SOL    HW130749   2.358   1.934   9.568  1.6469  1.1434  0.6266
 6372SOL    HW230750   2.310   1.959   9.426 -0.1836  1.0417 -0.6950
 6373SOL     OW30751   3.856   2.067   0.634 -0.2109 -0.0778  0.2441
 6373SOL    HW130752   3.870   2.011   0.558 -0.4469 -1.2378  1.0552
 6373SOL    HW230753   3.805   2.134   0.588 -3.6500 -2.8189  0.0867
 6374SOL     OW30754   2.485   0.992   8.015  0.5942  0.1233 -0.5548
 6374SOL    HW130755   2.462   0.918   7.958  2.7285 -0.6039 -0.4510
 6374SOL    HW230756   2.578   0.982   8.034  0.3611  0.9318  0.9413
 6375SOL     OW30757   0.557   3.131   1.621 -0.0884  0.5713 -0.5918
 6375SOL    HW130758   0.603   3.048   1.616  2.0887  1.7540 -0.3458
 6375SOL    HW230759   0.576   3.168   1.535 -0.0359 -0.4614 -1.0146
 6376SOL     OW30760   4.158   2.473   5.135 -0.3025 -0.8592 -0.3765
 6376SOL    HW130761   4.221   2.538   5.165  0.9465 -1.7883 -0.9589
 6376SOL    HW230762   4.178   2.409   5.204 -0.5317  0.8371  1.2715
 6377SOL     OW30763   1.700   4.603   0.183  0.2675 -0.0291 -0.6277
 6377SOL    HW130764   1.606   4.595   0.196  0.0687  1.8441 -0.8821
 6377SOL    HW230765   1.736   4.618   0.270 -1.6471  0.9783 -0.0249
 6378SOL     OW30766   2.666   1.594   6.778  0.0765 -0.0019  0.0496
 6378SOL    HW130767   2.573   1.614   6.790 -0.0377 -0.1573 -0.5827
 6378SOL    HW230768   2.674   1.511   6.825 -2.3676 -1.3962 -1.9822
 6379SOL     OW30769   1.839   0.176   3.802  0.5683 -0.1022 -0.0424
 6379SOL    HW130770   1.877   0.196   3.888  0.0598  1.7897 -0.2591
 6379SOL    HW230771   1.797   0.091   3.819 -0.7056  0.2808 -1.2683
 6380SOL     OW30772   0.638   3.246   2.198 -0.2157 -0.8538  0.3691
 6380SOL    HW130773   0.574   3.189   2.155 -1.2867 -0.1584  1.0733
 6380SOL    HW230774   0.576   3.309   2.233 -1.4099 -0.8226 -1.8594
 6381SOL     OW30775   0.576   0.758  13.151 -0.2973 -0.4423 -0.0654
 6381SOL    HW130776   0.542   0.847  13.147  1.2928  0.1403 -0.5546
 6381SOL    HW230777   0.662   0.780  13.187 -0.6754  2.1403 -0.7816
 6382SOL     OW30778   2.278   4.179   3.609 -0.6907 -0.5083  0.3887
 6382SOL    HW130779   2.210   4.177   3.542 -0.9732  2.6380  0.5594
 6382SOL    HW230780   2.310   4.089   3.601 -0.0089 -0.0288 -2.1704
 6383SOL     OW30781   3.407   1.917   2.927 -0.7599 -0.1517 -0.6187
 6383SOL    HW130782   3.397   2.001   2.882  1.2746  0.8511  0.7788
 6383SOL    HW230783   3.499   1.892   2.924 -0.0173  2.7319 -1.6517
 6384SOL     OW30784   3.454   1.784   7.406 -0.2582 -1.0037  0.4932
 6384SOL    HW130785   3.487   1.735   7.481  0.8949 -1.2867 -0.1871
 6384SOL    HW230786   3.370   1.814   7.440 -0.5570 -0.7748 -0.4501
 6385SOL     OW30787   3.593   0.510   2.962 -0.7939  0.5864 -0.6270
 6385SOL    HW130788   3.615   0.421   2.989 -0.9201  0.0807 -2.1921
 6385SOL    HW230789   3.660   0.526   2.895 -0.3501  0.7354 -0.1439
 6386SOL     OW30790   2.827   3.063   9.943  0.1255 -0.2095  0.0914
 6386SOL    HW130791   2.857   3.051  10.034 -2.6848 -1.2009  0.9059
 6386SOL    HW230792   2.798   2.973   9.925 -2.5481  0.8979 -1.0685
 6387SOL     OW30793   3.007   3.965   7.936  0.0782  0.0871  0.6110
 6387SOL    HW130794   3.059   3.987   7.859 -0.1666 -0.4577  0.2911
 6387SOL    HW230795   3.007   4.041   7.994  0.2963  1.1078 -0.7603
 6388SOL     OW30796   1.928   1.670   1.631  0.3536 -0.2929  0.6425
 6388SOL    HW130797   1.896   1.747   1.585 -1.0315 -1.1237  0.1888
 6388SOL    HW230798   1.983   1.627   1.565 -0.2181  0.0075 -0.0383
 6389SOL     OW30799   3.118   1.757   8.668  0.1616  0.0581  0.3516
 6389SOL    HW130800   3.136   1.663   8.663  0.7825  0.2977 -1.8327
 6389SOL    HW230801   3.155   1.788   8.585  0.1250 -0.6473  0.0732
 6390SOL     OW30802   3.763   3.285  15.526 -0.1805  0.3011  0.3394
 6390SOL    HW130803   3.748   3.379  15.529  0.5724  0.2516  4.9487
 6390SOL    HW230804   3.799   3.283  15.437  1.4624  0.9447  0.9980
 6391SOL     OW30805   2.696   1.450  13.831 -0.6775 -0.3602 -0.1636
 6391SOL    HW130806   2.646   1.381  13.875 -0.0635 -1.5840 -1.4111
 6391SOL    HW230807   2.631   1.519  13.817  0.6196  0.5518 -1.6678
 6392SOL     OW30808   1.127   3.842   6.425  0.4283 -0.8398 -0.0068
 6392SOL    HW130809   1.193   3.904   6.396  0.7836 -0.1171  2.3120
 6392SOL    HW230810   1.103   3.818   6.335 -0.6401  1.9815 -0.4657
 6393SOL     OW30811   4.178   2.068  12.674  0.4389 -0.4791  0.3826
 6393SOL    HW130812   4.224   2.093  12.755  0.0407  2.2755 -0.2687
 6393SOL    HW230813   4.200   2.147  12.625  0.3852  0.0323  1.1785
 6394SOL     OW30814   3.558   3.492   4.591  0.1873 -0.1289  0.2390
 6394SOL    HW130815   3.496   3.539   4.536  0.3612  0.8271  0.8476
 6394SOL    HW230816   3.504   3.480   4.670  1.8239 -0.5778  1.2952
 6395SOL     OW30817   2.585   2.620   0.480 -0.1824  0.5047 -0.1828
 6395SOL    HW130818   2.603   2.692   0.541 -1.2953 -0.1216  0.8777
 6395SOL    HW230819   2.508   2.653   0.433 -0.4074  0.3212  0.0563
 6396SOL     OW30820   3.380   3.857   7.058  0.6583  0.2610 -0.1097
 6396SOL    HW130821   3.443   3.786   7.044  0.4369  0.1379 -0.4914
 6396SOL    HW230822   3.302   3.816   7.021  0.6967 -0.2188  0.3506
 6397SOL     OW30823   2.016   3.037   1.504 -0.0751 -1.1084 -0.1462
 6397SOL    HW130824   2.035   3.045   1.410  0.4801 -1.3756 -0.0541
 6397SOL    HW230825   2.105   3.055   1.535 -1.3026  2.3937  1.2914
 6398SOL     OW30826   4.261   2.580   0.904  0.6581  0.0123 -0.1192
 6398SOL    HW130827   4.286   2.672   0.896  0.6246 -0.0157 -0.5795
 6398SOL    HW230828   4.255   2.563   0.810  1.2921  1.7463 -0.4733
 6399SOL     OW30829   2.794   2.500   7.373 -0.2369  0.2549 -0.0776
 6399SOL    HW130830   2.737   2.574   7.389  0.9339  1.3863 -1.1426
 6399SOL    HW230831   2.848   2.501   7.453 -0.5614  1.3346  0.1274
 6400SOL     OW30832   1.377   4.719   1.828  0.3596 -0.1145  0.1095
 6400SOL    HW130833   1.349   4.711   1.737 -2.1539  1.3293  0.7269
 6400SOL    HW230834   1.306   4.669   1.868 -0.9139  0.7491 -1.0537
 6401SOL     OW30835   3.513   1.444   5.886  0.6883  0.2709 -0.1578
 6401SOL    HW130836   3.546   1.513   5.829  0.7806  0.0593 -0.3584
 6401SOL    HW230837   3.556   1.473   5.967  1.2558  0.6474 -0.6016
 6402SOL     OW30838   2.878   0.742   4.264  0.1926 -0.6251  0.3074
 6402SOL    HW130839   2.854   0.793   4.342 -1.6204 -0.7194 -0.1785
 6402SOL    HW230840   2.796   0.758   4.217  0.1970 -3.2384 -0.5656
 6403SOL     OW30841   1.989   3.352  10.668 -0.1301 -0.2033 -0.5446
 6403SOL    HW130842   1.933   3.319  10.597 -1.5292  1.2305 -0.1075
 6403SOL    HW230843   1.939   3.427  10.699  2.0953  1.1982 -0.4049
 6404SOL     OW30844   1.430   1.215  17.228  0.2937 -0.4226 -0.3298
 6404SOL    HW130845   1.436   1.121  17.211  0.3831 -0.9218  2.5119
 6404SOL    HW230846   1.410   1.240  17.138  1.0454 -0.2908 -0.4611
 6405SOL     OW30847   0.948   2.019  12.376  0.1364 -0.7000  0.1737
 6405SOL    HW130848   0.928   1.945  12.433  1.3517 -1.1522  0.0044
 6405SOL    HW230849   0.865   2.026  12.329 -0.5727  0.8635  1.6503
 6406SOL     OW30850   2.988   4.389  10.712  0.7504 -0.1824 -0.1716
 6406SOL    HW130851   2.918   4.323  10.716  0.1434  0.3613 -2.0206
 6406SOL    HW230852   3.065   4.332  10.709  1.0831  0.2699 -0.1392
 6407SOL     OW30853   0.466   0.094  15.043  0.2452 -0.2354  0.2082
 6407SOL    HW130854   0.547   0.057  15.008  0.1225  0.0029 -0.3263
 6407SOL    HW230855   0.405   0.020  15.051  1.0774 -0.8843  0.5506
 6408SOL     OW30856   2.771   2.705   6.630 -0.2549 -0.2990 -0.9724
 6408SOL    HW130857   2.704   2.679   6.567 -0.3978 -0.6404 -0.6767
 6408SOL    HW230858   2.849   2.696   6.575  0.8117  1.0156  0.3581
 6409SOL     OW30859   4.146   0.726  15.993 -0.5773  0.5049 -0.1979
 6409SOL    HW130860   4.196   0.673  15.931 -0.9905  0.4284 -0.4656
 6409SOL    HW230861   4.112   0.801  15.943  0.1279  1.4595  0.7708
 6410SOL     OW30862   4.156   4.548   4.680 -0.1240  0.4848  0.4190
 6410SOL    HW130863   4.080   4.602   4.661  0.6517  0.4244 -2.8319
 6410SOL    HW230864   4.127   4.463   4.645  0.1386  1.3356 -1.8524
 6411SOL     OW30865   1.103   3.673   5.255  0.1876 -0.0990 -0.8516
 6411SOL    HW130866   1.077   3.731   5.182  1.0676  1.1862 -0.1515
 6411SOL    HW230867   1.045   3.707   5.323  1.2884 -0.3582  0.2230
 6412SOL     OW30868   0.880   0.525   7.564 -0.1126  0.7132  0.2595
 6412SOL    HW130869   0.889   0.577   7.644  0.7410  0.5104  0.2952
 6412SOL    HW230870   0.837   0.588   7.505  1.7252  1.2959 -0.4473
 6413SOL     OW30871   0.702   0.068  14.896  0.1789  0.3700  0.0677
 6413SOL    HW130872   0.734   4.714  14.908 -0.6655  0.2389  1.2921
 6413SOL    HW230873   0.753   0.092  14.818 -2.6018  1.1475 -1.5047
 6414SOL     OW30874   0.080   0.663   3.177  1.0594  0.1186 -0.4769
 6414SOL    HW130875   0.091   0.578   3.134 -2.2230 -1.0911  1.0473
 6414SOL    HW230876   0.132   0.653   3.256  1.8679 -1.5354 -1.2073
 6415SOL     OW30877   2.091   4.541   4.587  0.5659  0.5717  0.6113
 6415SOL    HW130878   2.171   4.582   4.621  0.7166  1.4176 -0.7760
 6415SOL    HW230879   2.113   4.452   4.615 -2.1772 -0.0577  0.7199
 6416SOL     OW30880   1.701   1.581   8.963  0.3651 -0.5395 -0.1241
 6416SOL    HW130881   1.741   1.553   9.045  1.0326  1.0562  0.1028
 6416SOL    HW230882   1.666   1.500   8.926  0.7145  0.4910 -2.7427
 6417SOL     OW30883   4.724   4.624  14.652 -0.1645  1.1036  0.1041
 6417SOL    HW130884   4.680   4.696  14.606 -0.5050  1.2756  0.7076
 6417SOL    HW230885   0.041   4.586  14.581 -0.1053  0.6315  0.4016
 6418SOL     OW30886   1.687   3.162   2.361 -0.1494 -0.0156  0.7565
 6418SOL    HW130887   1.767   3.189   2.315 -0.0940 -2.2327 -0.4384
 6418SOL    HW230888   1.697   3.067   2.354  0.6291  0.1767 -0.7245
 6419SOL     OW30889   4.605   0.493   1.727  0.2788  0.0709 -0.5038
 6419SOL    HW130890   4.598   0.562   1.793 -0.6007 -0.7373  0.2457
 6419SOL    HW230891   4.513   0.501   1.703  0.0603  0.4714  0.4365
 6420SOL     OW30892   4.592   2.217  11.096 -0.1571 -0.7570 -0.1154
 6420SOL    HW130893   4.671   2.164  11.080  0.2684 -1.2367  3.4989
 6420SOL    HW230894   4.625   2.301  11.066 -1.1312 -0.5364 -0.5397
 6421SOL     OW30895   2.991   1.101   3.987  0.0030  0.6255  0.1268
 6421SOL    HW130896   2.906   1.144   3.982 -1.5222 -2.3158  1.2852
 6421SOL    HW230897   3.005   1.124   4.079  0.5921 -1.5347  0.5810
 6422SOL     OW30898   3.958   3.727   5.288  0.0552 -1.1160 -0.4660
 6422SOL    HW130899   4.009   3.785   5.345  0.0842 -0.5171 -1.1068
 6422SOL    HW230900   3.948   3.789   5.216 -0.5738  1.6032  1.9314
 6423SOL     OW30901   1.379   0.541   9.713 -0.1479  0.6002 -0.7751
 6423SOL    HW130902   1.435   0.564   9.639 -1.1416 -1.1066 -2.0806
 6423SOL    HW230903   1.410   0.599   9.782  2.5943 -2.7305  0.8377
 6424SOL     OW30904   1.453   3.292  13.576  0.1667  0.4814 -0.5079
 6424SOL    HW130905   1.515   3.356  13.612  0.5543 -0.3141  0.2389
 6424SOL    HW230906   1.499   3.208  13.575 -2.1420 -0.7941  2.8143
 6425SOL     OW30907   3.981   4.426   7.188 -0.0553 -0.6700 -0.1261
 6425SOL    HW130908   3.938   4.440   7.272  1.4605  0.1203  0.5132
 6425SOL    HW230909   3.955   4.505   7.142  0.6427  1.2858  2.8493
 6426SOL     OW30910   0.127   1.630   7.473 -0.0114 -0.0617  0.4768
 6426SOL    HW130911   0.155   1.575   7.400  0.9746  1.5987 -0.3875
 6426SOL    HW230912   0.104   1.563   7.538  0.5208 -0.6313  0.0736
 6427SOL     OW30913   0.068   0.856   6.295 -0.2940 -0.8579 -0.4038
 6427SOL    HW130914   0.159   0.834   6.317 -0.3346  0.2861  0.8876
 6427SOL    HW230915   0.034   0.900   6.373  0.3596  0.6111 -0.9610
 6428SOL     OW30916   0.385   2.372  14.270 -0.0012 -0.0645  0.1309
 6428SOL    HW130917   0.327   2.296  14.275 -0.9155  0.7313  1.4355
 6428SOL    HW230918   0.465   2.327  14.241 -1.3073 -2.1641 -0.2448
 6429SOL     OW30919   0.239   1.569   3.649 -0.1216  0.3318 -0.2260
 6429SOL    HW130920   0.180   1.530   3.584  1.7538 -2.6247 -0.0945
 6429SOL    HW230921   0.195   1.654   3.654 -0.2411  0.4765 -3.1932
 6430SOL     OW30922   1.153   4.294   2.449 -0.0391 -0.3909 -0.2125
 6430SOL    HW130923   1.218   4.227   2.425 -1.0521 -1.0585 -1.1049
 6430SOL    HW230924   1.087   4.294   2.380  1.5456 -0.5181 -1.7305
 6431SOL     OW30925   1.264   4.450   2.893 -0.0187  0.1054  0.2142
 6431SOL    HW130926   1.319   4.513   2.846 -0.4498  0.1201 -0.2708
 6431SOL    HW230927   1.268   4.481   2.984 -4.0477 -2.5911  1.3366
 6432SOL     OW30928   1.967   0.212  15.350 -0.6539  0.6886 -0.0639
 6432SOL    HW130929   2.038   0.234  15.290  0.3353  1.4884  1.4211
 6432SOL    HW230930   2.010   0.155  15.413 -0.1987 -0.4136 -1.3721
 6433SOL     OW30931   2.813   4.090   1.323 -0.8089  0.1809 -0.5319
 6433SOL    HW130932   2.733   4.141   1.311 -0.5165  1.2581  2.1311
 6433SOL    HW230933   2.879   4.131   1.268  0.2606 -2.0029 -0.8507
 6434SOL     OW30934   2.871   1.301   5.581 -0.2748  0.3663 -0.0507
 6434SOL    HW130935   2.908   1.221   5.543 -0.9286  0.2132 -0.3565
 6434SOL    HW230936   2.845   1.283   5.671 -0.5766  0.1724 -0.1780
 6435SOL     OW30937   3.104   1.556   8.952  0.2405 -0.1566 -0.3501
 6435SOL    HW130938   3.111   1.524   8.862 -1.6284  0.2186 -0.6226
 6435SOL    HW230939   3.169   1.625   8.962  0.5656 -0.7488  1.6644
 6436SOL     OW30940   3.797   1.149   2.799  0.0033 -0.3020  0.0228
 6436SOL    HW130941   3.714   1.165   2.754  0.6890 -0.8233 -1.4190
 6436SOL    HW230942   3.842   1.231   2.777  0.3936  0.2173  2.7357
 6437SOL     OW30943   0.693   3.018   8.589 -0.3932  0.1252  0.0463
 6437SOL    HW130944   0.766   2.961   8.565 -0.5450 -0.4755  1.0102
 6437SOL    HW230945   0.636   2.966   8.645  0.3644 -0.9531 -0.1768
 6438SOL     OW30946   2.678   4.178   8.665  0.5559  0.2799 -0.4357
 6438SOL    HW130947   2.766   4.141   8.661 -0.1728 -1.0585 -4.6478
 6438SOL    HW230948   2.678   4.181   8.760  2.9257  0.1177 -0.4411
 6439SOL     OW30949   0.807   3.156   5.479  0.7867 -0.5188 -0.0842
 6439SOL    HW130950   0.732   3.207   5.509 -0.1803 -1.1112 -1.4818
 6439SOL    HW230951   0.761   3.071   5.473  0.2906 -0.2082 -0.6607
 6440SOL     OW30952   2.642   4.142   3.489  0.9178 -0.5106  0.1201
 6440SOL    HW130953   2.595   4.149   3.571 -0.1033  0.0662 -0.5182
 6440SOL    HW230954   2.601   4.065   3.450  1.4746 -0.5472 -0.4074
 6441SOL     OW30955   2.469   4.372   0.005 -0.0847  0.0260  0.1385
 6441SOL    HW130956   2.433   4.454   0.038 -1.9444  0.5010 -3.0750
 6441SOL    HW230957   2.524   4.405  17.674 -0.8138  0.9207 -0.0054
 6442SOL     OW30958   1.816   2.264   6.499 -0.1588  0.1133 -0.2656
 6442SOL    HW130959   1.738   2.240   6.549 -0.3966 -2.6075 -1.8953
 6442SOL    HW230960   1.800   2.358   6.499  0.1102  0.1631  1.2218
 6443SOL     OW30961   2.587   2.082   3.113  0.0469 -0.2398 -0.0875
 6443SOL    HW130962   2.678   2.055   3.116  0.6006  1.6846  0.3107
 6443SOL    HW230963   2.577   2.081   3.018 -0.8121 -0.1921  0.0008
 6444SOL     OW30964   0.606   4.686   7.124  0.5087 -0.4896  0.3665
 6444SOL    HW130965   0.692   4.696   7.166 -0.2601 -0.9761  2.0566
 6444SOL    HW230966   0.640   4.677   7.035 -0.6269  2.4771 -0.3688
 6445SOL     OW30967   0.996   0.949   2.727  0.5207  0.1933  0.3111
 6445SOL    HW130968   1.011   0.861   2.692  0.7514  0.2657  0.2296
 6445SOL    HW230969   1.088   0.966   2.749  0.3747  1.7369 -0.2887
 6446SOL     OW30970   4.564   3.484   4.596  0.2184  0.1393 -0.1932
 6446SOL    HW130971   4.646   3.435   4.593 -0.1397 -0.2444 -3.2271
 6446SOL    HW230972   4.504   3.409   4.594  0.5832 -0.1178 -1.2034
 6447SOL     OW30973   4.397   0.773   4.412 -0.3635 -0.0956  0.9676
 6447SOL    HW130974   4.332   0.721   4.460  0.5157 -3.2619 -1.3129
 6447SOL    HW230975   4.352   0.856   4.428  0.3168 -0.0092  2.4579
 6448SOL     OW30976   1.893   4.353   6.391  0.0013  0.2962  0.2247
 6448SOL    HW130977   1.808   4.315   6.367  0.1383  0.5739 -0.6769
 6448SOL    HW230978   1.930   4.271   6.424 -2.1590 -0.2782  1.2842
 6449SOL     OW30979   2.755   1.089   8.632 -0.1580 -0.3347  0.6954
 6449SOL    HW130980   2.782   1.167   8.583  0.5318 -1.1806 -0.2822
 6449SOL    HW230981   2.836   1.050   8.665 -1.2258 -0.3018  3.3586
 6450SOL     OW30982   2.301   2.928  17.292 -0.1171  0.2392 -0.2489
 6450SOL    HW130983   2.366   2.925  17.362  0.1944  5.0882 -0.3476
 6450SOL    HW230984   2.224   2.926  17.349 -0.5086  1.5773 -0.7383
 6451SOL     OW30985   1.712   4.543   8.745  0.5692  0.2877  0.2401
 6451SOL    HW130986   1.631   4.586   8.773 -0.4972 -0.3986 -1.7843
 6451SOL    HW230987   1.738   4.505   8.829  0.3828 -1.4702 -0.5117
 6452SOL     OW30988   1.862   0.205  14.313 -0.0902 -0.7662  0.6690
 6452SOL    HW130989   1.836   0.296  14.330  3.4737  0.2484  0.6031
 6452SOL    HW230990   1.922   0.202  14.387  0.8972  1.7140 -0.0346
 6453SOL     OW30991   2.109   1.314   6.265  0.3061  0.0005  0.2159
 6453SOL    HW130992   2.135   1.389   6.318  0.5305 -2.4985  3.6635
 6453SOL    HW230993   2.110   1.242   6.328 -1.5077  1.2138  1.6341
 6454SOL     OW30994   4.674   0.076   7.371  0.0480 -0.0059 -0.6170
 6454SOL    HW130995   4.727   0.004   7.404 -1.3564  0.4635  2.7018
 6454SOL    HW230996   4.650   0.041   7.285 -0.0358  1.3495 -1.1422
 6455SOL     OW30997   2.739   3.250   2.771  0.1344  0.2966  0.0423
 6455SOL    HW130998   2.663   3.288   2.727  0.0465 -0.0086 -0.0693
 6455SOL    HW230999   2.751   3.313   2.841  0.7191  0.5482 -0.2810
 6456SOL     OW31000   1.271   1.078   4.782  0.3485  0.3619  0.2721
 6456SOL    HW131001   1.240   1.069   4.872 -0.3107  0.1396  0.0211
 6456SOL    HW231002   1.319   0.996   4.771  0.1122  0.2665 -0.0525
 6457SOL     OW31003   3.164   3.994   4.634 -0.5654  0.2626  0.1816
 6457SOL    HW131004   3.080   4.003   4.589 -2.2618 -0.1546  3.2863
 6457SOL    HW231005   3.147   3.920   4.691 -0.4007  0.8364  0.9856
 6458SOL     OW31006   0.803   2.499   7.563  0.2314 -0.4945  0.8514
 6458SOL    HW131007   0.803   2.593   7.578 -3.5202 -0.4600  0.5471
 6458SOL    HW231008   0.883   2.500   7.512 -0.1280 -0.1077  0.3066
 6459SOL     OW31009   0.854   1.422   2.938 -0.4469  0.0332 -0.7125
 6459SOL    HW131010   0.821   1.347   2.988 -2.5093  0.8560 -0.8529
 6459SOL    HW231011   0.933   1.434   2.990  0.4562 -2.4901 -1.4964
 6460SOL     OW31012   2.918   2.282   7.215  0.6160 -0.3750 -0.5058
 6460SOL    HW131013   2.950   2.366   7.182  2.1689 -0.5156  0.6396
 6460SOL    HW231014   2.986   2.259   7.278  2.9650  2.6422 -1.9525
 6461SOL     OW31015   1.590   1.722  12.095  0.0163 -0.4339  0.0138
 6461SOL    HW131016   1.528   1.761  12.157 -0.0603 -1.3175  0.4872
 6461SOL    HW231017   1.607   1.803  12.047 -0.3124 -0.8533 -0.8120
 6462SOL     OW31018   3.711   0.388   8.204 -0.5476  0.5241 -0.4503
 6462SOL    HW131019   3.658   0.380   8.283  0.3262  1.4549  0.2312
 6462SOL    HW231020   3.746   0.302   8.179 -0.7624  0.0230  1.0141
 6463SOL     OW31021   2.342   0.951   3.175 -0.4215 -0.1207 -0.5402
 6463SOL    HW131022   2.354   0.859   3.152 -1.5779  0.2004 -2.4432
 6463SOL    HW231023   2.433   0.980   3.180 -0.6792  0.8176 -1.2574
 6464SOL     OW31024   3.825   1.746   3.519 -0.3766  0.0634  0.1854
 6464SOL    HW131025   3.800   1.797   3.442  0.2594  0.9727  0.5735
 6464SOL    HW231026   3.744   1.715   3.559 -0.8078  1.2420  0.2426
 6465SOL     OW31027   4.500   0.161   7.045 -0.1248  0.4446  0.0824
 6465SOL    HW131028   4.473   0.104   6.973 -0.9358  0.5944  0.2643
 6465SOL    HW231029   4.413   0.184   7.078 -0.2274  0.6850 -0.3553
 6466SOL     OW31030   3.625   2.719  10.448 -0.6070 -0.4936  0.0882
 6466SOL    HW131031   3.667   2.799  10.418  1.6541 -1.5906  0.3558
 6466SOL    HW231032   3.615   2.747  10.540  2.2605 -0.3977  0.3612
 6467SOL     OW31033   2.496   2.119   2.376  0.0488 -0.5054  0.1441
 6467SOL    HW131034   2.560   2.148   2.441  0.6685  2.6654 -1.8777
 6467SOL    HW231035   2.472   2.028   2.394  0.9377 -0.3287  2.2357
 6468SOL     OW31036   4.274   0.780   3.848  0.6163  0.5149  0.0066
 6468SOL    HW131037   4.260   0.777   3.942 -1.3496 -2.1627 -0.3714
 6468SOL    HW231038   4.370   0.777   3.842  0.3681 -1.8792 -3.2196
 6469SOL     OW31039   3.252   0.542   7.590  0.2779 -0.0749  0.4218
 6469SOL    HW131040   3.286   0.462   7.629 -1.8232 -0.4289  1.5225
 6469SOL    HW231041   3.176   0.570   7.641  0.2921 -2.1848  1.5686
 6470SOL     OW31042   1.339   3.205   5.065 -0.0475  0.1763 -0.0949
 6470SOL    HW131043   1.428   3.239   5.053 -0.5190  1.1599 -0.7266
 6470SOL    HW231044   1.281   3.281   5.061  0.2046  0.5204  2.7367
 6471SOL     OW31045   4.371   4.387   6.175  0.1586 -0.2364 -0.3808
 6471SOL    HW131046   4.406   4.378   6.264  0.9879  0.6236 -0.6237
 6471SOL    HW231047   4.451   4.415   6.132 -0.7012  1.0701 -1.1397
 6472SOL     OW31048   0.214   4.406   9.108 -0.3960  0.0842  0.0302
 6472SOL    HW131049   0.308   4.403   9.123 -0.1196  1.6466 -1.4084
 6472SOL    HW231050   0.190   4.323   9.150  0.6264  0.5878  1.6223
 6473SOL     OW31051   1.286   2.599   3.958 -0.3289 -0.9642  0.4900
 6473SOL    HW131052   1.219   2.666   3.971 -0.4329 -1.1997  1.1452
 6473SOL    HW231053   1.261   2.553   3.878  0.2499  1.5553 -1.1495
 6474SOL     OW31054   2.836   3.388   7.401 -0.0458  0.7909  0.0172
 6474SOL    HW131055   2.818   3.476   7.434  1.4825  0.8990  0.5742
 6474SOL    HW231056   2.764   3.336   7.438 -2.6177  1.3417 -4.1474
 6475SOL     OW31057   3.520   0.641   8.675  0.1381  0.0025 -0.0822
 6475SOL    HW131058   3.502   0.602   8.761 -3.6723  0.2518 -0.7656
 6475SOL    HW231059   3.588   0.702   8.703 -1.0270  1.1066  0.3414
 6476SOL     OW31060   4.653   0.613   5.060  0.3522  0.4682  0.0398
 6476SOL    HW131061   4.712   0.675   5.104 -0.4927  0.7153  0.8221
 6476SOL    HW231062   4.675   0.534   5.109  0.2709 -0.1348 -0.8880
 6477SOL     OW31063   0.888   2.348   1.430 -0.0383  0.4509 -0.0754
 6477SOL    HW131064   0.886   2.260   1.466 -1.1445  0.5678  0.1353
 6477SOL    HW231065   0.847   2.333   1.345  1.7023  2.1221 -1.2185
 6478SOL     OW31066   3.541   1.831  14.602 -0.8206  0.1534 -0.1691
 6478SOL    HW131067   3.446   1.839  14.613 -0.6528 -0.3323  1.5856
 6478SOL    HW231068   3.545   1.899  14.535 -1.9529  0.0092 -0.3745
 6479SOL     OW31069   0.973   3.224   1.546  0.5729  0.0104  0.0575
 6479SOL    HW131070   0.988   3.254   1.636  1.2805 -1.6558  0.4981
 6479SOL    HW231071   0.897   3.280   1.530  2.1693  2.6048  1.5301
 6480SOL     OW31072   1.976   4.052   9.712 -0.3191 -0.0458 -0.0267
 6480SOL    HW131073   2.045   4.112   9.685 -0.4678 -0.0476 -0.4249
 6480SOL    HW231074   2.022   3.976   9.748  1.8166  0.4920 -1.5993
 6481SOL     OW31075   2.324   0.382  12.049  0.0870 -0.2628 -0.5318
 6481SOL    HW131076   2.366   0.313  12.099  1.2270  0.5713 -0.3389
 6481SOL    HW231077   2.316   0.340  11.964 -0.0329 -0.5799 -0.3625
 6482SOL     OW31078   0.941   3.471   2.225  0.0318  0.2833  0.9078
 6482SOL    HW131079   0.880   3.404   2.194  0.5980  0.0824  0.2265
 6482SOL    HW231080   0.872   3.530   2.255 -1.0106  0.3740 -1.6448
 6483SOL     OW31081   4.138   2.536   3.499 -0.2613  0.3032 -0.2094
 6483SOL    HW131082   4.122   2.461   3.441 -0.8928 -0.5576  1.0633
 6483SOL    HW231083   4.218   2.509   3.544  0.0295  1.1656 -0.2169
 6484SOL     OW31084   2.268   4.246   1.411  0.1034 -0.0693 -0.1723
 6484SOL    HW131085   2.310   4.162   1.391 -0.3607 -0.0292 -1.3005
 6484SOL    HW231086   2.346   4.295   1.440 -1.2038  1.4669  0.7403
 6485SOL     OW31087   3.556   4.219   4.047 -0.2073  0.3456 -0.0059
 6485SOL    HW131088   3.563   4.299   4.099  0.4926  1.9247 -2.5041
 6485SOL    HW231089   3.570   4.273   3.969  3.2660  3.3025  2.6741
 6486SOL     OW31090   1.006   3.938   4.034 -0.2844 -0.6444 -0.5433
 6486SOL    HW131091   0.988   3.845   4.051  0.7124 -0.4363  1.5820
 6486SOL    HW231092   0.963   3.980   4.108  0.9973 -0.0794 -0.1330
 6487SOL     OW31093   2.526   2.462  15.271  0.0416 -0.0825  0.3356
 6487SOL    HW131094   2.597   2.404  15.244  2.1780  3.5129 -1.6564
 6487SOL    HW231095   2.488   2.407  15.340 -0.8284 -2.1098 -1.7393
 6488SOL     OW31096   2.702   4.710   0.256 -0.4009 -0.1778 -0.3008
 6488SOL    HW131097   2.608   4.727   0.255 -0.7104 -1.9217 -0.2229
 6488SOL    HW231098   2.724   4.697   0.164  1.3554 -0.4172  0.1636
 6489SOL     OW31099   2.338   2.967   6.666  0.4243  0.1064 -0.1965
 6489SOL    HW131100   2.267   2.903   6.676 -0.5064  1.1018 -0.3929
 6489SOL    HW231101   2.382   2.955   6.750  0.1329 -0.0973 -0.0720
 6490SOL     OW31102   1.191   1.200  12.091  0.6521  0.1639  0.2924
 6490SOL    HW131103   1.219   1.206  12.182  1.4373  1.2955 -0.0231
 6490SOL    HW231104   1.163   1.288  12.065 -0.2394  0.7847  3.3644
 6491SOL     OW31105   3.761   2.056  11.421 -0.4968 -0.0091  0.5961
 6491SOL    HW131106   3.712   2.126  11.377 -1.0086 -1.4559 -1.1344
 6491SOL    HW231107   3.692   1.990  11.412  0.6505 -0.9443 -1.3255
 6492SOL     OW31108   3.264   1.859   5.864 -0.8119 -0.2783  0.4631
 6492SOL    HW131109   3.237   1.917   5.792  1.6365 -1.6773 -1.6102
 6492SOL    HW231110   3.350   1.891   5.890 -0.2769 -1.5373  0.2577
 6493SOL     OW31111   2.077   0.098   7.570 -0.4161 -0.9334  0.5255
 6493SOL    HW131112   2.126   0.028   7.614 -0.4038 -1.4584 -0.3257
 6493SOL    HW231113   2.059   0.049   7.490 -0.5223  0.4203 -0.2792
 6494SOL     OW31114   1.072   2.900   5.655  0.1163  0.0147  0.4734
 6494SOL    HW131115   1.161   2.909   5.691  0.3297  1.5266 -0.4244
 6494SOL    HW231116   1.028   2.903   5.740  1.3526 -2.7059  1.2338
 6495SOL     OW31117   2.541   3.183   3.074 -0.2837  0.2438 -0.1806
 6495SOL    HW131118   2.487   3.200   2.997  2.3983  1.8119 -1.6895
 6495SOL    HW231119   2.480   3.228   3.134  1.2875  0.9903  0.8750
 6496SOL     OW31120   3.333   2.026   8.260  0.0491  0.0217 -0.2320
 6496SOL    HW131121   3.272   2.100   8.261  0.0867  0.0687 -1.4874
 6496SOL    HW231122   3.384   2.054   8.336  1.2961 -0.6153 -0.8361
 6497SOL     OW31123   3.103   0.338   9.894 -0.4806 -0.6453 -0.6544
 6497SOL    HW131124   3.101   0.434   9.898 -0.0544 -0.6863  0.6090
 6497SOL    HW231125   3.025   0.324   9.841  0.0441  0.0373 -1.6006
 6498SOL     OW31126   1.954   3.873  12.241  0.5390  0.2572 -0.3232
 6498SOL    HW131127   1.991   3.820  12.170  0.4314 -2.1804  1.4536
 6498SOL    HW231128   1.966   3.808  12.310 -0.5425  0.3040 -0.0906
 6499SOL     OW31129   3.667   4.697  14.929  0.1429  0.4378  0.1711
 6499SOL    HW131130   3.611   4.620  14.916 -0.0889 -0.2183  4.8188
 6499SOL    HW231131   3.665   4.720  14.836  1.9029  0.9885  0.2760
 6500SOL     OW31132   0.454   3.946   4.885 -0.2713 -0.4016  0.3816
 6500SOL    HW131133   0.436   4.040   4.892  1.0577  0.1169 -2.9296
 6500SOL    HW231134   0.440   3.909   4.972  0.7254  0.1786  0.7847
 6501SOL     OW31135   2.488   2.672   7.098  0.1535  0.5216  0.1971
 6501SOL    HW131136   2.527   2.586   7.080 -1.3985 -0.2238  0.3395
 6501SOL    HW231137   2.543   2.704   7.169 -1.6179  1.6960  1.0458
 6502SOL     OW31138   2.153   1.991   5.934 -0.0366  0.0226 -0.3546
 6502SOL    HW131139   2.064   2.022   5.951 -0.4313 -0.6645 -1.1877
 6502SOL    HW231140   2.144   1.923   6.001 -1.7472  0.7282  0.1070
 6503SOL     OW31141   1.999   2.415   3.029 -0.7438 -0.0743 -0.7274
 6503SOL    HW131142   2.081   2.372   3.053 -1.5127 -0.6360  0.8847
 6503SOL    HW231143   2.006   2.499   3.074 -1.1656  0.6390 -1.9751
 6504SOL     OW31144   1.395   3.301   3.754 -0.6744  0.1299 -0.4106
 6504SOL    HW131145   1.417   3.218   3.711 -1.8327 -0.3322 -0.0911
 6504SOL    HW231146   1.367   3.272   3.841  1.7978 -0.7753  0.0870
 6505SOL     OW31147   1.289   1.597   3.230 -0.2246  0.4875 -0.5893
 6505SOL    HW131148   1.199   1.624   3.212 -1.2678 -2.5730  0.1682
 6505SOL    HW231149   1.294   1.510   3.190 -2.6228 -0.8408  2.0512
 6506SOL     OW31150   1.715   4.635  16.378 -0.0328  0.0973  0.4727
 6506SOL    HW131151   1.660   4.713  16.370 -2.0600 -1.3997 -0.1447
 6506SOL    HW231152   1.798   4.669  16.345 -0.1446 -1.0050 -0.9796
 6507SOL     OW31153   0.245   0.634   8.028 -0.5949 -0.5620 -0.3003
 6507SOL    HW131154   0.227   0.545   8.056 -2.4135 -0.2703 -0.5214
 6507SOL    HW231155   0.206   0.631   7.940 -0.1032  1.6268 -0.5993
 6508SOL     OW31156   4.678   0.031   5.782 -0.0421 -0.1672 -0.9118
 6508SOL    HW131157   4.717   4.683   5.755  0.0848  0.5834 -3.0341
 6508SOL    HW231158   4.649   0.071   5.700  1.7594  1.9606 -0.5311
 6509SOL     OW31159   0.303   1.343  14.986 -0.5909  0.1236 -0.1008
 6509SOL    HW131160   0.252   1.395  15.047 -3.0466 -3.0929  0.5943
 6509SOL    HW231161   0.336   1.412  14.929 -0.5348 -0.1787 -0.4392
 6510SOL     OW31162   0.993   3.056   3.813  0.0551  0.0307  0.4058
 6510SOL    HW131163   0.934   3.131   3.806  0.1119 -0.0322 -0.8324
 6510SOL    HW231164   0.977   3.017   3.727 -0.2414  1.7789 -0.3295
 6511SOL     OW31165   1.127   0.080  14.867  0.0867  0.1374  0.3923
 6511SOL    HW131166   1.072   0.116  14.937  2.7664  0.7696  2.1907
 6511SOL    HW231167   1.204   0.136  14.875 -0.2839  0.8730 -1.2882
 6512SOL     OW31168   2.806   1.426  10.469 -0.1405  0.2723 -0.2847
 6512SOL    HW131169   2.830   1.517  10.455 -2.3088  1.1410  1.5276
 6512SOL    HW231170   2.754   1.440  10.549  0.3736  0.3669  0.0321
 6513SOL     OW31171   0.873   0.550  13.382 -0.2076  0.1558  0.0045
 6513SOL    HW131172   0.821   0.474  13.357 -0.7914  0.0477  1.5717
 6513SOL    HW231173   0.817   0.585  13.451 -0.5786 -1.1595  0.3680
 6514SOL     OW31174   1.246   4.645   9.094 -0.2993 -0.4533 -0.4566
 6514SOL    HW131175   1.310   4.680   9.155 -0.7539 -0.4011 -0.0083
 6514SOL    HW231176   1.192   4.724   9.096 -0.0248 -0.3583  2.4907
 6515SOL     OW31177   3.849   1.740   2.640 -0.1464  0.7246  0.2058
 6515SOL    HW131178   3.831   1.815   2.583 -0.7952  1.2593  1.1315
 6515SOL    HW231179   3.919   1.773   2.697  1.1310  0.3342 -1.1240
 6516SOL     OW31180   1.719   2.568   5.267  0.1754  0.0652  0.0561
 6516SOL    HW131181   1.721   2.476   5.293 -0.1721  0.8286  2.8104
 6516SOL    HW231182   1.679   2.569   5.179  0.2517 -0.7161  0.0122
 6517SOL     OW31183   2.561   3.136   1.213  0.3609  0.1832 -0.7273
 6517SOL    HW131184   2.644   3.149   1.259 -0.3686  0.4377  0.5357
 6517SOL    HW231185   2.546   3.213   1.159  3.6559  1.4870  0.2337
 6518SOL     OW31186   1.170   3.539  17.355  0.3231  0.4171  0.2729
 6518SOL    HW131187   1.179   3.594  17.433  1.3157 -0.4319  0.7659
 6518SOL    HW231188   1.075   3.540  17.346  0.3868  0.5689 -0.4081
 6519SOL     OW31189   0.407   3.049  11.469 -0.0452 -0.4137  0.1189
 6519SOL    HW131190   0.460   3.024  11.393  2.6942  1.0296  1.5793
 6519SOL    HW231191   0.451   3.003  11.540  2.8692  2.7046  0.3544
 6520SOL     OW31192   2.696   3.138   5.763  0.2576  0.6218 -0.3677
 6520SOL    HW131193   2.702   3.144   5.859 -0.3627  0.6674 -0.3325
 6520SOL    HW231194   2.721   3.046   5.757 -2.7892 -0.0967 -1.7064
 6521SOL     OW31195   0.662   1.447   2.729  0.0276 -0.8191 -0.6026
 6521SOL    HW131196   0.591   1.388   2.755  0.4768 -0.7485  0.8055
 6521SOL    HW231197   0.730   1.417   2.790  0.0380 -0.0172 -0.2191
 6522SOL     OW31198   0.594   3.743   8.878  0.0481  0.0492 -0.4600
 6522SOL    HW131199   0.500   3.726   8.873 -0.0452  0.5207 -0.2884
 6522SOL    HW231200   0.624   3.688   8.806  0.2067 -0.4700  0.0013
 6523SOL     OW31201   2.619   3.515   9.093 -0.4105 -0.3792  0.5303
 6523SOL    HW131202   2.613   3.460   9.172 -2.3974 -0.7144  0.1468
 6523SOL    HW231203   2.530   3.551   9.092 -0.1173  0.3696  0.8592
 6524SOL     OW31204   0.160   4.719   6.476  0.6415  0.4638 -0.0629
 6524SOL    HW131205   0.166   0.069   6.433 -2.1336 -0.5098 -2.3758
 6524SOL    HW231206   0.174   4.653   6.409 -0.0104  0.0489  0.2015
 6525SOL     OW31207   2.890   3.636   6.665 -0.4873  0.3567 -0.9313
 6525SOL    HW131208   2.839   3.560   6.635 -1.0235  0.3160  0.0920
 6525SOL    HW231209   2.828   3.674   6.727 -0.6451 -1.2604 -0.1211
 6526SOL     OW31210   2.699   2.853  12.973  0.9553  0.1832 -0.2411
 6526SOL    HW131211   2.771   2.865  13.034  0.8637 -0.4244 -0.0146
 6526SOL    HW231212   2.755   2.842  12.896  1.6798  0.4143  0.2566
 6527SOL     OW31213   3.430   2.065   4.056 -0.3018 -0.9843  0.0304
 6527SOL    HW131214   3.503   2.020   4.014 -0.4189 -1.3128  0.1768
 6527SOL    HW231215   3.365   1.997   4.036 -1.4482  0.7930 -2.2720
 6528SOL     OW31216   3.990   2.221   8.216  0.0043  0.0532  0.1134
 6528SOL    HW131217   3.929   2.286   8.181 -0.6603 -0.4505  0.3347
 6528SOL    HW231218   4.048   2.208   8.140 -0.4608  0.2758 -0.2822
 6529SOL     OW31219   3.432   0.894   3.847  0.0562 -0.4917 -0.3142
 6529SOL    HW131220   3.517   0.854   3.829  0.1898 -2.6208  5.2073
 6529SOL    HW231221   3.378   0.821   3.875 -3.0088  1.9095  0.0736
 6530SOL     OW31222   0.238   0.983   9.457 -0.8080 -0.7814  0.7785
 6530SOL    HW131223   0.154   1.020   9.484 -0.0622  0.6812  1.1107
 6530SOL    HW231224   0.201   0.923   9.393 -2.2777  0.5850  0.3409
 6531SOL     OW31225   4.288   0.940   6.271 -0.0690 -0.1353 -0.1896
 6531SOL    HW131226   4.216   0.920   6.332  1.1867 -2.3624  0.5354
 6531SOL    HW231227   4.331   1.008   6.323 -1.3622  1.2562 -0.9345
 6532SOL     OW31228   0.547   0.184   8.163  0.0771 -0.0469  0.2218
 6532SOL    HW131229   0.515   0.202   8.075 -0.3615  0.9396  0.5758
 6532SOL    HW231230   0.539   0.270   8.204  1.3621 -0.5639  1.5686
 6533SOL     OW31231   1.352   1.205   8.460 -0.1465  0.1127  0.9663
 6533SOL    HW131232   1.374   1.255   8.538 -0.8887  2.3891 -0.2900
 6533SOL    HW231233   1.292   1.140   8.497  0.8470 -1.5690 -0.3523
 6534SOL     OW31234   3.754   0.836  15.995 -0.2342 -0.0863  0.0449
 6534SOL    HW131235   3.792   0.871  15.915  0.7882 -1.0307  0.1187
 6534SOL    HW231236   3.797   0.893  16.059  1.3813 -0.0445 -1.0767
 6535SOL     OW31237   0.407   0.674  17.295  0.3692  0.5169  0.3526
 6535SOL    HW131238   0.392   0.588  17.334 -2.4908  0.5112 -0.7242
 6535SOL    HW231239   0.464   0.714  17.360 -0.6883  2.9008 -0.1641
 6536SOL     OW31240   1.738   0.468   5.841  0.8970 -0.3269  0.1746
 6536SOL    HW131241   1.753   0.419   5.921 -1.8797 -0.6099  0.5380
 6536SOL    HW231242   1.692   0.402   5.789  0.8952  0.8533 -1.3164
 6537SOL     OW31243   3.325   0.063   3.084  0.3141  0.1085 -0.0622
 6537SOL    HW131244   3.391   0.040   3.019 -0.6940 -0.9513 -0.7045
 6537SOL    HW231245   3.350   0.153   3.107 -1.3428  0.1350  1.6095
 6538SOL     OW31246   4.658   2.768   3.852 -0.0889  0.1172 -0.2226
 6538SOL    HW131247   4.710   2.824   3.794 -1.0585  1.8431  0.5774
 6538SOL    HW231248   4.620   2.709   3.787 -1.9408 -0.5960  1.5059
 6539SOL     OW31249   0.461   1.216  15.330 -0.3444 -0.0475 -0.6146
 6539SOL    HW131250   0.494   1.191  15.243  0.6484  1.6259 -0.7238
 6539SOL    HW231251   0.375   1.253  15.315 -0.2989  0.8592  1.3909
 6540SOL     OW31252   4.413   1.107   6.457  0.0908 -0.5607  0.4307
 6540SOL    HW131253   4.414   1.161   6.536 -2.9037  0.6405 -0.3329
 6540SOL    HW231254   4.422   1.178   6.394  0.2400 -0.3005  0.7442
 6541SOL     OW31255   1.220   0.062   0.457 -0.3328  0.7132 -0.4478
 6541SOL    HW131256   1.127   0.044   0.445 -0.3323 -0.0063  0.5694
 6541SOL    HW231257   1.252   0.054   0.367 -3.2671 -1.3035 -1.2962
 6542SOL     OW31258   1.814   3.885   4.378 -0.1900  0.2100 -0.1960
 6542SOL    HW131259   1.735   3.858   4.331 -0.2328  0.2225 -0.1312
 6542SOL    HW231260   1.816   3.977   4.354  0.5830  0.4211  0.6745
 6543SOL     OW31261   2.822   3.235   4.267  0.4080 -0.1786 -0.2095
 6543SOL    HW131262   2.785   3.174   4.202 -1.4007 -0.3232  0.9475
 6543SOL    HW231263   2.913   3.218   4.240  1.0637  2.3625  0.4502
 6544SOL     OW31264   0.816   0.734   4.272 -0.3157 -0.7188  0.3009
 6544SOL    HW131265   0.859   0.650   4.287  0.5498 -0.5685 -1.3796
 6544SOL    HW231266   0.730   0.702   4.245 -1.0128  1.5539 -0.1488
 6545SOL     OW31267   1.982   2.758  14.159  0.1402 -0.1532  0.2742
 6545SOL    HW131268   2.023   2.710  14.231  0.0362  0.7104  0.9094
 6545SOL    HW231269   1.950   2.830  14.214 -1.0602 -0.2762 -0.2671
 6546SOL     OW31270   2.974   4.638   5.200  0.2165  0.6961  0.1675
 6546SOL    HW131271   3.034   4.605   5.267 -0.1189 -0.3433 -0.0285
 6546SOL    HW231272   2.986   4.732   5.208  2.5981  0.3819  0.5070
 6547SOL     OW31273   0.630   0.609   8.277  0.9740 -0.4543  0.6372
 6547SOL    HW131274   0.690   0.616   8.351 -1.2072  1.1984  2.2365
 6547SOL    HW231275   0.693   0.565   8.220  1.5396  1.2096 -0.0020
 6548SOL     OW31276   1.528   1.083   7.215 -0.0832 -0.0619 -0.2085
 6548SOL    HW131277   1.517   1.167   7.261 -0.2211 -1.6248  2.6149
 6548SOL    HW231278   1.444   1.044   7.238  0.6092 -1.6459 -0.4168
 6549SOL     OW31279   3.981   0.082  10.797 -0.2261 -0.3672 -0.1980
 6549SOL    HW131280   4.055   0.130  10.833 -0.8812 -0.8370  1.7788
 6549SOL    HW231281   4.015   4.728  10.807  0.7122 -0.0132 -0.2600
 6550SOL     OW31282   2.995   4.151   1.139 -0.3912 -0.3274  0.1486
 6550SOL    HW131283   3.005   4.190   1.052 -1.2397  1.5080  0.8744
 6550SOL    HW231284   3.088   4.144   1.163 -0.1017 -1.5632 -1.3350
 6551SOL     OW31285   2.127   0.882   9.408 -0.4107  0.0982  0.1195
 6551SOL    HW131286   2.100   0.796   9.375 -1.2774  0.2855  0.3402
 6551SOL    HW231287   2.044   0.914   9.443  0.2937  2.6181 -0.4633
 6552SOL     OW31288   0.972   0.408   7.863  0.1267  0.4877 -0.3240
 6552SOL    HW131289   1.033   0.339   7.838 -2.4945 -1.2802 -1.7942
 6552SOL    HW231290   0.891   0.385   7.817  1.8133 -1.7770 -2.1111
 6553SOL     OW31291   0.354   3.775   9.876 -0.3671 -1.1090 -0.4783
 6553SOL    HW131292   0.400   3.844   9.829  1.0189 -1.1466  0.8238
 6553SOL    HW231293   0.433   3.725   9.898  0.5359  0.5340 -0.0094
 6554SOL     OW31294   1.437   2.842  13.556  0.5154 -0.3145  0.0669
 6554SOL    HW131295   1.527   2.835  13.588  0.1157 -0.4417  1.1636
 6554SOL    HW231296   1.392   2.764  13.590 -3.2393  2.2956  1.1253
 6555SOL     OW31297   2.233   0.009   1.471 -0.0336  0.3539 -0.0731
 6555SOL    HW131298   2.156   0.041   1.517 -1.6309 -0.5889 -2.1219
 6555SOL    HW231299   2.290   0.087   1.474 -1.4628  1.3979  0.1281
 6556SOL     OW31300   2.058   1.369   9.339  0.3224  0.2636 -0.1781
 6556SOL    HW131301   2.035   1.335   9.426 -0.9777  0.1029 -0.5774
 6556SOL    HW231302   2.131   1.310   9.319 -2.1089 -1.6841 -3.2719
 6557SOL     OW31303   0.119   0.942  15.937  0.4802  0.0076 -0.1244
 6557SOL    HW131304   0.199   0.889  15.936 -0.3861 -1.2992  0.3086
 6557SOL    HW231305   0.158   1.026  15.964  2.0001 -0.3558 -1.1840
 6558SOL     OW31306   1.573   3.575   3.761  0.2179 -0.0363 -0.1979
 6558SOL    HW131307   1.539   3.507   3.819 -0.1400  1.3840  1.2639
 6558SOL    HW231308   1.652   3.539   3.721  1.4561  0.7272  1.5452
 6559SOL     OW31309   4.430   3.968   4.496 -0.0534 -0.6110 -0.0472
 6559SOL    HW131310   4.358   3.982   4.558  0.4045 -2.4582  0.8959
 6559SOL    HW231311   4.506   3.994   4.549 -0.6352 -0.7842  0.8783
 6560SOL     OW31312   3.223   0.624   5.273 -0.4006  0.3775 -0.3767
 6560SOL    HW131313   3.138   0.653   5.238 -1.1720 -2.0937 -0.5605
 6560SOL    HW231314   3.197   0.534   5.292 -0.4036  0.9053  2.2227
 6561SOL     OW31315   4.382   2.813   5.508 -0.2570 -0.5921 -0.0151
 6561SOL    HW131316   4.463   2.864   5.500 -0.7659  0.3411  0.7924
 6561SOL    HW231317   4.330   2.866   5.447 -1.0954 -1.8346 -0.3800
 6562SOL     OW31318   2.044   1.776   7.052  0.3467  0.3112  0.0593
 6562SOL    HW131319   1.962   1.823   7.064  1.3081  1.7457  0.9680
 6562SOL    HW231320   2.040   1.775   6.957  1.9735  1.9404 -0.0278
 6563SOL     OW31321   1.235   1.682   3.801  0.3273  0.0662  0.0614
 6563SOL    HW131322   1.267   1.668   3.712  0.7809 -2.4038  0.6048
 6563SOL    HW231323   1.213   1.590   3.814 -1.2789  0.5587  0.7880
 6564SOL     OW31324   1.647   1.620   6.560  0.8408  0.1495  0.0362
 6564SOL    HW131325   1.631   1.617   6.654 -0.0971  0.1664 -0.1231
 6564SOL    HW231326   1.742   1.608   6.557  0.9217  0.6489  0.6328
 6565SOL     OW31327   1.538   1.594   4.889 -0.1275 -0.1279 -0.2054
 6565SOL    HW131328   1.622   1.556   4.861 -0.1918  0.1512 -0.8013
 6565SOL    HW231329   1.522   1.637   4.805 -3.7311  0.3749  0.7377
 6566SOL     OW31330   0.997   1.215   7.677 -0.2933  0.2990 -0.0227
 6566SOL    HW131331   0.962   1.304   7.675  0.3608  0.5005 -3.3971
 6566SOL    HW231332   1.085   1.252   7.684 -0.6319  0.8399  1.2870
 6567SOL     OW31333   4.430   4.524   5.232 -0.1841 -0.1530  0.4817
 6567SOL    HW131334   4.399   4.462   5.165  3.3473 -0.8141 -0.5264
 6567SOL    HW231335   4.468   4.595   5.180 -0.6032  0.6103  1.2249
 6568SOL     OW31336   1.789   1.502  15.859  0.0125 -0.3266  0.4541
 6568SOL    HW131337   1.848   1.553  15.803 -1.1741  0.5420 -0.0070
 6568SOL    HW231338   1.835   1.418  15.867 -1.8265 -1.4648 -1.1028
 6569SOL     OW31339   3.404   2.556  11.926 -0.1277 -0.2861 -0.0380
 6569SOL    HW131340   3.479   2.498  11.937  0.3120  0.2445 -0.2259
 6569SOL    HW231341   3.413   2.600  11.841 -2.5330 -0.9098 -0.6011
 6570SOL     OW31342   1.833   4.157   8.341  0.0050  0.3224  0.0219
 6570SOL    HW131343   1.759   4.184   8.287 -0.2959 -0.0308  0.2487
 6570SOL    HW231344   1.812   4.203   8.422  1.0057 -1.4739  1.3056
 6571SOL     OW31345   2.900   4.656   0.456 -0.2408  0.3044  0.5669
 6571SOL    HW131346   2.817   4.638   0.501 -1.6034  2.2545 -1.1485
 6571SOL    HW231347   2.865   4.702   0.379 -1.2321  1.3243  1.6327
 6572SOL     OW31348   3.140   1.815   0.299  0.1364  0.1169  0.0259
 6572SOL    HW131349   3.148   1.720   0.308 -0.3621  0.1324  0.6666
 6572SOL    HW231350   3.122   1.818   0.205 -1.0890 -0.0857  0.2506
 6573SOL     OW31351   3.167   2.769  17.323 -0.5902 -0.1683 -0.3206
 6573SOL    HW131352   3.126   2.838  17.271 -0.0095  0.5215  0.1512
 6573SOL    HW231353   3.260   2.789  17.313 -0.0226 -2.2968  0.6216
 6574SOL     OW31354   2.856   2.872   6.813 -0.0491 -0.2097 -0.2151
 6574SOL    HW131355   2.941   2.830   6.801 -0.8718 -2.2785  1.1114
 6574SOL    HW231356   2.798   2.828   6.750 -1.6028  0.5544  0.7008
 6575SOL     OW31357   0.374   1.986  11.828 -0.6848 -0.5346  0.4769
 6575SOL    HW131358   0.427   1.958  11.904 -0.4544  2.3282  1.3626
 6575SOL    HW231359   0.345   1.902  11.793 -2.5159  1.3898 -2.5528
 6576SOL     OW31360   0.181   0.716  10.109 -0.5879 -0.6742 -0.1689
 6576SOL    HW131361   0.270   0.749  10.093 -1.0909  0.7914  0.0753
 6576SOL    HW231362   0.132   0.763  10.041  0.8958 -1.6514 -1.9385
 6577SOL     OW31363   1.057   2.595   5.105  0.5457 -0.1066  0.3937
 6577SOL    HW131364   1.009   2.598   5.187  0.5482 -0.5588  0.4123
 6577SOL    HW231365   1.045   2.501   5.094 -2.5700  0.2715  0.5056
 6578SOL     OW31366   2.570   0.969   6.251  0.6852  0.3543 -0.1165
 6578SOL    HW131367   2.574   0.873   6.243  1.2847  0.4567 -1.0326
 6578SOL    HW231368   2.622   0.989   6.328 -0.0915  1.4830  0.1004
 6579SOL     OW31369   0.936   3.311   6.498  0.6249 -0.8652 -0.2196
 6579SOL    HW131370   0.989   3.390   6.494 -0.5592 -0.0004  0.8299
 6579SOL    HW231371   0.881   3.328   6.575 -1.5192 -2.2494 -1.4234
 6580SOL     OW31372   2.354   0.871   6.034  0.5003  0.8368 -0.1227
 6580SOL    HW131373   2.357   0.899   6.125 -1.4012 -1.0081  0.5006
 6580SOL    HW231374   2.367   0.953   5.987 -0.1345  1.0904  0.1500
 6581SOL     OW31375   3.950   1.937   8.589 -0.4600 -0.0517 -0.5746
 6581SOL    HW131376   4.020   1.999   8.612  0.1392 -1.2257  0.7398
 6581SOL    HW231377   3.936   1.956   8.496 -1.4207  0.3781 -0.3445
 6582SOL     OW31378   2.121   2.144   0.459  0.7711 -0.0264 -0.1186
 6582SOL    HW131379   2.047   2.174   0.406 -1.3238 -0.9797  2.2751
 6582SOL    HW231380   2.123   2.051   0.439 -1.6288 -0.7276  2.9421
 6583SOL     OW31381   3.663   1.740   0.421  0.0335  0.1422 -0.2264
 6583SOL    HW131382   3.576   1.699   0.422  0.4341 -0.6167  2.6735
 6583SOL    HW231383   3.669   1.777   0.508  0.8064 -0.5078 -0.0052
 6584SOL     OW31384   2.519   3.855   3.758 -0.0363  0.0469  0.4669
 6584SOL    HW131385   2.549   3.946   3.746 -0.2218  0.0247 -0.2079
 6584SOL    HW231386   2.428   3.868   3.785  0.6649  0.4708  2.6065
 6585SOL     OW31387   3.667   2.484   6.891  0.0205  0.2030 -0.0356
 6585SOL    HW131388   3.739   2.544   6.911  0.1215 -0.4623  1.5924
 6585SOL    HW231389   3.647   2.520   6.804  1.5581 -1.5686 -1.1358
 6586SOL     OW31390   1.429   3.842   8.987  0.0977  0.0830  0.2163
 6586SOL    HW131391   1.366   3.902   8.948  1.1225 -0.4926 -2.3540
 6586SOL    HW231392   1.368   3.800   9.048  0.8552  0.8953  1.5374
 6587SOL     OW31393   0.080   3.884   3.226  0.2031 -0.0953  0.5652
 6587SOL    HW131394   0.078   3.931   3.142  1.4035 -0.6152  0.2496
 6587SOL    HW231395   0.134   3.945   3.275  0.1281 -0.1289  0.6900
 6588SOL     OW31396   4.594   0.560   7.602  0.8112  0.4375  0.3055
 6588SOL    HW131397   4.548   0.523   7.678 -0.6760  0.2470 -0.6912
 6588SOL    HW231398   4.610   0.485   7.545 -0.7333  1.0515 -0.9395
 6589SOL     OW31399   2.209   3.091   6.233 -0.0904 -0.2410  0.2248
 6589SOL    HW131400   2.274   3.087   6.304  0.0589 -0.0065  0.1014
 6589SOL    HW231401   2.154   3.162   6.267 -0.2518 -0.3512  0.1904
 6590SOL     OW31402   3.831   0.004   9.440  0.2914  0.2494  0.5443
 6590SOL    HW131403   3.886   0.079   9.462 -1.5114  1.5626  0.5180
 6590SOL    HW231404   3.756   0.017   9.498  0.0326  1.2124 -0.0090
 6591SOL     OW31405   1.943   1.448   3.583 -0.0677  0.3134  0.6383
 6591SOL    HW131406   1.879   1.394   3.535  2.0438 -0.9285 -0.7806
 6591SOL    HW231407   1.898   1.532   3.593 -1.2165 -0.4861  2.2790
 6592SOL     OW31408   2.058   3.378   7.921 -0.0898 -0.0072  0.1606
 6592SOL    HW131409   1.967   3.409   7.913 -0.1514  0.0311  1.0059
 6592SOL    HW231410   2.065   3.322   7.844 -0.2267 -1.7850  1.4419
 6593SOL     OW31411   0.434   4.154   5.268 -0.4290 -0.5274 -0.0469
 6593SOL    HW131412   0.388   4.171   5.350 -1.3527  0.8261 -0.8326
 6593SOL    HW231413   0.438   4.244   5.234  0.2374 -0.8092 -0.7172
 6594SOL     OW31414   4.395   2.059   8.192 -0.2229 -0.5209 -0.5813
 6594SOL    HW131415   4.409   2.150   8.168  0.0727 -0.0530  1.4250
 6594SOL    HW231416   4.338   2.079   8.266  1.1887  1.1076  0.0606
 6595SOL     OW31417   2.503   2.509   5.012  0.2620 -0.4836 -0.4134
 6595SOL    HW131418   2.524   2.494   4.920  1.1709  0.7841 -0.4058
 6595SOL    HW231419   2.526   2.602   5.022 -1.7223 -0.1771  1.3002
 6596SOL     OW31420   2.223   2.348   8.350  0.3619 -0.2461 -0.2712
 6596SOL    HW131421   2.212   2.383   8.439  2.1778 -2.6630  0.9044
 6596SOL    HW231422   2.145   2.378   8.304 -1.3096 -2.7265  0.9828
 6597SOL     OW31423   0.720   2.581  13.952 -0.5546 -0.0896 -0.1067
 6597SOL    HW131424   0.766   2.665  13.959 -2.5695  1.1181 -1.1746
 6597SOL    HW231425   0.660   2.598  14.024  1.1185 -2.0244  1.7242
 6598SOL     OW31426   3.457   2.775   3.910  0.2241  0.7569  0.0329
 6598SOL    HW131427   3.426   2.734   3.991  0.2525  1.8216  0.5889
 6598SOL    HW231428   3.551   2.787   3.925  0.1380  1.3559  0.1029
 6599SOL     OW31429   1.612   1.320  10.247  0.0208 -0.2909  0.1450
 6599SOL    HW131430   1.592   1.403  10.204  5.0798  0.2387 -1.2037
 6599SOL    HW231431   1.541   1.326  10.310 -1.1341  2.4925 -1.4126
 6600SOL     OW31432   0.678   4.290   3.859  0.2809 -0.0025 -0.3296
 6600SOL    HW131433   0.722   4.222   3.909 -1.4748 -0.0298  1.2164
 6600SOL    HW231434   0.704   4.366   3.912  3.4291 -0.1628 -1.6567
 6601SOL     OW31435   1.049   1.877  10.857 -0.3063  0.2422  0.2783
 6601SOL    HW131436   1.021   1.968  10.843 -0.9399 -0.0588 -0.4010
 6601SOL    HW231437   0.995   1.831  10.793 -0.5239 -0.3635  0.9018
 6602SOL     OW31438   0.416   1.196  11.840 -0.0826 -0.9321  0.3270
 6602SOL    HW131439   0.343   1.247  11.875 -0.2290 -0.7580 -0.2290
 6602SOL    HW231440   0.488   1.259  11.838 -0.6023 -0.3777 -1.4642
 6603SOL     OW31441   2.301   4.549   5.162 -0.2019 -0.0883 -0.1769
 6603SOL    HW131442   2.388   4.576   5.188  0.0539  0.2616 -1.3952
 6603SOL    HW231443   2.251   4.608   5.219 -1.7463 -2.5211  0.9713
 6604SOL     OW31444   3.439   4.574   8.665 -0.5048 -0.1054  0.5722
 6604SOL    HW131445   3.481   4.649   8.623  1.9478 -2.2505 -0.7907
 6604SOL    HW231446   3.375   4.618   8.721 -1.2639 -0.4932 -0.0049
 6605SOL     OW31447   4.662   3.533   4.298  0.2120 -0.3982  0.0671
 6605SOL    HW131448   4.651   3.479   4.377 -0.7495 -2.1363 -1.2516
 6605SOL    HW231449   0.000   3.591   4.316 -1.9757  1.9148  1.5008
 6606SOL     OW31450   4.117   0.928   8.132 -0.0032  0.1347 -0.3052
 6606SOL    HW131451   4.094   1.015   8.100  1.5735 -0.1947 -2.3626
 6606SOL    HW231452   4.141   0.951   8.222 -2.4406  0.7897  0.1592
 6607SOL     OW31453   3.665   0.574  15.183  0.5294 -0.1067 -0.3696
 6607SOL    HW131454   3.651   0.556  15.276 -0.6066 -1.5234 -0.8302
 6607SOL    HW231455   3.694   0.665  15.197 -1.7386  0.9141 -2.3707
 6608SOL     OW31456   1.543   1.736   7.750 -0.0111 -0.0883  0.0851
 6608SOL    HW131457   1.504   1.650   7.766  0.1291  0.1828  1.9342
 6608SOL    HW231458   1.464   1.789   7.747  0.1393  0.0528 -1.2572
 6609SOL     OW31459   4.367   2.621   5.203 -0.8931 -0.2829  0.3157
 6609SOL    HW131460   4.428   2.585   5.267  0.0897  1.7870  0.5410
 6609SOL    HW231461   4.327   2.697   5.245 -2.3078 -0.9174  0.1186
 6610SOL     OW31462   0.646   2.435  11.887  0.1614 -0.0601  0.2276
 6610SOL    HW131463   0.552   2.449  11.885 -0.0777 -1.8687 -1.1431
 6610SOL    HW231464   0.672   2.453  11.977 -1.8127  0.4488  0.6975
 6611SOL     OW31465   2.378   3.073   6.416 -0.0725 -1.2781  0.0401
 6611SOL    HW131466   2.317   3.046   6.485  0.2842 -0.0389  0.8321
 6611SOL    HW231467   2.453   3.095   6.472 -1.6425  0.0531  1.6101
 6612SOL     OW31468   3.483   1.257   4.334  0.0912 -0.1001  0.0915
 6612SOL    HW131469   3.524   1.340   4.311  0.1443 -0.1883 -0.1267
 6612SOL    HW231470   3.547   1.195   4.299 -1.7610 -1.3980 -0.9627
 6613SOL     OW31471   4.593   0.201   0.226  0.3445 -0.1677  0.5983
 6613SOL    HW131472   4.628   0.224   0.141  0.2836  0.8511  0.8517
 6613SOL    HW231473   4.674   0.173   0.267  1.2100  1.6316  0.1240
 6614SOL     OW31474   3.760   3.326   6.696  0.0229  0.0600  0.4240
 6614SOL    HW131475   3.724   3.237   6.693 -1.3367  0.5976  0.8804
 6614SOL    HW231476   3.679   3.377   6.695  0.7077  1.1817  2.1206
 6615SOL     OW31477   0.340   0.898   5.871  0.4864  0.1335 -0.0610
 6615SOL    HW131478   0.328   0.985   5.911  0.4060 -0.7003  1.7375
 6615SOL    HW231479   0.294   0.896   5.788 -0.6267  1.9251  0.5118
 6616SOL     OW31480   0.485   1.501   7.579 -0.1574 -0.6841 -0.1231
 6616SOL    HW131481   0.538   1.426   7.553 -0.5782 -0.8611 -0.4806
 6616SOL    HW231482   0.477   1.552   7.498  1.3705 -1.1291 -0.5392
 6617SOL     OW31483   2.661   1.707   7.254  0.4197 -0.7077  0.2934
 6617SOL    HW131484   2.621   1.771   7.194 -0.4967 -1.7874 -0.2436
 6617SOL    HW231485   2.686   1.626   7.210  3.3742  0.4310 -0.0964
 6618SOL     OW31486   3.438   2.162   0.284 -0.1446  0.7367  0.4707
 6618SOL    HW131487   3.471   2.076   0.260 -0.8576  1.0880 -1.7369
 6618SOL    HW231488   3.361   2.135   0.334  1.2701 -0.6934  1.8629
 6619SOL     OW31489   0.670   3.311  12.821 -1.4081  0.2707  0.1569
 6619SOL    HW131490   0.651   3.307  12.727 -1.9311  1.2434  0.2227
 6619SOL    HW231491   0.609   3.378  12.850 -1.0546  0.5381  0.2774
 6620SOL     OW31492   0.653   1.900   7.981  0.2962  0.2455 -0.2351
 6620SOL    HW131493   0.601   1.897   8.062 -2.2536 -0.4552 -1.8806
 6620SOL    HW231494   0.598   1.952   7.922 -1.8745 -0.2431  1.3137
 6621SOL     OW31495   2.103   2.694  13.918  0.1291 -0.4127 -0.1700
 6621SOL    HW131496   2.125   2.767  13.860  2.4397 -0.2286  0.9179
 6621SOL    HW231497   2.078   2.745  13.994  2.8625  0.4487  0.1578
 6622SOL     OW31498   3.869   0.134   2.583 -0.0533 -0.2938 -0.1223
 6622SOL    HW131499   3.924   0.061   2.612 -0.3702 -0.9920 -1.2747
 6622SOL    HW231500   3.782   0.114   2.617 -1.0718  1.5500 -1.6160
 6623SOL     OW31501   2.952   1.663   7.586 -0.1512  0.1950  0.2654
 6623SOL    HW131502   2.944   1.757   7.568 -2.3717 -0.1654 -0.5468
 6623SOL    HW231503   2.873   1.629   7.545  2.3332 -3.6514 -1.3949
 6624SOL     OW31504   2.448   1.230  16.656  0.3591  0.1776  0.3612
 6624SOL    HW131505   2.461   1.191  16.570  2.0272 -0.4667  0.9006
 6624SOL    HW231506   2.514   1.298  16.669  0.1461  0.4477  0.0264
 6625SOL     OW31507   0.198   1.407  13.224 -0.5040 -0.0462 -1.3680
 6625SOL    HW131508   0.108   1.377  13.215 -1.2668  1.1216  2.2556
 6625SOL    HW231509   0.186   1.502  13.221  0.1638  0.0416 -1.1802
 6626SOL     OW31510   2.807   3.122   3.101 -0.1213  0.1198  0.2416
 6626SOL    HW131511   2.721   3.150   3.132 -0.5225 -1.2958  0.4340
 6626SOL    HW231512   2.793   3.142   3.008 -1.5351 -0.2163  0.3725
 6627SOL     OW31513   1.169   1.694   4.605 -0.2346 -0.3679 -0.8455
 6627SOL    HW131514   1.187   1.639   4.681 -0.4584  1.8672  0.8576
 6627SOL    HW231515   1.081   1.718   4.634 -0.4393 -0.1862 -1.6071
 6628SOL     OW31516   0.645   1.450   7.823 -0.3531  0.4413  0.0657
 6628SOL    HW131517   0.591   1.437   7.745  0.7794  2.3739 -1.0488
 6628SOL    HW231518   0.629   1.538   7.858 -4.1100  0.3799 -1.4859
 6629SOL     OW31519   3.723   4.501   2.271 -0.2783 -0.2746  0.5463
 6629SOL    HW131520   3.628   4.500   2.285  0.0287  0.9893  2.6482
 6629SOL    HW231521   3.745   4.591   2.292 -0.1492  0.1409 -1.4284
 6630SOL     OW31522   1.490   0.502   4.845  0.1493 -0.2800  0.4124
 6630SOL    HW131523   1.527   0.439   4.906  2.0761  0.7187  0.2559
 6630SOL    HW231524   1.488   0.443   4.770 -2.9912 -1.1426  1.1625
 6631SOL     OW31525   1.381   2.857  15.106 -0.7566 -0.1136 -0.3795
 6631SOL    HW131526   1.385   2.774  15.155  0.6792 -0.2323 -0.7101
 6631SOL    HW231527   1.450   2.852  15.040 -0.1693  0.0624  0.2234
 6632SOL     OW31528   4.499   3.598   7.582  0.0309  0.1154 -0.2888
 6632SOL    HW131529   4.484   3.607   7.488 -0.8936 -0.7043 -0.2167
 6632SOL    HW231530   4.415   3.561   7.610  0.5534 -0.7997  0.0679
 6633SOL     OW31531   3.179   2.738   1.273 -0.0128 -0.2648  0.4792
 6633SOL    HW131532   3.248   2.791   1.313 -0.0212  0.1991 -0.1200
 6633SOL    HW231533   3.226   2.676   1.218 -1.2592  0.3809 -1.3228
 6634SOL     OW31534   3.694   1.980   1.320  0.3248 -0.0890  0.3332
 6634SOL    HW131535   3.785   2.008   1.312  0.5200 -1.1202 -1.0339
 6634SOL    HW231536   3.683   1.985   1.415 -2.5168  1.4747 -0.0755
 6635SOL     OW31537   3.894   1.601   3.832  0.4371  0.4895  0.1134
 6635SOL    HW131538   3.910   1.564   3.746 -3.7335  2.0264 -1.3264
 6635SOL    HW231539   3.910   1.695   3.818  3.3593 -0.1550 -0.8008
 6636SOL     OW31540   0.002   4.481   5.323  0.1235 -0.0523 -0.4276
 6636SOL    HW131541   4.684   4.554   5.291 -2.4475 -1.9949 -0.5721
 6636SOL    HW231542   0.065   4.465   5.253 -0.7881 -1.6234 -0.8980
 6637SOL     OW31543   4.399   2.892   0.450  0.0547  0.0460  0.2404
 6637SOL    HW131544   4.401   2.966   0.510  3.3025  1.7251 -1.9435
 6637SOL    HW231545   4.450   2.822   0.490  1.1608  0.3806 -0.6075
 6638SOL     OW31546   0.448   3.091   2.547 -0.1762 -0.4068 -0.1292
 6638SOL    HW131547   0.434   2.996   2.553 -2.1965 -0.1381 -0.4374
 6638SOL    HW231548   0.540   3.102   2.571  0.4797 -3.4025 -1.2294
 6639SOL     OW31549   0.489   1.145   5.821  0.4103  0.0229  0.3785
 6639SOL    HW131550   0.550   1.193   5.878  0.6747  0.0085  0.1068
 6639SOL    HW231551   0.468   1.200   5.746 -0.6110  0.9232  1.3237
 6640SOL     OW31552   3.785   2.830   6.477 -0.4565  0.0285 -0.0772
 6640SOL    HW131553   3.803   2.921   6.502 -1.3960  0.1255  0.2683
 6640SOL    HW231554   3.839   2.782   6.539  0.0941 -0.8050 -1.2084
 6641SOL     OW31555   0.291   0.127   7.278 -0.2283  0.1422  0.1611
 6641SOL    HW131556   0.379   0.112   7.313  0.8491 -1.4391 -3.2599
 6641SOL    HW231557   0.256   0.039   7.287  1.1132 -0.4970 -0.8516
 6642SOL     OW31558   4.208   2.000   5.198 -0.2393  0.4397 -0.0023
 6642SOL    HW131559   4.131   1.978   5.145  0.4779  1.8902 -1.6184
 6642SOL    HW231560   4.203   1.935   5.269  0.2112 -0.2215 -0.5786
 6643SOL     OW31561   4.226   1.431   0.878 -0.4899 -0.2526 -0.3934
 6643SOL    HW131562   4.171   1.353   0.868  0.8995 -0.9944 -2.2311
 6643SOL    HW231563   4.216   1.466   0.789  0.8158  3.1226  0.8058
 6644SOL     OW31564   4.648   1.053   6.187 -0.0936 -0.0905  0.0975
 6644SOL    HW131565   4.667   0.967   6.225 -0.5156 -0.0669  0.3570
 6644SOL    HW231566   4.648   1.036   6.092 -1.6687 -0.2512  0.1295
 6645SOL     OW31567   0.724   2.137   5.756 -0.1071  0.0586  0.0493
 6645SOL    HW131568   0.797   2.186   5.795 -0.4289  0.7692 -0.2500
 6645SOL    HW231569   0.771   2.120   5.674  1.9562 -1.8597  1.6281
 6646SOL     OW31570   0.871   2.753   8.575 -0.0684  0.1227 -0.7794
 6646SOL    HW131571   0.790   2.712   8.544  0.8532 -2.4160  0.1818
 6646SOL    HW231572   0.925   2.713   8.506 -1.9855 -0.3255 -2.0055
 6647SOL     OW31573   0.827   2.179   8.283  0.7422 -0.2667 -0.3942
 6647SOL    HW131574   0.734   2.189   8.263  0.7355 -0.1637 -0.3078
 6647SOL    HW231575   0.856   2.143   8.199  0.5871  1.3514 -1.1362
 6648SOL     OW31576   2.376   1.407   2.149 -0.1990  0.0834  0.2770
 6648SOL    HW131577   2.337   1.480   2.101  1.1720 -0.1281 -1.1801
 6648SOL    HW231578   2.354   1.332   2.093  1.6554  0.4002 -0.9021
 6649SOL     OW31579   0.332   3.965   9.265  0.4896  0.3756  0.5685
 6649SOL    HW131580   0.353   4.055   9.291  1.3704  0.7410 -1.4023
 6649SOL    HW231581   0.240   3.980   9.242  0.4970 -0.0228  0.2794
 6650SOL     OW31582   4.412   1.658   7.985  0.1584 -0.3718  0.6610
 6650SOL    HW131583   4.493   1.706   8.005 -0.6878  1.2024  0.2499
 6650SOL    HW231584   4.349   1.718   8.025 -2.8409 -1.5637 -2.3903
 6651SOL     OW31585   1.758   1.123   0.577 -0.5218  0.1510  0.4808
 6651SOL    HW131586   1.705   1.121   0.497 -0.1719 -1.3193  0.2738
 6651SOL    HW231587   1.847   1.114   0.543 -1.5991 -0.4062 -2.2223
 6652SOL     OW31588   2.539   1.517   6.478 -0.4479  0.1464  0.0180
 6652SOL    HW131589   2.594   1.568   6.419 -1.4794  2.7568  1.2991
 6652SOL    HW231590   2.595   1.524   6.555 -1.1537  0.6724  0.4912
 6653SOL     OW31591   0.757   0.657   7.359  0.3952  0.2699 -0.7575
 6653SOL    HW131592   0.700   0.580   7.350 -1.3974  1.5250 -0.0696
 6653SOL    HW231593   0.707   0.738   7.353 -2.5392 -1.3739  1.5225
 6654SOL     OW31594   4.495   4.668   8.480 -0.0421 -0.1502  0.1165
 6654SOL    HW131595   4.568   4.607   8.475  1.9017  1.9254  2.6219
 6654SOL    HW231596   4.515   4.724   8.405 -1.2403 -1.4458 -1.1676
 6655SOL     OW31597   0.414   2.100   2.212 -0.8315 -0.1527  0.0338
 6655SOL    HW131598   0.376   2.047   2.282  0.8796 -0.6829  0.5790
 6655SOL    HW231599   0.504   2.107   2.245 -1.0687 -0.4551  0.7392
 6656SOL     OW31600   3.724   4.478   2.751  0.3095  0.0412  0.4521
 6656SOL    HW131601   3.735   4.450   2.660 -1.1532 -0.5447  0.4542
 6656SOL    HW231602   3.629   4.473   2.757  0.2797  0.4534  0.3460
 6657SOL     OW31603   2.154   1.208   1.576 -0.0764 -0.1216  0.3405
 6657SOL    HW131604   2.178   1.145   1.508 -2.1866  0.8266 -1.3002
 6657SOL    HW231605   2.190   1.165   1.653  2.6268 -3.0076 -2.5264
 6658SOL     OW31606   4.523   2.677   6.307  0.3843  0.0566  0.2605
 6658SOL    HW131607   4.512   2.598   6.254  0.5702 -0.6774  1.3206
 6658SOL    HW231608   4.612   2.661   6.339  1.1240  0.6451 -1.4977
 6659SOL     OW31609   2.089   0.146  11.901  0.5469 -0.2101  0.0015
 6659SOL    HW131610   2.102   0.166  11.993  0.7658  0.6868 -0.2278
 6659SOL    HW231611   2.171   0.178  11.863  0.4778  1.1588  1.0301
 6660SOL     OW31612   0.783   3.448   9.814 -0.6793 -0.2029 -0.2868
 6660SOL    HW131613   0.839   3.521   9.787  2.6132 -2.8370 -0.5465
 6660SOL    HW231614   0.825   3.375   9.768 -0.3438 -0.9626  1.2302
 6661SOL     OW31615   3.144   4.726   6.963  0.0457  0.0465  0.2155
 6661SOL    HW131616   3.051   4.704   6.954  0.5510 -2.6403  1.4860
 6661SOL    HW231617   3.150   0.015   6.871  2.5833  0.5211  0.5109
 6662SOL     OW31618   1.809   0.587   6.412 -0.6132 -0.2972  0.2164
 6662SOL    HW131619   1.796   0.510   6.467  1.0675 -1.0339 -0.4072
 6662SOL    HW231620   1.748   0.569   6.340 -1.1409  2.8717 -0.1146
 6663SOL     OW31621   3.668   2.709   0.472  0.2439 -0.5068 -0.2389
 6663SOL    HW131622   3.699   2.767   0.402  1.5969  1.2617  1.7723
 6663SOL    HW231623   3.640   2.639   0.415  0.0807 -0.2703 -0.4499
 6664SOL     OW31624   4.330   3.296  11.190 -0.1929 -0.2932  0.2378
 6664SOL    HW131625   4.369   3.310  11.276  3.4421  1.6174 -1.7004
 6664SOL    HW231626   4.245   3.331  11.216 -0.7908  0.2318 -2.4513
 6665SOL     OW31627   2.677   2.061   0.673  1.0069 -0.1555 -0.5462
 6665SOL    HW131628   2.648   2.119   0.743  2.4884 -1.4189  1.1077
 6665SOL    HW231629   2.664   2.114   0.594  0.4291  0.0860 -0.2935
 6666SOL     OW31630   3.047   0.634   7.724 -0.0206  0.4248  0.2917
 6666SOL    HW131631   2.961   0.658   7.689  0.1307 -0.4416 -0.6816
 6666SOL    HW231632   3.020   0.597   7.807 -2.0574  1.6567  0.1769
 6667SOL     OW31633   4.593   3.676  10.858 -0.0508 -0.2829  0.1474
 6667SOL    HW131634   4.546   3.623  10.922 -1.1738  1.7051  0.9859
 6667SOL    HW231635   4.638   3.608  10.808  3.6082  1.6901  0.7225
 6668SOL     OW31636   0.902   2.248   5.971 -0.2014 -0.3434  0.1895
 6668SOL    HW131637   0.987   2.267   6.010  0.6503 -0.3910 -1.6281
 6668SOL    HW231638   0.851   2.328   5.985  0.2286  0.2819 -1.8468
 6669SOL     OW31639   3.698   1.148   5.352 -0.1837 -0.7524 -0.7530
 6669SOL    HW131640   3.693   1.053   5.361 -1.5824 -0.6469 -0.5297
 6669SOL    HW231641   3.658   1.172   5.436  0.3022  1.0372 -1.0240
 6670SOL     OW31642   0.399   1.582   8.712 -0.6794 -0.1892 -0.4168
 6670SOL    HW131643   0.363   1.579   8.623 -2.3739  0.3189  0.2488
 6670SOL    HW231644   0.469   1.517   8.703  0.4549  1.2856 -2.4159
 6671SOL     OW31645   0.235   3.228   4.318  0.3367  0.7709  0.1184
 6671SOL    HW131646   0.185   3.207   4.239 -0.5687 -1.5245  1.3033
 6671SOL    HW231647   0.306   3.164   4.316  0.8409  1.3030  0.7672
 6672SOL     OW31648   2.004   4.496   1.559 -0.6944  0.3979  0.2622
 6672SOL    HW131649   2.082   4.520   1.609 -1.2572  0.5026  1.0722
 6672SOL    HW231650   1.950   4.573   1.575 -1.2294  0.5235 -2.0853
 6673SOL     OW31651   4.174   2.123   9.351 -0.3678 -0.0762 -0.2203
 6673SOL    HW131652   4.123   2.045   9.373  0.6186 -1.4766 -2.9864
 6673SOL    HW231653   4.197   2.098   9.261 -3.4231  0.6632 -1.2314
 6674SOL     OW31654   2.363   1.219   9.343  0.3314  0.3761  0.0379
 6674SOL    HW131655   2.431   1.251   9.283 -1.1942  0.9327 -1.3802
 6674SOL    HW231656   2.378   1.275   9.419 -0.3087 -1.5276  1.5536
 6675SOL     OW31657   4.047   0.976   6.419 -0.3080  0.3551  0.1792
 6675SOL    HW131658   4.059   1.035   6.494  0.5100  2.2190 -1.3922
 6675SOL    HW231659   3.995   1.034   6.364 -0.3516 -0.7110 -0.9038
 6676SOL     OW31660   2.161   0.988  11.423  0.1320 -0.4934  0.3400
 6676SOL    HW131661   2.171   1.070  11.471  1.1383  0.3431 -1.2880
 6676SOL    HW231662   2.226   1.010  11.356  0.6078 -1.0715  0.6030
 6677SOL     OW31663   3.866   0.064   9.102  0.1513  0.0583  0.4829
 6677SOL    HW131664   3.877   0.005   9.176 -0.4067  0.5154  0.9271
 6677SOL    HW231665   3.866   0.013   9.021 -0.8064  1.4820 -0.4141
 6678SOL     OW31666   2.650   3.278  16.485  0.4722 -0.1001 -0.2644
 6678SOL    HW131667   2.560   3.256  16.461  0.2796 -0.8943  1.2203
 6678SOL    HW231668   2.691   3.192  16.490  0.4173 -0.2702 -2.5687
 6679SOL     OW31669   0.706   1.713   6.588  0.4402  0.0060  0.8834
 6679SOL    HW131670   0.792   1.751   6.570  0.6818  0.0479  2.0920
 6679SOL    HW231671   0.732   1.625   6.614 -2.2186 -1.1714 -0.5196
 6680SOL     OW31672   0.948   4.340   5.415 -0.2844  0.0303 -0.1994
 6680SOL    HW131673   1.014   4.288   5.369  1.6211  0.6498  1.8470
 6680SOL    HW231674   1.004   4.406   5.457  0.5855 -0.7453 -0.1363
 6681SOL     OW31675   4.648   4.471   6.394  0.3708 -0.0142 -0.0849
 6681SOL    HW131676   4.640   4.560   6.360 -0.6462  1.1136  3.0801
 6681SOL    HW231677   4.561   4.456   6.431  0.0520 -1.8586 -1.5828
 6682SOL     OW31678   4.188   2.882   4.370  0.1413  0.2830 -0.5946
 6682SOL    HW131679   4.163   2.955   4.427 -0.1292 -2.1354  2.4243
 6682SOL    HW231680   4.282   2.867   4.381  0.2540 -0.6958 -2.9544
 6683SOL     OW31681   3.595   4.456  14.967 -0.5307 -0.4530 -0.2538
 6683SOL    HW131682   3.598   4.373  15.015 -2.8514  0.2418  1.1013
 6683SOL    HW231683   3.597   4.411  14.883  3.5769  1.5459 -1.2184
 6684SOL     OW31684   1.942   2.909   8.279  0.5584  0.4458 -0.1797
 6684SOL    HW131685   1.918   2.968   8.208  0.5531  0.6566 -0.0019
 6684SOL    HW231686   1.854   2.889   8.310  0.9456 -0.6782  0.2109
 6685SOL     OW31687   3.042   3.375  11.943 -0.5730  0.3693  0.1679
 6685SOL    HW131688   2.999   3.334  12.018  1.3721 -0.9310  0.5779
 6685SOL    HW231689   2.991   3.339  11.870  2.3442 -2.6238 -0.4164
 6686SOL     OW31690   4.455   0.616   8.844 -0.0824  0.3831  0.1650
 6686SOL    HW131691   4.403   0.583   8.770 -0.9561 -2.0554  1.8915
 6686SOL    HW231692   4.475   0.533   8.888 -0.9034 -0.2667 -0.6841
 6687SOL     OW31693   2.608   1.235   9.740  0.0578 -0.2212  0.4572
 6687SOL    HW131694   2.653   1.301   9.793 -2.0003 -0.0795  2.0233
 6687SOL    HW231695   2.558   1.191   9.808 -1.8037  1.2122  0.0088
 6688SOL     OW31696   4.488   1.356   0.997  0.2402 -0.3716  0.2234
 6688SOL    HW131697   4.500   1.337   0.904 -0.5700 -1.6935  0.3854
 6688SOL    HW231698   4.406   1.406   0.995  0.0766 -0.6605 -0.6220
 6689SOL     OW31699   3.798   2.355   1.738  0.6870  0.2001 -0.1152
 6689SOL    HW131700   3.719   2.328   1.692  1.4921 -0.3424 -1.1743
 6689SOL    HW231701   3.859   2.285   1.715  0.9438  1.1309 -2.2822
 6690SOL     OW31702   0.918   2.134   6.467  0.4958 -0.1444  0.0477
 6690SOL    HW131703   0.825   2.135   6.442  0.4488 -1.0633  0.1794
 6690SOL    HW231704   0.916   2.159   6.559  0.6850  0.8374 -0.2121
 6691SOL     OW31705   4.618   0.559   2.100 -0.2142  0.4538  0.0955
 6691SOL    HW131706   4.644   0.481   2.052 -1.9609 -0.3083  0.3848
 6691SOL    HW231707   4.700   0.605   2.118  0.0907 -1.0386  2.5222
 6692SOL     OW31708   1.987   2.398   8.207 -0.5785 -0.3461 -0.0612
 6692SOL    HW131709   1.932   2.474   8.226 -0.8306 -0.9285  1.6007
 6692SOL    HW231710   1.964   2.376   8.117 -1.3211  0.1026  0.0144
 6693SOL     OW31711   4.220   0.443   8.593 -0.2319  0.1068 -0.1711
 6693SOL    HW131712   4.187   0.526   8.626  0.4395  0.1186  0.4613
 6693SOL    HW231713   4.150   0.425   8.531  0.6825  1.1067 -1.4907
 6694SOL     OW31714   4.662   0.981   4.415 -0.2932  0.2067  0.1291
 6694SOL    HW131715   0.004   0.999   4.469  0.2942 -1.1932 -0.2322
 6694SOL    HW231716   4.660   1.041   4.340  1.1392  1.9477  1.4659
 6695SOL     OW31717   1.419   2.779   2.723 -0.5349  0.0040 -0.4633
 6695SOL    HW131718   1.448   2.738   2.641 -2.7828  0.2262 -1.3607
 6695SOL    HW231719   1.326   2.795   2.710 -0.4740  0.4728 -0.3180
 6696SOL     OW31720   0.546   3.704  11.145 -0.0679  0.6155  0.0860
 6696SOL    HW131721   0.575   3.668  11.228 -1.9486  1.8761  1.2731
 6696SOL    HW231722   0.525   3.793  11.172  0.1588 -0.0149  2.2855
 6697SOL     OW31723   0.879   0.239   1.463 -0.3691  0.2098 -0.2616
 6697SOL    HW131724   0.938   0.302   1.420  0.4391 -0.3472  0.0473
 6697SOL    HW231725   0.938   0.167   1.484 -0.3220  1.0192  2.3674
 6698SOL     OW31726   3.087   0.741  12.096 -0.1443  0.2297 -0.5711
 6698SOL    HW131727   3.132   0.745  12.180 -1.0552 -2.2536  0.0425
 6698SOL    HW231728   3.050   0.653  12.093 -2.1341  1.1295 -2.5987
 6699SOL     OW31729   3.752   2.910   2.919  0.0391  0.1585  1.0932
 6699SOL    HW131730   3.786   2.887   2.832 -0.4987  2.6503  0.2075
 6699SOL    HW231731   3.671   2.858   2.917 -1.1804  2.0548  0.7689
 6700SOL     OW31732   2.223   0.863   2.214  0.6829 -0.6579 -0.9385
 6700SOL    HW131733   2.309   0.822   2.206  0.6788 -0.6531 -1.0114
 6700SOL    HW231734   2.249   0.928   2.279 -0.5097 -0.3446 -0.7833
 6701SOL     OW31735   4.136   0.033   0.538  0.2744 -0.4029 -0.4718
 6701SOL    HW131736   4.121   4.699   0.473  1.2059 -2.8081  1.8585
 6701SOL    HW231737   4.050   0.074   0.539  0.6067  0.3464 -2.0248
 6702SOL     OW31738   3.242   3.270   2.530  0.5456 -0.0532  0.4831
 6702SOL    HW131739   3.319   3.297   2.579  1.5516  0.2514 -1.2734
 6702SOL    HW231740   3.166   3.293   2.584 -0.3924 -0.7576 -0.5460
 6703SOL     OW31741   0.521   4.306   5.655 -0.0952 -0.0172  0.3642
 6703SOL    HW131742   0.519   4.369   5.727  1.6547 -0.1588  0.5247
 6703SOL    HW231743   0.530   4.357   5.575 -0.4720  0.6349  0.7410
 6704SOL     OW31744   2.130   0.319   3.479 -0.1905 -0.1435  0.2220
 6704SOL    HW131745   2.161   0.235   3.446  1.7261  0.3536  0.8055
 6704SOL    HW231746   2.192   0.324   3.551  0.2120  0.9418 -0.2057
 6705SOL     OW31747   3.820   3.542   2.435 -0.4744  0.4829 -0.3456
 6705SOL    HW131748   3.729   3.513   2.432 -0.1163 -0.9469  2.5062
 6705SOL    HW231749   3.802   3.634   2.458  0.8605  0.7457 -0.3845
 6706SOL     OW31750   2.939   0.186   6.399  0.0407 -0.1993 -0.8561
 6706SOL    HW131751   3.015   0.219   6.447 -0.9853  0.8241  0.0683
 6706SOL    HW231752   2.967   0.222   6.316 -3.2106  2.5338 -0.7757
 6707SOL     OW31753   0.096   0.312   7.667 -0.3549  0.1679  0.1341
 6707SOL    HW131754   0.186   0.339   7.646 -0.8873  0.7644 -1.3704
 6707SOL    HW231755   0.109   0.219   7.686  2.5510  0.7116  0.8770
 6708SOL     OW31756   4.642   1.383   9.681 -0.3830  0.3816  0.2180
 6708SOL    HW131757   4.555   1.422   9.680  0.3792  2.0769  0.3545
 6708SOL    HW231758   4.695   1.445   9.631  0.5505 -0.1280  0.5696
 6709SOL     OW31759   1.865   3.655   8.410  0.8179  0.1421 -0.4496
 6709SOL    HW131760   1.855   3.745   8.379  1.0583  0.3290  0.0184
 6709SOL    HW231761   1.790   3.662   8.469  1.7373 -0.5475  0.8186
 6710SOL     OW31762   3.422   3.364   4.785 -0.0147 -0.0342 -0.4207
 6710SOL    HW131763   3.412   3.282   4.736  0.1298 -1.4347  1.8854
 6710SOL    HW231764   3.426   3.334   4.876 -0.2614 -2.4577 -1.2102
 6711SOL     OW31765   3.556   3.184   5.822 -0.0813 -0.2360 -0.0149
 6711SOL    HW131766   3.614   3.111   5.802 -0.3656 -0.0104 -1.6721
 6711SOL    HW231767   3.479   3.132   5.845  1.8337 -2.6230  1.0224
 6712SOL     OW31768   2.761   0.348   4.434 -0.3887 -0.3288  0.1033
 6712SOL    HW131769   2.769   0.401   4.513 -0.2149 -1.3366  0.7598
 6712SOL    HW231770   2.705   0.277   4.465 -2.1162  0.9721 -0.0188
 6713SOL     OW31771   1.442   3.221   1.135 -0.0051 -0.5244 -0.6257
 6713SOL    HW131772   1.453   3.232   1.041 -0.1899 -2.2579 -0.8433
 6713SOL    HW231773   1.456   3.129   1.158  0.4054  0.4998  3.1877
 6714SOL     OW31774   1.460   2.909   7.286  0.3646  0.2825 -0.2566
 6714SOL    HW131775   1.405   2.974   7.330  0.4899  1.4190 -1.7803
 6714SOL    HW231776   1.437   2.920   7.194  2.4320 -0.0475 -0.8146
 6715SOL     OW31777   2.291   2.958   5.859  0.1809 -0.6331  0.1622
 6715SOL    HW131778   2.290   2.870   5.820  1.7116 -0.6461  0.1564
 6715SOL    HW231779   2.349   2.948   5.935  0.5878 -0.1575 -0.0864
 6716SOL     OW31780   2.514   1.169   1.761  0.6895 -0.2651  0.8278
 6716SOL    HW131781   2.592   1.189   1.814 -0.3292  2.8894  1.1462
 6716SOL    HW231782   2.538   1.215   1.681  0.0495  2.4154  2.1308
 6717SOL     OW31783   4.167   1.832   3.420 -0.8697 -0.3998 -0.5120
 6717SOL    HW131784   4.089   1.846   3.368  0.5515  0.0193 -2.5371
 6717SOL    HW231785   4.207   1.757   3.375 -2.1571 -1.5245  0.2103
 6718SOL     OW31786   0.246   0.016   5.599 -0.4892  0.8016 -0.2130
 6718SOL    HW131787   0.267   0.087   5.659 -1.4842 -1.1280  2.3820
 6718SOL    HW231788   0.153   0.040   5.595 -0.4090  1.5100  2.4999
 6719SOL     OW31789   1.718   3.335  17.041 -0.5349 -0.5544 -0.6602
 6719SOL    HW131790   1.694   3.360  17.130  2.4408 -0.0909  0.0101
 6719SOL    HW231791   1.810   3.362  17.037 -1.3030  2.1143  0.2133
 6720SOL     OW31792   3.232   2.323   6.463  0.4991 -0.0098  0.1384
 6720SOL    HW131793   3.278   2.395   6.419  1.0676  0.5293  1.6337
 6720SOL    HW231794   3.297   2.260   6.495 -1.5892 -2.6869 -0.8343
 6721SOL     OW31795   1.871   0.314   7.422 -0.1180 -0.5158  0.6797
 6721SOL    HW131796   1.965   0.324   7.436 -0.0613 -0.6037  0.3641
 6721SOL    HW231797   1.831   0.366   7.492  0.8037  1.7516 -0.4923
 6722SOL     OW31798   3.082   1.590   3.486 -0.0184 -0.4855  0.0191
 6722SOL    HW131799   3.046   1.556   3.404  2.3117 -2.3081 -0.2202
 6722SOL    HW231800   3.037   1.674   3.496  2.7317  0.7956  1.5809
 6723SOL     OW31801   0.697   3.923   1.692 -0.4279  0.4534  0.5084
 6723SOL    HW131802   0.614   3.944   1.650  0.4997 -0.5642 -1.8245
 6723SOL    HW231803   0.732   3.850   1.640  1.4642  2.1807 -0.6153
 6724SOL     OW31804   0.411   3.033   2.871 -0.0156  0.2177 -0.1630
 6724SOL    HW131805   0.443   3.085   2.945 -0.1189 -0.2589  0.2184
 6724SOL    HW231806   0.477   3.040   2.803 -1.8342  1.1292 -1.8441
 6725SOL     OW31807   3.143   1.846   1.054  1.0387  0.3948  0.1817
 6725SOL    HW131808   3.225   1.875   1.094  0.7393  1.0335  0.3262
 6725SOL    HW231809   3.090   1.864   1.131  0.9822  1.1518 -0.0295
 6726SOL     OW31810   0.530   1.790   4.232 -0.0572 -0.0652  0.1742
 6726SOL    HW131811   0.581   1.853   4.181  1.1038 -2.8535 -2.0950
 6726SOL    HW231812   0.440   1.815   4.213 -0.6368 -1.2238  1.4295
 6727SOL     OW31813   4.260   0.445   3.031  0.2846 -0.1797  0.1921
 6727SOL    HW131814   4.272   0.351   3.013 -1.3597 -0.6046  1.3777
 6727SOL    HW231815   4.352   0.471   3.022  0.2114  0.0752  0.2099
 6728SOL     OW31816   2.720   3.652   2.710  0.0825  0.1524 -0.1950
 6728SOL    HW131817   2.799   3.675   2.661 -0.4465  1.8985 -0.2293
 6728SOL    HW231818   2.717   3.716   2.781 -1.1101 -1.0432  0.8304
 6729SOL     OW31819   3.389   0.267   9.897  0.5735 -0.0098  0.6630
 6729SOL    HW131820   3.461   0.320   9.862 -1.0414  2.7289  1.4722
 6729SOL    HW231821   3.323   0.333   9.920 -0.0579 -0.8787  1.3075
 6730SOL     OW31822   2.696   1.690   9.653  0.1741  0.1251  0.0906
 6730SOL    HW131823   2.754   1.633   9.602  1.0066 -1.0983  2.4536
 6730SOL    HW231824   2.730   1.779   9.657 -2.0122  1.1476 -3.3603
 6731SOL     OW31825   2.362   4.719   5.595  0.3391  0.5610 -0.7557
 6731SOL    HW131826   2.274   4.708   5.631  0.0217  1.4366 -1.2554
 6731SOL    HW231827   2.395   0.046   5.659  0.3197 -0.4556  0.2482
 6732SOL     OW31828   2.944   4.214   2.387 -0.4797  0.0360 -0.2521
 6732SOL    HW131829   2.882   4.181   2.451 -0.3063  0.9130  0.3737
 6732SOL    HW231830   2.886   4.262   2.328 -2.5298 -1.9183  0.2042
 6733SOL     OW31831   3.422   0.081  16.574  0.8256 -0.6080  0.1045
 6733SOL    HW131832   3.329   0.086  16.599  1.2101  2.4081  0.9705
 6733SOL    HW231833   3.415   0.019  16.502  0.7331 -0.3517 -0.1071
 6734SOL     OW31834   2.466   1.825   3.781  0.2274 -0.0717  0.0180
 6734SOL    HW131835   2.439   1.902   3.830 -1.5910 -0.5966 -0.1496
 6734SOL    HW231836   2.555   1.840   3.751  0.6829  1.6459  2.2707
 6735SOL     OW31837   2.916   0.000  15.428  0.4162  0.1284  0.0857
 6735SOL    HW131838   2.922   0.028  15.337  1.5891 -0.2944  0.0255
 6735SOL    HW231839   2.858   0.063  15.470  2.0003  2.8056 -1.7060
 6736SOL     OW31840   2.723   0.088   3.533  0.0884 -0.5369  0.4032
 6736SOL    HW131841   2.767   0.014   3.491  0.9203 -0.3858  0.9983
 6736SOL    HW231842   2.784   0.161   3.525  1.8322 -1.7865  2.3106
 6737SOL     OW31843   1.067   3.014   9.142  0.0463 -0.0187  0.8273
 6737SOL    HW131844   1.134   2.968   9.092 -0.6887  1.1787 -1.2502
 6737SOL    HW231845   1.017   2.940   9.176  0.6605 -1.6174 -1.8033
 6738SOL     OW31846   3.480   2.904   8.443  0.2719  0.0053  0.1717
 6738SOL    HW131847   3.529   2.823   8.459  0.7191  0.3631  0.6288
 6738SOL    HW231848   3.408   2.888   8.503 -1.4806  4.1209 -0.8932
 6739SOL     OW31849   1.785   0.761   8.487  0.0602 -0.0973  0.0534
 6739SOL    HW131850   1.784   0.802   8.400  1.8276  0.1024  0.1254
 6739SOL    HW231851   1.690   0.771   8.488  0.0111 -0.6291  0.6548
 6740SOL     OW31852   3.736   1.560  17.173 -0.2418 -0.1182 -0.0133
 6740SOL    HW131853   3.710   1.623  17.106  2.7274  1.1343 -0.0166
 6740SOL    HW231854   3.817   1.536  17.126 -0.0176  0.8353 -0.1034
 6741SOL     OW31855   3.200   3.915  13.513 -0.1797  0.2599  0.6649
 6741SOL    HW131856   3.207   3.901  13.419 -2.6475  1.0725  0.3568
 6741SOL    HW231857   3.177   4.008  13.517 -3.2949 -0.3706 -2.4182
 6742SOL     OW31858   1.281   4.605   9.674 -0.1804  0.1353  0.3667
 6742SOL    HW131859   1.374   4.612   9.692  0.8506 -3.5690 -3.3836
 6742SOL    HW231860   1.242   4.576   9.756  3.3897 -0.3604  1.8725
 6743SOL     OW31861   4.517   1.228   7.198 -0.4034  0.0275  0.7555
 6743SOL    HW131862   4.525   1.190   7.285  1.8019 -0.8110  0.1851
 6743SOL    HW231863   4.499   1.148   7.148  1.0431  0.0096  0.2688
 6744SOL     OW31864   2.151   0.580  13.947  0.1875 -0.3558  0.5657
 6744SOL    HW131865   2.229   0.524  13.946  1.0167  0.8023  0.7447
 6744SOL    HW231866   2.110   0.554  13.865 -1.6750  0.8113  1.1303
 6745SOL     OW31867   2.585   2.764   7.947 -0.4223 -0.3024  0.8272
 6745SOL    HW131868   2.557   2.852   7.971  0.3038  0.8172 -2.4657
 6745SOL    HW231869   2.678   2.777   7.968  0.4455 -2.8338 -1.4518
 6746SOL     OW31870   2.704   1.372   2.055  0.0738 -0.3359  0.3942
 6746SOL    HW131871   2.709   1.388   1.960 -1.1578 -2.6904 -0.0792
 6746SOL    HW231872   2.678   1.280   2.043  1.0933 -0.6415  0.5225
 6747SOL     OW31873   3.223   1.367   0.423  0.1030 -0.2110 -0.5647
 6747SOL    HW131874   3.208   1.336   0.512  2.6653 -1.5626 -0.6071
 6747SOL    HW231875   3.273   1.298   0.381  1.3578  0.0497  0.4927
 6748SOL     OW31876   0.408   0.317   8.582 -0.1796 -0.0010  0.1462
 6748SOL    HW131877   0.383   0.370   8.657 -1.8199 -1.5501  0.6936
 6748SOL    HW231878   0.413   0.394   8.525 -1.1093  1.2140  1.7159
 6749SOL     OW31879   2.511   0.597   9.252  0.5023  0.6722 -0.2850
 6749SOL    HW131880   2.555   0.670   9.294 -0.3135  0.4438  0.9963
 6749SOL    HW231881   2.567   0.588   9.175 -0.3925 -1.8461 -0.6720
 6750SOL     OW31882   0.940   1.765  15.835  0.0915 -0.1932 -0.1328
 6750SOL    HW131883   0.850   1.735  15.850 -0.2432  0.1684 -1.4069
 6750SOL    HW231884   0.968   1.689  15.784  0.4333  0.1269 -0.4169
 6751SOL     OW31885   1.479   2.693   6.646 -0.2386  0.0707  0.2432
 6751SOL    HW131886   1.490   2.755   6.574 -0.4763 -0.8156 -0.5443
 6751SOL    HW231887   1.402   2.722   6.695  0.9037  0.4917  1.8173
 6752SOL     OW31888   4.233   0.081   8.657 -0.1951  0.3189  0.6034
 6752SOL    HW131889   4.327   0.091   8.670 -0.2161 -1.3803  2.0299
 6752SOL    HW231890   4.203   0.007   8.710 -1.5708 -1.0378 -2.0661
 6753SOL     OW31891   4.539   2.576   4.993  0.0617  0.3672 -0.0509
 6753SOL    HW131892   4.598   2.504   5.014  0.8287  0.8841 -0.4278
 6753SOL    HW231893   4.480   2.569   5.068 -1.3169 -2.0513 -1.3903
 6754SOL     OW31894   0.247   0.503   4.145 -0.4554  0.5671 -0.1787
 6754SOL    HW131895   0.218   0.511   4.055 -0.2011  0.4817 -0.2673
 6754SOL    HW231896   0.212   0.421   4.182  2.3692 -0.3720  0.4200
 6755SOL     OW31897   4.498   0.470   5.464 -0.1712 -0.4507  0.0131
 6755SOL    HW131898   4.480   0.558   5.497 -1.5630 -0.1727 -1.5109
 6755SOL    HW231899   4.410   0.437   5.446 -0.1607  0.1853 -1.2224
 6756SOL     OW31900   2.247   4.715   6.895  0.2864 -0.5859  0.2239
 6756SOL    HW131901   2.334   0.019   6.892  0.0162 -0.1919 -2.3880
 6756SOL    HW231902   2.242   4.672   6.810  2.3085  0.7636 -0.5714
 6757SOL     OW31903   1.448   0.953   6.675  0.1092 -0.0654  0.6682
 6757SOL    HW131904   1.527   0.954   6.620 -0.6656 -0.5504 -0.4481
 6757SOL    HW231905   1.478   0.992   6.757  0.3233  1.5602 -0.1674
 6758SOL     OW31906   2.291   2.755   2.716  0.0403 -0.0223 -0.2949
 6758SOL    HW131907   2.384   2.766   2.737 -0.1237  0.0175  0.3890
 6758SOL    HW231908   2.294   2.673   2.666  1.4296 -0.9548  1.3293
 6759SOL     OW31909   4.272   2.375   9.315  0.0316  0.5553 -0.2023
 6759SOL    HW131910   4.360   2.382   9.352 -1.0008 -0.3839  2.4836
 6759SOL    HW231911   4.256   2.283   9.336 -0.8977  0.8577  0.4155
 6760SOL     OW31912   2.808   3.192   8.567  0.1059 -0.5983  0.0255
 6760SOL    HW131913   2.884   3.193   8.625  0.5751 -0.5761 -0.5869
 6760SOL    HW231914   2.839   3.248   8.496 -0.6712  0.4893  0.5497
 6761SOL     OW31915   2.131   2.854   5.438 -0.1054 -0.3217  0.0913
 6761SOL    HW131916   2.042   2.829   5.413  0.0448  0.6986 -1.4343
 6761SOL    HW231917   2.182   2.834   5.360 -1.1985 -2.5938 -0.0562
 6762SOL     OW31918   4.364   2.871  16.193 -0.1016  0.1561 -0.2912
 6762SOL    HW131919   4.290   2.856  16.134 -0.4077 -1.0296  0.3878
 6762SOL    HW231920   4.352   2.803  16.260 -2.3259  1.5649  0.7221
 6763SOL     OW31921   1.656   0.013   1.880  0.3758 -0.4784  0.5893
 6763SOL    HW131922   1.669   4.656   1.860 -2.5371 -0.4028 -1.4997
 6763SOL    HW231923   1.562   0.018   1.868  0.3491  1.4168  1.5073
 6764SOL     OW31924   3.860   0.698   8.546 -0.4039  0.1015  0.3173
 6764SOL    HW131925   3.817   0.753   8.612 -1.0694  1.0556 -0.9193
 6764SOL    HW231926   3.849   0.611   8.585  0.0377 -0.1125 -0.0371
 6765SOL     OW31927   0.088   0.474   3.469 -0.3338 -0.5813  0.2332
 6765SOL    HW131928   0.110   0.424   3.547 -1.0695 -0.6035  0.4320
 6765SOL    HW231929   0.171   0.517   3.450 -0.4464  0.5048  2.1723
 6766SOL     OW31930   0.101   1.714   7.860  0.2219 -0.1504  0.3036
 6766SOL    HW131931   0.193   1.701   7.836 -0.9860 -0.8430 -3.9868
 6766SOL    HW231932   0.083   1.634   7.908  1.3821 -0.0188  0.9565
 6767SOL     OW31933   1.192   3.278  17.390 -0.2795  0.7128 -0.0612
 6767SOL    HW131934   1.118   3.280  17.450  1.3959  3.1826  1.8876
 6767SOL    HW231935   1.192   3.369  17.362 -0.9956  0.0711 -2.1514
 6768SOL     OW31936   0.544   1.318  17.677  0.1305  0.0683  0.1229
 6768SOL    HW131937   0.575   1.237  17.636  0.5902 -0.1597  0.9204
 6768SOL    HW231938   0.504   1.371  17.608 -2.0401  1.0219  2.1017
 6769SOL     OW31939   1.014   3.248  16.527  0.4409  0.2305 -0.1658
 6769SOL    HW131940   0.953   3.321  16.515  0.7747  1.1105  3.4273
 6769SOL    HW231941   1.005   3.201  16.444  2.3949 -1.2481  0.4572
 6770SOL     OW31942   0.416   0.929   0.556  0.0245  0.3495 -0.1297
 6770SOL    HW131943   0.498   0.955   0.514 -0.7807  0.0055 -1.9104
 6770SOL    HW231944   0.438   0.845   0.596 -1.0745 -1.0596 -2.4746
 6771SOL     OW31945   2.470   2.139   5.961 -0.6807  0.5643 -0.1837
 6771SOL    HW131946   2.382   2.102   5.960 -0.4571  0.0351 -0.5719
 6771SOL    HW231947   2.517   2.086   5.896 -1.0362 -0.1044  0.1058
 6772SOL     OW31948   0.705   0.724   2.874 -0.0900 -0.5704 -0.1702
 6772SOL    HW131949   0.746   0.697   2.956  2.0263 -0.0669 -1.0560
 6772SOL    HW231950   0.633   0.661   2.866 -0.1742 -0.4140 -0.6429
 6773SOL     OW31951   2.285   1.559  12.648 -0.0498 -0.0672 -0.2011
 6773SOL    HW131952   2.351   1.490  12.652  0.0723 -0.0020 -1.0242
 6773SOL    HW231953   2.319   1.614  12.577  0.4340  0.3144  0.3238
 6774SOL     OW31954   0.851   2.758   7.575  0.1276  0.0495  0.0170
 6774SOL    HW131955   0.823   2.837   7.621  1.4506 -0.9929  2.6046
 6774SOL    HW231956   0.913   2.791   7.510 -0.4662  0.4406 -0.3471
 6775SOL     OW31957   1.861   3.219  16.760  1.2629  0.4391 -0.8843
 6775SOL    HW131958   1.931   3.268  16.803  0.9166  0.3845 -0.2597
 6775SOL    HW231959   1.868   3.134  16.804  3.7748  1.6288  1.0194
 6776SOL     OW31960   0.762   2.756   3.319  0.2312 -0.3851 -0.2152
 6776SOL    HW131961   0.746   2.717   3.405  0.3384  0.0771  0.0127
 6776SOL    HW231962   0.855   2.776   3.309  0.2672  0.1203  1.1426
 6777SOL     OW31963   3.237   2.977   3.252  0.2032  0.0152 -0.0195
 6777SOL    HW131964   3.227   2.957   3.159  1.0272 -0.6255  0.0341
 6777SOL    HW231965   3.147   2.957   3.280  0.2158  0.5852  0.4376
 6778SOL     OW31966   3.734   0.515  15.869  0.5383 -0.0146  0.3642
 6778SOL    HW131967   3.816   0.493  15.913  0.0545  0.4528  1.4945
 6778SOL    HW231968   3.685   0.542  15.946 -0.5309 -1.0674  0.0537
 6779SOL     OW31969   0.352   0.805   5.522 -0.4727 -0.0492 -0.3941
 6779SOL    HW131970   0.311   0.748   5.587 -0.3016  0.6180  0.3124
 6779SOL    HW231971   0.330   0.772   5.435 -0.3262  0.9461 -0.8118
 6780SOL     OW31972   0.832   4.191   5.938 -0.1456  0.5316  0.3087
 6780SOL    HW131973   0.836   4.253   5.865 -1.3109 -0.0132 -0.2272
 6780SOL    HW231974   0.911   4.144   5.911 -0.4736  0.2702 -0.1956
 6781SOL     OW31975   3.325   3.625   8.515  0.4251  0.2364  0.3908
 6781SOL    HW131976   3.366   3.539   8.524  0.4584  0.3363  1.2216
 6781SOL    HW231977   3.263   3.604   8.445 -1.2074  0.3792  1.7656
 6782SOL     OW31978   4.381   0.707   2.082 -0.2158  0.0609  0.0547
 6782SOL    HW131979   4.337   0.623   2.073  0.1841  0.0847 -2.3154
 6782SOL    HW231980   4.468   0.667   2.082  0.1236  0.7740 -1.3331
 6783SOL     OW31981   2.350   4.088   4.910  0.1185  0.0307  0.2578
 6783SOL    HW131982   2.313   4.066   4.995  0.1213 -0.1721  0.2049
 6783SOL    HW231983   2.321   4.011   4.862 -0.5160  0.0672  0.5804
 6784SOL     OW31984   0.873   2.179   9.297 -0.5726  0.5854 -0.5600
 6784SOL    HW131985   0.944   2.118   9.318 -2.0598 -1.1258 -0.5004
 6784SOL    HW231986   0.903   2.214   9.214  1.1946 -1.3228 -0.7285
 6785SOL     OW31987   2.878   3.781   4.906  0.6991 -0.2477 -0.6479
 6785SOL    HW131988   2.968   3.798   4.877  1.9991 -2.1696  2.1882
 6785SOL    HW231989   2.902   3.730   4.984  1.3607 -0.2798 -0.8762
 6786SOL     OW31990   3.082   2.275   1.713 -0.0927  0.5054  0.4245
 6786SOL    HW131991   3.021   2.286   1.640  2.8508  0.4627 -2.0568
 6786SOL    HW231992   3.150   2.248   1.651  0.3402 -0.3431  1.2750
 6787SOL     OW31993   2.852   1.813  17.519  0.3444 -0.2708 -0.2684
 6787SOL    HW131994   2.892   1.814  17.432  2.4440  0.4077  0.7000
 6787SOL    HW231995   2.837   1.906  17.536  1.5441  0.1520 -1.5162
 6788SOL     OW31996   0.138   1.287   8.432  0.4293  0.4893 -0.9633
 6788SOL    HW131997   0.176   1.201   8.453 -3.4878 -0.5523  1.9698
 6788SOL    HW231998   0.129   1.286   8.337  0.6086 -0.9723 -0.9686
 6789SOL     OW31999   1.647   2.853   8.761  0.1138  0.0291 -0.1506
 6789SOL    HW132000   1.617   2.919   8.824  2.0469  0.6704  0.0940
 6789SOL    HW232001   1.726   2.898   8.731  0.3398 -1.1475 -1.3017
 6790SOL     OW32002   1.402   4.079   2.605 -0.2062 -0.3084 -0.2764
 6790SOL    HW132003   1.467   4.135   2.646  1.0017 -0.7683 -1.5540
 6790SOL    HW232004   1.318   4.116   2.631 -1.1189 -2.4234 -0.1780
 6791SOL     OW32005   2.916   0.448  10.868  0.3007 -0.5677  0.0362
 6791SOL    HW132006   2.892   0.375  10.925 -0.2711  0.9348  1.7408
 6791SOL    HW232007   3.010   0.428  10.864  0.3900 -0.3056  0.8403
 6792SOL     OW32008   2.278   3.806   4.810  0.3593  0.1143  0.0494
 6792SOL    HW132009   2.308   3.805   4.719 -2.0112 -0.0836 -0.7261
 6792SOL    HW232010   2.355   3.779   4.859  0.5625 -1.6893 -1.2368
 6793SOL     OW32011   3.938   0.799   3.991 -0.3405 -0.6586  0.1199
 6793SOL    HW132012   3.968   0.711   3.972  1.0675  0.1132 -1.2156
 6793SOL    HW232013   3.999   0.828   4.060 -1.7969 -0.2281  1.2458
 6794SOL     OW32014   4.218   4.566   8.793  0.4364  0.7694 -0.3584
 6794SOL    HW132015   4.200   4.481   8.834  3.0702  0.2705 -0.1950
 6794SOL    HW232016   4.293   4.543   8.737 -1.2646 -0.5929 -2.0733
 6795SOL     OW32017   4.207   3.980   1.828 -0.0729 -0.2065 -0.5634
 6795SOL    HW132018   4.114   3.969   1.808  0.5137 -1.1843 -2.8517
 6795SOL    HW232019   4.209   4.008   1.919  0.2755 -1.1176 -0.2863
 6796SOL     OW32020   2.923   1.236   8.263 -0.4761 -0.6397  0.1058
 6796SOL    HW132021   2.883   1.300   8.204  1.9301  1.2090  0.4559
 6796SOL    HW232022   3.007   1.279   8.281 -0.4345 -1.5033  2.0017
 6797SOL     OW32023   1.056   4.508   5.111  0.5463 -0.4737  0.0429
 6797SOL    HW132024   0.970   4.524   5.071  1.5388 -2.0269 -2.7210
 6797SOL    HW232025   1.107   4.581   5.075 -0.1834  0.1355  0.2453
 6798SOL     OW32026   3.327   0.008   5.033  0.0781 -0.4724  0.3758
 6798SOL    HW132027   3.298   0.096   5.054  0.3297 -0.1000 -0.8090
 6798SOL    HW232028   3.410   0.008   5.080  0.9921  1.5628 -1.2503
 6799SOL     OW32029   2.683   4.286   3.265  0.1459  0.3251 -0.7156
 6799SOL    HW132030   2.773   4.270   3.236  0.7907 -0.7549  1.8819
 6799SOL    HW232031   2.681   4.237   3.347  0.8937  0.0657 -0.8563
 6800SOL     OW32032   4.244   0.617   6.732 -0.0094  0.2603 -0.3051
 6800SOL    HW132033   4.157   0.577   6.726  0.3028  0.0076 -3.0069
 6800SOL    HW232034   4.262   0.650   6.644  2.1484  1.0299  0.4283
 6801SOL     OW32035   1.353   1.135   0.334 -0.4048  0.0278  0.3235
 6801SOL    HW132036   1.299   1.206   0.298  1.4601  0.2430 -2.1010
 6801SOL    HW232037   1.294   1.060   0.322 -0.0053  0.3775 -3.9551
 6802SOL     OW32038   4.615   1.778   3.383 -0.3974  0.4140  0.1767
 6802SOL    HW132039   4.587   1.687   3.387 -2.5629  1.0414 -0.4726
 6802SOL    HW232040   4.667   1.778   3.303 -2.1317  0.2331 -0.9512
 6803SOL     OW32041   0.743   4.285  17.636 -0.5091 -0.2918  0.1872
 6803SOL    HW132042   0.758   4.198  17.600  0.1194  0.6221 -1.7449
 6803SOL    HW232043   0.649   4.291  17.618 -0.4306  0.9293  0.1941
 6804SOL     OW32044   4.090   3.599   2.049  0.3241  0.0381  0.2202
 6804SOL    HW132045   4.011   3.565   2.090  0.8969 -1.1444  0.3653
 6804SOL    HW232046   4.073   3.693   2.056 -0.0667 -0.0086 -0.1572
 6805SOL     OW32047   4.418   1.587  16.087 -0.2357 -0.3459 -0.3728
 6805SOL    HW132048   4.378   1.544  16.163  0.6136  3.2551  2.1168
 6805SOL    HW232049   4.484   1.646  16.122  0.1070 -0.7651 -0.3081
 6806SOL     OW32050   3.481   3.954  12.065  0.1428  0.0342 -0.6077
 6806SOL    HW132051   3.572   3.928  12.049 -0.3381 -1.3673 -1.0356
 6806SOL    HW232052   3.455   3.890  12.131 -1.9295  0.1748 -1.2687
 6807SOL     OW32053   3.731   1.403   4.534 -0.2662 -0.1647 -0.0584
 6807SOL    HW132054   3.690   1.482   4.571  0.6036  0.1615  0.2297
 6807SOL    HW232055   3.735   1.420   4.440  1.6536  1.7032  0.3469
 6808SOL     OW32056   4.489   0.433   8.582 -0.1521  0.3230 -0.2414
 6808SOL    HW132057   4.394   0.422   8.576  0.3058 -3.6254 -0.0790
 6808SOL    HW232058   4.502   0.514   8.532 -0.2591  1.1047  1.0020
 6809SOL     OW32059   2.147   0.257   8.594 -0.4292  0.8981 -0.1463
 6809SOL    HW132060   2.209   0.327   8.611  0.3759  0.3738 -0.8926
 6809SOL    HW232061   2.108   0.231   8.677  1.3509  1.0229  0.7178
 6810SOL     OW32062   1.443   4.234  11.809 -0.3222  0.0353  0.1282
 6810SOL    HW132063   1.418   4.315  11.853 -2.0714 -0.1897 -0.4471
 6810SOL    HW232064   1.412   4.175  11.877  1.6648 -1.0972  0.0530
 6811SOL     OW32065   1.027   0.822   5.425  0.0588  0.0101 -0.0188
 6811SOL    HW132066   1.113   0.825   5.467  0.6820 -0.2810 -1.2923
 6811SOL    HW232067   0.974   0.805   5.504 -0.8451  0.8896 -0.4361
 6812SOL     OW32068   3.773   2.878   5.319  0.0201 -0.5276  0.6945
 6812SOL    HW132069   3.835   2.808   5.300 -0.3031 -0.7305  0.3792
 6812SOL    HW232070   3.807   2.949   5.264  0.1165 -0.7837  0.4180
 6813SOL     OW32071   1.512   1.033   9.055  0.4082 -0.2269  0.8354
 6813SOL    HW132072   1.592   1.083   9.073 -0.9007  2.3685 -0.5255
 6813SOL    HW232073   1.529   0.958   9.111 -1.4031 -0.2034  1.4157
 6814SOL     OW32074   1.086   1.221  10.947 -0.3255  0.2250  0.1818
 6814SOL    HW132075   1.152   1.196  11.012 -1.6521 -3.4044  0.1233
 6814SOL    HW232076   1.018   1.154  10.958  2.1058 -1.9130  2.1641
 6815SOL     OW32077   1.506   1.737   4.660 -0.0957  0.3906 -0.7670
 6815SOL    HW132078   1.462   1.822   4.673 -0.9431 -0.2864  0.7339
 6815SOL    HW232079   1.458   1.726   4.577 -1.0277 -0.9763 -0.0396
 6816SOL     OW32080   4.106   2.929  12.452 -0.4109  0.1041  0.1657
 6816SOL    HW132081   4.136   2.980  12.377 -2.5197 -0.2857 -0.9655
 6816SOL    HW232082   4.056   2.991  12.505 -0.2443  1.1659 -0.9359
 6817SOL     OW32083   3.640   1.034   7.873 -0.2332 -0.4510  0.4568
 6817SOL    HW132084   3.672   0.951   7.907 -1.0378 -1.0718 -0.3065
 6817SOL    HW232085   3.687   1.098   7.926  1.2990 -1.8325  0.7588
 6818SOL     OW32086   3.688   1.792   0.675 -0.0821 -0.7119  0.3558
 6818SOL    HW132087   3.710   1.714   0.726 -0.8979 -1.6597 -0.7469
 6818SOL    HW232088   3.723   1.865   0.726 -0.2789  0.5226 -1.2895
 6819SOL     OW32089   0.230   4.037   8.276  0.4782 -0.7084 -0.7016
 6819SOL    HW132090   0.200   4.046   8.185 -2.1517 -0.4721  0.1994
 6819SOL    HW232091   0.248   3.943   8.274  0.2745 -0.7557 -0.2132
 6820SOL     OW32092   0.339   2.941   7.972  0.4153  0.3133 -0.1326
 6820SOL    HW132093   0.385   2.887   7.908 -0.5170 -0.0035 -0.5468
 6820SOL    HW232094   0.369   2.900   8.052  0.1834  1.6786  0.6556
 6821SOL     OW32095   1.021   0.116   4.622  0.4359  0.1512  0.2926
 6821SOL    HW132096   1.083   0.049   4.652 -1.1108 -1.1015  0.6847
 6821SOL    HW232097   0.949   0.067   4.583  0.5179 -1.5755  2.2640
 6822SOL     OW32098   1.689   0.338  16.023 -0.5995 -0.9347  0.9098
 6822SOL    HW132099   1.675   0.387  15.942  1.3178 -1.0654  0.5199
 6822SOL    HW232100   1.613   0.279  16.023  0.2178 -2.0111 -1.4059
 6823SOL     OW32101   2.639   1.756   2.200  0.1077 -0.0049  0.1713
 6823SOL    HW132102   2.617   1.668   2.232 -1.0283 -0.5532 -2.0871
 6823SOL    HW232103   2.726   1.763   2.239 -0.1777  0.7606  0.6606
 6824SOL     OW32104   2.669   1.990   7.869  0.3447  0.2118 -0.4239
 6824SOL    HW132105   2.587   1.989   7.819  1.3028 -0.8853 -1.9595
 6824SOL    HW232106   2.686   2.084   7.877 -0.7914  0.2345  1.8236
 6825SOL     OW32107   1.597   3.174   7.366 -0.8466 -0.1758  0.1814
 6825SOL    HW132108   1.504   3.159   7.379 -0.8839 -0.2439 -0.1503
 6825SOL    HW232109   1.598   3.249   7.307  0.2889  0.1022  0.5462
 6826SOL     OW32110   4.355   0.171   3.801  0.5160  0.1507  0.0623
 6826SOL    HW132111   4.411   0.227   3.747 -1.4986 -0.1952 -2.4189
 6826SOL    HW232112   4.409   0.093   3.813  1.1933  0.0392 -3.5578
 6827SOL     OW32113   2.821   0.875   5.981 -0.1963  0.0518 -0.4316
 6827SOL    HW132114   2.786   0.859   5.894 -0.9333  1.5538 -0.4120
 6827SOL    HW232115   2.776   0.951   6.017 -0.8207  0.3995 -1.9874
 6828SOL     OW32116   3.437   1.154   0.008  0.4884  0.3810  0.1291
 6828SOL    HW132117   3.395   1.181  17.666  1.6921 -0.8648 -0.8995
 6828SOL    HW232118   3.494   1.229   0.023  0.5526 -0.4762  4.0600
 6829SOL     OW32119   2.019   2.756   7.547  0.6114  0.0669 -0.5238
 6829SOL    HW132120   2.021   2.660   7.543 -0.2112  0.0345 -0.1740
 6829SOL    HW232121   2.001   2.773   7.639 -0.1062 -1.2519 -0.4150
 6830SOL     OW32122   4.070   1.668  17.333 -0.1555  0.3140  0.6156
 6830SOL    HW132123   4.020   1.748  17.314 -1.0241 -0.1703  0.8768
 6830SOL    HW232124   4.082   1.673  17.428  1.6678 -0.6401  0.4395
 6831SOL     OW32125   3.402   0.674  12.640 -0.4947  0.1232 -0.3377
 6831SOL    HW132126   3.450   0.618  12.579  1.0121  1.8403 -0.7422
 6831SOL    HW232127   3.410   0.617  12.717 -0.8632  1.8826  1.0081
 6832SOL     OW32128   1.760   0.022   5.814  0.1936 -0.1139 -0.0174
 6832SOL    HW132129   1.849   0.048   5.837 -0.6829  2.1008  0.8829
 6832SOL    HW232130   1.771   0.020   5.719 -0.4153  1.0899 -0.1168
 6833SOL     OW32131   1.057   2.711   6.837 -0.7745  0.1251 -0.0350
 6833SOL    HW132132   1.151   2.708   6.824 -0.4872 -1.2095  2.3758
 6833SOL    HW232133   1.061   2.791   6.890 -0.6510 -0.2767  0.5495
 6834SOL     OW32134   3.760   1.199  17.075 -0.3791  0.3728 -0.1958
 6834SOL    HW132135   3.827   1.137  17.104  0.0079  2.1572  2.6973
 6834SOL    HW232136   3.817   1.274  17.060 -1.2337  1.1322  0.3525
 6835SOL     OW32137   3.638   1.589   6.125  0.0327 -0.9034  0.0952
 6835SOL    HW132138   3.730   1.602   6.150 -0.0729 -0.4381  0.2399
 6835SOL    HW232139   3.592   1.651   6.181  1.3751 -1.8458  2.2377
 6836SOL     OW32140   0.475   0.430   5.799  0.1767  0.1215 -0.0692
 6836SOL    HW132141   0.436   0.500   5.851 -1.6280 -0.8681 -0.0839
 6836SOL    HW232142   0.555   0.428   5.851 -0.3248 -1.7718  0.6230
 6837SOL     OW32143   3.696   4.008   2.919 -0.3309 -0.2930 -0.2472
 6837SOL    HW132144   3.721   4.065   2.992 -1.1789 -0.1914 -0.0368
 6837SOL    HW232145   3.733   4.060   2.848  0.8638  1.7252  1.8520
 6838SOL     OW32146   0.302   1.930  10.306 -0.3470 -0.1186 -0.6766
 6838SOL    HW132147   0.270   1.861  10.364  0.8364  0.2775  0.4492
 6838SOL    HW232148   0.316   1.996  10.374 -1.3743 -0.9821  0.3770
 6839SOL     OW32149   2.958   4.128   6.856 -0.0481 -0.1063 -0.0607
 6839SOL    HW132150   2.969   4.092   6.767 -2.3855 -1.3637  0.1586
 6839SOL    HW232151   2.960   4.221   6.836  1.0069 -0.4215 -1.4246
 6840SOL     OW32152   2.045   1.251  15.175  0.5281  0.6361 -0.3067
 6840SOL    HW132153   2.086   1.164  15.175 -0.2257  0.2776 -0.4779
 6840SOL    HW232154   1.960   1.237  15.217  1.6356  1.4668  2.1482
 6841SOL     OW32155   3.907   1.972   8.327  0.5277  0.3089  0.4522
 6841SOL    HW132156   3.813   1.982   8.308  0.6520  0.1695 -0.2353
 6841SOL    HW232157   3.949   2.055   8.304 -0.2335  1.1981  2.2363
 6842SOL     OW32158   1.873   1.587   7.212  0.3231 -0.1810 -0.1750
 6842SOL    HW132159   1.966   1.607   7.222  0.1793  0.4410 -0.1223
 6842SOL    HW232160   1.879   1.565   7.119 -0.0478 -0.4983 -0.1245
 6843SOL     OW32161   2.760   2.598   8.871 -0.3272 -0.4746  0.2490
 6843SOL    HW132162   2.757   2.625   8.779  2.6986  2.3426  0.9892
 6843SOL    HW232163   2.754   2.503   8.867 -1.5849 -0.4395  1.0383
 6844SOL     OW32164   1.687   1.981   9.536 -0.4733  0.0463  0.7115
 6844SOL    HW132165   1.779   1.956   9.536 -0.0044  1.7071  2.1848
 6844SOL    HW232166   1.656   1.967   9.447  0.4060  0.0898  0.4023
 6845SOL     OW32167   2.517   0.735   3.165  0.3759 -0.8027  0.0170
 6845SOL    HW132168   2.520   0.722   3.260 -0.6567 -4.3015 -0.4321
 6845SOL    HW232169   2.612   0.753   3.163  0.0039  1.5626  2.3326
 6846SOL     OW32170   3.877   1.059  10.213  0.6304 -0.0091  0.0722
 6846SOL    HW132171   3.857   0.978  10.166  4.1627  0.2807 -1.9076
 6846SOL    HW232172   3.967   1.070  10.182  1.0405 -0.3785  1.1313
 6847SOL     OW32173   1.486   3.362   5.862 -0.3584 -0.2411  0.2326
 6847SOL    HW132174   1.489   3.360   5.767 -1.7513 -1.4606  0.2204
 6847SOL    HW232175   1.483   3.271   5.891 -1.4631  0.1350  1.3250
 6848SOL     OW32176   3.491   2.465   5.900  0.1930 -0.2653 -0.4304
 6848SOL    HW132177   3.488   2.480   5.806 -0.2654  1.3757 -0.1631
 6848SOL    HW232178   3.508   2.371   5.900 -0.3874 -0.3726  0.7529
 6849SOL     OW32179   2.674   3.308   4.496  0.4285  0.1874 -0.4036
 6849SOL    HW132180   2.714   3.271   4.417  1.8097 -1.2304  0.9702
 6849SOL    HW232181   2.723   3.266   4.566 -2.0971  0.6581  1.6353
 6850SOL     OW32182   4.172   4.039   4.886 -0.1280  0.3267 -0.1076
 6850SOL    HW132183   4.086   4.078   4.903  0.1323  0.6718  0.4574
 6850SOL    HW232184   4.216   4.033   4.971  0.1114 -0.9335 -0.3212
 6851SOL     OW32185   0.078   3.615  14.442  0.3562  0.0316 -0.5951
 6851SOL    HW132186   0.021   3.688  14.415 -0.7613 -0.3973  0.5978
 6851SOL    HW232187   0.038   3.533  14.412  3.5776 -1.9977  0.7451
 6852SOL     OW32188   3.610   0.889   5.322  0.4285 -0.2770 -0.1581
 6852SOL    HW132189   3.630   0.816   5.381 -2.6367  0.6547  2.0646
 6852SOL    HW232190   3.516   0.895   5.340  0.6475 -1.8637  1.5206
 6853SOL     OW32191   2.387   3.724  16.607  0.5835 -0.3590  0.0301
 6853SOL    HW132192   2.354   3.676  16.531 -2.1130 -2.6228  2.6646
 6853SOL    HW232193   2.357   3.814  16.592 -1.4374 -1.5659 -3.1132
 6854SOL     OW32194   1.843   1.256   2.365 -0.4584  0.4002 -0.5569
 6854SOL    HW132195   1.861   1.336   2.415 -0.1404  0.5479 -0.9108
 6854SOL    HW232196   1.906   1.201   2.411 -2.2290 -0.4155  0.8970
 6855SOL     OW32197   4.547   3.224   4.425 -0.3988  0.1907 -0.1389
 6855SOL    HW132198   4.513   3.147   4.471  2.2304 -0.4893  0.6494
 6855SOL    HW232199   4.497   3.211   4.344  0.3327 -2.6799 -0.1299
 6856SOL     OW32200   0.270   3.286   3.214  0.0560  0.0985  0.5981
 6856SOL    HW132201   0.279   3.251   3.303 -0.2008  0.9245  0.9496
 6856SOL    HW232202   0.347   3.254   3.167 -0.7198 -0.0930 -0.5485
 6857SOL     OW32203   1.461   4.459   2.583 -0.6870  0.5941 -0.0438
 6857SOL    HW132204   1.434   4.527   2.645 -0.3790  0.4584  0.2388
 6857SOL    HW232205   1.500   4.511   2.512  1.8441 -1.3026 -0.0654
 6858SOL     OW32206   0.555   4.045   5.951 -0.4713  0.2419  0.7133
 6858SOL    HW132207   0.639   4.084   5.974  0.1786 -0.1188 -1.0711
 6858SOL    HW232208   0.557   4.040   5.855  0.5077  0.4048  0.7294
 6859SOL     OW32209   1.194   0.160   7.856 -0.1180 -0.3969  0.2139
 6859SOL    HW132210   1.227   0.126   7.939  0.1851  0.9006  0.6305
 6859SOL    HW232211   1.146   0.084   7.826 -0.1001 -0.0385 -0.7314
 6860SOL     OW32212   3.628   3.965  15.463 -0.2746 -0.9646  0.4117
 6860SOL    HW132213   3.643   3.870  15.459 -0.7613 -1.1076  1.7352
 6860SOL    HW232214   3.699   3.989  15.404 -3.1990  0.2130 -2.5650
 6861SOL     OW32215   0.311   0.509   8.741 -0.6596 -0.1076 -0.5610
 6861SOL    HW132216   0.218   0.510   8.717 -0.8983  1.0748  0.4039
 6861SOL    HW232217   0.313   0.594   8.785  0.8461  0.4021 -1.6071
 6862SOL     OW32218   3.764   3.504   8.235  0.1213 -0.2050 -0.4799
 6862SOL    HW132219   3.812   3.462   8.306  0.4302 -0.0904 -0.6227
 6862SOL    HW232220   3.690   3.443   8.231  0.5754 -0.7702 -0.3105
 6863SOL     OW32221   3.909   4.177   4.846  0.1456  0.3523 -0.4462
 6863SOL    HW132222   3.848   4.245   4.873  0.7949  0.8954 -0.3448
 6863SOL    HW232223   3.868   4.125   4.776 -1.4152  0.3808  0.4642
 6864SOL     OW32224   0.871   0.033  11.800  0.3920  1.3277 -1.1857
 6864SOL    HW132225   0.781   0.009  11.825  0.5589  1.4805 -0.4632
 6864SOL    HW232226   0.888   4.703  11.732 -2.5895  1.3500 -1.9688
 6865SOL     OW32227   3.290   0.646   2.642  0.3520 -0.3729 -0.1749
 6865SOL    HW132228   3.376   0.689   2.648 -1.3879  2.8989  1.0221
 6865SOL    HW232229   3.310   0.565   2.689  0.2824  0.7027  1.7323
 6866SOL     OW32230   3.942   3.097  15.661  0.0474 -0.2249 -0.2352
 6866SOL    HW132231   3.902   3.155  15.596 -0.9373  1.0726  1.5282
 6866SOL    HW232232   4.029   3.135  15.670 -0.5019  0.8476  0.5978
 6867SOL     OW32233   3.861   1.984  14.780 -0.0849 -0.0877 -0.1570
 6867SOL    HW132234   3.876   2.030  14.697 -0.8910  2.2885  1.0141
 6867SOL    HW232235   3.848   1.894  14.751  1.1265 -0.8165  1.5583
 6868SOL     OW32236   2.832   0.388   5.053 -0.3739  0.8255  1.0678
 6868SOL    HW132237   2.792   0.387   5.140 -0.1791  0.6726  1.1558
 6868SOL    HW232238   2.794   0.467   5.016  2.2550  1.7008  0.2359
 6869SOL     OW32239   2.183   0.007   3.856 -0.6927 -0.0981 -0.1670
 6869SOL    HW132240   2.257   4.705   3.903 -0.3682 -0.9292 -1.3670
 6869SOL    HW232241   2.210   0.097   3.835  0.0514 -0.2595  0.1079
 6870SOL     OW32242   3.696   0.027   5.440  0.7702 -0.2176  1.0119
 6870SOL    HW132243   3.713   4.688   5.498  1.0778 -0.5127  0.5524
 6870SOL    HW232244   3.621   0.069   5.483 -0.6442 -2.1111  0.4348
 6871SOL     OW32245   4.240   0.735   8.351  0.1269  0.7503  0.1241
 6871SOL    HW132246   4.227   0.755   8.444 -0.0316  1.2287 -0.0018
 6871SOL    HW232247   4.152   0.742   8.315 -0.0407 -0.9484  0.1854
 6872SOL     OW32248   2.510   1.069   6.858  0.0659  0.8334  0.1920
 6872SOL    HW132249   2.544   1.031   6.939  2.2075 -0.5344 -1.3180
 6872SOL    HW232250   2.416   1.083   6.861  0.1965  1.6547  0.3096
 6873SOL     OW32251   1.493   0.694   3.046  0.4287  0.1581 -0.3493
 6873SOL    HW132252   1.460   0.721   3.132 -1.4145 -1.7171 -0.4540
 6873SOL    HW232253   1.555   0.626   3.073  0.2071  0.7718  1.7850
 6874SOL     OW32254   1.080   2.696   2.293  0.0633  0.1562  0.7511
 6874SOL    HW132255   1.101   2.635   2.222  1.0592  1.1448  0.2022
 6874SOL    HW232256   1.164   2.703   2.340  0.8158 -0.4265 -0.5151
 6875SOL     OW32257   2.408   4.362   4.277 -0.9050  1.0308 -0.2441
 6875SOL    HW132258   2.315   4.367   4.302 -0.4440  1.4683  1.3626
 6875SOL    HW232259   2.399   4.381   4.183 -0.0570 -1.0960 -0.7484
 6876SOL     OW32260   0.942   1.556   5.941  0.1875  0.0291 -0.4344
 6876SOL    HW132261   0.893   1.503   5.878  0.8392  0.3629 -1.2147
 6876SOL    HW232262   0.872   1.575   6.004  0.0213  0.3816 -0.7271
 6877SOL     OW32263   3.142   4.646   4.434  0.1251  0.1989  0.2812
 6877SOL    HW132264   3.067   4.628   4.377  0.5966  1.5501 -0.7611
 6877SOL    HW232265   3.198   4.573   4.407 -0.5950  0.7292 -2.6616
 6878SOL     OW32266   3.536   1.203  17.256 -0.8060  0.1122  0.3829
 6878SOL    HW132267   3.472   1.195  17.185 -0.7426 -2.9518  0.6798
 6878SOL    HW232268   3.616   1.192  17.205 -1.1183  0.8599 -0.2624
 6879SOL     OW32269   3.139   4.429  10.995  0.0856 -0.3451 -0.0066
 6879SOL    HW132270   3.162   4.400  10.906  0.6893  1.8460 -0.5629
 6879SOL    HW232271   3.230   4.434  11.024 -0.3683 -0.3608  1.3820
 6880SOL     OW32272   1.597   4.451  11.726 -0.2529 -0.2493 -0.0543
 6880SOL    HW132273   1.515   4.404  11.738 -1.6509  2.7063  1.7072
 6880SOL    HW232274   1.614   4.421  11.636 -0.6062 -0.8275  0.0707
 6881SOL     OW32275   4.354   4.535   4.860 -0.0946  0.5158 -0.8686
 6881SOL    HW132276   4.269   4.528   4.815  0.3772 -2.9644 -1.1951
 6881SOL    HW232277   4.334   4.466   4.923  3.8807  0.3351  0.1561
 6882SOL     OW32278   0.363   2.956   3.727 -0.2380  0.5700  0.2552
 6882SOL    HW132279   0.285   2.976   3.676  0.6553 -0.4246 -1.5041
 6882SOL    HW232280   0.410   2.912   3.656 -1.8422 -1.7918  0.6582
 6883SOL     OW32281   1.443   2.458   1.807 -0.1448 -0.3450 -0.6268
 6883SOL    HW132282   1.444   2.546   1.770 -2.2188  0.1540  0.4873
 6883SOL    HW232283   1.503   2.475   1.879 -0.0268 -0.9877 -0.5690
 6884SOL     OW32284   3.989   2.001  11.268 -0.2651  0.0876 -1.0174
 6884SOL    HW132285   3.971   2.091  11.295 -3.1779 -0.9154  0.3851
 6884SOL    HW232286   3.903   1.962  11.287  0.4008 -0.8790 -0.0348
 6885SOL     OW32287   3.025   0.990  16.860  0.1528  0.3080 -0.2362
 6885SOL    HW132288   3.082   1.065  16.844  1.1373 -0.6362 -1.1504
 6885SOL    HW232289   3.086   0.916  16.867 -0.4352 -0.2995 -1.6837
 6886SOL     OW32290   0.042   2.784   0.642 -0.0724 -0.9151 -0.0842
 6886SOL    HW132291   0.109   2.738   0.693  2.0284  0.9941 -1.1159
 6886SOL    HW232292   0.081   2.868   0.619 -0.5642 -0.4962  0.6216
 6887SOL     OW32293   0.937   3.197   0.063 -0.2318 -0.0745 -0.1591
 6887SOL    HW132294   0.965   3.133   0.129  1.9437  1.9320  0.8365
 6887SOL    HW232295   0.881   3.139   0.011 -2.0091 -1.0853  2.8814
 6888SOL     OW32296   3.785   2.805   2.645 -0.1507 -0.3246  0.0452
 6888SOL    HW132297   3.707   2.846   2.607 -0.1907 -1.4479 -1.0892
 6888SOL    HW232298   3.853   2.841   2.588 -0.7856 -0.0420 -0.5358
 6889SOL     OW32299   0.223   1.341  15.254 -0.3229 -0.0901  0.0382
 6889SOL    HW132300   0.143   1.382  15.220  0.1528  0.8498  0.0465
 6889SOL    HW232301   0.270   1.419  15.284 -0.6427 -0.1047  0.5714
 6890SOL     OW32302   2.930   1.629   6.740 -0.4819  0.0968 -0.1728
 6890SOL    HW132303   2.836   1.634   6.754 -0.0107 -0.6235  3.1885
 6890SOL    HW232304   2.945   1.549   6.689  1.4011  0.8277 -0.7499
 6891SOL     OW32305   3.578   0.185   4.715  0.1951  0.2379 -0.4801
 6891SOL    HW132306   3.672   0.188   4.699  0.0176  2.8759 -1.1057
 6891SOL    HW232307   3.562   0.201   4.808  0.8134 -0.2540 -0.2909
 6892SOL     OW32308   3.832   1.142   3.835 -0.0182 -0.0348 -0.5018
 6892SOL    HW132309   3.844   1.197   3.912  0.0587 -0.0658 -0.4915
 6892SOL    HW232310   3.809   1.054   3.865 -0.6807  0.1166 -0.5642
 6893SOL     OW32311   0.147   0.626   9.795  0.2383  0.2411  0.1456
 6893SOL    HW132312   0.172   0.718   9.799  0.1817  0.2195  0.9856
 6893SOL    HW232313   0.228   0.583   9.822 -0.2450 -1.7185 -1.5119
 6894SOL     OW32314   1.067   1.352  11.679  0.0386  0.4205  0.8516
 6894SOL    HW132315   1.051   1.258  11.687 -2.0176  0.6802 -0.5120
 6894SOL    HW232316   1.007   1.376  11.609  1.0579 -2.4819 -0.9823
 6895SOL     OW32317   0.008   4.201   5.139 -0.5511 -0.3069  0.0883
 6895SOL    HW132318   4.722   4.235   5.226 -0.8551 -2.9033  1.0495
 6895SOL    HW232319   0.062   4.123   5.156  1.8227  1.4203  0.3930
 6896SOL     OW32320   3.897   0.065   1.412 -0.3704 -0.1995 -0.3323
 6896SOL    HW132321   3.985   0.075   1.375  0.5047  0.3212  1.9256
 6896SOL    HW232322   3.919   0.041   1.502  1.0024 -1.7863 -1.0882
 6897SOL     OW32323   3.933   2.499   7.822  0.7952 -0.1291  0.1978
 6897SOL    HW132324   3.994   2.489   7.748  0.1887  1.8009 -0.5874
 6897SOL    HW232325   3.917   2.593   7.813 -0.9323 -0.5493 -1.1466
 6898SOL     OW32326   3.236   1.699   3.242 -0.0064  0.3226  0.4253
 6898SOL    HW132327   3.275   1.776   3.282 -0.4497 -0.4582  2.3773
 6898SOL    HW232328   3.175   1.657   3.304  2.2193 -0.5763  2.0270
 6899SOL     OW32329   1.306   2.958   4.381  0.7316  0.0006  0.1083
 6899SOL    HW132330   1.307   2.898   4.456  2.5165  2.0624  1.7570
 6899SOL    HW232331   1.310   2.896   4.308 -2.6476 -1.5634  1.2382
 6900SOL     OW32332   4.126   1.854   0.931 -0.0374 -0.6490  0.4852
 6900SOL    HW132333   4.141   1.882   0.841 -0.7761  0.5759  0.7321
 6900SOL    HW232334   4.035   1.875   0.953  0.8897  0.8868  2.8644
 6901SOL     OW32335   1.794   0.041  10.585 -0.0042 -0.4122 -0.4854
 6901SOL    HW132336   1.762   0.071  10.500 -0.9899 -2.2607 -0.7771
 6901SOL    HW232337   1.888   0.033  10.566  0.1454 -2.2088  1.0373
 6902SOL     OW32338   0.527   4.206   4.290 -0.2715  0.2962 -0.5819
 6902SOL    HW132339   0.600   4.157   4.327 -0.6257  0.5473  0.4500
 6902SOL    HW232340   0.553   4.296   4.307 -1.4866  0.5942 -0.2986
 6903SOL     OW32341   4.432   4.532   7.811  0.0021  0.0130 -0.6639
 6903SOL    HW132342   4.447   4.563   7.722 -1.4256  2.8107  0.0606
 6903SOL    HW232343   4.381   4.452   7.800  2.8472 -1.6555 -1.6133
 6904SOL     OW32344   2.357   1.839  15.458 -0.1418 -0.4912 -0.2780
 6904SOL    HW132345   2.422   1.872  15.520 -0.2682 -1.5777  0.4190
 6904SOL    HW232346   2.404   1.796  15.386  0.4972  0.8265 -0.6578
 6905SOL     OW32347   4.605   1.757   1.468 -0.0788 -0.5924  0.5307
 6905SOL    HW132348   4.559   1.808   1.536  1.0953 -0.2100  1.0340
 6905SOL    HW232349   4.550   1.793   1.398  0.6178 -1.3555 -0.3895
 6906SOL     OW32350   2.139   4.348  10.827 -0.2579 -0.1183  0.7456
 6906SOL    HW132351   2.182   4.432  10.813  0.2258 -0.3566  0.7868
 6906SOL    HW232352   2.083   4.357  10.904 -0.9720  1.3817  0.0500
 6907SOL     OW32353   2.266   4.034   7.685  0.6121  0.2628  0.5227
 6907SOL    HW132354   2.341   3.980   7.661 -0.0207  0.6497 -2.3457
 6907SOL    HW232355   2.294   4.072   7.768 -1.0338  1.7070  0.4227
 6908SOL     OW32356   3.161   2.411   8.144  0.0597 -0.0526  0.1073
 6908SOL    HW132357   3.071   2.433   8.170  0.6592  2.2167  0.2511
 6908SOL    HW232358   3.138   2.359   8.067  0.2577 -0.7913  0.5461
 6909SOL     OW32359   3.517   0.738   3.066  0.2780 -0.1219  0.6715
 6909SOL    HW132360   3.542   0.647   3.053 -0.7438 -0.1262 -1.2471
 6909SOL    HW232361   3.474   0.718   3.149  1.6240  1.7952  1.8300
 6910SOL     OW32362   0.153   1.509   1.961 -0.1998 -0.8608 -0.5651
 6910SOL    HW132363   0.243   1.477   1.968 -0.0733 -0.4919 -0.5057
 6910SOL    HW232364   0.148   1.535   1.869  2.0585 -1.4215 -0.8303
 6911SOL     OW32365   1.747   2.927  12.817  0.8142 -0.6739 -0.0028
 6911SOL    HW132366   1.695   2.858  12.774 -0.6734  0.3542  0.1306
 6911SOL    HW232367   1.839   2.904  12.831  0.4480 -2.3474 -0.2904
 6912SOL     OW32368   2.428   1.397   1.207  0.2189 -0.2429 -0.1764
 6912SOL    HW132369   2.344   1.396   1.252  0.4647  1.4621  0.2995
 6912SOL    HW232370   2.466   1.310   1.219 -2.1013 -1.3784 -0.9465
 6913SOL     OW32371   1.106   2.963   7.555 -0.1935  0.2843  0.4599
 6913SOL    HW132372   1.083   3.052   7.583 -2.1992  0.2281 -1.0565
 6913SOL    HW232373   1.112   2.920   7.640  0.0142  2.1996  1.4258
 6914SOL     OW32374   0.948   1.143  13.930  0.2648 -0.1728 -0.3722
 6914SOL    HW132375   1.030   1.122  13.885 -1.3589 -1.1617 -2.8629
 6914SOL    HW232376   0.924   1.226  13.889 -1.2215 -1.5934 -2.3433
 6915SOL     OW32377   1.625   2.396   9.033  0.2088 -0.4940  0.3661
 6915SOL    HW132378   1.584   2.402   8.947 -0.0637  0.1496  0.5457
 6915SOL    HW232379   1.561   2.426   9.097  0.2878 -1.5517  0.9371
 6916SOL     OW32380   4.470   3.208   8.313 -0.1118 -0.1693  0.2584
 6916SOL    HW132381   4.419   3.288   8.325  1.9759  1.1222  0.7360
 6916SOL    HW232382   4.520   3.214   8.395 -1.1323 -0.0882  0.8661
 6917SOL     OW32383   3.009   2.611   9.108  0.4648  0.1202  0.0506
 6917SOL    HW132384   2.919   2.619   9.140  0.2177  2.3490 -1.2355
 6917SOL    HW232385   3.016   2.527   9.064  2.8367  0.6089 -0.5053
 6918SOL     OW32386   3.446   3.098   7.570  0.1815  0.0577  0.2598
 6918SOL    HW132387   3.393   3.065   7.642 -2.9162 -1.5095 -2.7704
 6918SOL    HW232388   3.455   3.186   7.607 -0.4087 -0.1933  0.9978
 6919SOL     OW32389   4.666   0.634   7.147 -0.0001  0.0409  0.1895
 6919SOL    HW132390   4.677   0.542   7.122  1.1537  0.5471 -1.1601
 6919SOL    HW232391   4.581   0.645   7.190  1.4122 -0.9990  3.2036
 6920SOL     OW32392   4.347   4.349  15.302 -0.3461  0.3456 -0.1290
 6920SOL    HW132393   4.283   4.330  15.233 -0.7560  0.1288  0.3176
 6920SOL    HW232394   4.406   4.285  15.261 -2.4051 -0.7571 -1.3987
 6921SOL     OW32395   0.454   2.443   3.523  0.8263 -0.1266  0.4131
 6921SOL    HW132396   0.417   2.357   3.542  0.0328 -0.2152 -1.5723
 6921SOL    HW232397   0.495   2.442   3.436  0.5702  1.2596  0.2744
 6922SOL     OW32398   2.612   4.078   5.305 -0.1723  0.1697  0.0222
 6922SOL    HW132399   2.670   4.057   5.232  2.1566 -0.4786  2.0478
 6922SOL    HW232400   2.573   4.154   5.262  0.3698  0.3926 -0.0847
 6923SOL     OW32401   3.086   0.382   3.717 -0.3693 -0.3615  0.1219
 6923SOL    HW132402   3.130   0.411   3.796  0.1148  1.5372 -0.8493
 6923SOL    HW232403   3.101   0.456   3.659  0.0157  1.0685  2.0764
 6924SOL     OW32404   1.313   4.447   3.352 -0.0479  0.2574 -0.2479
 6924SOL    HW132405   1.324   4.353   3.336  0.1075  0.3284 -0.5564
 6924SOL    HW232406   1.402   4.473   3.326  0.8779 -0.8392  1.8112
 6925SOL     OW32407   4.719   2.509   9.304  0.2424  0.8779  0.0215
 6925SOL    HW132408   4.724   2.438   9.240  0.0650 -0.9231  2.0271
 6925SOL    HW232409   4.663   2.476   9.374  0.0207  0.2439 -0.4572
 6926SOL     OW32410   0.721   2.234   7.118  0.0567 -0.5404 -0.0081
 6926SOL    HW132411   0.628   2.240   7.143  0.1464 -0.4973  0.3064
 6926SOL    HW232412   0.760   2.312   7.155 -1.6646  0.4946 -0.3466
 6927SOL     OW32413   2.833   1.571  13.049  0.2640 -0.0105  0.6314
 6927SOL    HW132414   2.913   1.531  13.084  0.0672 -1.2251 -0.3261
 6927SOL    HW232415   2.871   1.656  13.030 -0.7900  0.6525  1.4934
 6928SOL     OW32416   0.946   4.527   2.294  0.4638  0.0721 -0.2918
 6928SOL    HW132417   1.020   4.573   2.335 -0.9991 -0.5337  3.0094
 6928SOL    HW232418   0.874   4.588   2.308 -0.3951 -1.2365  0.8677
 6929SOL     OW32419   1.197   2.087   5.939  0.1515 -0.3150  0.5822
 6929SOL    HW132420   1.258   2.040   5.995  0.0150 -2.4645 -1.0978
 6929SOL    HW232421   1.193   2.170   5.987 -0.8315  0.5553 -0.9927
 6930SOL     OW32422   4.115   2.199   1.977  0.0514  0.6422  0.0035
 6930SOL    HW132423   4.159   2.189   2.061 -1.2143 -2.4251  0.2953
 6930SOL    HW232424   4.065   2.281   1.981 -0.5366  0.3752 -1.5023
 6931SOL     OW32425   2.625   1.450   5.505  0.7438  0.3238  0.0045
 6931SOL    HW132426   2.666   1.537   5.501 -0.8628  1.1168  0.8526
 6931SOL    HW232427   2.692   1.415   5.564  0.2097 -0.7612 -0.0395
 6932SOL     OW32428   4.086   4.195   0.863 -0.7988 -0.0863 -0.4069
 6932SOL    HW132429   4.180   4.205   0.880 -1.0582 -0.2788  1.1906
 6932SOL    HW232430   4.050   4.207   0.952 -0.9162 -1.2991 -0.2858
 6933SOL     OW32431   0.401   1.294  14.295  0.0106  0.5678 -0.3220
 6933SOL    HW132432   0.461   1.296  14.370 -0.2391 -2.0863 -0.0733
 6933SOL    HW232433   0.311   1.300  14.328  0.1884  0.6205  0.1632
 6934SOL     OW32434   0.141   2.647   9.096 -0.5104  0.0825  0.0581
 6934SOL    HW132435   0.090   2.716   9.053  0.7760  0.4396 -0.8741
 6934SOL    HW232436   0.077   2.636   9.167  0.1461 -4.0854  0.0034
 6935SOL     OW32437   0.753   1.077  15.390  0.3360 -0.4757 -0.6022
 6935SOL    HW132438   0.735   1.151  15.448  0.1849 -0.7875 -0.2535
 6935SOL    HW232439   0.671   1.029  15.399  0.2571 -0.2717 -0.2140
 6936SOL     OW32440   2.754   0.293  10.655 -0.3629 -0.0829  0.3452
 6936SOL    HW132441   2.833   0.248  10.684 -0.7094  0.0793  1.5124
 6936SOL    HW232442   2.700   0.308  10.732  0.2025  1.2736  0.4803
 6937SOL     OW32443   3.107   1.693   0.779 -0.1013  0.2872  0.8147
 6937SOL    HW132444   3.133   1.760   0.843 -2.0956  1.5618  0.2817
 6937SOL    HW232445   3.188   1.695   0.729 -0.9813  0.2072 -0.6090
 6938SOL     OW32446   2.290   4.163   2.892 -0.8584  0.1067  0.9575
 6938SOL    HW132447   2.252   4.077   2.912  2.8446 -2.1520 -1.6719
 6938SOL    HW232448   2.213   4.219   2.896 -0.2970  0.9214  0.2547
 6939SOL     OW32449   3.821   4.503   7.391  0.4058 -0.1366 -0.1729
 6939SOL    HW132450   3.835   4.587   7.435 -0.6778 -0.1131  0.1206
 6939SOL    HW232451   3.732   4.524   7.361 -0.6527 -2.1897  1.5756
 6940SOL     OW32452   2.137   1.503   7.136 -0.6770  0.0134 -0.0259
 6940SOL    HW132453   2.103   1.581   7.092  1.3386 -0.2369 -2.0386
 6940SOL    HW232454   2.213   1.547   7.174  0.9641 -0.2870 -2.9326
 6941SOL     OW32455   1.943   4.650  12.277 -0.5680  0.0637 -0.0746
 6941SOL    HW132456   1.976   4.561  12.261 -0.7534  0.2482 -1.4936
 6941SOL    HW232457   1.850   4.629  12.274 -1.1040  2.3930  0.6809
 6942SOL     OW32458   3.931   2.523   3.806 -0.2508  0.3356 -0.4205
 6942SOL    HW132459   3.994   2.578   3.853 -0.0074  0.1711 -0.5475
 6942SOL    HW232460   3.858   2.576   3.776  0.5660  1.2051 -0.8807
 6943SOL     OW32461   4.601   4.318   4.233 -0.0638  0.2304 -0.6127
 6943SOL    HW132462   4.524   4.262   4.236 -1.4020  2.0634 -1.1959
 6943SOL    HW232463   4.578   4.365   4.153  0.9699  0.7762 -0.5916
 6944SOL     OW32464   2.877   0.972   8.357 -0.6594 -0.4985  0.1086
 6944SOL    HW132465   2.882   1.067   8.362  1.2177 -0.4120 -2.9722
 6944SOL    HW232466   2.967   0.949   8.381 -1.3438 -0.7026  2.3980
 6945SOL     OW32467   2.793   2.290   4.476  0.2221 -0.3419  0.9383
 6945SOL    HW132468   2.826   2.268   4.389  1.3045  0.3030  1.1691
 6945SOL    HW232469   2.871   2.285   4.532  1.0344 -0.9910 -0.2564
 6946SOL     OW32470   3.788   1.837  10.639  0.1041  0.2296 -1.1170
 6946SOL    HW132471   3.836   1.904  10.688  0.7056 -0.2671 -1.0298
 6946SOL    HW232472   3.710   1.887  10.616  0.3403  0.4228 -1.5114
 6947SOL     OW32473   4.565   0.049   2.700 -0.6747  0.4052 -0.5779
 6947SOL    HW132474   4.527   0.132   2.670 -0.8744  0.2517 -0.7439
 6947SOL    HW232475   4.571   0.003   2.616  0.6835 -0.6591  0.1162
 6948SOL     OW32476   1.360   4.193   3.584  0.4654  0.3387 -0.2296
 6948SOL    HW132477   1.389   4.142   3.509  1.1661 -1.5809  1.3461
 6948SOL    HW232478   1.415   4.270   3.576  0.9496 -0.0912 -0.9523
 6949SOL     OW32479   0.736   0.410   3.946  0.1504 -0.5246  0.5510
 6949SOL    HW132480   0.725   0.471   3.873 -0.2651 -0.6494  0.5104
 6949SOL    HW232481   0.686   0.332   3.921 -0.0402  0.3951 -1.9892
 6950SOL     OW32482   0.247   1.388   6.088 -0.5033  0.5828 -0.2166
 6950SOL    HW132483   0.240   1.479   6.062  1.1720  0.8702  0.3792
 6950SOL    HW232484   0.267   1.384   6.181 -0.4754  0.0099 -0.2473
 6951SOL     OW32485   4.216   4.153   3.073 -0.2384 -0.7025 -0.2420
 6951SOL    HW132486   4.240   4.236   3.032  3.7757 -0.6416  2.2266
 6951SOL    HW232487   4.279   4.098   3.026 -0.0804 -1.7666  1.2097
 6952SOL     OW32488   4.279   0.478   9.521  0.2693  0.1308 -0.5195
 6952SOL    HW132489   4.222   0.420   9.471  0.2684  0.3433 -0.7615
 6952SOL    HW232490   4.362   0.431   9.521 -0.0806 -0.5083  2.5603
 6953SOL     OW32491   4.650   0.041   6.342 -0.0496 -0.1695 -0.5882
 6953SOL    HW132492   4.597   0.054   6.264 -0.6623  1.3943  0.1031
 6953SOL    HW232493   4.718   0.105   6.325 -0.9612  0.9030 -0.2206
 6954SOL     OW32494   1.972   1.140   9.951 -0.8140  0.4271  0.5512
 6954SOL    HW132495   1.957   1.061   9.900  1.6954  0.1337  0.2902
 6954SOL    HW232496   2.037   1.105  10.011 -4.0731 -1.6930  2.8368
 6955SOL     OW32497   0.924   1.346   3.519 -0.1609 -0.5941  0.1155
 6955SOL    HW132498   0.900   1.417   3.460 -2.2458 -0.5081  1.0745
 6955SOL    HW232499   1.014   1.321   3.497 -0.4502  0.7661 -2.6151
 6956SOL     OW32500   2.082   4.207  16.583 -0.5501  0.7352 -0.3196
 6956SOL    HW132501   1.992   4.200  16.550 -1.0885  0.8368  1.1249
 6956SOL    HW232502   2.067   4.268  16.655 -0.0908 -0.6689  0.9611
 6957SOL     OW32503   4.714   4.299   6.781 -0.1314  0.2883  0.1803
 6957SOL    HW132504   4.694   4.391   6.762 -1.6278 -0.9467 -4.2366
 6957SOL    HW232505   4.629   4.257   6.769 -0.3060 -0.4438  4.0975
 6958SOL     OW32506   4.057   3.537   7.399 -0.6305  0.0443 -0.7373
 6958SOL    HW132507   4.034   3.460   7.348 -0.6167  0.8306 -1.9265
 6958SOL    HW232508   4.066   3.597   7.325 -0.8880 -1.7253 -2.1924
 6959SOL     OW32509   2.816   0.619   7.595  0.0737 -0.1552  0.2434
 6959SOL    HW132510   2.815   0.547   7.532  0.2373  1.6746 -1.8382
 6959SOL    HW232511   2.726   0.651   7.584  2.0129  4.4525 -1.9580
 6960SOL     OW32512   3.483   2.276   9.143  0.0784 -0.0470 -0.0492
 6960SOL    HW132513   3.437   2.192   9.146  0.2943 -0.1022  1.6721
 6960SOL    HW232514   3.509   2.280   9.051 -0.9151 -1.5773 -0.3920
 6961SOL     OW32515   2.935   2.897   8.665 -0.3795  0.0388  0.3732
 6961SOL    HW132516   2.980   2.861   8.742  0.1645 -0.9732 -0.4174
 6961SOL    HW232517   3.001   2.961   8.637 -0.3682  0.8354  2.1694
 6962SOL     OW32518   3.853   0.514   1.483 -0.4452 -0.4048  0.1391
 6962SOL    HW132519   3.862   0.515   1.387 -0.0144  2.1497  0.1994
 6962SOL    HW232520   3.862   0.609   1.495 -0.0207 -0.3822 -0.3288
 6963SOL     OW32521   1.595   4.212  16.362 -0.1342 -0.5796 -0.4265
 6963SOL    HW132522   1.646   4.263  16.299 -2.9419  2.0580 -0.5733
 6963SOL    HW232523   1.529   4.279  16.381  0.0133  0.1614 -2.4446
 6964SOL     OW32524   1.900   3.515   2.408  0.4059 -0.0538 -0.0947
 6964SOL    HW132525   1.904   3.534   2.502 -0.5284  1.4573 -0.3554
 6964SOL    HW232526   1.807   3.531   2.391 -0.1898 -3.6197 -0.1630
 6965SOL     OW32527   2.221   4.733  14.034  0.2804  0.1655  0.2102
 6965SOL    HW132528   2.230   4.721  13.940 -0.3103 -0.0115  0.1736
 6965SOL    HW232529   2.201   4.640  14.048  1.8855 -0.4074 -1.3710
 6966SOL     OW32530   3.066   3.117   4.254  0.6483 -0.2158 -0.0588
 6966SOL    HW132531   3.089   3.032   4.291 -0.9885 -0.7285 -0.2149
 6966SOL    HW232532   3.149   3.148   4.218  0.4900  0.7457  0.4079
 6967SOL     OW32533   2.660   0.282   8.124  0.1414 -0.0061  0.3582
 6967SOL    HW132534   2.684   0.306   8.214  0.8965 -0.8518  0.3850
 6967SOL    HW232535   2.569   0.254   8.133 -0.4059  1.4813 -0.5343
 6968SOL     OW32536   0.177   4.007  10.149  0.1972  0.4235 -0.5172
 6968SOL    HW132537   0.149   3.996  10.058 -0.7104 -0.8142 -0.1010
 6968SOL    HW232538   0.182   3.918  10.186  1.7051  0.9576  0.5415
 6969SOL     OW32539   3.676   3.520   3.716  0.3690  0.1139  0.5511
 6969SOL    HW132540   3.603   3.513   3.654 -0.4086  0.6194  1.4060
 6969SOL    HW232541   3.652   3.605   3.754 -2.1426 -1.1536  1.7546
 6970SOL     OW32542   1.165   0.353   3.060  0.3602 -0.2871  0.5938
 6970SOL    HW132543   1.070   0.345   3.068  0.3715  0.8206  1.9346
 6970SOL    HW232544   1.175   0.323   2.970 -2.0561 -1.6251  0.7737
 6971SOL     OW32545   0.238   0.560   1.839 -0.3613  0.9419 -0.1067
 6971SOL    HW132546   0.213   0.480   1.792 -0.4379 -0.3297  2.0893
 6971SOL    HW232547   0.172   0.559   1.908  0.6111  0.3825  0.8137
 6972SOL     OW32548   0.805   1.701   7.819 -0.1037  0.6517 -0.0004
 6972SOL    HW132549   0.757   1.770   7.865 -2.4559 -0.8655 -0.1645
 6972SOL    HW232550   0.839   1.752   7.746  1.0681  1.1256  0.8816
 6973SOL     OW32551   0.092   0.066   3.501  0.4309 -0.3447  0.3122
 6973SOL    HW132552   0.111   0.137   3.439  0.9201  1.5598  2.6772
 6973SOL    HW232553   0.101   4.722   3.449 -0.6943  0.4821 -1.1382
 6974SOL     OW32554   3.644   3.208   0.502  0.4411 -0.6997 -0.5324
 6974SOL    HW132555   3.724   3.172   0.464 -0.4131 -1.5262 -1.5465
 6974SOL    HW232556   3.620   3.136   0.560  3.8750 -0.9964  0.5186
 6975SOL     OW32557   1.947   0.689  10.264 -0.5786 -0.4594  1.0722
 6975SOL    HW132558   1.939   0.782  10.242  1.7514 -0.9257 -1.6861
 6975SOL    HW232559   1.984   0.656  10.182 -1.6316  0.2361  0.3160
 6976SOL     OW32560   3.659   0.232   3.025 -0.0915  0.0884 -0.4817
 6976SOL    HW132561   3.726   0.221   3.092  0.5382 -0.2489 -1.1562
 6976SOL    HW232562   3.636   0.146   2.990 -0.5658 -0.1874  0.5267
 6977SOL     OW32563   0.082   0.482  11.936  0.9975 -0.1056  0.1651
 6977SOL    HW132564   4.730   0.452  11.911 -0.7777  4.6021  0.8197
 6977SOL    HW232565   0.114   0.528  11.858 -4.6209  0.1940 -2.0204
 6978SOL     OW32566   0.108   2.688   6.418  0.1419 -0.0022 -0.2702
 6978SOL    HW132567   0.098   2.699   6.512 -2.1146 -0.1403 -0.4987
 6978SOL    HW232568   0.111   2.593   6.402  0.4525 -0.0418  0.0282
 6979SOL     OW32569   2.082   2.721   4.225 -0.0842 -0.2682 -0.4619
 6979SOL    HW132570   2.001   2.678   4.195  0.3394 -1.1799 -0.3005
 6979SOL    HW232571   2.081   2.719   4.320 -0.5391  2.9794 -0.4022
 6980SOL     OW32572   2.003   2.532  15.848  1.0034  0.0991 -0.1560
 6980SOL    HW132573   1.938   2.543  15.917  1.2385 -1.9627  0.3995
 6980SOL    HW232574   1.945   2.468  15.806 -0.4078  2.0274 -1.1479
 6981SOL     OW32575   0.185   1.217  16.565 -0.7634  1.1601  0.2392
 6981SOL    HW132576   0.270   1.200  16.605 -1.1387 -0.3460  0.3947
 6981SOL    HW232577   0.129   1.152  16.608  0.7914 -0.1129  0.3274
 6982SOL     OW32578   2.437   3.086   7.391 -0.1985  0.2412 -0.0481
 6982SOL    HW132579   2.369   3.153   7.387  0.9714  1.2798 -2.2167
 6982SOL    HW232580   2.386   3.006   7.394  0.8187 -0.4816 -2.1684
 6983SOL     OW32581   2.321   2.257   9.355 -0.2726  0.3646 -0.2041
 6983SOL    HW132582   2.235   2.260   9.314  0.1379  0.2892 -1.0784
 6983SOL    HW232583   2.297   2.255   9.448  0.6033 -1.2949 -0.0079
 6984SOL     OW32584   4.362   2.827   8.285 -0.5957 -0.8107  0.1828
 6984SOL    HW132585   4.339   2.860   8.372 -1.7253 -1.1647  0.0253
 6984SOL    HW232586   4.444   2.876   8.275  0.0598 -2.7123 -3.6041
 6985SOL     OW32587   0.040   4.443   9.512 -0.8763  0.0020 -0.3705
 6985SOL    HW132588   4.713   4.515   9.522  1.7793  2.1018  1.2121
 6985SOL    HW232589   4.718   4.388   9.459 -0.9128 -1.6224  1.3764
 6986SOL     OW32590   0.612   3.377   2.937  0.0060 -0.8145  0.3032
 6986SOL    HW132591   0.658   3.376   2.853  0.0630  2.0570  0.2780
 6986SOL    HW232592   0.674   3.436   2.980  0.5062 -1.8929  1.0689
 6987SOL     OW32593   4.013   3.697  13.264  0.5781 -0.0532  0.2481
 6987SOL    HW132594   3.983   3.727  13.349 -2.9424 -0.6830 -0.8039
 6987SOL    HW232595   3.972   3.763  13.208 -2.0709 -1.0840  0.9997
 6988SOL     OW32596   0.403   0.419   6.251  0.1267 -0.1735 -0.8513
 6988SOL    HW132597   0.414   0.506   6.214 -0.7830  0.6301  0.7656
 6988SOL    HW232598   0.314   0.429   6.284  0.0781  3.0271 -2.0309
 6989SOL     OW32599   0.591   2.205   4.321 -0.1062 -0.5786 -0.1859
 6989SOL    HW132600   0.529   2.155   4.267 -2.3537  1.6308  0.3308
 6989SOL    HW232601   0.537   2.190   4.398  2.6289  1.3092  2.0915
 6990SOL     OW32602   0.017   4.614  16.567  0.1820 -0.2844 -0.2028
 6990SOL    HW132603   0.016   4.610  16.471  2.7339 -0.1612 -0.2569
 6990SOL    HW232604   0.076   4.544  16.594 -0.1547 -0.7761 -0.7440
 6991SOL     OW32605   1.799   0.232   2.626  0.4772 -0.1294  0.2994
 6991SOL    HW132606   1.892   0.230   2.651  0.0409 -0.3291  1.9343
 6991SOL    HW232607   1.800   0.210   2.533 -0.4455  0.4854  0.1486
 6992SOL     OW32608   2.282   1.832   1.872 -0.2420  0.2835 -0.3356
 6992SOL    HW132609   2.370   1.809   1.900 -0.3203 -1.1389 -1.2817
 6992SOL    HW232610   2.271   1.900   1.939 -1.5564 -1.6283  1.3836
 6993SOL     OW32611   2.786   1.773   9.000 -0.2260 -0.2672 -0.1770
 6993SOL    HW132612   2.707   1.777   9.055 -0.6077  0.9324 -0.8015
 6993SOL    HW232613   2.843   1.714   9.049 -2.4829 -1.8374  0.5528
 6994SOL     OW32614   1.787   1.439   7.842  0.4732 -0.5140  0.2883
 6994SOL    HW132615   1.697   1.429   7.872 -0.5788  2.9453 -1.6646
 6994SOL    HW232616   1.807   1.528   7.870  1.0181 -0.6532  0.3322
 6995SOL     OW32617   0.383   3.829   6.822  0.2528  0.0141 -0.3941
 6995SOL    HW132618   0.410   3.745   6.860  1.0579  0.9011  1.0272
 6995SOL    HW232619   0.366   3.873   6.905 -0.9084  1.5067 -1.4385
 6996SOL     OW32620   2.614   1.066   3.232  0.1374  0.5816 -0.0019
 6996SOL    HW132621   2.654   1.151   3.254  0.5439 -0.3531  2.9227
 6996SOL    HW232622   2.635   1.029   3.318 -2.0927 -0.2567  0.1780
 6997SOL     OW32623   0.834   0.771  11.288  0.0875  0.4701 -0.3164
 6997SOL    HW132624   0.868   0.785  11.200 -0.3536 -0.2758 -0.6013
 6997SOL    HW232625   0.825   0.675  11.293  0.8618  0.3972 -0.3460
 6998SOL     OW32626   0.497   3.698   5.735  0.1902  0.3160  0.3786
 6998SOL    HW132627   0.539   3.781   5.760  0.5305  0.0934  0.5485
 6998SOL    HW232628   0.571   3.638   5.731  0.5514  0.8641 -1.1251
 6999SOL     OW32629   2.696   2.772   9.073  0.3737 -0.6611  0.2768
 6999SOL    HW132630   2.725   2.705   9.011 -0.5899 -1.8487  1.1142
 6999SOL    HW232631   2.608   2.738   9.092  0.4195 -0.5325  0.7155
 7000SOL     OW32632   1.203   0.694   4.133 -0.2862  0.5707  0.4347
 7000SOL    HW132633   1.162   0.751   4.068  0.7709  1.7769  0.8308
 7000SOL    HW232634   1.127   0.682   4.191 -0.2155  1.9521  0.8307
 7001SOL     OW32635   3.001   2.067   0.839  0.2014  0.4326 -0.0409
 7001SOL    HW132636   2.932   2.040   0.778  1.3237 -2.4215 -0.0003
 7001SOL    HW232637   3.073   2.012   0.810 -1.6100 -1.6003 -0.7032
 7002SOL     OW32638   2.697   1.390   3.613  0.2017  0.0239  0.0692
 7002SOL    HW132639   2.654   1.475   3.600  2.6652  1.6190  2.4832
 7002SOL    HW232640   2.621   1.340   3.645 -1.1319 -0.7819 -4.4064
 7003SOL     OW32641   1.250   0.944   2.562  0.8204 -0.7691 -0.2620
 7003SOL    HW132642   1.223   0.865   2.516 -0.2026 -0.0324 -0.9081
 7003SOL    HW232643   1.257   0.909   2.651  0.1188 -1.8676 -0.6377
 7004SOL     OW32644   0.143   3.896   6.400  0.6790 -0.3176  0.0835
 7004SOL    HW132645   0.157   3.950   6.477 -2.2561  1.3200 -0.5533
 7004SOL    HW232646   0.144   3.961   6.329  2.0017 -0.2964  0.1212
 7005SOL     OW32647   1.658   0.023  13.846  0.2609  0.0831  0.2115
 7005SOL    HW132648   1.681   0.061  13.930  1.0870  0.7382 -0.3200
 7005SOL    HW232649   1.591   0.088  13.824 -0.0032 -0.7059 -1.2872
 7006SOL     OW32650   1.033   1.379   6.525 -0.6090  0.2802  0.6783
 7006SOL    HW132651   1.071   1.465   6.509 -2.2257  0.7765 -0.5373
 7006SOL    HW232652   1.107   1.340   6.570 -0.4965 -0.3753 -0.0712
 7007SOL     OW32653   1.162   1.139   8.982  0.0550 -0.3912  0.0756
 7007SOL    HW132654   1.186   1.069   9.043  2.1175  0.2004 -0.0939
 7007SOL    HW232655   1.067   1.143   8.996 -0.2764  1.3377 -2.6211
 7008SOL     OW32656   1.363   3.523  17.154 -0.5511 -0.0887 -0.0274
 7008SOL    HW132657   1.336   3.451  17.097 -2.9721  0.4941  0.3942
 7008SOL    HW232658   1.289   3.520  17.215  1.1143 -0.1744  1.9749
 7009SOL     OW32659   4.195   1.945  14.633  0.1791 -0.5621 -0.4283
 7009SOL    HW132660   4.187   1.991  14.717 -0.2820 -0.8905 -0.2878
 7009SOL    HW232661   4.211   1.852  14.648  0.6889 -0.2583  0.9621
 7010SOL     OW32662   1.354   1.042   5.251 -0.2847 -0.0920 -0.5729
 7010SOL    HW132663   1.412   0.967   5.243 -0.0272  0.0298  0.1520
 7010SOL    HW232664   1.293   1.013   5.319 -0.8068  1.5308 -0.3501
 7011SOL     OW32665   3.492   3.345  10.089 -0.0931 -0.8943 -0.2983
 7011SOL    HW132666   3.398   3.331  10.081  0.0559 -1.9850 -0.1924
 7011SOL    HW232667   3.519   3.281  10.155  1.5080  0.4640  0.3783
 7012SOL     OW32668   4.448   3.169   4.166 -0.0434 -0.1969 -0.5616
 7012SOL    HW132669   4.463   3.076   4.186  0.7022  0.1788  0.6750
 7012SOL    HW232670   4.388   3.160   4.093 -1.6963 -0.9344  0.8846
 7013SOL     OW32671   2.782   1.753   1.185 -0.1381 -0.0988  0.2944
 7013SOL    HW132672   2.700   1.802   1.197  1.2937  2.6667 -1.3381
 7013SOL    HW232673   2.805   1.789   1.099 -0.7007 -0.4374 -0.0022
 7014SOL     OW32674   4.599   0.774   8.576  0.4261  0.1522  0.3594
 7014SOL    HW132675   4.684   0.813   8.596  0.7413 -0.1161 -0.4704
 7014SOL    HW232676   4.536   0.846   8.588 -1.2878 -0.9868 -1.7471
 7015SOL     OW32677   1.918   1.671   5.520  1.0915 -0.2299 -0.3674
 7015SOL    HW132678   1.889   1.651   5.609  1.1123  1.3925  0.0136
 7015SOL    HW232679   1.838   1.645   5.475  0.3823 -0.4676  1.0056
 7016SOL     OW32680   3.522   0.302   6.186 -0.9437 -0.4033  0.6946
 7016SOL    HW132681   3.493   0.325   6.274 -1.3055 -0.6905  0.6502
 7016SOL    HW232682   3.452   0.332   6.129 -0.3745  1.5586  1.0368
 7017SOL     OW32683   3.375   3.776  11.441  0.3620 -0.4359 -0.6896
 7017SOL    HW132684   3.362   3.699  11.498 -0.1728 -0.8754 -1.3964
 7017SOL    HW232685   3.462   3.805  11.467 -1.3675  2.7427  1.5706
 7018SOL     OW32686   0.125   4.440   7.693 -0.4566  0.0500 -0.2298
 7018SOL    HW132687   0.090   4.446   7.781 -0.2727 -2.3299  0.0183
 7018SOL    HW232688   0.217   4.458   7.712 -1.0253  1.1714  1.4100
 7019SOL     OW32689   1.382   0.862   3.815 -0.0507 -0.0711  0.3142
 7019SOL    HW132690   1.466   0.907   3.812 -0.5648  0.9953  1.6173
 7019SOL    HW232691   1.356   0.911   3.893 -0.9319  0.2082 -0.1557
 7020SOL     OW32692   0.497   1.461   0.571 -0.4551  0.2479  0.1071
 7020SOL    HW132693   0.469   1.378   0.609  0.2548 -0.0333  0.0168
 7020SOL    HW232694   0.473   1.525   0.638  0.0647  0.6490 -0.0876
 7021SOL     OW32695   4.329   4.380   2.943 -0.3328 -0.3293 -0.1015
 7021SOL    HW132696   4.420   4.381   2.913 -0.1632  1.0664  0.4406
 7021SOL    HW232697   4.279   4.435   2.882  2.0613  1.8136 -0.1134
 7022SOL     OW32698   1.771   0.362   5.455  0.1644  0.1488  0.0961
 7022SOL    HW132699   1.856   0.330   5.486  0.1990 -0.6483 -0.8436
 7022SOL    HW232700   1.785   0.446   5.411  0.1267 -0.0117 -0.2209
 7023SOL     OW32701   3.325   3.213   1.409  0.1580 -0.1696  0.2186
 7023SOL    HW132702   3.359   3.124   1.403  2.3295  0.7111 -0.1659
 7023SOL    HW232703   3.385   3.260   1.466  0.1984 -0.0735  0.0965
 7024SOL     OW32704   2.653   1.097   6.005  0.5255 -0.1433 -0.4176
 7024SOL    HW132705   2.566   1.078   5.971  0.2694 -0.8351  0.6516
 7024SOL    HW232706   2.639   1.105   6.099  0.6962 -2.3149 -0.2140
 7025SOL     OW32707   1.964   1.793  16.503  0.1337 -0.3098  0.3314
 7025SOL    HW132708   1.990   1.821  16.415  0.4667 -1.4869  0.0515
 7025SOL    HW232709   2.013   1.712  16.519 -0.0265 -0.6149 -0.7140
 7026SOL     OW32710   2.873   0.399   5.688  0.3968  0.3483  0.7141
 7026SOL    HW132711   2.957   0.442   5.700  0.3333  1.0908 -1.5345
 7026SOL    HW232712   2.811   0.466   5.721  1.7048  1.5068  0.8161
 7027SOL     OW32713   1.661   0.272  10.729 -0.6435  0.0645  0.1286
 7027SOL    HW132714   1.752   0.285  10.757 -0.6589  1.5060 -0.4622
 7027SOL    HW232715   1.675   0.179  10.715  0.0070  0.1040  0.5449
 7028SOL     OW32716   0.098   1.472   6.553 -0.0654  0.3095 -0.2664
 7028SOL    HW132717   0.183   1.436   6.580 -0.4195  0.5634  1.1474
 7028SOL    HW232718   0.052   1.398   6.513 -0.9865  0.3273  0.7638
 7029SOL     OW32719   0.906   2.594   7.850  0.6614 -0.2443  0.2004
 7029SOL    HW132720   0.991   2.570   7.815  1.1011  1.6009  0.0240
 7029SOL    HW232721   0.936   2.646   7.925  1.5399  1.7016 -1.4943
 7030SOL     OW32722   3.600   3.377  17.496  0.6618  0.6081 -0.3865
 7030SOL    HW132723   3.681   3.333  17.470 -0.7357 -1.8463 -0.5919
 7030SOL    HW232724   3.579   3.336  17.579  2.0399 -1.1779 -0.9306
 7031SOL     OW32725   1.957   0.706   5.983  0.3826 -0.4115 -0.2460
 7031SOL    HW132726   2.005   0.782   5.950 -1.2301  1.0221  0.7106
 7031SOL    HW232727   1.863   0.714   5.965  0.4064 -0.2122 -0.2804
 7032SOL     OW32728   2.950   3.229   7.759 -0.0959 -0.1804 -0.0745
 7032SOL    HW132729   2.987   3.293   7.698  1.8646 -0.3471  0.9375
 7032SOL    HW232730   2.897   3.181   7.696 -0.8504  0.9336 -0.2863
 7033SOL     OW32731   0.456   0.433   6.782  0.4609  0.1204 -0.5720
 7033SOL    HW132732   0.507   0.450   6.703  3.0219 -0.3978  0.9785
 7033SOL    HW232733   0.382   0.380   6.754  1.1454 -1.0516 -0.1595
 7034SOL     OW32734   4.516   4.060   7.186 -0.5109  0.3370  0.3746
 7034SOL    HW132735   4.528   3.968   7.161  0.0982 -0.3533  3.1278
 7034SOL    HW232736   4.601   4.100   7.166  0.1137 -0.2788  1.7571
 7035SOL     OW32737   1.325   1.238   8.740  0.6761 -0.3508  0.1107
 7035SOL    HW132738   1.307   1.173   8.807  1.3103 -3.3392 -2.6274
 7035SOL    HW232739   1.231   1.248   8.730  0.8155 -2.3192 -2.9934
 7036SOL     OW32740   3.078   2.035   1.842 -0.2162  0.3647 -0.0445
 7036SOL    HW132741   3.045   2.113   1.797 -1.3421  1.2682  2.3397
 7036SOL    HW232742   3.107   1.991   1.762  0.2371  0.7932 -0.1145
 7037SOL     OW32743   0.100   0.724   2.096 -0.0137  0.4698  0.2469
 7037SOL    HW132744   0.145   0.783   2.035  2.4458 -2.6865 -1.0217
 7037SOL    HW232745   0.112   0.770   2.179 -0.6035  3.3602 -1.2759
 7038SOL     OW32746   3.388   1.242  17.035  0.1097  0.4739  0.0119
 7038SOL    HW132747   3.362   1.324  17.078 -2.2567 -0.6520  0.7060
 7038SOL    HW232748   3.324   1.237  16.965 -0.2548  0.8483  0.3216
 7039SOL     OW32749   0.310   0.706   5.271 -0.1995  0.3729 -0.1298
 7039SOL    HW132750   0.391   0.693   5.223 -1.5432 -0.2759 -2.2143
 7039SOL    HW232751   0.262   0.777   5.228  3.0541  1.7600 -1.5014
 7040SOL     OW32752   4.019   4.613   8.327  0.1796  0.1104 -1.0162
 7040SOL    HW132753   4.043   4.698   8.363 -0.7232 -0.9840  2.1568
 7040SOL    HW232754   4.035   4.558   8.403 -0.7268  0.0055 -0.8945
 7041SOL     OW32755   2.045   0.062  11.453 -0.0562 -0.4234  0.3752
 7041SOL    HW132756   2.086   0.013  11.524  0.4575 -1.4523 -0.6338
 7041SOL    HW232757   1.985   0.120  11.502  0.3783 -0.1886  0.6280
 7042SOL     OW32758   4.507   3.567   1.726 -0.1509 -0.1660 -0.1673
 7042SOL    HW132759   4.438   3.617   1.769  1.0777  2.6598 -1.5292
 7042SOL    HW232760   4.537   3.514   1.800  2.1629 -0.5356 -1.3559
 7043SOL     OW32761   3.311   3.031  13.777  0.3147  0.1949 -0.2898
 7043SOL    HW132762   3.334   3.124  13.780 -1.2868  0.6871 -2.4554
 7043SOL    HW232763   3.295   3.018  13.683  1.4102 -0.5009 -0.3768
 7044SOL     OW32764   1.453   1.730  11.605  0.2822 -0.0681 -0.4146
 7044SOL    HW132765   1.510   1.672  11.656  0.7932  0.4452 -0.4127
 7044SOL    HW232766   1.514   1.794  11.570 -0.3153  1.8521  1.9778
 7045SOL     OW32767   2.593   3.123   7.165 -0.5703  0.1854  0.5702
 7045SOL    HW132768   2.530   3.120   7.093 -0.5391 -0.4156  0.5713
 7045SOL    HW232769   2.540   3.092   7.238 -1.2975 -0.4236 -0.2221
 7046SOL     OW32770   4.219   3.591  12.585 -0.0400  0.2416  0.2692
 7046SOL    HW132771   4.155   3.561  12.521  0.5451 -1.0155  0.2591
 7046SOL    HW232772   4.289   3.530  12.560 -2.1018 -1.8327 -0.4417
 7047SOL     OW32773   3.190   0.177   7.897 -0.4574  0.4938 -0.5538
 7047SOL    HW132774   3.196   0.220   7.982 -1.4738  0.5005 -0.4858
 7047SOL    HW232775   3.103   0.204   7.867  0.4195  1.8997 -1.8521
 7048SOL     OW32776   2.691   0.866   4.433  0.1783  0.7387  0.4249
 7048SOL    HW132777   2.616   0.812   4.406  1.6631 -1.6026  1.0415
 7048SOL    HW232778   2.663   0.951   4.399  1.0789 -0.1733 -2.5723
 7049SOL     OW32779   1.527   1.828   1.555 -0.6987  0.7102  0.3527
 7049SOL    HW132780   1.561   1.784   1.634 -0.7455 -0.0019 -0.0265
 7049SOL    HW232781   1.526   1.922   1.573 -1.5393  0.8739 -0.5417
 7050SOL     OW32782   4.513   3.253   1.129 -0.3977  0.0808 -0.1024
 7050SOL    HW132783   4.446   3.274   1.065  0.3856  1.4236 -0.4768
 7050SOL    HW232784   4.546   3.168   1.099 -0.3223  0.0095  0.1763
 7051SOL     OW32785   4.656   2.359   2.908  0.8711 -0.0580 -0.3575
 7051SOL    HW132786   4.651   2.348   2.813 -0.7962  1.2455 -0.4096
 7051SOL    HW232787   4.662   2.454   2.901 -0.0318  0.1104  1.3660
 7052SOL     OW32788   1.299   1.348   3.072 -0.0410 -0.1831 -0.5509
 7052SOL    HW132789   1.393   1.360   3.066  0.1387 -1.7971 -1.0999
 7052SOL    HW232790   1.276   1.334   2.980 -0.9526 -2.7738  0.0679
 7053SOL     OW32791   0.685   1.268   3.076 -0.2772  0.7343  0.0957
 7053SOL    HW132792   0.606   1.296   3.123 -1.3241 -0.3899 -1.0143
 7053SOL    HW232793   0.671   1.176   3.056 -0.3915  0.5878  0.8430
 7054SOL     OW32794   4.177   1.619   1.064 -0.1534  0.6209  0.6621
 7054SOL    HW132795   4.179   1.688   0.999  2.0435  1.2613  1.4026
 7054SOL    HW232796   4.206   1.543   1.013 -1.1954 -0.0034  1.0092
 7055SOL     OW32797   4.305   4.407  15.033 -0.0698  0.4676 -0.4679
 7055SOL    HW132798   4.312   4.439  14.943 -0.4573 -2.8446 -1.6818
 7055SOL    HW232799   4.351   4.477  15.079 -1.9697  2.3297 -1.3916
 7056SOL     OW32800   1.831   1.925  14.387 -0.0529  0.1144 -0.4871
 7056SOL    HW132801   1.848   1.949  14.479  0.7167 -1.5861 -0.1921
 7056SOL    HW232802   1.916   1.954  14.355  0.8715  0.0210  1.8336
 7057SOL     OW32803   1.259   3.225  13.783 -0.2525  0.9324 -0.0984
 7057SOL    HW132804   1.298   3.300  13.828  1.6853 -0.6727  0.8578
 7057SOL    HW232805   1.257   3.256  13.692  3.1911  3.4323  0.6833
 7058SOL     OW32806   4.498   1.221  17.436 -0.5851 -0.1984 -0.1962
 7058SOL    HW132807   4.514   1.313  17.455 -0.1256 -0.5777  1.2873
 7058SOL    HW232808   4.552   1.207  17.358  0.3964 -2.7911  0.9501
 7059SOL     OW32809   1.919   2.544   6.542  0.6573  0.2364  0.1325
 7059SOL    HW132810   2.015   2.536   6.546  0.5310 -0.3187  1.6508
 7059SOL    HW232811   1.899   2.497   6.622 -1.2476  1.2370  0.2243
 7060SOL     OW32812   3.211   1.844   8.429  0.3592  0.5736  0.2172
 7060SOL    HW132813   3.266   1.912   8.390  1.8673  0.2822  1.8312
 7060SOL    HW232814   3.146   1.843   8.359  0.0009 -3.6659  0.6080
 7061SOL     OW32815   2.989   2.993  14.836  0.5374 -0.4045  0.0775
 7061SOL    HW132816   2.979   2.898  14.829  2.0671 -0.7821  2.7478
 7061SOL    HW232817   3.052   3.005  14.908  1.1234  0.9375 -0.6670
 7062SOL     OW32818   1.720   2.852   7.666  0.5824  0.2574  0.5646
 7062SOL    HW132819   1.764   2.858   7.581 -1.5275  2.3840 -0.3924
 7062SOL    HW232820   1.721   2.758   7.682 -0.0710 -0.1085 -1.6004
 7063SOL     OW32821   4.014   2.273  11.383 -0.4822  0.4853  0.0923
 7063SOL    HW132822   4.075   2.327  11.333  0.2677 -1.7642 -1.4456
 7063SOL    HW232823   4.071   2.208  11.426 -3.4595 -2.2749 -0.0876
 7064SOL     OW32824   4.238   2.210   3.035  0.2939  0.2221  0.1528
 7064SOL    HW132825   4.329   2.189   3.056 -0.2312 -0.4227  1.7718
 7064SOL    HW232826   4.213   2.118   3.022 -0.5113  0.5862 -0.8682
 7065SOL     OW32827   4.460   2.837   5.777  0.4494  0.7051  0.2300
 7065SOL    HW132828   4.445   2.797   5.691 -1.0337 -1.6442  1.6081
 7065SOL    HW232829   4.432   2.924   5.747 -0.0414  0.8887  1.2154
 7066SOL     OW32830   3.702   0.357   1.110  1.0603  0.2891 -0.6657
 7066SOL    HW132831   3.701   0.304   1.030 -0.7632 -0.3408 -0.2232
 7066SOL    HW232832   3.689   0.284   1.171 -0.6066  1.9450  0.9696
 7067SOL     OW32833   4.507   4.695   1.877  0.0381 -0.5783  0.2048
 7067SOL    HW132834   4.514   0.054   1.871  0.9599 -0.6939 -0.4902
 7067SOL    HW232835   4.494   4.677   1.783  0.8115 -0.3247  0.0538
 7068SOL     OW32836   0.448   0.021   7.503 -0.1060  0.0021  0.3605
 7068SOL    HW132837   0.386   0.026   7.575 -0.8103 -1.1074 -0.1708
 7068SOL    HW232838   0.435   4.666   7.472  1.4783 -0.1863  0.2471
 7069SOL     OW32839   3.299   2.429  14.170  0.6778 -0.2191  0.2246
 7069SOL    HW132840   3.300   2.360  14.104  0.3341 -0.3673  0.3718
 7069SOL    HW232841   3.283   2.505  14.115 -0.0106 -0.3152  0.2933
 7070SOL     OW32842   2.946   2.112  13.883  0.2415 -0.5410 -0.0188
 7070SOL    HW132843   3.040   2.129  13.888 -0.2554  2.2973 -0.5171
 7070SOL    HW232844   2.913   2.151  13.963  2.0887  0.2586  0.3568
 7071SOL     OW32845   3.307   3.029   7.785 -0.1326 -0.3686 -0.1482
 7071SOL    HW132846   3.247   3.085   7.835  1.9601 -0.4009  2.3923
 7071SOL    HW232847   3.301   2.951   7.840  1.0099 -0.8231 -0.6658
 7072SOL     OW32848   1.176   0.431  10.422 -0.4557 -0.0725  0.4578
 7072SOL    HW132849   1.214   0.504  10.470 -2.0071  1.5027 -0.7335
 7072SOL    HW232850   1.243   0.416  10.356 -2.7362 -2.5503 -1.3069
 7073SOL     OW32851   3.410   0.020   7.979  0.5357 -1.1422  0.3641
 7073SOL    HW132852   3.316   0.016   7.961  0.4604  0.6955  0.2924
 7073SOL    HW232853   3.411   0.113   8.002 -1.6206 -1.0107 -0.0058
 7074SOL     OW32854   4.488   3.474  11.014 -0.0168 -0.5171  0.2217
 7074SOL    HW132855   4.403   3.472  10.969 -0.4299  0.0745  0.9783
 7074SOL    HW232856   4.514   3.384  11.031 -0.4471 -0.8326 -0.7710
 7075SOL     OW32857   0.269   0.081  15.445 -0.6620 -0.1374  0.0742
 7075SOL    HW132858   0.290   0.063  15.537 -0.1622 -1.7051 -0.3489
 7075SOL    HW232859   0.233   4.732  15.418 -0.0313 -0.2799 -0.3125
 7076SOL     OW32860   3.866   4.387   5.953 -0.5048  0.2308 -0.0897
 7076SOL    HW132861   3.912   4.447   6.012  0.5776  1.9809 -2.7173
 7076SOL    HW232862   3.831   4.325   6.017 -0.9403  0.1011 -0.4530
 7077SOL     OW32863   2.227   0.677   7.587 -0.0897  0.4810 -0.4894
 7077SOL    HW132864   2.307   0.703   7.632 -1.0717  1.9645  0.4000
 7077SOL    HW232865   2.238   0.583   7.602  0.9275  0.4327 -1.5469
 7078SOL     OW32866   0.833   2.598   6.622 -0.5237 -0.8327 -0.0741
 7078SOL    HW132867   0.870   2.670   6.673 -2.5171  1.8211 -2.3821
 7078SOL    HW232868   0.783   2.560   6.695  0.0959  0.1437  0.8622
 7079SOL     OW32869   1.884   1.136   8.168 -0.2197 -0.0721  0.0886
 7079SOL    HW132870   1.805   1.178   8.134  1.3858  2.1884 -0.9016
 7079SOL    HW232871   1.932   1.125   8.086  0.5274  0.5170  0.4422
 7080SOL     OW32872   3.956   4.085   1.365  0.4921  0.2646 -0.0764
 7080SOL    HW132873   3.870   4.098   1.404  0.8000 -0.4597  0.8402
 7080SOL    HW232874   4.006   4.091   1.446  1.7398  0.2745 -0.8389
 7081SOL     OW32875   4.674   0.562   6.178 -0.4507  0.5201  0.0234
 7081SOL    HW132876   4.632   0.509   6.110  0.8619 -0.6102  0.0972
 7081SOL    HW232877   4.600   0.571   6.238 -1.3236 -0.8031 -0.8399
 7082SOL     OW32878   1.406   3.183  12.412  0.1836 -0.7647 -0.5935
 7082SOL    HW132879   1.442   3.242  12.478  1.0884  0.0105 -1.7643
 7082SOL    HW232880   1.316   3.214  12.403  0.0945 -1.2583 -1.4018
 7083SOL     OW32881   3.629   4.675  13.174  0.0803  0.1557 -0.0213
 7083SOL    HW132882   3.677   4.620  13.112  0.0840  0.0129  0.1081
 7083SOL    HW232883   3.557   4.702  13.118  0.2285  0.1906 -0.1948
 7084SOL     OW32884   0.571   4.275   3.132  0.1518  0.0350  0.5810
 7084SOL    HW132885   0.612   4.348   3.178  0.9546 -0.2683  0.3631
 7084SOL    HW232886   0.620   4.203   3.173  0.5580  0.6994  1.2605
 7085SOL     OW32887   3.985   1.948   5.014 -0.2314  0.3018 -0.2768
 7085SOL    HW132888   3.975   1.884   4.943  1.7032 -2.2553  1.7919
 7085SOL    HW232889   3.900   1.993   5.010  0.3114  1.3548  0.0079
 7086SOL     OW32890   2.728   4.205  12.397  0.2160  0.1014 -0.1306
 7086SOL    HW132891   2.688   4.207  12.309 -0.7068  2.0807  0.3175
 7086SOL    HW232892   2.740   4.300  12.402 -2.4678  0.5228 -1.3738
 7087SOL     OW32893   1.342   1.084   8.208 -0.3515 -0.0003 -0.3854
 7087SOL    HW132894   1.272   1.027   8.239  0.2372 -0.3182  0.3611
 7087SOL    HW232895   1.359   1.134   8.288  1.4927  1.4458 -1.6839
 7088SOL     OW32896   0.917   4.402   8.334  0.5185 -0.3220  0.3074
 7088SOL    HW132897   0.977   4.397   8.409  1.8626 -1.6183 -0.8525
 7088SOL    HW232898   0.834   4.434   8.369  1.1710  1.8164 -0.0386
 7089SOL     OW32899   2.285   2.394   1.162  0.3417  0.9740 -0.3090
 7089SOL    HW132900   2.356   2.362   1.218 -0.8291  1.8520  1.6710
 7089SOL    HW232901   2.221   2.330   1.193 -0.3195  1.3019 -1.0030
 7090SOL     OW32902   2.291   2.166   5.616  0.2346 -0.1392  0.1328
 7090SOL    HW132903   2.304   2.076   5.644  0.1771 -0.3433 -0.4842
 7090SOL    HW232904   2.218   2.196   5.669 -1.3094 -0.0671 -2.0204
 7091SOL     OW32905   0.191   1.107  15.123 -0.1133 -0.0407  0.3996
 7091SOL    HW132906   0.192   1.172  15.052 -1.3345 -1.5972 -1.0242
 7091SOL    HW232907   0.184   1.169  15.196 -0.6649 -0.0723  0.3728
 7092SOL     OW32908   1.216   1.640   2.273 -0.1604  0.2049 -0.8508
 7092SOL    HW132909   1.135   1.620   2.319 -0.0050  1.2848 -0.0865
 7092SOL    HW232910   1.260   1.556   2.264 -0.2511  0.0674  0.0149
 7093SOL     OW32911   0.097   2.725   8.782  0.1073  0.4022  0.0954
 7093SOL    HW132912   0.033   2.751   8.849 -2.1143  3.6584 -3.2886
 7093SOL    HW232913   0.043   2.733   8.703  1.1042  0.5422 -0.5698
 7094SOL     OW32914   3.234   4.094   8.163  0.0682  0.5691 -0.1048
 7094SOL    HW132915   3.160   4.149   8.138 -1.0450 -1.8320 -2.1297
 7094SOL    HW232916   3.196   4.006   8.155  3.3779 -0.9201  0.5376
 7095SOL     OW32917   3.957   3.471  17.628 -0.4161  0.5580 -0.4275
 7095SOL    HW132918   3.948   3.425  17.712  0.7854  0.6483 -0.2465
 7095SOL    HW232919   4.027   3.419  17.589 -0.6893 -0.1246 -0.0203
 7096SOL     OW32920   2.651   1.472   9.883 -0.0884 -0.0630  0.2905
 7096SOL    HW132921   2.588   1.461   9.954 -0.2737 -1.3575 -0.0725
 7096SOL    HW232922   2.648   1.566   9.866  3.0874 -0.6380 -3.4627
 7097SOL     OW32923   0.253   0.175   2.023 -0.3710  0.2348  0.2442
 7097SOL    HW132924   0.202   0.096   2.012 -0.7940  0.4935  0.3547
 7097SOL    HW232925   0.321   0.165   1.956 -0.6510 -1.7141  0.2526
 7098SOL     OW32926   1.572   3.146  17.265  0.5876  0.0105  0.3680
 7098SOL    HW132927   1.552   3.221  17.321 -1.5496 -1.3807  1.4727
 7098SOL    HW232928   1.596   3.084  17.335  0.4287  0.5805  0.9323
 7099SOL     OW32929   3.096   4.671  13.802 -0.1938  0.3933  0.2946
 7099SOL    HW132930   3.090   4.664  13.707 -1.7441  0.2465  0.4089
 7099SOL    HW232931   3.139   0.019  13.820  1.5365 -0.1557 -1.3654
 7100SOL     OW32932   3.108   0.196   4.264  0.4098 -0.0889 -0.4686
 7100SOL    HW132933   3.121   0.290   4.253  0.6435 -0.1128 -0.4054
 7100SOL    HW232934   3.035   0.191   4.202 -1.8563  1.1094  2.1186
 7101SOL     OW32935   3.251   2.941   7.466  0.4469  0.4976  0.7899
 7101SOL    HW132936   3.309   3.017   7.472  1.0908  0.0222  0.6740
 7101SOL    HW232937   3.231   2.948   7.373  0.2177 -0.0027  0.8022
 7102SOL     OW32938   0.000   0.593   1.199 -0.2549  0.0715  0.6025
 7102SOL    HW132939   4.642   0.607   1.185 -0.6019 -1.4166  1.4813
 7102SOL    HW232940   0.036   0.596   1.110 -1.4316 -3.0093  0.0238
 7103SOL     OW32941   2.749   3.123   2.455 -0.5553  0.2875 -0.2645
 7103SOL    HW132942   2.667   3.165   2.428 -1.0538  0.5113  1.6282
 7103SOL    HW232943   2.764   3.157   2.543  0.4696 -0.5608 -0.1225
 7104SOL     OW32944   2.324   0.356   2.049 -0.0300  0.1075  0.1816
 7104SOL    HW132945   2.273   0.277   2.035 -0.0023 -0.3970  2.9662
 7104SOL    HW232946   2.293   0.380   2.136 -1.7005  1.1798 -0.7068
 7105SOL     OW32947   1.248   0.397   5.138  0.0513 -0.0672  0.1843
 7105SOL    HW132948   1.287   0.400   5.225  3.0517 -2.0285 -1.1219
 7105SOL    HW232949   1.215   0.307   5.136 -0.8649  0.2984 -1.1183
 7106SOL     OW32950   1.510   1.140   6.144  0.4197  0.7670 -0.5691
 7106SOL    HW132951   1.442   1.187   6.192  0.7469  1.5754 -0.9124
 7106SOL    HW232952   1.590   1.184   6.171  0.0760  0.9970  0.0902
 7107SOL     OW32953   1.702   1.928   4.443  0.1402 -0.3087  0.0588
 7107SOL    HW132954   1.747   1.858   4.490  1.2177  0.8794  0.7749
 7107SOL    HW232955   1.689   1.890   4.355 -0.8051  1.8538 -0.7207
 7108SOL     OW32956   3.496   4.253  17.308 -0.3234  0.1713  0.0959
 7108SOL    HW132957   3.421   4.252  17.367  1.2337  0.2987  2.0839
 7108SOL    HW232958   3.466   4.329  17.257 -1.5736 -0.7845 -0.5793
 7109SOL     OW32959   4.396   3.474   8.345 -0.0879  0.2903  0.0833
 7109SOL    HW132960   4.382   3.512   8.432 -1.4202 -0.2182  0.0881
 7109SOL    HW232961   4.485   3.508   8.340 -0.6022  1.6090 -0.2898
 7110SOL     OW32962   1.104   1.326  12.496  0.0721 -0.2703 -0.0958
 7110SOL    HW132963   1.175   1.314  12.559  2.7992  1.2053 -2.9145
 7110SOL    HW232964   1.093   1.420  12.487  0.2689 -0.2731 -0.3692
 7111SOL     OW32965   2.173   1.717   2.815  0.0157 -0.3249  0.2827
 7111SOL    HW132966   2.135   1.713   2.903  2.0649 -2.7734  1.0198
 7111SOL    HW232967   2.087   1.736   2.776  0.3098 -0.3269 -0.3545
 7112SOL     OW32968   4.455   1.630  15.817  0.2762 -0.5923  0.2394
 7112SOL    HW132969   4.430   1.554  15.765  2.5853 -0.7674 -0.5771
 7112SOL    HW232970   4.457   1.599  15.908  1.9201  0.0092  0.3971
 7113SOL     OW32971   1.832   1.384   5.139 -0.1081 -0.3710  0.3597
 7113SOL    HW132972   1.743   1.420   5.132  0.6645  1.8449  1.7779
 7113SOL    HW232973   1.875   1.456   5.185 -1.2015 -1.1828  2.6927
 7114SOL     OW32974   0.057   4.581   7.450 -0.3199 -0.0252  0.7710
 7114SOL    HW132975   0.122   4.583   7.381 -0.4001  1.2674  0.7276
 7114SOL    HW232976   0.102   4.530   7.517  0.9923  0.0215 -0.0959
 7115SOL     OW32977   2.596   3.813   6.261 -0.1601  0.3259 -0.4456
 7115SOL    HW132978   2.685   3.809   6.295 -0.1379 -1.9772 -0.7901
 7115SOL    HW232979   2.555   3.825   6.346  0.7842 -0.7702  0.1723
 7116SOL     OW32980   3.023   1.148  14.729  0.0806  0.3225 -0.1648
 7116SOL    HW132981   3.042   1.232  14.688 -0.5229 -0.5822 -2.3157
 7116SOL    HW232982   3.114   1.125  14.748 -0.1379  0.4078  0.9462
 7117SOL     OW32983   2.742   1.027   8.121 -0.4736  0.2498  0.2534
 7117SOL    HW132984   2.793   1.007   8.199 -0.2554 -1.4239 -0.3093
 7117SOL    HW232985   2.766   1.119   8.106  0.6624 -0.3203 -1.5447
 7118SOL     OW32986   1.866   0.665   1.048  0.2766  0.1095  0.1198
 7118SOL    HW132987   1.922   0.679   1.125 -0.8372 -1.5913  1.2678
 7118SOL    HW232988   1.814   0.593   1.085  0.4093  0.3641  0.7966
 7119SOL     OW32989   2.237   2.661   3.516  0.0529 -0.3029  0.0306
 7119SOL    HW132990   2.192   2.580   3.493 -1.2491  0.3429  0.2750
 7119SOL    HW232991   2.322   2.621   3.530  0.4082 -0.1129 -1.4917
 7120SOL     OW32992   2.261   2.003   6.509 -0.1440  0.1196 -0.1037
 7120SOL    HW132993   2.279   2.002   6.415 -3.0765 -1.5166 -0.6608
 7120SOL    HW232994   2.260   1.909   6.528 -0.5204  0.1237 -0.1049
 7121SOL     OW32995   2.378   2.837   4.355  0.2770 -0.0933  0.3290
 7121SOL    HW132996   2.375   2.901   4.284  2.2588 -1.1581 -0.6878
 7121SOL    HW232997   2.378   2.888   4.436 -2.7807  0.1916  0.1675
 7122SOL     OW32998   0.800   0.118  12.799 -0.6000 -0.3951 -0.4666
 7122SOL    HW132999   0.828   0.169  12.875  0.2140 -0.9863 -0.3742
 7122SOL    HW233000   0.846   0.038  12.824  2.2707  1.2753 -0.4149
 7123SOL     OW33001   0.841   0.207   2.336 -0.0119 -0.3584  0.0580
 7123SOL    HW133002   0.791   0.203   2.255 -0.5235 -0.6872  0.3948
 7123SOL    HW233003   0.927   0.216   2.295  0.7266 -1.5117  1.3419
 7124SOL     OW33004   4.149   2.486   2.069 -0.2525 -0.2358  0.4207
 7124SOL    HW133005   4.124   2.484   1.977  1.1201  0.1728  0.0371
 7124SOL    HW233006   4.213   2.557   2.061 -2.1262  1.3693 -0.2190
 7125SOL     OW33007   3.743   1.489   6.781  0.2543 -0.3509 -0.2036
 7125SOL    HW133008   3.750   1.576   6.742 -0.3845  0.3275  1.1769
 7125SOL    HW233009   3.823   1.487   6.833 -0.2222 -2.2038  0.4489
 7126SOL     OW33010   0.859   3.333   3.813  0.2728  0.0551 -0.3094
 7126SOL    HW133011   0.776   3.337   3.859  0.8012 -0.0302  0.6510
 7126SOL    HW233012   0.916   3.347   3.888 -0.8375 -0.3473  0.6029
 7127SOL     OW33013   1.695   2.571   1.948 -0.4088 -0.0209  0.2613
 7127SOL    HW133014   1.732   2.579   1.860  0.0983  0.0235  0.4817
 7127SOL    HW233015   1.655   2.658   1.956 -0.5185  0.0011 -0.4909
 7128SOL     OW33016   4.683   3.893   6.735 -0.2129  0.3264 -0.6584
 7128SOL    HW133017   0.020   3.944   6.700 -0.0953  1.4663  1.1939
 7128SOL    HW233018   4.633   3.974   6.749 -3.0528 -1.8326  1.6512
 7129SOL     OW33019   0.311   3.866   4.238 -0.0080 -0.1282  0.7810
 7129SOL    HW133020   0.403   3.849   4.217  0.5889  1.3668  2.1575
 7129SOL    HW233021   0.288   3.956   4.217 -1.5858 -0.7638 -0.1698
 7130SOL     OW33022   2.812   4.571   6.790 -0.0295 -0.1778  0.6665
 7130SOL    HW133023   2.787   4.586   6.699  0.3927  1.7886  0.8653
 7130SOL    HW233024   2.845   4.659   6.808 -1.0276  0.6510 -1.6331
 7131SOL     OW33025   4.252   3.102   4.006 -0.0287  0.2407  0.3809
 7131SOL    HW133026   4.307   3.028   3.981  0.8144  1.1472 -0.4721
 7131SOL    HW233027   4.182   3.061   4.056 -0.0467  1.3251  1.2280
 7132SOL     OW33028   0.989   0.307   2.574  0.4032 -0.0624  0.6255
 7132SOL    HW133029   1.059   0.259   2.531 -0.0368 -0.4072  0.2910
 7132SOL    HW233030   1.029   0.317   2.660  0.7026  0.0672  0.4716
 7133SOL     OW33031   1.035   4.453  11.186  0.5414 -0.0079  0.1235
 7133SOL    HW133032   1.080   4.371  11.206  1.2390 -0.2267 -2.3770
 7133SOL    HW233033   1.112   4.502  11.159  1.3026 -2.1432 -1.5924
 7134SOL     OW33034   0.142   4.097   6.634  0.4911 -0.1578  0.9813
 7134SOL    HW133035   0.099   4.171   6.677 -1.0327 -1.0759  1.0131
 7134SOL    HW233036   0.221   4.148   6.617  1.0350 -1.7951 -1.4098
 7135SOL     OW33037   3.515   3.940  14.903  0.1052  0.0843  0.0001
 7135SOL    HW133038   3.443   3.985  14.948  0.2090  1.0207 -0.7770
 7135SOL    HW233039   3.561   3.900  14.977  0.1117 -0.1108 -0.1117
 7136SOL     OW33040   0.984   3.809   1.698  0.5202  0.0418  0.0076
 7136SOL    HW133041   0.927   3.746   1.654 -0.1217  0.2666  0.5184
 7136SOL    HW233042   0.955   3.810   1.789 -0.1030 -0.2913 -0.1871
 7137SOL     OW33043   4.431   0.203   2.469  0.2360  0.2082  0.2718
 7137SOL    HW133044   4.440   0.281   2.414 -2.3042 -0.7236 -1.4476
 7137SOL    HW233045   4.409   0.140   2.400  0.8771  0.7143 -0.3989
 7138SOL     OW33046   0.486   2.032  13.907 -0.4361 -0.2995 -0.3465
 7138SOL    HW133047   0.395   2.012  13.929  0.9007 -0.9348  4.7176
 7138SOL    HW233048   0.509   1.990  13.824 -1.9723 -2.7542  0.4671
 7139SOL     OW33049   1.779   4.637  11.359 -0.1056  0.6281 -0.7311
 7139SOL    HW133050   1.775   4.683  11.443 -2.9438 -0.7417 -0.1099
 7139SOL    HW233051   1.863   4.671  11.328  1.1031 -0.1350  1.7283
 7140SOL     OW33052   0.578   0.773  17.479  0.1399  0.3937  0.1162
 7140SOL    HW133053   0.577   0.782  17.575 -0.7369  3.2947 -0.1763
 7140SOL    HW233054   0.658   0.728  17.454 -0.1415  0.1666 -0.3783
 7141SOL     OW33055   0.713   3.443   7.754 -0.5552 -0.1762 -0.3414
 7141SOL    HW133056   0.805   3.465   7.768 -0.0918 -1.8906 -0.6821
 7141SOL    HW233057   0.695   3.479   7.667 -0.9331  0.8433  0.1618
 7142SOL     OW33058   1.836   1.460   9.177  0.6664 -0.1735 -0.1464
 7142SOL    HW133059   1.808   1.408   9.252 -0.2677  0.7824  0.1821
 7142SOL    HW233060   1.912   1.407   9.155  0.9873 -0.4487  1.6280
 7143SOL     OW33061   2.330   2.577   9.180 -0.3165  0.4956 -0.6983
 7143SOL    HW133062   2.321   2.672   9.191 -2.6607  0.1688  0.1250
 7143SOL    HW233063   2.278   2.551   9.104  0.5649  3.4003 -2.2986
 7144SOL     OW33064   1.315   2.289  12.086 -0.2409 -0.5596  0.2452
 7144SOL    HW133065   1.226   2.261  12.106 -1.6969  1.3469 -3.5892
 7144SOL    HW233066   1.310   2.379  12.118  0.3633 -0.0871 -0.9821
 7145SOL     OW33067   3.831   0.451   6.375  0.0435 -0.1750  0.8510
 7145SOL    HW133068   3.790   0.528   6.335 -0.7422 -1.0720 -0.0611
 7145SOL    HW233069   3.923   0.475   6.364 -0.0664 -0.9110 -1.7305
 7146SOL     OW33070   2.973   3.150   2.273 -0.5770 -0.3264 -0.1876
 7146SOL    HW133071   3.048   3.094   2.292  0.0701  0.4937 -0.3311
 7146SOL    HW233072   2.907   3.112   2.332 -0.4135 -0.1163  0.1240
 7147SOL     OW33073   4.701   3.465  10.720  0.3958 -1.4105  0.2182
 7147SOL    HW133074   4.636   3.405  10.684 -1.6513  1.3195 -0.5672
 7147SOL    HW233075   0.044   3.427  10.679  0.9217  0.5636 -0.6077
 7148SOL     OW33076   2.768   0.778   0.458  0.1443  0.3520  0.1278
 7148SOL    HW133077   2.838   0.753   0.519 -1.3797 -0.6889  1.4242
 7148SOL    HW233078   2.826   0.822   0.395 -1.1322  0.4695 -0.9697
 7149SOL     OW33079   3.217   1.507   2.429  0.2246  0.2714  0.0250
 7149SOL    HW133080   3.225   1.422   2.385 -0.6461  0.5000 -0.5696
 7149SOL    HW233081   3.228   1.563   2.353 -0.4204  0.1623 -0.1521
 7150SOL     OW33082   2.577   2.397   0.775  0.5046 -0.1041 -0.3134
 7150SOL    HW133083   2.511   2.441   0.828  1.6268 -0.3162  1.2990
 7150SOL    HW233084   2.661   2.443   0.782  0.4949 -0.2451  0.8534
 7151SOL     OW33085   2.154   1.689   7.672  0.4006  0.1399 -0.2310
 7151SOL    HW133086   2.211   1.613   7.656 -0.3294 -0.3457 -0.5228
 7151SOL    HW233087   2.205   1.730   7.742 -1.4250 -1.5568  2.0954
 7152SOL     OW33088   4.556   3.121   8.896  0.4207  1.2462  0.4276
 7152SOL    HW133089   4.493   3.068   8.944 -0.1570 -1.1319 -3.0062
 7152SOL    HW233090   4.542   3.206   8.938 -1.0858  1.2921 -0.1482
 7153SOL     OW33091   0.501   4.233   3.510  0.0951  0.1878  0.0707
 7153SOL    HW133092   0.459   4.150   3.532  2.6090 -0.5783  2.1158
 7153SOL    HW233093   0.592   4.205   3.500 -0.0405 -0.2330  0.0293
 7154SOL     OW33094   1.261   3.098   2.965 -0.2910  0.0211 -0.0141
 7154SOL    HW133095   1.202   3.035   3.006 -2.1443  1.5828 -0.3003
 7154SOL    HW233096   1.197   3.164   2.940  0.3920  0.2747 -1.0966
 7155SOL     OW33097   1.129   2.813   3.977 -1.3041  0.6151 -1.0583
 7155SOL    HW133098   1.114   2.863   4.057 -0.6866 -0.0557 -0.5183
 7155SOL    HW233099   1.085   2.868   3.912 -2.6848 -0.3031 -0.8912
 7156SOL     OW33100   2.421   2.274   2.170  0.9664  0.3434 -0.2709
 7156SOL    HW133101   2.396   2.213   2.101  0.2752 -0.2413  0.4936
 7156SOL    HW233102   2.456   2.217   2.239  0.6200  1.3487  0.7252
 7157SOL     OW33103   3.882   3.072   3.103 -0.0739 -0.1666  0.2114
 7157SOL    HW133104   3.840   3.006   3.047  0.0309  0.5221 -0.6791
 7157SOL    HW233105   3.953   3.094   3.042 -0.7202 -0.6371 -0.7017
 7158SOL     OW33106   0.642   0.773  12.581 -0.3586 -0.2774  0.0137
 7158SOL    HW133107   0.717   0.831  12.583  1.5261 -2.6634 -0.6943
 7158SOL    HW233108   0.636   0.744  12.490  0.3687 -1.7684  0.4427
 7159SOL     OW33109   0.233   0.198   3.892 -0.4047 -0.4431  0.2549
 7159SOL    HW133110   0.295   0.125   3.890  0.4341  0.1712  2.9504
 7159SOL    HW233111   0.243   0.227   3.983  2.3201 -0.3507 -0.0831
 7160SOL     OW33112   2.104   2.290  16.006 -0.0235  0.1930  0.1327
 7160SOL    HW133113   2.116   2.383  15.985  0.5333 -0.3281 -1.8370
 7160SOL    HW233114   2.030   2.268  15.950 -0.0048  0.2427  0.0892
 7161SOL     OW33115   2.829   4.450  10.106 -0.3515 -0.0553  0.0356
 7161SOL    HW133116   2.797   4.445  10.196  0.4696  0.6318  0.3718
 7161SOL    HW233117   2.836   4.358  10.081 -0.3084 -0.3041  0.9867
 7162SOL     OW33118   2.629   3.890   4.111 -0.1372 -0.4772  0.3038
 7162SOL    HW133119   2.565   3.914   4.045 -1.7222 -2.4262  1.1435
 7162SOL    HW233120   2.705   3.945   4.092 -2.1301  2.2871  0.3485
 7163SOL     OW33121   4.432   3.799   8.065  0.3896  0.5540  0.2371
 7163SOL    HW133122   4.388   3.713   8.063  1.7252 -0.1221 -0.5190
 7163SOL    HW233123   4.511   3.780   8.014 -0.1842  0.3334 -0.5721
 7164SOL     OW33124   1.115   1.699   7.233 -0.3581  0.3155  0.1650
 7164SOL    HW133125   1.069   1.780   7.256 -1.6690 -0.4229  0.1585
 7164SOL    HW233126   1.203   1.731   7.217 -0.7793  1.2990 -0.1845
 7165SOL     OW33127   2.684   2.460  10.053  0.2795 -0.1756 -0.7489
 7165SOL    HW133128   2.737   2.523  10.101 -2.1980  3.0623 -2.2411
 7165SOL    HW233129   2.592   2.480  10.074  0.2256 -0.3555 -0.8049
 7166SOL     OW33130   0.464   2.121  17.407  0.8077  0.0481 -0.6449
 7166SOL    HW133131   0.550   2.130  17.367  1.1545 -1.5014 -0.2524
 7166SOL    HW233132   0.409   2.165  17.342 -1.2714 -0.4771  0.7336
 7167SOL     OW33133   1.249   1.941  13.390  0.3178 -0.1251 -0.2238
 7167SOL    HW133134   1.179   2.004  13.409  0.4979 -0.4044  1.3409
 7167SOL    HW233135   1.328   1.985  13.420 -2.3932  0.1641  6.3127
 7168SOL     OW33136   3.983   3.934   4.169  0.2464 -0.6742 -0.1021
 7168SOL    HW133137   4.063   3.898   4.133 -0.1648 -0.7820 -0.9126
 7168SOL    HW233138   4.001   3.918   4.261 -1.4030 -1.0409  0.1500
 7169SOL     OW33139   3.531   3.235   1.927 -0.2321 -0.3707  0.2420
 7169SOL    HW133140   3.589   3.245   2.002  2.0475  0.4702 -1.6004
 7169SOL    HW233141   3.506   3.143   1.927  1.4860 -0.8435  0.9661
 7170SOL     OW33142   3.236   0.226   2.333  0.3627 -0.2946  0.0964
 7170SOL    HW133143   3.309   0.248   2.275  0.1633 -0.5247 -0.2433
 7170SOL    HW233144   3.184   0.298   2.300  1.4133  0.8914  1.0311
 7171SOL     OW33145   0.549   2.225   6.207 -0.4837 -0.2359 -0.4215
 7171SOL    HW133146   0.508   2.201   6.124 -1.5285  0.1657 -0.0265
 7171SOL    HW233147   0.604   2.298   6.180 -1.0738  0.2037 -0.4418
 7172SOL     OW33148   3.262   3.049   1.696  0.5476  0.9262 -0.2425
 7172SOL    HW133149   3.348   3.082   1.669  1.1821  0.5332  1.2855
 7172SOL    HW233150   3.282   2.986   1.765  3.5275 -0.2489 -2.1963
 7173SOL     OW33151   3.488   2.312   3.001  0.1532 -0.0852  0.2367
 7173SOL    HW133152   3.396   2.311   2.973  0.4358  0.0243 -0.7030
 7173SOL    HW233153   3.519   2.259   2.928  1.6464  0.6380  0.3550
 7174SOL     OW33154   0.635   1.298   6.920  0.0784  0.3560  0.0197
 7174SOL    HW133155   0.572   1.241   6.963  0.6989  0.4073  1.0142
 7174SOL    HW233156   0.703   1.236   6.893 -0.7486 -1.6124  2.5074
 7175SOL     OW33157   0.384   4.243   6.571  0.1774 -0.0826 -0.0398
 7175SOL    HW133158   0.406   4.178   6.505 -1.0009 -0.7129  0.1787
 7175SOL    HW233159   0.322   4.299   6.523  0.1628  0.3129  0.4411
 7176SOL     OW33160   4.686   1.071   8.230 -0.3488 -0.2117 -0.2207
 7176SOL    HW133161   4.720   1.095   8.144  0.6274 -0.4559  0.1032
 7176SOL    HW233162   4.622   1.004   8.205 -1.9713  0.4752  2.1275
 7177SOL     OW33163   0.841   4.371   5.743  0.1660  0.5706 -0.0808
 7177SOL    HW133164   0.838   4.328   5.657 -1.3603 -0.4242  0.4581
 7177SOL    HW233165   0.775   4.437   5.722  0.7308  1.1644  0.0160
 7178SOL     OW33166   1.827   3.955   6.522 -0.1279  0.1499  0.2387
 7178SOL    HW133167   1.892   4.021   6.498  1.2217 -0.6206  1.8492
 7178SOL    HW233168   1.893   3.888   6.538 -0.1315  0.6638  2.3655
 7179SOL     OW33169   1.713   3.399  14.531  0.1184 -0.1493 -0.3419
 7179SOL    HW133170   1.715   3.338  14.457  0.4819 -0.5308 -0.0238
 7179SOL    HW233171   1.759   3.475  14.494  2.0907 -0.7568  0.8705
 7180SOL     OW33172   2.792   1.295   3.967  0.3946  0.0778  0.3409
 7180SOL    HW133173   2.804   1.381   4.008  0.7965  0.9888 -1.6419
 7180SOL    HW233174   2.697   1.297   3.953  0.2584 -2.2272  0.9078
 7181SOL     OW33175   3.612   0.047   3.597  0.0050  0.1274  0.2423
 7181SOL    HW133176   3.622   0.137   3.626 -0.9382 -0.6851  3.1268
 7181SOL    HW233177   3.699   0.021   3.627  1.5412  2.9773 -1.8222
 7182SOL     OW33178   0.330   1.353   5.257 -0.2256  0.1617 -0.0068
 7182SOL    HW133179   0.364   1.371   5.169  2.1610 -1.6493  0.5328
 7182SOL    HW233180   0.401   1.380   5.315  0.0611 -1.2374  0.2915
 7183SOL     OW33181   4.278   4.079   3.531  0.5184  0.0749  0.6136
 7183SOL    HW133182   4.185   4.088   3.512  0.4282  0.5794  1.3101
 7183SOL    HW233183   4.305   4.170   3.546 -0.8821  0.5691  0.1645
 7184SOL     OW33184   2.776   1.075   9.320 -0.5224 -0.4447  0.4586
 7184SOL    HW133185   2.812   0.987   9.313 -0.7493 -0.7008  2.6310
 7184SOL    HW233186   2.697   1.064   9.373  0.3815  0.3488  1.9476
 7185SOL     OW33187   0.701   2.427  12.143 -0.6885  0.2060  0.1564
 7185SOL    HW133188   0.710   2.520  12.162  0.1561  0.0252  0.6635
 7185SOL    HW233189   0.634   2.404  12.207 -1.9678  0.5302 -1.0750
 7186SOL     OW33190   1.749   1.567   2.775 -0.2648 -0.0441 -0.6970
 7186SOL    HW133191   1.670   1.621   2.782 -0.7382 -0.9184  0.6346
 7186SOL    HW233192   1.709   1.483   2.800  2.3257 -1.8827 -2.6624
 7187SOL     OW33193   4.090   0.191   9.216 -0.1937  0.2292  0.1239
 7187SOL    HW133194   4.130   0.105   9.202  0.8292  0.5486  1.0567
 7187SOL    HW233195   4.001   0.159   9.199 -0.0229  0.3930 -1.0482
 7188SOL     OW33196   3.966   2.734   6.668 -0.5110  0.3121 -0.1667
 7188SOL    HW133197   3.921   2.706   6.748  0.4734 -1.3290 -0.1951
 7188SOL    HW233198   4.041   2.790   6.691  0.0307 -0.2038 -0.6902
 7189SOL     OW33199   3.274   1.731   6.375  0.5982 -0.6776  0.2696
 7189SOL    HW133200   3.319   1.814   6.384  0.4167 -0.5901  0.3666
 7189SOL    HW233201   3.184   1.754   6.399  0.4639  0.8398 -1.6894
 7190SOL     OW33202   2.364   2.117   6.731 -0.1307 -0.1069  0.1152
 7190SOL    HW133203   2.440   2.058   6.735  0.6744  0.9464  0.5199
 7190SOL    HW233204   2.329   2.096   6.645  0.1684 -2.5199  0.5854
 7191SOL     OW33205   2.272   3.869   3.529 -0.5462 -0.1897 -0.0334
 7191SOL    HW133206   2.290   3.821   3.610  0.2415  0.1466 -0.0115
 7191SOL    HW233207   2.181   3.900   3.525 -0.5007 -0.3708 -2.6810
 7192SOL     OW33208   2.563   0.552   1.428  0.2975  0.1382  0.5801
 7192SOL    HW133209   2.651   0.514   1.420 -0.1674 -0.7503 -0.2475
 7192SOL    HW233210   2.511   0.534   1.350 -0.5740  0.3397  1.1141
 7193SOL     OW33211   1.490   2.964   5.208 -0.1963 -0.0348  0.0243
 7193SOL    HW133212   1.515   3.026   5.140 -0.7540 -0.2990 -0.4169
 7193SOL    HW233213   1.396   2.960   5.187  0.2689  1.7240 -2.3724
 7194SOL     OW33214   4.123   0.667  10.554 -0.2540  0.1280 -0.5483
 7194SOL    HW133215   4.094   0.731  10.619  0.6530 -0.9228  0.8957
 7194SOL    HW233216   4.104   0.718  10.476 -1.9500  1.1628  0.5429
 7195SOL     OW33217   4.187   3.169   7.636  0.2131 -0.1666  0.0272
 7195SOL    HW133218   4.201   3.181   7.542  0.0043 -1.7559 -0.2071
 7195SOL    HW233219   4.255   3.231   7.664 -0.1911  0.6999 -0.9017
 7196SOL     OW33220   0.339   0.458   7.070 -0.5059 -0.1169  1.0903
 7196SOL    HW133221   0.309   0.425   7.155 -2.6741 -1.6069 -0.2152
 7196SOL    HW233222   0.348   0.377   7.020 -0.2860  1.4431 -1.3862
 7197SOL     OW33223   2.089   1.232   9.564 -0.5032  0.4513  0.1846
 7197SOL    HW133224   2.088   1.304   9.627  1.2148 -1.1492  2.0410
 7197SOL    HW233225   2.094   1.157   9.623  1.6218 -0.7750 -1.5648
 7198SOL     OW33226   2.559   4.187   0.186  0.4096 -0.3382 -0.0252
 7198SOL    HW133227   2.610   4.257   0.227  0.4320  0.3534 -1.2483
 7198SOL    HW233228   2.511   4.240   0.122  0.7952  0.8774  0.6967
 7199SOL     OW33229   2.222   2.839   2.468  0.2536 -0.4685  0.5102
 7199SOL    HW133230   2.238   2.799   2.554 -0.0474  0.3293  0.9435
 7199SOL    HW233231   2.174   2.768   2.426  0.4891 -1.4386  1.8764
 7200SOL     OW33232   1.658   2.120   8.759  0.5404 -0.1611  0.2848
 7200SOL    HW133233   1.591   2.180   8.791  0.7404 -0.3242  1.0114
 7200SOL    HW233234   1.656   2.065   8.838  0.7357 -0.9252 -0.2381
 7201SOL     OW33235   0.566   2.668   8.047  0.1428 -0.2354  0.5334
 7201SOL    HW133236   0.502   2.600   8.026  0.6232  0.1815 -2.3767
 7201SOL    HW233237   0.501   2.726   8.087  1.6153 -0.5394  3.3243
 7202SOL     OW33238   3.967   3.821   0.057 -0.5637  0.4162  0.3592
 7202SOL    HW133239   3.998   3.897   0.008 -2.3537  1.7152  1.2641
 7202SOL    HW233240   3.875   3.815   0.030 -0.3427 -2.1227  0.1321
 7203SOL     OW33241   4.352   0.936   2.963 -0.3613  0.0065  0.3495
 7203SOL    HW133242   4.278   0.924   3.022 -1.0736  4.6518  0.4208
 7203SOL    HW233243   4.309   0.891   2.890 -1.3941 -1.9119  2.1513
 7204SOL     OW33244   2.081   0.996   5.693  0.4168  0.1969 -0.4950
 7204SOL    HW133245   2.059   1.054   5.766 -1.3888  0.7446 -1.4766
 7204SOL    HW233246   2.008   0.936   5.680  1.5928 -1.6988  1.6542
 7205SOL     OW33247   0.768   1.123   2.090 -0.2533 -0.2010  0.2334
 7205SOL    HW133248   0.719   1.068   2.029 -0.4223  2.0328 -1.6533
 7205SOL    HW233249   0.705   1.189   2.121  2.0818  2.8600 -1.5183
 7206SOL     OW33250   2.646   1.431   7.174 -0.4460  0.0100 -0.1240
 7206SOL    HW133251   2.613   1.416   7.086 -1.2840 -0.0631  0.2019
 7206SOL    HW233252   2.587   1.372   7.222 -1.1099  3.5323  3.3863
 7207SOL     OW33253   1.879   2.960   3.408  0.4703  0.3294  0.5665
 7207SOL    HW133254   1.923   2.914   3.337  0.6065 -0.2256  1.0106
 7207SOL    HW233255   1.788   2.930   3.411  1.2913 -2.4502 -2.4447
 7208SOL     OW33256   3.551   3.299   1.555 -0.4946  0.2082  0.5638
 7208SOL    HW133257   3.566   3.380   1.507  0.4142 -0.7736 -0.7900
 7208SOL    HW233258   3.534   3.340   1.640  1.5887  1.9863  0.1074
 7209SOL     OW33259   0.474   1.019  17.504 -0.1594  0.0590  0.7051
 7209SOL    HW133260   0.380   1.015  17.486 -0.0241 -2.1964  0.5471
 7209SOL    HW233261   0.485   0.924  17.504 -2.4351 -0.2145 -1.0598
 7210SOL     OW33262   0.440   4.411   9.535 -0.3856 -0.0342  0.3716
 7210SOL    HW133263   0.422   4.504   9.525  0.1276 -0.1491 -1.4773
 7210SOL    HW233264   0.410   4.382   9.622  2.9295 -0.3473  1.3977
 7211SOL     OW33265   3.234   3.616   6.218 -0.0204 -0.6137  0.6623
 7211SOL    HW133266   3.325   3.613   6.247 -0.0348 -0.4991  0.7204
 7211SOL    HW233267   3.244   3.620   6.122 -0.9403  0.2653  0.6042
 7212SOL     OW33268   3.006   4.343   6.498 -0.3139 -0.4447 -0.0894
 7212SOL    HW133269   3.088   4.369   6.541  0.1435  0.9809 -1.7887
 7212SOL    HW233270   2.994   4.260   6.544 -1.1980 -0.2196  0.0812
 7213SOL     OW33271   1.395   3.409   9.857  0.6552 -0.2134 -0.7956
 7213SOL    HW133272   1.415   3.498   9.830  0.5549  0.4478  1.2797
 7213SOL    HW233273   1.481   3.369   9.848 -0.2465 -1.6612 -3.0649
 7214SOL     OW33274   1.207   3.228   0.868 -0.1742  0.5935 -0.2835
 7214SOL    HW133275   1.284   3.193   0.913 -0.2198  1.4243  0.4278
 7214SOL    HW233276   1.252   3.271   0.795  0.2105  1.2381  0.3367
 7215SOL     OW33277   1.473   2.764   1.773 -0.6154  0.0134  0.5673
 7215SOL    HW133278   1.452   2.809   1.691 -1.0901  0.1962  0.7912
 7215SOL    HW233279   1.389   2.757   1.818 -0.7839 -3.3197 -0.3020
 7216SOL     OW33280   2.210   0.765   2.853  0.2952  0.0687  0.3239
 7216SOL    HW133281   2.292   0.725   2.823 -0.5223 -2.7815  1.8448
 7216SOL    HW233282   2.212   0.849   2.808  0.1353 -0.0052  0.1791
 7217SOL     OW33283   4.054   4.668   4.966 -0.5072 -1.1137  0.2473
 7217SOL    HW133284   4.062   4.573   4.960 -1.9261 -1.0998 -1.8839
 7217SOL    HW233285   4.013   4.679   4.880 -0.2766  1.0524  0.4271
 7218SOL     OW33286   0.103   3.294   2.506 -0.5865  0.1787  0.0535
 7218SOL    HW133287   0.028   3.261   2.555  0.0273 -1.0703  0.1364
 7218SOL    HW233288   0.119   3.218   2.450 -1.5417 -0.7874  1.0879
 7219SOL     OW33289   0.569   0.336   2.362  0.2738 -0.6779  0.3616
 7219SOL    HW133290   0.484   0.320   2.321  0.7701  0.9710 -1.3082
 7219SOL    HW233291   0.621   0.354   2.284 -0.1269 -0.4050  0.1530
 7220SOL     OW33292   2.438   1.817  15.865 -0.2737 -0.0097 -0.5911
 7220SOL    HW133293   2.411   1.841  15.953  2.9691 -0.6938  0.5935
 7220SOL    HW233294   2.526   1.782  15.879  0.1003  0.8118 -0.9168
 7221SOL     OW33295   2.442   1.228   7.893  0.2529  0.2427  0.0174
 7221SOL    HW133296   2.478   1.157   7.946 -1.0457  0.3983  1.1188
 7221SOL    HW233297   2.369   1.241   7.954  0.7339  4.9248 -0.4129
 7222SOL     OW33298   1.056   2.914   5.375 -0.4754 -0.1528 -0.5979
 7222SOL    HW133299   1.057   2.930   5.470 -2.5614 -1.2324 -0.3890
 7222SOL    HW233300   1.100   2.830   5.367  0.7693  0.3616  0.6899
 7223SOL     OW33301   1.933   2.196   4.830 -0.2158 -0.0667  0.1437
 7223SOL    HW133302   1.994   2.141   4.780 -2.4042 -0.6867 -1.8378
 7223SOL    HW233303   1.954   2.153   4.913 -1.3047  0.0025  0.4474
 7224SOL     OW33304   4.732   2.745   5.268 -0.1081  0.0703 -0.3135
 7224SOL    HW133305   4.702   2.692   5.341  0.9497 -0.3801 -0.2049
 7224SOL    HW233306   4.710   2.684   5.197  0.8504 -1.2308  0.5161
 7225SOL     OW33307   2.831   3.609   4.288 -0.4325 -0.2184  0.3138
 7225SOL    HW133308   2.820   3.615   4.193  1.2182 -0.8052  0.0923
 7225SOL    HW233309   2.764   3.547   4.318  0.5509 -1.5681 -0.2979
 7226SOL     OW33310   3.482   2.038   6.152  0.0050  0.2068  0.1106
 7226SOL    HW133311   3.397   2.080   6.141 -0.7935 -1.2798  0.5954
 7226SOL    HW233312   3.499   2.012   6.062  2.6313  1.2826  0.2798
 7227SOL     OW33313   1.586   4.598   7.144  0.1182  0.3138  0.2933
 7227SOL    HW133314   1.594   4.504   7.163 -2.7148  0.1048  0.5058
 7227SOL    HW233315   1.668   4.640   7.168 -0.7738  1.5141  1.2072
 7228SOL     OW33316   2.045   3.436   7.038  0.4362  0.3133 -0.6536
 7228SOL    HW133317   1.990   3.411   7.113 -0.3838  4.6428  0.1881
 7228SOL    HW233318   2.068   3.361   6.983 -0.6176 -0.9854  0.6978
 7229SOL     OW33319   0.063   3.718   3.981 -0.6159 -0.4711 -0.1503
 7229SOL    HW133320   4.728   3.752   4.036  0.4416  0.2964  0.7397
 7229SOL    HW233321   0.010   3.649   3.940 -1.3239  0.1472 -0.2639
 7230SOL     OW33322   3.060   2.779  14.112 -0.2685 -0.2663 -0.0367
 7230SOL    HW133323   3.041   2.845  14.045  2.1380 -0.1936 -0.6597
 7230SOL    HW233324   2.996   2.803  14.179 -0.2505  0.5650 -0.3073
 7231SOL     OW33325   3.242   3.551   4.178 -0.1963 -0.6674 -0.1479
 7231SOL    HW133326   3.253   3.495   4.255 -1.8627  0.2035  0.7376
 7231SOL    HW233327   3.257   3.636   4.218  2.0402 -0.3663 -1.6729
 7232SOL     OW33328   3.960   1.935  14.453  0.4669  0.6039  0.1050
 7232SOL    HW133329   4.050   1.923  14.483  1.5432 -1.5324 -4.0380
 7232SOL    HW233330   3.945   2.026  14.481 -1.7829 -0.1226  1.3047
 7233SOL     OW33331   0.049   0.621   9.391  0.6613  0.1675 -0.7052
 7233SOL    HW133332   0.045   0.538   9.344 -1.9366  0.6272 -1.2788
 7233SOL    HW233333   4.725   0.611   9.465  1.8520  2.3482  0.5433
 7234SOL     OW33334   2.203   1.766   3.234 -0.1619 -0.2100  0.3382
 7234SOL    HW133335   2.208   1.829   3.305 -0.2380 -0.6727  0.7539
 7234SOL    HW233336   2.296   1.765   3.209 -0.0796 -0.9309  0.6638
 7235SOL     OW33337   1.494   2.628   2.241 -0.0005 -0.9457 -0.2895
 7235SOL    HW133338   1.569   2.577   2.210  0.5252 -0.3895  0.0649
 7235SOL    HW233339   1.421   2.591   2.191 -1.8308  1.4795  0.5947
 7236SOL     OW33340   2.251   0.560   1.885 -0.1202 -0.1655  0.4768
 7236SOL    HW133341   2.301   0.519   1.955  0.5373  2.2904  1.4166
 7236SOL    HW233342   2.266   0.497   1.814  0.4416 -0.2094  0.6319
 7237SOL     OW33343   3.392   1.663   0.388  0.0951 -0.2064  0.1710
 7237SOL    HW133344   3.316   1.619   0.350  1.2661 -5.2858  3.8161
 7237SOL    HW233345   3.395   1.620   0.473  0.9529 -0.9423 -0.2354
 7238SOL     OW33346   1.880   1.786   4.588 -0.5067  0.3692 -0.4232
 7238SOL    HW133347   1.886   1.787   4.684  1.0836  0.3474 -0.5195
 7238SOL    HW233348   1.914   1.698   4.572 -0.3508 -0.1645  2.8549
 7239SOL     OW33349   3.004   0.694   4.916  0.0605 -0.0708 -0.1318
 7239SOL    HW133350   2.917   0.666   4.941 -0.7162  1.4625 -1.1129
 7239SOL    HW233351   3.014   0.765   4.979  0.3999  1.3395 -1.7778
 7240SOL     OW33352   1.299   1.212   0.600 -0.1608 -0.3152 -0.4609
 7240SOL    HW133353   1.351   1.286   0.570 -0.6127 -0.4906 -1.6724
 7240SOL    HW233354   1.324   1.153   0.529 -2.3935 -1.2087 -0.5049
 7241SOL     OW33355   1.781   0.761   4.350  0.1844  0.5657  0.6478
 7241SOL    HW133356   1.781   0.681   4.403 -2.3491 -1.1463 -1.8868
 7241SOL    HW233357   1.869   0.785   4.376  0.4446 -1.6820  1.8791
 7242SOL     OW33358   2.576   1.133   4.387 -0.1594  0.0410 -0.2304
 7242SOL    HW133359   2.486   1.155   4.362  0.8243  3.8755 -0.3192
 7242SOL    HW233360   2.614   1.220   4.385 -0.1379 -0.0140 -1.8434
 7243SOL     OW33361   3.079   3.406   7.591  0.4802  0.3889  0.2741
 7243SOL    HW133362   3.142   3.374   7.526  2.0726  1.4248  1.3251
 7243SOL    HW233363   3.077   3.499   7.572  2.4068  0.0486 -1.6015
 7244SOL     OW33364   2.002   4.691   5.401  0.3351 -0.2986  0.3447
 7244SOL    HW133365   2.047   4.714   5.483 -0.0923 -0.0056  0.4994
 7244SOL    HW233366   1.911   4.676   5.425  0.3391  0.2489  0.7096
 7245SOL     OW33367   1.048   4.566   1.837 -0.2804 -0.2119 -0.0324
 7245SOL    HW133368   1.079   4.555   1.927 -1.4333 -0.7219  0.3005
 7245SOL    HW233369   1.044   4.474   1.810 -0.0644 -0.7801  1.9125
 7246SOL     OW33370   4.291   0.606  10.833 -0.2424 -0.3193 -0.3465
 7246SOL    HW133371   4.285   0.592  10.739  1.4315 -1.1266 -0.3387
 7246SOL    HW233372   4.224   0.673  10.848  0.3572  0.0037  0.9268
 7247SOL     OW33373   3.364   2.225  11.942  0.8527  0.3366  0.5267
 7247SOL    HW133374   3.332   2.238  11.853  1.0975 -1.1155  0.2379
 7247SOL    HW233375   3.447   2.178  11.931  0.1104 -0.8295 -0.1238
 7248SOL     OW33376   0.815   3.762   8.053 -0.0969 -0.0043 -0.0527
 7248SOL    HW133377   0.760   3.839   8.066  0.5013 -0.1539  3.3107
 7248SOL    HW233378   0.863   3.804   7.981  0.5035  1.7314  1.3599
 7249SOL     OW33379   0.284   1.039   0.272 -0.3319  0.6393  0.1359
 7249SOL    HW133380   0.322   1.126   0.270 -2.1489  1.3825 -3.4338
 7249SOL    HW233381   0.230   1.051   0.350  0.4358 -0.9650  0.9255
 7250SOL     OW33382   3.793   0.917  17.137  0.3390  0.6747 -0.0141
 7250SOL    HW133383   3.792   0.921  17.232  1.2259 -1.5884  0.0779
 7250SOL    HW233384   3.704   0.890  17.115  0.8286  1.0115 -2.4679
 7251SOL     OW33385   1.015   4.663   3.308  0.0878 -0.0092 -0.2991
 7251SOL    HW133386   0.961   4.585   3.320 -0.0828 -0.0093 -1.0889
 7251SOL    HW233387   1.051   4.647   3.221  3.8171 -2.1315  1.6622
 7252SOL     OW33388   2.807   2.459   4.928 -0.1978 -0.5265  0.3955
 7252SOL    HW133389   2.753   2.486   4.853 -0.1387  1.6944  1.1311
 7252SOL    HW233390   2.766   2.376   4.951  0.8056 -2.0099 -3.2016
 7253SOL     OW33391   1.022   1.840   1.509  0.2858 -0.8737 -0.0016
 7253SOL    HW133392   1.009   1.745   1.515  0.2220 -0.7995  0.9769
 7253SOL    HW233393   1.100   1.850   1.564  1.0299 -0.3494 -1.1295
 7254SOL     OW33394   2.517   4.080  12.946  0.0050 -0.3443 -0.4855
 7254SOL    HW133395   2.495   4.172  12.933 -2.2695 -0.4758  2.7418
 7254SOL    HW233396   2.612   4.081  12.958 -0.0734 -0.1309  0.1372
 7255SOL     OW33397   3.175   1.879   5.168 -0.0708  0.2295  0.2102
 7255SOL    HW133398   3.171   1.960   5.118  0.6536  1.2626  1.8015
 7255SOL    HW233399   3.083   1.860   5.182  0.0269 -0.9413 -0.7718
 7256SOL     OW33400   2.541   2.306   3.279  0.3798 -0.0606 -0.3343
 7256SOL    HW133401   2.505   2.276   3.362 -1.7169  0.5628 -1.0189
 7256SOL    HW233402   2.572   2.221   3.247 -0.4600  0.2648 -1.9839
 7257SOL     OW33403   0.390   3.963   5.527 -0.4180 -0.2220  0.1033
 7257SOL    HW133404   0.343   4.047   5.530 -0.8143 -0.4586  0.4099
 7257SOL    HW233405   0.466   3.986   5.581 -0.2453  0.0363 -0.2467
 7258SOL     OW33406   2.295   1.532   1.779  0.2441  0.5570 -0.3075
 7258SOL    HW133407   2.390   1.542   1.786  0.0359  1.3660  1.4382
 7258SOL    HW233408   2.280   1.523   1.685  2.1179  0.8119 -0.6294
 7259SOL     OW33409   1.826   4.242   3.938  0.4029 -0.5180  0.3195
 7259SOL    HW133410   1.869   4.271   3.857  2.5946  0.2609  1.7662
 7259SOL    HW233411   1.755   4.185   3.909  0.6311 -0.8067  0.3232
 7260SOL     OW33412   4.423   4.293   7.265 -0.4671  0.5510  0.3513
 7260SOL    HW133413   4.332   4.267   7.282  0.7163 -1.9576  2.7256
 7260SOL    HW233414   4.459   4.216   7.220 -1.3137  0.2185  0.2375
 7261SOL     OW33415   1.783   4.158   3.320  0.1542  0.5798  0.3711
 7261SOL    HW133416   1.831   4.127   3.243 -1.8367 -0.4816 -0.4373
 7261SOL    HW233417   1.830   4.237   3.345 -1.2212  0.8955  1.9694
 7262SOL     OW33418   1.921   0.006   4.626  0.0582 -0.2101  0.1707
 7262SOL    HW133419   1.878   4.732   4.711 -2.5723 -1.0517 -1.2596
 7262SOL    HW233420   1.971   4.661   4.613 -0.6875 -0.5181 -0.7483
 7263SOL     OW33421   0.317   4.138   4.453 -0.2011 -0.0737  0.3265
 7263SOL    HW133422   0.384   4.156   4.388 -0.5309  0.9187  0.2608
 7263SOL    HW233423   0.265   4.218   4.446  0.5043  0.3504  0.0227
 7264SOL     OW33424   4.459   2.840  11.142  0.0317 -0.4938  0.3001
 7264SOL    HW133425   4.427   2.800  11.061 -1.3865  0.4117  0.4252
 7264SOL    HW233426   4.528   2.776  11.162 -1.5590 -2.4788 -0.6234
 7265SOL     OW33427   1.284   3.124   5.933 -0.0257  0.1265 -0.8439
 7265SOL    HW133428   1.306   3.056   5.869  0.4757 -2.1651  1.7511
 7265SOL    HW233429   1.189   3.122   5.943  0.0838 -0.1426  0.0852
 7266SOL     OW33430   4.401   0.476   4.627 -0.4969 -0.4415 -0.2843
 7266SOL    HW133431   4.392   0.552   4.684  0.1751  0.1602 -0.9945
 7266SOL    HW233432   4.314   0.451   4.594 -1.5050  0.4205  1.7081
 7267SOL     OW33433   4.515   2.801   7.762  1.0136  0.3935 -0.0244
 7267SOL    HW133434   4.434   2.752   7.775  1.2587  0.5314  2.0809
 7267SOL    HW233435   4.494   2.838   7.676  0.1937 -0.0608 -0.0172
 7268SOL     OW33436   0.067   0.386   1.967  0.4345  0.0891 -0.1539
 7268SOL    HW133437   0.140   0.326   1.983 -0.2339 -0.8992 -0.7483
 7268SOL    HW233438   0.006   0.321   1.933 -1.1981  0.9906  1.0637
 7269SOL     OW33439   1.929   2.645  17.205  0.0382  0.1957 -0.1902
 7269SOL    HW133440   1.929   2.630  17.111 -0.8584  0.4900 -0.2373
 7269SOL    HW233441   1.977   2.567  17.233  0.7505  1.0248  0.9079
 7270SOL     OW33442   0.744   3.014  17.397 -0.0930  1.3266 -0.3840
 7270SOL    HW133443   0.667   2.960  17.417  0.1017 -0.0028 -3.1940
 7270SOL    HW233444   0.718   3.061  17.317  0.1929  1.7269 -0.2401
 7271SOL     OW33445   2.011   0.018  10.877 -0.4594  0.0785  0.3148
 7271SOL    HW133446   2.009   0.040  10.784 -2.9596  0.8687  0.5456
 7271SOL    HW233447   2.102   0.024  10.904 -0.4514 -0.4862  0.4218
 7272SOL     OW33448   1.170   3.826   8.122 -0.2565  0.1556 -0.2380
 7272SOL    HW133449   1.108   3.826   8.195  0.8053  0.4463  0.6604
 7272SOL    HW233450   1.252   3.799   8.162  0.1539  0.0279 -1.1647
 7273SOL     OW33451   3.033   3.060   1.478  0.5597 -0.1546  0.0535
 7273SOL    HW133452   3.099   3.082   1.412  2.9472 -1.2788  2.0753
 7273SOL    HW233453   3.089   2.997   1.523  1.0712  0.1856 -0.1000
 7274SOL     OW33454   4.532   3.839  12.358  0.1523 -0.4602 -0.1644
 7274SOL    HW133455   4.470   3.802  12.421  0.0553  0.8404  0.4994
 7274SOL    HW233456   4.497   3.798  12.279  1.3234 -0.2230 -0.8121
 7275SOL     OW33457   0.993   2.759   8.823  0.1040 -0.0289 -0.4672
 7275SOL    HW133458   0.933   2.811   8.877  0.9790  0.1815  0.3093
 7275SOL    HW233459   0.962   2.779   8.735 -0.4307 -0.8377 -0.4726
 7276SOL     OW33460   1.772   0.732   6.676 -0.2957  0.3483 -0.6617
 7276SOL    HW133461   1.846   0.688   6.635  0.6385  1.2952  0.0166
 7276SOL    HW233462   1.813   0.809   6.715  0.9828  0.2142 -1.7338
 7277SOL     OW33463   2.782   0.866  16.092  0.5631  0.4283 -0.0159
 7277SOL    HW133464   2.708   0.819  16.054  1.7264 -0.4284 -1.2291
 7277SOL    HW233465   2.746   0.954  16.107  0.4314  0.2614  0.6391
 7278SOL     OW33466   2.500   0.351  15.369  0.7429  0.1658  0.3358
 7278SOL    HW133467   2.592   0.363  15.393  0.6412  1.5012  0.0867
 7278SOL    HW233468   2.472   0.309  15.450  2.7783 -0.5226  0.6780
 7279SOL     OW33469   1.265   0.633  10.566  0.2345  0.1684 -0.2205
 7279SOL    HW133470   1.276   0.724  10.595 -0.5088  0.5369 -1.1180
 7279SOL    HW233471   1.330   0.591  10.622 -0.4352  0.3845  0.7348
 7280SOL     OW33472   3.437   0.302   6.447 -0.3720 -0.0073  0.1286
 7280SOL    HW133473   3.510   0.240   6.444  0.4946  1.0085  0.1001
 7280SOL    HW233474   3.466   0.372   6.505  0.6387 -0.1796 -0.1733
 7281SOL     OW33475   1.951   2.525  12.000  0.0670 -0.5968 -0.6738
 7281SOL    HW133476   2.035   2.503  11.959  0.2534  0.9968 -1.1370
 7281SOL    HW233477   1.946   2.621  11.996  1.9892 -0.4000  1.7586
 7282SOL     OW33478   2.514   2.708   2.149  0.5164 -0.3824  0.1105
 7282SOL    HW133479   2.549   2.635   2.200 -1.1259 -2.9521 -2.4412
 7282SOL    HW233480   2.513   2.773   2.220  2.5114 -1.0768  0.7505
 7283SOL     OW33481   4.617   4.019  10.113  0.5540  0.9947 -0.2412
 7283SOL    HW133482   4.698   4.071  10.104  0.9344  0.5504  0.6757
 7283SOL    HW233483   4.629   3.940  10.060  1.1774  0.7439  0.2778
 7284SOL     OW33484   0.292   2.542   3.085  0.5051 -0.5487 -0.0400
 7284SOL    HW133485   0.247   2.483   3.025  0.6711  0.9055 -1.6028
 7284SOL    HW233486   0.293   2.621   3.032 -2.1310 -1.4321 -1.3684
 7285SOL     OW33487   4.388   2.531   2.626  0.0298 -0.3352  0.2695
 7285SOL    HW133488   4.317   2.481   2.667 -1.1370  1.1508  0.0756
 7285SOL    HW233489   4.390   2.609   2.683  1.7076  2.1258 -3.1591
 7286SOL     OW33490   1.988   1.868  10.428 -0.0948 -0.0407 -0.0434
 7286SOL    HW133491   2.044   1.920  10.485  1.3426 -2.1178  0.4598
 7286SOL    HW233492   2.056   1.835  10.369 -0.7048 -0.0891 -0.7212
 7287SOL     OW33493   2.687   4.514  13.988 -0.0781  0.0338  0.2907
 7287SOL    HW133494   2.770   4.562  13.989 -0.2406  0.3319 -0.2616
 7287SOL    HW233495   2.712   4.443  13.928 -2.5441 -0.1013 -0.5787
 7288SOL     OW33496   1.986   2.791   9.047  0.1636 -0.1016  0.9442
 7288SOL    HW133497   2.009   2.709   9.003 -0.3865  1.4809 -2.3235
 7288SOL    HW233498   1.894   2.764   9.055 -0.1346  0.6190 -0.0442
 7289SOL     OW33499   4.432   0.992  17.262  0.3305 -0.2404  0.0875
 7289SOL    HW133500   4.350   0.947  17.278 -0.5986  0.8979 -1.4697
 7289SOL    HW233501   4.434   1.052  17.336 -1.3597  0.6806 -0.6267
 7290SOL     OW33502   2.283   0.869  11.051  0.4016 -0.0682 -0.0037
 7290SOL    HW133503   2.278   0.925  11.128 -0.3442 -1.1601  0.7374
 7290SOL    HW233504   2.376   0.846  11.052  0.4837  0.0963 -2.2056
 7291SOL     OW33505   4.009   1.662  15.698  0.1735  0.6133  0.1813
 7291SOL    HW133506   4.064   1.740  15.704 -0.7537  1.1734  1.4443
 7291SOL    HW233507   3.925   1.705  15.715 -0.4301  0.2079 -1.7003
 7292SOL     OW33508   1.513   4.274   8.855  0.2962  0.2754 -0.1043
 7292SOL    HW133509   1.441   4.250   8.914 -0.6753 -0.1981 -1.4899
 7292SOL    HW233510   1.586   4.222   8.889 -0.2671 -1.1492 -1.0762
 7293SOL     OW33511   3.857   3.216   4.454 -0.2598  0.5343  0.2759
 7293SOL    HW133512   3.858   3.144   4.517  0.8460  0.1328 -0.2001
 7293SOL    HW233513   3.850   3.293   4.510  0.7789  1.7667 -1.3008
 7294SOL     OW33514   0.347   4.524   3.904  0.3361 -0.5938 -0.3180
 7294SOL    HW133515   0.360   4.446   3.849 -0.1584  0.1265 -1.4530
 7294SOL    HW233516   0.383   4.505   3.990  1.1405  1.0530 -0.2971
 7295SOL     OW33517   0.115   3.855   7.426  0.9600  0.0753  0.5148
 7295SOL    HW133518   0.169   3.926   7.391  1.7927 -0.9413 -0.2685
 7295SOL    HW233519   0.030   3.897   7.439  0.6840 -0.3428  0.0630
 7296SOL     OW33520   3.678   0.872   3.931  0.3974  0.0388  0.3418
 7296SOL    HW133521   3.765   0.835   3.949 -1.0034 -2.3937  2.0381
 7296SOL    HW233522   3.632   0.879   4.014  0.7183  0.5877  0.4713
 7297SOL     OW33523   0.954   1.110   0.061  0.2290  0.0152 -0.1269
 7297SOL    HW133524   1.020   1.152   0.005  0.0521  1.2963  0.6086
 7297SOL    HW233525   0.869   1.129   0.023  0.2797  0.2532 -0.1208
 7298SOL     OW33526   0.413   1.009   2.629  0.0893 -0.6295 -0.1838
 7298SOL    HW133527   0.400   1.097   2.665 -2.0188 -1.3256  0.7505
 7298SOL    HW233528   0.507   1.002   2.617  0.2469  2.7112 -0.8378
 7299SOL     OW33529   1.583   4.272   2.752 -0.1477 -0.6156  0.7085
 7299SOL    HW133530   1.655   4.249   2.693 -2.0591 -1.0452 -1.4285
 7299SOL    HW233531   1.542   4.348   2.711 -1.3497 -0.4529  2.2129
 7300SOL     OW33532   1.117   1.864   8.077  0.2071  0.0523 -0.1102
 7300SOL    HW133533   1.183   1.926   8.108  0.7050 -1.0819  1.0715
 7300SOL    HW233534   1.034   1.911   8.073 -0.0690 -0.4874 -0.7077
 7301SOL     OW33535   1.518   2.997   3.335 -0.0004  0.0434  0.3867
 7301SOL    HW133536   1.490   3.047   3.258  0.2771  0.0153  0.2667
 7301SOL    HW233537   1.518   3.065   3.401  0.3098  2.5357 -2.1965
 7302SOL     OW33538   2.529   1.344   9.153 -0.8606  0.0919  0.3151
 7302SOL    HW133539   2.490   1.431   9.141  1.6396  0.7868 -2.7810
 7302SOL    HW233540   2.530   1.326   9.059 -0.6554 -1.1012  0.5490
 7303SOL     OW33541   3.783   3.928   6.547 -0.1052 -0.1198 -0.2148
 7303SOL    HW133542   3.699   3.883   6.554  1.0043 -2.3698 -1.3079
 7303SOL    HW233543   3.802   3.957   6.636  2.6252 -1.7219 -0.2450
 7304SOL     OW33544   3.484   0.554   4.337 -0.1664 -0.4486 -0.0836
 7304SOL    HW133545   3.535   0.519   4.410  3.7848 -0.0006 -2.5926
 7304SOL    HW233546   3.393   0.536   4.359 -0.8139  3.1954  0.1906
 7305SOL     OW33547   1.651   2.565   8.487 -0.1107 -0.0646  0.2434
 7305SOL    HW133548   1.627   2.474   8.502  1.6549 -0.4296  0.7942
 7305SOL    HW233549   1.716   2.578   8.556  0.0243 -1.6359  0.3999
 7306SOL     OW33550   1.838   3.299   8.811  0.5174 -0.2190 -0.2416
 7306SOL    HW133551   1.851   3.205   8.806  2.4223  0.0123  0.2581
 7306SOL    HW233552   1.877   3.334   8.730  1.0098 -0.4928 -0.1224
 7307SOL     OW33553   1.315   3.148  13.254  0.2975  0.5671 -0.0896
 7307SOL    HW133554   1.256   3.147  13.178 -0.6685 -5.1911  0.7170
 7307SOL    HW233555   1.282   3.075  13.306 -1.4393 -0.8316 -3.1548
 7308SOL     OW33556   3.611   2.001   4.474  0.2775  0.0258 -0.3231
 7308SOL    HW133557   3.678   1.933   4.472 -0.4185 -0.5933 -2.7028
 7308SOL    HW233558   3.645   2.067   4.413  0.7006  0.8921  0.8308
 7309SOL     OW33559   1.716   1.972   1.919 -0.6980 -0.4600 -0.0995
 7309SOL    HW133560   1.696   1.968   2.012 -0.1319  2.3387  0.1355
 7309SOL    HW233561   1.697   1.881   1.894 -3.0777 -0.4986  1.9441
 7310SOL     OW33562   4.367   3.614   6.417  0.1959  0.6335 -0.0912
 7310SOL    HW133563   4.407   3.694   6.381  0.9554  0.5420  0.5454
 7310SOL    HW233564   4.290   3.659   6.450 -1.3089 -0.7500 -1.7285
 7311SOL     OW33565   4.173   2.787   8.051 -0.0665 -0.6563  0.6831
 7311SOL    HW133566   4.236   2.820   8.115  1.7883  1.1288 -2.0556
 7311SOL    HW233567   4.092   2.782   8.101  1.0512  1.6845  2.7029
 7312SOL     OW33568   0.603   0.589   6.969  0.2237  0.3679 -0.2969
 7312SOL    HW133569   0.542   0.544   6.911 -1.1238  0.8814  0.7231
 7312SOL    HW233570   0.553   0.635   7.037  1.9133  1.5691  0.1505
 7313SOL     OW33571   1.603   3.354   6.389 -0.5397 -0.5727  0.5821
 7313SOL    HW133572   1.628   3.343   6.297  1.3205  3.5451  0.5572
 7313SOL    HW233573   1.522   3.305   6.400 -0.5693 -0.3902  1.1666
 7314SOL     OW33574   4.683   1.178   9.244 -0.0010 -0.1895 -0.0722
 7314SOL    HW133575   4.725   1.163   9.328  0.2927 -1.7532 -0.5015
 7314SOL    HW233576   4.657   1.088   9.227  0.2258  0.3473 -3.4112
 7315SOL     OW33577   3.710   1.195   7.364  0.0264 -0.3446 -0.4264
 7315SOL    HW133578   3.666   1.228   7.285 -0.2196 -2.5078 -1.2003
 7315SOL    HW233579   3.774   1.266   7.372 -0.5492  0.3259 -1.7530
 7316SOL     OW33580   2.352   1.875   6.156 -0.0922 -0.3554 -0.5947
 7316SOL    HW133581   2.403   1.794   6.155  0.4605 -0.0166  0.2870
 7316SOL    HW233582   2.262   1.842   6.162 -0.4178  0.4357 -1.0776
 7317SOL     OW33583   2.401   0.451   7.618  0.3740  0.4555 -0.3226
 7317SOL    HW133584   2.487   0.485   7.641  1.3315  0.1196 -3.3980
 7317SOL    HW233585   2.392   0.392   7.692 -1.8966 -0.3338 -1.2273
 7318SOL     OW33586   0.055   1.839   8.799 -0.2676  0.4038  0.2017
 7318SOL    HW133587   4.712   1.800   8.838  0.2601 -1.5895 -0.7144
 7318SOL    HW233588   0.113   1.799   8.864  0.0182 -1.9875 -1.5262
 7319SOL     OW33589   2.017   0.222  13.904 -0.7627  0.7248  0.3433
 7319SOL    HW133590   2.054   0.136  13.885 -2.0112  0.0187  1.0844
 7319SOL    HW233591   2.077   0.281  13.858 -0.6426  0.3288 -0.0080
 7320SOL     OW33592   4.347   0.717   6.140 -0.3728 -0.0805 -0.0185
 7320SOL    HW133593   4.386   0.666   6.211  0.4050 -0.7329 -0.9136
 7320SOL    HW233594   4.345   0.800   6.188 -3.2290  0.0553 -0.3634
 7321SOL     OW33595   4.224   3.923  10.721  0.0317  0.6596  0.2047
 7321SOL    HW133596   4.261   3.984  10.784 -0.6877  1.1046  0.1942
 7321SOL    HW233597   4.151   3.966  10.676 -0.5001  0.4471  0.8745
 7322SOL     OW33598   0.421   4.709   6.171 -0.4291 -0.2838  0.6827
 7322SOL    HW133599   0.479   4.659   6.114  1.5344 -0.0639  2.5065
 7322SOL    HW233600   0.470   0.053   6.192  1.9750 -0.9313 -2.4799
 7323SOL     OW33601   0.344   1.497   4.682  0.0483 -0.3337  0.3270
 7323SOL    HW133602   0.259   1.458   4.666  0.8733 -0.8171 -2.9391
 7323SOL    HW233603   0.372   1.524   4.594 -0.9235  1.7071  0.6361
 7324SOL     OW33604   3.000   4.406  13.676  0.0844  0.2773  0.2461
 7324SOL    HW133605   2.989   4.468  13.604  1.2010  1.1731  0.8449
 7324SOL    HW233606   3.083   4.434  13.715 -0.1953  0.4356  0.7271
 7325SOL     OW33607   0.492   1.102   7.124  0.4931 -0.5105 -0.1929
 7325SOL    HW133608   0.466   1.183   7.167  1.0534 -0.4410  0.0139
 7325SOL    HW233609   0.408   1.059   7.113 -0.2816  1.2626 -1.1198
 7326SOL     OW33610   3.990   3.236   6.238 -0.8765  0.3718 -0.1854
 7326SOL    HW133611   3.977   3.290   6.160 -0.3429  0.3062 -0.3174
 7326SOL    HW233612   4.055   3.294   6.278 -0.7766  0.4076 -0.4026
 7327SOL     OW33613   2.150   2.093  16.962  0.5365  0.3636 -0.3996
 7327SOL    HW133614   2.168   2.081  16.868  1.6585  1.2107 -0.2950
 7327SOL    HW233615   2.055   2.102  16.953  0.2046 -1.5985  1.1794
 7328SOL     OW33616   4.613   2.314   7.577  0.2997 -0.1276 -0.1639
 7328SOL    HW133617   4.651   2.252   7.515  1.9023 -0.6635  1.3423
 7328SOL    HW233618   4.582   2.261   7.651 -2.5166  1.6080 -0.1056
 7329SOL     OW33619   4.050   4.053  10.042 -0.2485  0.9860 -0.7163
 7329SOL    HW133620   4.002   4.060  10.124  2.3850 -0.1010  0.9283
 7329SOL    HW233621   3.976   4.066   9.983 -1.2660  1.9134  0.7840
 7330SOL     OW33622   0.571   2.183  14.097  0.3597 -0.2130  0.8035
 7330SOL    HW133623   0.536   2.131  14.024  1.4821 -0.4039  0.4127
 7330SOL    HW233624   0.658   2.210  14.069  0.6860 -0.6895  1.3651
 7331SOL     OW33625   3.007   0.185   5.163  0.0149 -0.1010  0.0320
 7331SOL    HW133626   3.093   0.184   5.121 -0.8602  0.8252 -1.8216
 7331SOL    HW233627   2.975   0.267   5.125 -0.8139 -0.0340  0.8663
 7332SOL     OW33628   2.512   2.723   8.279 -0.3207  0.4427  0.2910
 7332SOL    HW133629   2.607   2.718   8.278 -0.3451 -0.1575  1.1730
 7332SOL    HW233630   2.499   2.638   8.236 -0.8740  0.4254  0.4846
 7333SOL     OW33631   1.468   1.196   5.061  0.3090 -0.5603  0.0574
 7333SOL    HW133632   1.421   1.138   5.120 -0.7947 -0.2482 -0.5263
 7333SOL    HW233633   1.518   1.133   5.010 -1.6120 -1.9435 -0.0919
 7334SOL     OW33634   0.490   4.393   9.151 -0.8097  0.6735 -0.1539
 7334SOL    HW133635   0.543   4.334   9.097 -1.0169 -0.1142  0.4897
 7334SOL    HW233636   0.548   4.468   9.162  1.4621 -1.1184  0.2244
 7335SOL     OW33637   0.543   4.140   6.780 -0.1915  0.3402 -0.2908
 7335SOL    HW133638   0.584   4.131   6.695 -1.7757 -0.4586 -0.9739
 7335SOL    HW233639   0.466   4.191   6.753  0.7840  1.6561 -0.5504
 7336SOL     OW33640   0.642   4.205   7.885  0.0672 -0.4253  0.0161
 7336SOL    HW133641   0.713   4.215   7.948  0.5623  0.4313 -0.6936
 7336SOL    HW233642   0.576   4.191   7.953 -0.6140 -2.8146 -1.1113
 7337SOL     OW33643   3.198   4.649   8.476 -0.0667  0.5150  0.8180
 7337SOL    HW133644   3.210   4.680   8.566 -0.8083  0.6281  0.8795
 7337SOL    HW233645   3.275   4.679   8.428  0.4880  0.5992  1.7685
 7338SOL     OW33646   2.608   4.065   7.934  0.5619 -0.6489 -0.0030
 7338SOL    HW133647   2.663   4.097   7.863 -1.0737 -0.4818 -1.1868
 7338SOL    HW233648   2.522   4.079   7.895 -0.2342 -1.5089  1.4266
 7339SOL     OW33649   2.468   3.173   8.649  0.0384  0.1296  0.6703
 7339SOL    HW133650   2.537   3.168   8.716  0.5049 -2.7649 -0.0236
 7339SOL    HW233651   2.509   3.134   8.572 -1.1850  0.1644  0.0144
 7340SOL     OW33652   4.255   0.495  15.877  0.0015 -0.0170  0.1001
 7340SOL    HW133653   4.262   0.436  15.802  1.7036 -0.3019  0.4717
 7340SOL    HW233654   4.345   0.482  15.908  0.4668  2.9444 -0.0420
 7341SOL     OW33655   3.734   3.714  10.348 -0.2856  0.6563  0.0792
 7341SOL    HW133656   3.792   3.673  10.413  0.0954  0.2282 -0.5265
 7341SOL    HW233657   3.667   3.753  10.404  0.6974  0.9483  1.0721
 7342SOL     OW33658   2.936   1.462   2.194 -0.1261 -0.1700  0.0090
 7342SOL    HW133659   2.923   1.413   2.275  1.0320 -0.6678 -0.0983
 7342SOL    HW233660   2.854   1.445   2.148  0.7552 -2.4285 -0.7357
 7343SOL     OW33661   0.249   1.548   5.553  0.0409  0.2413 -0.3482
 7343SOL    HW133662   0.330   1.532   5.505 -0.2711 -0.8297 -0.5270
 7343SOL    HW233663   0.277   1.577   5.639 -3.2425 -1.2410  1.2030
 7344SOL     OW33664   0.740   4.142   1.460  0.3809 -0.0164  0.2252
 7344SOL    HW133665   0.816   4.091   1.489  1.6954  1.9232  0.1584
 7344SOL    HW233666   0.694   4.072   1.413  0.3677 -0.5048  0.9755
 7345SOL     OW33667   4.370   3.533   8.614 -0.3633  0.1746 -0.3047
 7345SOL    HW133668   4.346   3.625   8.631 -0.6382 -0.1572  1.1814
 7345SOL    HW233669   4.419   3.513   8.694 -1.8963  1.3607  0.9416
 7346SOL     OW33670   1.237   0.474  15.292 -0.7542 -0.3478  0.2636
 7346SOL    HW133671   1.157   0.499  15.339 -2.5612 -1.2890 -2.2729
 7346SOL    HW233672   1.238   0.544  15.226  2.2783  2.2331  3.0516
 7347SOL     OW33673   2.123   0.127  11.214 -0.5343  0.2951  0.1713
 7347SOL    HW133674   2.054   0.073  11.176  1.6510 -0.8669 -2.2138
 7347SOL    HW233675   2.108   0.114  11.307 -0.1295 -2.0322 -0.0961
 7348SOL     OW33676   2.467   1.460  10.076 -0.2675  0.4785  0.0361
 7348SOL    HW133677   2.412   1.499  10.144  0.2290 -0.2253  0.8376
 7348SOL    HW233678   2.406   1.387  10.062 -0.1007 -0.0564  2.1804
 7349SOL     OW33679   1.774   1.155   9.051 -0.3585 -0.3899 -0.1968
 7349SOL    HW133680   1.800   1.186   9.138 -3.5189  0.5097  0.4620
 7349SOL    HW233681   1.856   1.120   9.017 -0.7837  0.1640 -1.7732
 7350SOL     OW33682   0.993   0.765  10.995 -0.1235  0.1429 -0.2939
 7350SOL    HW133683   1.061   0.704  10.966  0.2124  0.3766  0.0011
 7350SOL    HW233684   0.918   0.734  10.944 -1.4887  2.3161  0.4112
 7351SOL     OW33685   2.252   1.220   0.424 -0.9101  0.0557  0.4781
 7351SOL    HW133686   2.243   1.244   0.332  1.0040 -0.0910  0.2669
 7351SOL    HW233687   2.345   1.239   0.439 -0.5859 -0.0445 -1.4840
 7352SOL     OW33688   2.400   1.589   9.125  0.0844 -0.3375  0.3350
 7352SOL    HW133689   2.306   1.588   9.141  0.0619 -0.5450  0.1762
 7352SOL    HW233690   2.413   1.680   9.096  0.6831 -0.6358 -0.3337
 7353SOL     OW33691   3.032   4.673   5.736  0.6662  0.4880  0.5367
 7353SOL    HW133692   2.958   4.632   5.692  1.6095  0.2454 -0.8490
 7353SOL    HW233693   3.020   0.028   5.705  2.0462  0.6011  0.3342
 7354SOL     OW33694   3.710   0.056   9.716  0.0785  0.2901 -0.2909
 7354SOL    HW133695   3.732   0.019   9.802 -2.2837  0.9715  0.6114
 7354SOL    HW233696   3.726   0.149   9.735  0.0656  0.0087  1.1466
 7355SOL     OW33697   1.273   1.523   1.659  0.4993  0.7728  0.9092
 7355SOL    HW133698   1.250   1.471   1.736  0.4727  0.6913  0.8466
 7355SOL    HW233699   1.318   1.458   1.605  0.7178  1.5692  0.1245
 7356SOL     OW33700   4.170   1.648   8.372 -0.3464 -0.3759  0.2699
 7356SOL    HW133701   4.150   1.725   8.319 -2.4298 -1.1305 -0.0061
 7356SOL    HW233702   4.265   1.651   8.364 -0.4127  1.0337 -0.0323
 7357SOL     OW33703   4.211   0.180   5.164 -0.0229 -0.0625  0.2325
 7357SOL    HW133704   4.214   0.114   5.233  0.4228  0.4390  0.6861
 7357SOL    HW233705   4.207   0.133   5.081 -2.1324 -0.9524  0.8169
 7358SOL     OW33706   0.025   4.655   6.037  0.2878  0.3755  0.3051
 7358SOL    HW133707   4.713   4.697   5.965  0.6205  0.2043 -0.0181
 7358SOL    HW233708   4.722   4.567   6.036 -0.2094  0.5774  2.6351
 7359SOL     OW33709   2.908   3.123  13.216  0.5470  0.5228  0.4403
 7359SOL    HW133710   2.888   3.214  13.194  0.8378  0.2172 -1.1300
 7359SOL    HW233711   2.819   3.100  13.242  0.2817 -0.3480 -1.1976
 7360SOL     OW33712   4.474   4.734   9.021  0.2471 -0.0368  0.1948
 7360SOL    HW133713   4.389   0.014   9.063 -0.1578  0.4109 -0.7807
 7360SOL    HW233714   4.450   4.649   8.984  2.0908 -0.4368 -0.0611
 7361SOL     OW33715   1.697   2.570   4.976 -0.2095 -0.0731  0.9080
 7361SOL    HW133716   1.706   2.574   4.881 -2.8474  1.9263  0.7500
 7361SOL    HW233717   1.605   2.596   4.977  0.2252  1.5022 -1.0569
 7362SOL     OW33718   2.809   3.610   5.526  0.4761 -0.3413  0.2098
 7362SOL    HW133719   2.785   3.520   5.546 -0.6749 -0.2255 -0.6738
 7362SOL    HW233720   2.827   3.655   5.609  0.1863 -0.7657  0.4988
 7363SOL     OW33721   2.372   3.176   8.251 -0.4579  0.2010  0.4641
 7363SOL    HW133722   2.357   3.263   8.214  2.7626  0.7722  0.5034
 7363SOL    HW233723   2.325   3.123   8.186  0.9355  1.2340 -1.3844
 7364SOL     OW33724   3.958   0.211   8.793 -0.2240  0.1993 -0.0181
 7364SOL    HW133725   3.932   0.159   8.869 -1.4131 -0.6911 -1.0352
 7364SOL    HW233726   3.945   0.150   8.721 -1.2548  1.0824 -0.5696
 7365SOL     OW33727   4.213   2.359   7.951 -0.1288 -0.0062  0.2124
 7365SOL    HW133728   4.255   2.371   7.866  1.5871  1.6846  1.3225
 7365SOL    HW233729   4.125   2.391   7.930 -0.6954 -1.7089 -0.0514
 7366SOL     OW33730   2.519   1.867   9.053 -0.6909 -0.0142  0.0138
 7366SOL    HW133731   2.452   1.882   9.120 -0.1776 -0.3781  0.5992
 7366SOL    HW233732   2.547   1.959   9.051 -1.1704  0.1422  0.3213
 7367SOL     OW33733   0.620   0.985   7.548 -0.2519 -0.1557 -0.3809
 7367SOL    HW133734   0.599   0.977   7.456 -4.2831 -0.8476  0.6172
 7367SOL    HW233735   0.712   1.007   7.532  0.1896 -0.1150  2.1079
 7368SOL     OW33736   3.689   3.297   7.959  0.2987  0.1705  0.2100
 7368SOL    HW133737   3.778   3.279   7.990  1.1875 -1.8485 -3.5532
 7368SOL    HW233738   3.688   3.392   7.947  2.1180 -0.0212 -1.4950
 7369SOL     OW33739   1.323   0.050   5.198 -0.1014 -0.8974  0.3790
 7369SOL    HW133740   1.264   0.115   5.234 -1.5530 -2.5709  1.0193
 7369SOL    HW233741   1.276   0.025   5.119 -1.6886  2.1299  0.3667
 7370SOL     OW33742   2.953   3.514   6.990 -0.4589 -0.4392  0.3606
 7370SOL    HW133743   2.873   3.467   7.014 -1.4561  0.4169 -1.2167
 7370SOL    HW233744   2.986   3.452   6.925 -0.1079 -1.3560  1.4206
 7371SOL     OW33745   4.346   0.558   1.649 -0.1624 -0.5891  0.2070
 7371SOL    HW133746   4.270   0.559   1.590  1.3719  2.1728 -1.7233
 7371SOL    HW233747   4.360   0.651   1.663 -0.3975 -0.4716 -0.3403
 7372SOL     OW33748   3.204   2.176   3.187 -0.4701 -0.1635  0.0834
 7372SOL    HW133749   3.270   2.124   3.142  0.6260  1.1616  0.1853
 7372SOL    HW233750   3.207   2.248   3.124  0.0689  1.5076  2.0060
 7373SOL     OW33751   3.436   2.447   0.456 -0.2026 -1.1446 -0.5413
 7373SOL    HW133752   3.380   2.375   0.484 -2.9062  0.4591 -1.8368
 7373SOL    HW233753   3.392   2.526   0.486  0.3116 -0.4198 -1.6994
 7374SOL     OW33754   1.061   4.361   4.397  0.0924  0.5435 -0.2769
 7374SOL    HW133755   1.107   4.278   4.381 -1.0688  0.0011 -0.8362
 7374SOL    HW233756   1.127   4.418   4.357 -1.6747  2.6558 -0.1740
 7375SOL     OW33757   3.599   0.868   5.753 -0.5516 -0.5733 -0.2397
 7375SOL    HW133758   3.665   0.906   5.695  1.6005 -0.9503  1.9340
 7375SOL    HW233759   3.634   0.892   5.839 -0.5432 -0.9960 -0.1232
 7376SOL     OW33760   4.525   4.235   2.686 -0.0838 -0.2748 -0.0184
 7376SOL    HW133761   4.616   4.240   2.657  0.5157 -1.3572  1.6962
 7376SOL    HW233762   4.487   4.301   2.628 -1.3723 -0.4235  0.6555
 7377SOL     OW33763   2.507   3.836   9.371  0.0406  0.6480 -0.7600
 7377SOL    HW133764   2.536   3.770   9.433 -3.0070 -3.0896 -3.3331
 7377SOL    HW233765   2.433   3.877   9.417  0.2258 -0.5410  0.5717
 7378SOL     OW33766   1.148   0.602   9.589 -0.1131  0.4020  0.1554
 7378SOL    HW133767   1.087   0.639   9.652 -0.4517  0.5033 -0.2284
 7378SOL    HW233768   1.204   0.564   9.657 -3.6991 -2.2895  1.5780
 7379SOL     OW33769   3.532   4.445   4.216  0.1139  0.0032 -0.1187
 7379SOL    HW133770   3.523   4.393   4.296  0.8930  0.0074 -0.0239
 7379SOL    HW233771   3.509   4.537   4.229 -0.1124 -0.1947  0.8785
 7380SOL     OW33772   0.030   4.698   0.504 -0.1179  0.1546  0.0104
 7380SOL    HW133773   0.066   4.633   0.564  0.8504  1.1502  0.4915
 7380SOL    HW233774   4.677   4.660   0.513  0.6018 -1.3142  0.9238
 7381SOL     OW33775   3.582   1.023   0.377  0.5567 -0.1590 -0.2205
 7381SOL    HW133776   3.641   1.070   0.436  1.0691 -1.9018  0.6593
 7381SOL    HW233777   3.660   0.997   0.327  1.4392  0.4379  0.8415
 7382SOL     OW33778   2.866   2.853  15.962 -0.3392 -0.2233 -0.3196
 7382SOL    HW133779   2.907   2.847  15.876  0.2019  1.0032 -0.1431
 7382SOL    HW233780   2.871   2.947  15.979  2.1712 -0.6258  1.3399
 7383SOL     OW33781   4.506   0.232   1.913  0.9187 -0.2382  0.4588
 7383SOL    HW133782   4.438   0.284   1.872  2.0349  2.7630  2.4776
 7383SOL    HW233783   4.559   0.219   1.834 -0.0316  0.3071 -0.2659
 7384SOL     OW33784   4.546   0.150   7.656 -0.1227  0.2618  0.1420
 7384SOL    HW133785   4.640   0.169   7.654  0.0592 -0.4962  1.5613
 7384SOL    HW233786   4.532   0.138   7.750  0.7698  0.2769  0.2745
 7385SOL     OW33787   2.762   0.756  14.015  0.2660  0.0152  0.1113
 7385SOL    HW133788   2.825   0.827  14.021  1.3178 -0.9644  0.4960
 7385SOL    HW233789   2.676   0.799  14.021  1.6998  2.8728 -0.0128
 7386SOL     OW33790   3.412   2.878   6.840 -0.2644  0.4781 -0.5616
 7386SOL    HW133791   3.472   2.840   6.776 -0.8719  1.8926 -1.9716
 7386SOL    HW233792   3.382   2.959   6.799  0.2671  0.5413 -0.8294
 7387SOL     OW33793   1.947   4.652   4.359 -0.4267 -0.0411  0.7235
 7387SOL    HW133794   2.003   4.620   4.289  0.9799 -0.5839  2.0783
 7387SOL    HW233795   2.003   4.616   4.429  1.1272 -0.1407 -0.5753
 7388SOL     OW33796   3.267   2.419   4.650  0.4318 -0.6643 -0.4623
 7388SOL    HW133797   3.264   2.514   4.648  0.4344 -0.6588 -0.0405
 7388SOL    HW233798   3.266   2.406   4.555  2.0146 -0.1762 -0.5397
 7389SOL     OW33799   1.291   4.163   5.844 -0.6421 -0.4578  0.4128
 7389SOL    HW133800   1.367   4.216   5.819 -1.6011  0.4382 -0.6739
 7389SOL    HW233801   1.338   4.097   5.894  0.6052  0.5321  0.5418
 7390SOL     OW33802   3.525   1.511   3.005 -0.4264 -0.0591  0.4314
 7390SOL    HW133803   3.459   1.564   2.959  0.7911  0.5050 -0.6455
 7390SOL    HW233804   3.490   1.423   2.989 -1.2889 -0.2255  3.2456
 7391SOL     OW33805   0.959   3.559   7.697 -0.1280 -0.0331 -0.3988
 7391SOL    HW133806   0.938   3.621   7.627  0.7072  2.3473  1.4793
 7391SOL    HW233807   1.007   3.613   7.759 -0.9079  0.4978 -0.2539
 7392SOL     OW33808   4.669   3.814  14.295  0.4975 -0.1653  1.0238
 7392SOL    HW133809   4.727   3.877  14.339 -1.0529  1.0676  1.3353
 7392SOL    HW233810   4.590   3.867  14.282  1.3558  1.0229  0.6465
 7393SOL     OW33811   2.463   1.351   7.581  0.3093  0.3312 -0.0006
 7393SOL    HW133812   2.459   1.421   7.646  0.2299  1.0993 -0.8203
 7393SOL    HW233813   2.370   1.335   7.565  0.6429 -1.9081  0.4097
 7394SOL     OW33814   4.364   2.273   1.106  0.1266  0.1324 -0.3448
 7394SOL    HW133815   4.269   2.278   1.096  0.4260  0.7994 -2.9137
 7394SOL    HW233816   4.395   2.249   1.018  0.6102 -0.4155 -0.0222
 7395SOL     OW33817   1.293   2.405  14.418  0.0830  0.6700  0.2463
 7395SOL    HW133818   1.223   2.469  14.401 -1.3172 -1.1205 -0.7145
 7395SOL    HW233819   1.237   2.328  14.422  1.4990 -0.3772 -0.1462
 7396SOL     OW33820   2.722   2.927  10.516 -0.6398 -0.0935  0.1650
 7396SOL    HW133821   2.699   2.848  10.469 -0.6245 -0.8832  1.4735
 7396SOL    HW233822   2.638   2.967  10.538  0.2019  1.8635 -0.1545
 7397SOL     OW33823   4.309   4.288   3.298 -0.0419 -0.4017  0.0601
 7397SOL    HW133824   4.229   4.276   3.245 -0.0874 -0.5356  0.1579
 7397SOL    HW233825   4.380   4.263   3.239 -1.2182 -2.1355 -0.6061
 7398SOL     OW33826   1.704   2.809   8.397 -0.3656  0.0210  0.1145
 7398SOL    HW133827   1.687   2.717   8.418  3.1577 -0.4406  0.8965
 7398SOL    HW233828   1.632   2.824   8.336 -0.9520 -1.3872  0.4573
 7399SOL     OW33829   1.298   3.282   0.175 -0.0551  0.5429 -0.1627
 7399SOL    HW133830   1.379   3.291   0.225 -0.4235  2.1199  0.1243
 7399SOL    HW233831   1.281   3.188   0.179 -1.0078  0.7444  0.3608
 7400SOL     OW33832   1.205   4.543   6.542  0.1852  0.9777 -0.2344
 7400SOL    HW133833   1.118   4.582   6.534 -1.1945 -2.0016  0.5425
 7400SOL    HW233834   1.256   4.599   6.601  0.7808 -1.3894  1.4662
 7401SOL     OW33835   1.020   2.411   9.475  0.8446  0.0711  0.4359
 7401SOL    HW133836   1.100   2.463   9.481 -2.0112  4.4941 -0.6888
 7401SOL    HW233837   1.057   2.335   9.429  1.1677  0.8506 -0.5904
 7402SOL     OW33838   4.047   1.124   1.907  0.4880 -0.4597 -0.1279
 7402SOL    HW133839   3.969   1.068   1.911  0.5153 -0.4466  0.4534
 7402SOL    HW233840   4.121   1.064   1.905  1.6391  0.9014  2.2900
 7403SOL     OW33841   2.540   0.580   3.678  0.0258  0.3717  0.1812
 7403SOL    HW133842   2.449   0.568   3.703  0.7095 -1.7038  1.6769
 7403SOL    HW233843   2.581   0.525   3.744  1.3145  1.6280  0.4427
 7404SOL     OW33844   1.286   3.849   5.662 -0.2010 -0.3125 -0.0729
 7404SOL    HW133845   1.295   3.804   5.578  0.6251 -2.4979  1.1971
 7404SOL    HW233846   1.199   3.818   5.685 -1.5529  1.3691 -2.9138
 7405SOL     OW33847   0.612   1.638  10.661 -0.4121  0.4736  0.0388
 7405SOL    HW133848   0.526   1.677  10.650 -1.6453 -1.4737  2.8018
 7405SOL    HW233849   0.588   1.547  10.675 -0.2828  0.0591 -2.4696
 7406SOL     OW33850   1.381   2.212   3.260  0.2829  0.1686 -0.1604
 7406SOL    HW133851   1.328   2.283   3.225 -0.8235 -0.3342  0.5030
 7406SOL    HW233852   1.369   2.137   3.202 -2.3719  0.4204  0.0693
 7407SOL     OW33853   3.058   1.383  14.552  0.0884 -0.2915 -0.0169
 7407SOL    HW133854   2.984   1.440  14.573  0.0499  0.1900 -1.4680
 7407SOL    HW233855   3.043   1.383  14.457  1.0582  2.4517 -0.1719
 7408SOL     OW33856   0.506   2.598   7.052  0.0316  0.6640 -0.3967
 7408SOL    HW133857   0.588   2.641   7.075 -0.6012  2.2239 -1.0319
 7408SOL    HW233858   0.492   2.533   7.121  3.2740 -0.4006 -0.7745
 7409SOL     OW33859   1.485   2.796   8.234  0.5001  0.0444 -0.0922
 7409SOL    HW133860   1.397   2.807   8.197 -0.1569 -0.8536  1.1964
 7409SOL    HW233861   1.519   2.753   8.156  0.6211  0.5752 -0.3309
 7410SOL     OW33862   2.867   0.762  13.741  0.0086 -0.1267 -0.1111
 7410SOL    HW133863   2.931   0.702  13.778  1.3583  1.7426  0.5375
 7410SOL    HW233864   2.828   0.792  13.823  2.3455  1.1440  0.5130
 7411SOL     OW33865   3.559   0.436   4.563  0.0838  0.2893 -0.0810
 7411SOL    HW133866   3.566   0.363   4.626  2.4620  0.6506  0.0655
 7411SOL    HW233867   3.512   0.495   4.622 -1.6686 -1.7572  0.5893
 7412SOL     OW33868   0.357   0.216   5.087 -0.0703 -0.0910 -0.0847
 7412SOL    HW133869   0.354   0.298   5.038 -3.9633  0.2105  0.6733
 7412SOL    HW233870   0.449   0.190   5.090  0.5030  2.0154  0.3611
 7413SOL     OW33871   0.725   4.178   7.356  0.1843  0.1551  0.2725
 7413SOL    HW133872   0.815   4.155   7.378 -0.3873 -2.6852 -0.4252
 7413SOL    HW233873   0.736   4.262   7.312 -1.3197  0.1129 -0.1729
 7414SOL     OW33874   1.362   4.360   7.171 -0.1692  0.1919 -0.3275
 7414SOL    HW133875   1.393   4.448   7.191  1.5346  0.1164 -2.5633
 7414SOL    HW233876   1.378   4.329   7.260  0.2000 -2.7667 -1.4286
 7415SOL     OW33877   2.999   3.094   1.782  0.2882 -0.3798 -0.0500
 7415SOL    HW133878   2.983   3.099   1.688 -1.6111  0.4560  0.3188
 7415SOL    HW233879   3.093   3.079   1.775 -0.1724 -1.9953 -2.5460
 7416SOL     OW33880   4.642   4.539   3.346  0.0746 -0.2178  0.4240
 7416SOL    HW133881   4.702   4.520   3.418  2.0147  1.1940 -0.8413
 7416SOL    HW233882   4.664   4.464   3.290  0.7362  0.1184  0.2430
 7417SOL     OW33883   4.173   3.736   6.545  0.0396 -0.5658  0.5227
 7417SOL    HW133884   4.129   3.708   6.626 -0.3940  0.7906  0.7541
 7417SOL    HW233885   4.094   3.721   6.494  1.9344  0.5971 -2.7007
 7418SOL     OW33886   3.825   3.908   1.158  0.3078 -0.2345 -0.5375
 7418SOL    HW133887   3.911   3.935   1.126  1.4134 -2.1359  0.9084
 7418SOL    HW233888   3.818   3.966   1.234  2.7846  0.3623 -0.7784
 7419SOL     OW33889   0.310   1.819  13.147  0.3142  0.0756 -0.1607
 7419SOL    HW133890   0.218   1.790  13.153 -0.0797  1.7691  2.0155
 7419SOL    HW233891   0.354   1.734  13.137  2.1177  1.2386 -1.9502
 7420SOL     OW33892   3.641   2.348   0.764  0.7790  0.2050  0.2774
 7420SOL    HW133893   3.646   2.300   0.682 -1.0394 -0.1523  0.3772
 7420SOL    HW233894   3.603   2.430   0.732  0.3512  0.6673  1.9645
 7421SOL     OW33895   1.395   4.717   1.256  0.5116  0.5091  0.2985
 7421SOL    HW133896   1.328   0.032   1.209 -0.6926 -1.2758  0.1013
 7421SOL    HW233897   1.393   4.632   1.211  1.8881  0.0286  1.1537
 7422SOL     OW33898   0.681   0.122   5.088 -0.1622 -0.2115 -0.9832
 7422SOL    HW133899   0.761   0.174   5.082  0.4804 -1.0700  0.0432
 7422SOL    HW233900   0.662   0.150   5.177  0.0412 -0.4560 -0.8632
 7423SOL     OW33901   3.272   4.242   3.443 -0.2272  0.1927 -0.4675
 7423SOL    HW133902   3.246   4.154   3.415  0.7137 -0.3565  0.3770
 7423SOL    HW233903   3.310   4.234   3.531  0.2445 -1.5740 -0.8286
 7424SOL     OW33904   1.661   4.476   6.573  0.0794 -0.2448  0.0220
 7424SOL    HW133905   1.695   4.556   6.532  1.1852 -0.3178  0.7919
 7424SOL    HW233906   1.726   4.418   6.533  3.0931  2.7887  0.5033
 7425SOL     OW33907   1.008   0.827   7.568 -0.7665 -0.2290 -0.1717
 7425SOL    HW133908   0.975   0.876   7.643 -2.5212  1.5317 -2.0941
 7425SOL    HW233909   1.037   0.747   7.612 -2.9927 -1.2559 -0.5774
 7426SOL     OW33910   2.334   2.323   3.703  0.1685  0.5025 -0.0286
 7426SOL    HW133911   2.372   2.398   3.658 -1.5942  1.1637 -0.3826
 7426SOL    HW233912   2.249   2.361   3.725 -0.0991  0.1654 -0.4769
 7427SOL     OW33913   4.675   1.372   1.602 -0.5966 -0.2006  0.0471
 7427SOL    HW133914   0.007   1.403   1.663  0.0523  0.9562 -1.2419
 7427SOL    HW233915   4.694   1.278   1.603  2.4964  0.3976 -0.4210
 7428SOL     OW33916   1.387   4.512   4.598 -0.0515 -0.5804  0.1032
 7428SOL    HW133917   1.481   4.516   4.617 -0.2180 -0.0071  0.7905
 7428SOL    HW233918   1.376   4.417   4.606 -1.9178 -0.2512  1.5501
 7429SOL     OW33919   1.856   1.702   7.893  0.4584 -0.2667 -0.6941
 7429SOL    HW133920   1.802   1.773   7.928  0.3231 -1.7678  2.1638
 7429SOL    HW233921   1.898   1.741   7.816 -2.3789  1.6260 -1.3064
 7430SOL     OW33922   0.730   0.073   2.016 -0.6674  0.4805 -0.4523
 7430SOL    HW133923   0.825   0.069   2.008 -0.7302  0.6562 -1.2344
 7430SOL    HW233924   0.700   0.055   1.927  0.1066 -2.1560 -0.1718
 7431SOL     OW33925   3.363   2.543   3.719 -0.3499  0.3032  0.1732
 7431SOL    HW133926   3.380   2.501   3.635  1.1849  0.9113  0.1872
 7431SOL    HW233927   3.433   2.606   3.732 -0.1885 -0.0273  0.9629
 7432SOL     OW33928   1.021   1.596   9.342  0.2156  0.5939 -0.5299
 7432SOL    HW133929   1.016   1.613   9.436 -0.3080  1.4844 -0.7252
 7432SOL    HW233930   0.990   1.671   9.293 -1.2346  0.7641  0.6558
 7433SOL     OW33931   0.397   2.575   2.674  0.4030  0.4897  0.4601
 7433SOL    HW133932   0.413   2.499   2.730 -0.7694 -0.8685 -1.0711
 7433SOL    HW233933   0.319   2.549   2.625  1.5396  1.2266 -1.7479
 7434SOL     OW33934   0.606   3.681   9.951  0.4427 -0.0693 -0.2393
 7434SOL    HW133935   0.617   3.771   9.920 -0.8335  0.4832  0.8933
 7434SOL    HW233936   0.685   3.637   9.919  0.8280  1.0126 -0.7823
 7435SOL     OW33937   4.181   0.612   5.253  0.4754 -0.5847  0.3707
 7435SOL    HW133938   4.146   0.555   5.321 -0.6052 -1.4404 -0.8985
 7435SOL    HW233939   4.239   0.555   5.201  1.7184  0.5661  0.4878
 7436SOL     OW33940   1.865   3.800   5.374 -0.9327  0.5494  0.3980
 7436SOL    HW133941   1.911   3.865   5.321 -0.9939  0.2784  0.0157
 7436SOL    HW233942   1.934   3.735   5.381  0.8812  2.6044  1.6036
 7437SOL     OW33943   2.256   4.449   8.665  0.3332 -0.3893  0.0373
 7437SOL    HW133944   2.168   4.440   8.703 -0.7946  1.1886 -2.1811
 7437SOL    HW233945   2.303   4.452   8.748  1.4350  2.0280 -0.6917
 7438SOL     OW33946   3.731   2.328   6.081 -0.0182 -0.8307 -0.1688
 7438SOL    HW133947   3.809   2.380   6.063 -0.0731  0.7163  4.0019
 7438SOL    HW233948   3.728   2.263   6.011 -1.3453 -0.2663 -0.6356
 7439SOL     OW33949   3.091   0.427   9.113 -0.0010  0.0295 -0.1458
 7439SOL    HW133950   3.092   0.357   9.178 -1.6021  1.1352  1.0715
 7439SOL    HW233951   3.026   0.397   9.051  1.2590  0.3456 -1.6220
 7440SOL     OW33952   0.367   4.540   6.952  0.2801  0.0700  0.4179
 7440SOL    HW133953   0.391   4.546   6.860  1.6126 -0.2662  0.7447
 7440SOL    HW233954   0.448   4.523   7.000 -0.6508  0.4333  2.1022
 7441SOL     OW33955   3.149   3.028   2.429  0.3650 -0.0539  0.0621
 7441SOL    HW133956   3.205   2.979   2.489  1.1665  0.6719 -0.1036
 7441SOL    HW233957   3.161   3.121   2.451 -1.7893  0.4528 -0.8562
 7442SOL     OW33958   0.552   1.787   2.038 -0.3293 -0.6985 -0.2151
 7442SOL    HW133959   0.484   1.853   2.021 -0.2123 -0.9705 -1.7251
 7442SOL    HW233960   0.552   1.764   2.131 -1.2930  0.1794  0.0004
 7443SOL     OW33961   4.589   2.980  10.936  0.5855  0.2675  0.3805
 7443SOL    HW133962   4.633   3.065  10.929  0.8857 -0.0110 -1.1791
 7443SOL    HW233963   4.525   2.995  11.005  1.1680 -3.8156  1.8215
 7444SOL     OW33964   3.104   4.530   4.746  0.3032  0.6809 -0.2847
 7444SOL    HW133965   3.039   4.570   4.803  0.2839  0.2964 -0.0377
 7444SOL    HW233966   3.064   4.553   4.662  2.4017  1.7013 -1.0103
 7445SOL     OW33967   0.653   2.621   3.795 -0.2429 -0.0379  0.0142
 7445SOL    HW133968   0.684   2.699   3.841  0.0884  0.4761 -1.0736
 7445SOL    HW233969   0.560   2.616   3.819 -0.9338  1.3568 -2.3492
 7446SOL     OW33970   2.867   2.082  17.491 -0.4706  0.6400 -0.3387
 7446SOL    HW133971   2.948   2.115  17.528  0.1229 -2.2254  0.9509
 7446SOL    HW233972   2.808   2.134  17.546 -0.4217  0.9828 -0.6149
 7447SOL     OW33973   3.326   2.704   7.579  0.1647 -1.0512 -0.0530
 7447SOL    HW133974   3.402   2.710   7.522  1.1309  1.3379  1.4940
 7447SOL    HW233975   3.281   2.786   7.559  0.5872 -1.1876 -1.5694
 7448SOL     OW33976   1.241   3.331   8.194  0.8107 -0.1453  0.2637
 7448SOL    HW133977   1.294   3.317   8.273  1.2445 -0.7541 -0.1326
 7448SOL    HW233978   1.286   3.409   8.161  1.3882  0.2751  2.0421
 7449SOL     OW33979   3.075   3.508   5.430 -0.4062 -0.5753 -0.2461
 7449SOL    HW133980   2.986   3.544   5.435 -0.1605 -0.0881  0.6004
 7449SOL    HW233981   3.110   3.528   5.517  0.5823 -2.9360 -0.0838
 7450SOL     OW33982   0.714   4.442   7.519 -0.5441 -0.6735  0.4433
 7450SOL    HW133983   0.745   4.353   7.537 -1.0038 -1.0228 -0.4608
 7450SOL    HW233984   0.685   4.465   7.607 -1.1123 -0.5757  0.2311
 7451SOL     OW33985   0.579   3.219  16.243  0.6727  0.2663  0.5677
 7451SOL    HW133986   0.603   3.140  16.194  2.9776  0.1634  1.8267
 7451SOL    HW233987   0.608   3.196  16.331 -0.7916 -0.3863  0.8773
 7452SOL     OW33988   2.486   1.321  16.053 -0.3089 -0.1225  0.6414
 7452SOL    HW133989   2.524   1.409  16.050  2.6952 -1.5425 -2.9288
 7452SOL    HW233990   2.418   1.336  15.986  0.2687  1.0309  0.3054
 7453SOL     OW33991   4.446   0.013   6.798 -0.3278 -0.2447  0.2435
 7453SOL    HW133992   4.454   0.103   6.766 -1.3866 -0.5199 -0.7758
 7453SOL    HW233993   4.522   4.707   6.756  0.8073  0.0857  1.9961
 7454SOL     OW33994   1.925   2.198   9.498 -0.3287 -0.5186  0.3096
 7454SOL    HW133995   1.881   2.179   9.582  1.3842  2.3728  1.8591
 7454SOL    HW233996   1.996   2.251   9.534 -1.0318  0.7776 -0.2016
 7455SOL     OW33997   1.694   3.730   1.734 -0.7718  0.2376 -0.3102
 7455SOL    HW133998   1.692   3.661   1.800 -1.9088  0.2388 -0.3552
 7455SOL    HW233999   1.749   3.687   1.669 -0.6395  1.0370 -0.7319
 7456SOL     OW34000   1.909   0.540   4.036 -0.0493  0.2323  0.0202
 7456SOL    HW134001   1.837   0.526   4.098 -0.4059  2.1059  0.0299
 7456SOL    HW234002   1.885   0.626   4.001 -2.7769 -0.4159  0.2954
 7457SOL     OW34003   0.460   2.850   4.972  0.5661 -0.5505  1.0532
 7457SOL    HW134004   0.439   2.941   4.991 -2.6921 -0.8484 -0.9906
 7457SOL    HW234005   0.520   2.821   5.040  3.2714  1.6495 -0.4049
 7458SOL     OW34006   3.434   2.536  10.372 -0.2633  0.6405 -0.5081
 7458SOL    HW134007   3.507   2.589  10.404  0.3329  0.2640 -1.2484
 7458SOL    HW234008   3.357   2.590  10.387 -0.0392  0.5494  0.9366
 7459SOL     OW34009   0.018   4.186   7.117 -0.0596  0.5239  0.0887
 7459SOL    HW134010   0.081   4.197   7.047 -2.8133  1.6611 -2.2201
 7459SOL    HW234011   4.729   4.278   7.120  2.1579  1.1377 -1.3846
 7460SOL     OW34012   3.449   0.193   2.560 -0.4606 -0.0735  0.2684
 7460SOL    HW134013   3.382   0.201   2.491 -1.2973  2.3946  1.3660
 7460SOL    HW234014   3.501   0.271   2.540 -2.8187  1.3121 -0.5634
 7461SOL     OW34015   0.725   0.424   4.912 -0.3512 -0.3738 -0.0452
 7461SOL    HW134016   0.777   0.391   4.839  0.9564  0.3716  0.5478
 7461SOL    HW234017   0.799   0.463   4.959 -1.3733  0.6278  0.7279
 7462SOL     OW34018   3.502   1.285   5.154  0.1834  0.1072 -0.4513
 7462SOL    HW134019   3.562   1.241   5.213 -0.4782 -1.1990 -0.7387
 7462SOL    HW234020   3.421   1.271   5.204  0.6863 -0.7494  0.1135
 7463SOL     OW34021   2.565   2.774   2.626  0.3962 -0.3209 -0.2298
 7463SOL    HW134022   2.545   2.836   2.555 -0.6132  0.5844  0.8269
 7463SOL    HW234023   2.614   2.705   2.582  1.0835  0.9489 -1.4565
 7464SOL     OW34024   2.608   2.091   1.591 -0.1335 -0.6325 -0.4184
 7464SOL    HW134025   2.576   2.001   1.591  1.1004 -1.0698  0.1134
 7464SOL    HW234026   2.623   2.101   1.685  1.9415  0.0356 -0.8198
 7465SOL     OW34027   0.054   3.055   6.991 -0.4542 -0.1729  0.4823
 7465SOL    HW134028   0.010   3.112   6.927 -0.9164 -1.5613 -0.4405
 7465SOL    HW234029   0.013   2.970   6.975 -0.4850 -0.3831  1.7019
 7466SOL     OW34030   1.435   1.507  15.053 -0.7538 -0.7961 -0.0991
 7466SOL    HW134031   1.437   1.577  14.988  2.3178 -1.4497 -0.6987
 7466SOL    HW234032   1.342   1.485  15.062 -1.2543  0.8394 -1.2924
 7467SOL     OW34033   3.975   0.520   2.986  0.3125 -0.2959  0.5959
 7467SOL    HW134034   3.949   0.538   3.076  0.3062  0.7962  0.3803
 7467SOL    HW234035   4.060   0.477   2.996  1.2693  1.4363  0.0954
 7468SOL     OW34036   0.089   4.252   1.508  0.1027 -0.7542  0.2836
 7468SOL    HW134037   4.731   4.251   1.529 -0.0280 -0.8749 -0.3087
 7468SOL    HW234038   0.105   4.158   1.514  0.4587 -0.8588 -2.2542
 7469SOL     OW34039   2.376   1.155   4.178  0.5756  0.6129 -0.4703
 7469SOL    HW134040   2.384   1.129   4.086 -1.8084  3.1374 -1.3832
 7469SOL    HW234041   2.281   1.160   4.184  0.3883 -1.5144 -1.6748
 7470SOL     OW34042   2.018   3.426  14.300 -0.1675  0.2629 -0.1863
 7470SOL    HW134043   2.009   3.395  14.209  0.8668  0.7860 -0.4604
 7470SOL    HW234044   1.939   3.479  14.311  1.1421  2.4982 -1.5142
 7471SOL     OW34045   1.659   4.400   6.837  0.1090  0.2310  0.1907
 7471SOL    HW134046   1.669   4.407   6.742 -0.2898  0.4447  0.1607
 7471SOL    HW234047   1.647   4.307   6.852 -0.4873 -0.1211 -2.4892
 7472SOL     OW34048   0.852   4.378  12.820 -0.2401  0.0659 -0.1358
 7472SOL    HW134049   0.878   4.413  12.735 -0.1228 -1.6743 -0.8166
 7472SOL    HW234050   0.842   4.463  12.863 -0.8703 -0.0136 -0.1232
 7473SOL     OW34051   2.858   2.001   7.131  0.8437  0.0654 -0.1908
 7473SOL    HW134052   2.866   2.083   7.180 -0.1870 -0.7351  1.3144
 7473SOL    HW234053   2.936   1.990   7.076  0.9301  0.9669 -0.2570
 7474SOL     OW34054   3.883   3.377   0.114  0.2377 -0.3931 -0.6827
 7474SOL    HW134055   3.790   3.364   0.093 -0.1350  2.9893 -1.0660
 7474SOL    HW234056   3.910   3.292   0.148 -0.0986  0.1381  0.9119
 7475SOL     OW34057   3.022   1.475   0.044  0.1213  0.4668  0.2330
 7475SOL    HW134058   2.973   1.516  17.713  1.6184  1.5234 -0.2017
 7475SOL    HW234059   2.992   1.384   0.046  0.5470  0.3311  0.5081
 7476SOL     OW34060   2.671   0.730   7.005  0.0181 -0.2712  0.5315
 7476SOL    HW134061   2.658   0.817   7.045 -0.9192  0.8041 -2.1110
 7476SOL    HW234062   2.587   0.686   7.022 -0.1248 -1.3235 -3.0218
 7477SOL     OW34063   1.107   2.080   4.439  0.2217  0.8759  0.2821
 7477SOL    HW134064   1.039   2.145   4.460 -2.5083 -2.1205  0.7679
 7477SOL    HW234065   1.154   2.115   4.363  1.9323 -0.1834  0.8643
 7478SOL     OW34066   4.500   0.950  10.884 -0.0830  0.5638 -0.0702
 7478SOL    HW134067   4.490   0.871  10.937  0.9832 -0.8091 -1.9536
 7478SOL    HW234068   4.423   0.963  10.829  1.6598  0.1492 -2.6056
 7479SOL     OW34069   0.128   1.250   3.788 -0.1733 -0.3644 -0.1020
 7479SOL    HW134070   0.066   1.228   3.719  0.7251 -3.0430 -0.0501
 7479SOL    HW234071   0.196   1.183   3.793 -0.2190 -0.5747 -2.2698
 7480SOL     OW34072   0.873   0.619   3.079 -0.6414 -0.0297  0.1416
 7480SOL    HW134073   0.953   0.636   3.028 -0.0920 -1.7827  0.3988
 7480SOL    HW234074   0.869   0.523   3.086 -1.7620 -0.1314 -1.8855
 7481SOL     OW34075   2.070   0.820  10.878  0.2203  0.2054 -0.3750
 7481SOL    HW134076   2.103   0.881  10.812  0.3745 -1.0117 -1.4146
 7481SOL    HW234077   2.127   0.844  10.951  1.9246 -0.2916 -1.5483
 7482SOL     OW34078   0.451   4.522   4.175  0.5900  0.7227 -0.0676
 7482SOL    HW134079   0.546   4.520   4.167  0.5662  1.7314 -0.5728
 7482SOL    HW234080   0.439   4.529   4.270  1.0492 -0.0067  0.0481
 7483SOL     OW34081   3.966   3.072   5.521 -0.0924 -0.2881  0.3303
 7483SOL    HW134082   4.028   3.001   5.535 -0.4126 -0.7358 -0.5138
 7483SOL    HW234083   3.946   3.098   5.611 -0.0731 -0.8229  0.4870
 7484SOL     OW34084   1.661   1.822   2.981  0.5892  0.3200  0.3529
 7484SOL    HW134085   1.638   1.788   2.895 -0.8082  0.5439  0.6380
 7484SOL    HW234086   1.656   1.918   2.974 -1.5549  0.1982  0.2971
 7485SOL     OW34087   0.799   0.413   6.234 -0.4276  0.3875 -0.5099
 7485SOL    HW134088   0.859   0.486   6.218 -0.4829  0.4966 -0.2021
 7485SOL    HW234089   0.729   0.478   6.238 -0.2312  0.3800  2.5840
 7486SOL     OW34090   3.952   4.080   2.012 -0.7318 -0.2489  0.3824
 7486SOL    HW134091   4.002   4.150   2.055  1.0697 -0.5232 -1.2734
 7486SOL    HW234092   3.866   4.118   2.030 -1.6887 -0.8713 -2.8629
 7487SOL     OW34093   2.506   3.865   7.620 -0.5789  1.0259 -0.2079
 7487SOL    HW134094   2.500   3.799   7.689 -1.6031  2.7648  1.3704
 7487SOL    HW234095   2.579   3.921   7.648  1.7771 -0.9050 -2.5306
 7488SOL     OW34096   2.606   4.305   5.042  0.1856  0.2056  0.1716
 7488SOL    HW134097   2.671   4.356   5.090  0.8801  1.6942 -2.3273
 7488SOL    HW234098   2.526   4.304   5.094 -0.7935 -0.5636 -1.3317
 7489SOL     OW34099   1.798   2.539  14.920  0.4074 -0.4170 -0.3768
 7489SOL    HW134100   1.721   2.573  14.874 -0.6887 -0.3022  1.5480
 7489SOL    HW234101   1.850   2.619  14.911 -0.4465  0.1901  0.0354
 7490SOL     OW34102   3.794   2.758   0.033 -0.0536 -0.0460  0.1810
 7490SOL    HW134103   3.827   2.726  17.689 -2.0336 -0.5064 -0.4147
 7490SOL    HW234104   3.813   2.852   0.028  1.3961 -0.4226 -1.3764
 7491SOL     OW34105   1.789   3.783   5.054 -0.2391 -0.2452  0.4223
 7491SOL    HW134106   1.735   3.704   5.049  1.5397 -1.4197 -0.0907
 7491SOL    HW234107   1.864   3.759   5.000  0.5899  1.0767  1.0165
 7492SOL     OW34108   2.544   0.225   1.626 -0.3076 -0.6170 -0.5726
 7492SOL    HW134109   2.611   0.161   1.647 -0.8662 -0.1122  2.7151
 7492SOL    HW234110   2.516   0.254   1.713  0.4404  2.0050 -1.2165
 7493SOL     OW34111   3.285   1.886   4.767  0.3106  0.1423 -0.4572
 7493SOL    HW134112   3.224   1.854   4.701 -0.6390 -1.1662  1.0414
 7493SOL    HW234113   3.295   1.809   4.823 -3.1415  1.3276  1.7847
 7494SOL     OW34114   2.751   1.620   8.218 -0.3204 -0.2919  0.1662
 7494SOL    HW134115   2.708   1.617   8.304  0.8322 -1.8561  0.6817
 7494SOL    HW234116   2.673   1.640   8.166 -0.4172 -0.3162  0.3025
 7495SOL     OW34117   3.505   1.493   3.519 -0.8917 -0.2008 -0.1552
 7495SOL    HW134118   3.492   1.564   3.456 -0.6146  1.3121  1.4907
 7495SOL    HW234119   3.485   1.416   3.466  0.5228  0.5551 -1.7904
 7496SOL     OW34120   4.706   0.916   2.814  0.0787  1.5065  0.2008
 7496SOL    HW134121   4.629   0.958   2.777  1.2102  3.0374 -0.4030
 7496SOL    HW234122   4.685   0.825   2.792 -0.4743  1.3940  1.1922
 7497SOL     OW34123   2.163   0.111  15.955  0.0249  0.1281 -0.2418
 7497SOL    HW134124   2.096   0.178  15.972  0.4534  0.4965 -0.0194
 7497SOL    HW234125   2.183   0.077  16.042  0.8536  0.6357 -0.2362
 7498SOL     OW34126   0.000   1.177   9.536 -0.6863  0.0916  0.3633
 7498SOL    HW134127   4.683   1.129   9.600  0.3096  1.7162  2.4132
 7498SOL    HW234128   4.714   1.260   9.579  0.2457  0.1063  0.8222
 7499SOL     OW34129   3.777   2.078   5.932  0.1248  0.3616  0.4839
 7499SOL    HW134130   3.843   2.031   5.983  0.5815  1.8275  1.2247
 7499SOL    HW234131   3.824   2.095   5.850  0.4172  2.2212  1.0555
 7500SOL     OW34132   0.777   0.711   7.742 -0.0938  0.5425  0.5893
 7500SOL    HW134133   0.831   0.790   7.736  0.7021 -0.1218 -1.0145
 7500SOL    HW234134   0.694   0.757   7.753  0.5335  1.9449 -0.4604
 7501SOL     OW34135   3.129   3.944  16.910  0.0665 -0.5530  0.1947
 7501SOL    HW134136   3.212   3.977  16.944  0.5149 -1.0254 -0.4353
 7501SOL    HW234137   3.112   3.887  16.985  0.9490 -0.4673  0.4557
 7502SOL     OW34138   3.427   3.020   6.211 -0.2089 -0.1961 -0.1501
 7502SOL    HW134139   3.356   2.957   6.226  1.1932 -1.4574  1.2906
 7502SOL    HW234140   3.491   2.960   6.171  0.9263  3.3120 -3.5217
 7503SOL     OW34141   1.158   1.049   5.014  0.4379  0.2964 -0.2899
 7503SOL    HW134142   1.116   0.965   5.033  1.2760  0.0145  0.3159
 7503SOL    HW234143   1.182   1.089   5.098 -0.9212 -1.9223  1.1429
 7504SOL     OW34144   3.341   0.856   7.393 -0.0687  0.7502 -0.1718
 7504SOL    HW134145   3.432   0.865   7.365  0.1541  0.0097  0.3048
 7504SOL    HW234146   3.339   0.927   7.457  1.2212  0.6307  0.0096
 7505SOL     OW34147   2.875   1.009   1.509 -0.5046 -0.3911  0.4827
 7505SOL    HW134148   2.874   0.964   1.425  0.5147  0.2923  0.1003
 7505SOL    HW234149   2.823   0.946   1.559 -0.6002 -1.6356 -1.1975
 7506SOL     OW34150   0.529   3.149   1.884 -0.2407  0.1919 -0.8862
 7506SOL    HW134151   0.518   3.243   1.875 -2.5719 -0.1417 -1.5593
 7506SOL    HW234152   0.562   3.119   1.799  0.5638  2.0674 -1.2308
 7507SOL     OW34153   0.377   1.640  13.784 -0.5256  0.0776 -0.0949
 7507SOL    HW134154   0.289   1.661  13.816 -0.1137 -1.2723  1.8914
 7507SOL    HW234155   0.400   1.730  13.763 -0.8657  0.5072  1.3942
 7508SOL     OW34156   1.794   4.173   2.612  0.3172 -0.3135 -0.4772
 7508SOL    HW134157   1.769   4.206   2.526  1.2667  1.1888 -0.1716
 7508SOL    HW234158   1.881   4.138   2.595  1.5526  1.7024  1.7084
 7509SOL     OW34159   1.151   0.702   3.658  0.0787 -0.5066 -0.3388
 7509SOL    HW134160   1.233   0.729   3.617 -0.2188 -0.4682 -0.8951
 7509SOL    HW234161   1.146   0.760   3.735  0.7830  0.8007 -1.2788
 7510SOL     OW34162   3.817   2.256   0.280 -0.2841 -0.1808  0.0383
 7510SOL    HW134163   3.840   2.185   0.220 -2.2229 -2.7632  2.3368
 7510SOL    HW234164   3.766   2.308   0.218  0.1562  0.7175  0.4357
 7511SOL     OW34165   4.646   2.815  12.411 -0.1497 -0.6633  0.7834
 7511SOL    HW134166   4.717   2.796  12.472 -0.8616  2.6429  2.6438
 7511SOL    HW234167   4.680   2.763  12.338 -0.4566 -1.6242  1.3207
 7512SOL     OW34168   0.579   4.629  12.232  0.2890  0.4173 -0.0787
 7512SOL    HW134169   0.658   4.648  12.283  0.5602  0.4685 -0.5176
 7512SOL    HW234170   0.545   4.549  12.273  0.4004  1.1208  1.3961
 7513SOL     OW34171   1.101   1.366   2.815  0.2690 -0.5308 -0.4670
 7513SOL    HW134172   1.009   1.375   2.788  0.4011 -1.1299 -1.1292
 7513SOL    HW234173   1.131   1.457   2.815  0.8401 -0.7297  0.8449
 7514SOL     OW34174   1.553   1.238  11.696 -0.1281 -0.0153  0.5696
 7514SOL    HW134175   1.516   1.210  11.780  0.1808  1.8275  1.3370
 7514SOL    HW234176   1.488   1.306  11.677 -0.6298 -0.4082  0.8837
 7515SOL     OW34177   1.882   1.341   6.585  0.2330 -0.2749  0.0468
 7515SOL    HW134178   1.953   1.278   6.569 -0.5656 -1.7465  2.1999
 7515SOL    HW234179   1.807   1.293   6.620 -0.9995  0.5160 -1.5135
 7516SOL     OW34180   1.584   1.763   2.736  0.2252 -0.2641 -0.1820
 7516SOL    HW134181   1.530   1.706   2.682 -2.4149  1.3257  0.7791
 7516SOL    HW234182   1.524   1.836   2.752 -0.4319 -0.5717 -1.2304
 7517SOL     OW34183   2.117   0.679   3.436  0.0596  0.3681  0.4232
 7517SOL    HW134184   2.045   0.730   3.400  1.3881  2.9945  1.4837
 7517SOL    HW234185   2.163   0.662   3.353 -1.4212 -0.5868 -0.1988
 7518SOL     OW34186   0.004   2.083  16.033 -0.2192 -0.3405 -0.6600
 7518SOL    HW134187   4.713   2.019  15.966  3.2762 -1.9135 -0.5245
 7518SOL    HW234188   4.668   2.146  16.046 -1.1521 -1.4537 -0.3839
 7519SOL     OW34189   2.507   1.665   5.302  0.4494 -0.3374 -0.6006
 7519SOL    HW134190   2.486   1.691   5.391  0.2375 -0.1785 -0.6959
 7519SOL    HW234191   2.544   1.747   5.268  1.1381 -1.4361 -2.5262
 7520SOL     OW34192   3.713   2.096  17.636  0.2147  0.5363 -0.6867
 7520SOL    HW134193   3.738   2.104  17.544 -0.3823 -1.7853 -1.0390
 7520SOL    HW234194   3.622   2.067  17.627 -0.0569  0.1906  2.8050
 7521SOL     OW34195   0.797   2.729  10.640  0.2350  0.2621 -0.6524
 7521SOL    HW134196   0.734   2.770  10.581  0.0858 -1.0837 -1.4126
 7521SOL    HW234197   0.784   2.778  10.721  1.9047  0.9731 -0.7938
 7522SOL     OW34198   0.293   3.278   5.764  0.0088 -0.0741  0.0285
 7522SOL    HW134199   0.208   3.237   5.779  0.1031  0.5772  2.3299
 7522SOL    HW234200   0.290   3.294   5.670  1.4318 -0.4949 -0.0970
 7523SOL     OW34201   0.375   1.399  16.376  0.3229  0.3405  0.6238
 7523SOL    HW134202   0.292   1.446  16.387  1.3886  2.0139  1.5922
 7523SOL    HW234203   0.423   1.439  16.303 -0.5228 -2.0239 -1.2275
 7524SOL     OW34204   2.041   0.289   8.214  0.0772  0.0550 -0.4997
 7524SOL    HW134205   2.071   0.323   8.298  2.0274  0.4756 -1.3567
 7524SOL    HW234206   1.958   0.249   8.240  1.1136  0.2007  2.9902
 7525SOL     OW34207   2.558   2.903   0.124  0.2377 -0.5073  0.0054
 7525SOL    HW134208   2.574   2.812   0.099  0.7952 -0.4106  0.0016
 7525SOL    HW234209   2.645   2.923   0.158  0.5758 -0.3034 -0.9772
 7526SOL     OW34210   3.938   1.656   3.207  0.1974 -0.4967 -0.1429
 7526SOL    HW134211   3.915   1.585   3.266  1.0211  0.4734  1.3303
 7526SOL    HW234212   3.869   1.638   3.143 -0.4620  0.0749  0.4081
 7527SOL     OW34213   3.762   3.579   7.983 -0.6818  0.1752 -0.2886
 7527SOL    HW134214   3.772   3.559   8.076 -0.2359  2.2923  0.1195
 7527SOL    HW234215   3.839   3.633   7.969  0.7070 -1.7016  0.2268
 7528SOL     OW34216   0.125   2.409   6.560 -0.0398 -0.2000  0.0581
 7528SOL    HW134217   0.130   2.345   6.631  2.1844  1.3682  1.3278
 7528SOL    HW234218   0.045   2.380   6.516 -0.2951  1.3325 -0.5147
 7529SOL     OW34219   3.411   0.285   0.302  0.3066 -0.6843  0.7256
 7529SOL    HW134220   3.390   0.197   0.270  0.2269 -0.0581 -0.9721
 7529SOL    HW234221   3.353   0.291   0.378  0.5980  0.4917  0.8541
 7530SOL     OW34222   2.538   0.714  15.408  0.8254  0.2315  0.6125
 7530SOL    HW134223   2.569   0.712  15.318 -0.3739 -2.0829  0.2468
 7530SOL    HW234224   2.457   0.665  15.396  0.8484  0.4367 -0.4323
 7531SOL     OW34225   4.501   1.012   4.165 -0.3981  0.2056 -0.5783
 7531SOL    HW134226   4.478   1.019   4.257 -0.3982  0.4549 -0.5987
 7531SOL    HW234227   4.549   1.094   4.155  1.5832 -0.6370  1.7721
 7532SOL     OW34228   0.042   1.767   3.169 -0.4236 -0.4464 -0.1284
 7532SOL    HW134229   0.104   1.732   3.105  0.3161 -1.3115  1.0668
 7532SOL    HW234230   4.721   1.825   3.117  0.8658  1.0345  0.1546
 7533SOL     OW34231   0.556   4.614   2.184 -0.1520 -0.2295  0.1284
 7533SOL    HW134232   0.607   4.667   2.123 -1.1059  2.1229  1.3742
 7533SOL    HW234233   0.531   4.535   2.136 -1.8667  1.0326 -1.0442
 7534SOL     OW34234   1.040   4.524  14.941 -0.0951 -0.0013 -0.5038
 7534SOL    HW134235   1.050   4.618  14.929  0.2233 -0.1139 -1.0852
 7534SOL    HW234236   0.946   4.514  14.922 -0.1950  0.0699 -0.0520
 7535SOL     OW34237   2.345   0.646  10.887 -0.0958  0.6437  0.0871
 7535SOL    HW134238   2.438   0.625  10.895 -0.2923  0.3239  1.4444
 7535SOL    HW234239   2.343   0.731  10.932 -1.0295 -0.3398  1.9055
 7536SOL     OW34240   2.256   0.919   1.460 -0.1160 -0.4296  0.3493
 7536SOL    HW134241   2.312   0.892   1.532  1.8546  1.6103 -0.3967
 7536SOL    HW234242   2.228   0.833   1.429 -0.5867 -0.6289  1.3216
 7537SOL     OW34243   3.622   2.681   1.046 -0.2004 -0.3207 -0.4649
 7537SOL    HW134244   3.714   2.679   1.069 -0.2497 -2.4454 -0.4781
 7537SOL    HW234245   3.634   2.617   0.976 -1.7448 -0.9649 -0.1335
 7538SOL     OW34246   1.624   4.113   9.834  0.3404 -0.5067  0.2418
 7538SOL    HW134247   1.595   4.148   9.749  1.9189 -0.2551 -0.1934
 7538SOL    HW234248   1.670   4.037   9.799  0.0513  0.2963 -1.8864
 7539SOL     OW34249   0.325   0.331   2.242  0.4913  0.5993 -0.5746
 7539SOL    HW134250   0.295   0.289   2.162  0.2585  0.3710 -0.3689
 7539SOL    HW234251   0.250   0.316   2.300 -1.6558 -0.3652 -3.6472
 7540SOL     OW34252   1.204   2.347   4.583  0.0173 -0.2367  0.2886
 7540SOL    HW134253   1.109   2.360   4.574  0.0162 -0.1564  0.4129
 7540SOL    HW234254   1.219   2.253   4.574 -1.4564 -0.4629  0.1348
 7541SOL     OW34255   0.760   3.849   6.511  0.2038 -0.2942 -0.2848
 7541SOL    HW134256   0.806   3.774   6.550 -0.2529 -0.4432 -0.0399
 7541SOL    HW234257   0.818   3.874   6.439 -0.4892 -0.3071 -0.8499
 7542SOL     OW34258   4.379   0.694   5.615 -0.6258 -0.5521  0.4091
 7542SOL    HW134259   4.333   0.639   5.679 -0.8091  1.8899  2.3833
 7542SOL    HW234260   4.314   0.765   5.618 -0.7450 -0.6302 -0.2594
 7543SOL     OW34261   2.601   4.115  15.220 -0.0049  0.2449  0.1575
 7543SOL    HW134262   2.583   4.055  15.148  0.9893  0.1957 -0.0558
 7543SOL    HW234263   2.516   4.152  15.243 -0.3700 -1.4106  1.4777
 7544SOL     OW34264   4.488   3.536   4.991  0.1232 -0.1786 -0.0456
 7544SOL    HW134265   4.556   3.493   4.940 -1.1375 -2.1166 -0.0819
 7544SOL    HW234266   4.441   3.584   4.923 -0.2490  0.0142  0.3472
 7545SOL     OW34267   2.043   2.164   5.095 -0.2358  0.5223  0.7884
 7545SOL    HW134268   2.048   2.155   5.190  1.1147 -1.0427  0.5790
 7545SOL    HW234269   1.999   2.247   5.081  0.3229  0.6999  0.0240
 7546SOL     OW34270   1.407   1.555  17.476 -0.6513  0.2300  0.2730
 7546SOL    HW134271   1.471   1.521  17.414 -0.6609 -0.0910  0.4367
 7546SOL    HW234272   1.395   1.643  17.440  0.7661 -0.2318 -1.3146
 7547SOL     OW34273   0.733   4.155   6.179  0.2320  0.7684  0.2308
 7547SOL    HW134274   0.800   4.212   6.217 -0.5587  1.1396  1.0545
 7547SOL    HW234275   0.766   4.158   6.089 -0.5949 -1.4726 -0.1405
 7548SOL     OW34276   0.772   3.373   2.717  0.1906  0.1984 -0.2422
 7548SOL    HW134277   0.797   3.460   2.683 -1.3393  0.6884 -0.0898
 7548SOL    HW234278   0.798   3.309   2.651 -0.7154 -0.3833 -0.0236
 7549SOL     OW34279   1.204   0.672   8.599  0.0165 -0.3196  0.2526
 7549SOL    HW134280   1.131   0.670   8.538 -0.0366  0.1408  0.2973
 7549SOL    HW234281   1.199   0.583   8.632 -0.8112 -0.6248 -0.6938
 7550SOL     OW34282   1.780   2.616  16.585 -0.7665  0.4328  0.6385
 7550SOL    HW134283   1.706   2.667  16.618 -1.7040  0.0095 -0.8368
 7550SOL    HW234284   1.849   2.680  16.599 -0.0800 -0.4684  1.4093
 7551SOL     OW34285   3.267   4.273  15.635 -0.6205  0.2069  0.0580
 7551SOL    HW134286   3.307   4.216  15.569  1.3626  0.2004  1.2599
 7551SOL    HW234287   3.315   4.355  15.624 -1.2294  0.1850 -2.8542
 7552SOL     OW34288   4.568   0.178   6.120 -0.2046  0.0450 -0.2159
 7552SOL    HW134289   4.542   0.117   6.052 -0.3765  0.0896 -0.1907
 7552SOL    HW234290   4.616   0.252   6.081 -0.6519 -0.6137 -1.9740
 7553SOL     OW34291   1.728   0.749   2.790 -0.6523 -0.4588  0.1709
 7553SOL    HW134292   1.811   0.717   2.824 -0.5083 -1.5982 -1.2496
 7553SOL    HW234293   1.743   0.752   2.696  0.9242 -0.7886  0.4213
 7554SOL     OW34294   2.442   3.685   7.846  0.2024  0.3382 -0.0476
 7554SOL    HW134295   2.498   3.642   7.910  0.3498 -1.2443 -1.2382
 7554SOL    HW234296   2.368   3.724   7.892  2.2134  1.5078  2.1524
 7555SOL     OW34297   0.537   3.005  11.743 -0.3620 -0.3507 -0.1438
 7555SOL    HW134298   0.521   3.033  11.833  0.6387 -0.6865  0.1296
 7555SOL    HW234299   0.625   3.040  11.728 -0.4725 -0.7476 -1.8182
 7556SOL     OW34300   4.241   4.587   2.723  0.5183 -0.0180 -0.1992
 7556SOL    HW134301   4.243   4.672   2.767  0.8022  0.3350 -0.8887
 7556SOL    HW234302   4.150   4.559   2.730  1.0263 -1.7698 -0.7044
 7557SOL     OW34303   3.666   3.553   7.731 -0.6343  0.7997 -0.3866
 7557SOL    HW134304   3.705   3.571   7.816 -0.8504  0.7576 -0.2789
 7557SOL    HW234305   3.735   3.563   7.665 -0.5441 -1.3980 -0.6529
 7558SOL     OW34306   2.855   0.342   7.443 -0.0479  0.3722 -0.4806
 7558SOL    HW134307   2.877   0.431   7.414 -1.0369  1.1793  1.1811
 7558SOL    HW234308   2.944   0.308   7.448 -0.2402 -0.4652 -2.8401
 7559SOL     OW34309   3.770   3.790   9.278 -0.5639 -0.3633  0.5528
 7559SOL    HW134310   3.836   3.722   9.282  1.2574  1.2599 -1.4736
 7559SOL    HW234311   3.704   3.755   9.219  0.4452 -0.7793 -0.3286
 7560SOL     OW34312   2.577   3.504   5.941 -0.1382  0.2908  0.7229
 7560SOL    HW134313   2.533   3.472   5.862 -0.0408 -1.3903  1.3389
 7560SOL    HW234314   2.657   3.451   5.947 -0.7004 -0.6694 -0.2078
 7561SOL     OW34315   1.884   3.628  16.704 -0.3902  0.2708 -0.1480
 7561SOL    HW134316   1.830   3.553  16.727  1.0914 -0.5578  0.6327
 7561SOL    HW234317   1.935   3.631  16.785 -0.8783 -0.0178  0.1662
 7562SOL     OW34318   2.753   2.824   5.167  0.3961  0.1462 -0.5348
 7562SOL    HW134319   2.799   2.902   5.135  0.5905  0.4647  0.5174
 7562SOL    HW234320   2.808   2.755   5.130  0.5291  0.0613 -0.1864
 7563SOL     OW34321   4.610   2.131   6.127 -0.1417  0.3463 -0.1297
 7563SOL    HW134322   4.703   2.152   6.117 -0.0084  0.0007  0.3517
 7563SOL    HW234323   4.610   2.036   6.141 -1.3055  0.2830 -0.5530
 7564SOL     OW34324   1.308   3.473   2.802  0.3964 -0.5399 -0.6795
 7564SOL    HW134325   1.350   3.501   2.720  2.2430 -0.9562  0.1271
 7564SOL    HW234326   1.249   3.547   2.820 -0.7450 -1.8864  1.0216
 7565SOL     OW34327   2.775   2.374   1.525  0.0805  0.6030 -0.0299
 7565SOL    HW134328   2.698   2.333   1.566  1.7436 -1.5104  0.9677
 7565SOL    HW234329   2.728   2.437   1.470 -0.3304  0.9273  0.7040
 7566SOL     OW34330   3.169   3.614   2.727  0.0284  0.1790  0.6273
 7566SOL    HW134331   3.117   3.627   2.648  0.4722 -0.0602  0.2917
 7566SOL    HW234332   3.123   3.546   2.776  0.7960 -0.1441  0.9026
 7567SOL     OW34333   1.437   4.653   4.165  0.2229 -0.3542  0.3275
 7567SOL    HW134334   1.508   4.619   4.219 -0.1432  0.8833  1.5888
 7567SOL    HW234335   1.477   4.734   4.133 -0.1342 -0.3835 -0.1893
 7568SOL     OW34336   2.457   4.706   6.202 -0.1078 -0.4048 -0.5523
 7568SOL    HW134337   2.489   0.019   6.279 -1.4252  0.5641 -0.6127
 7568SOL    HW234338   2.364   4.712   6.226  0.0714  1.4849 -0.2861
 7569SOL     OW34339   1.893   2.169  14.941 -0.1321 -0.1615  0.2303
 7569SOL    HW134340   1.975   2.126  14.965 -0.1116  0.0324  0.5081
 7569SOL    HW234341   1.832   2.100  14.966  0.6448 -0.1170  2.2407
 7570SOL     OW34342   1.150   0.923   8.303  0.2405  0.2073 -0.0767
 7570SOL    HW134343   1.082   0.935   8.369  2.3147  1.3629  1.8403
 7570SOL    HW234344   1.136   0.830   8.282  0.7766 -0.2479  1.5609
 7571SOL     OW34345   3.033   0.961   2.470 -0.2518 -0.2398  1.0952
 7571SOL    HW134346   3.081   0.993   2.546 -0.3662 -1.7065  1.7912
 7571SOL    HW234347   2.969   1.032   2.459  2.1002  1.6286 -0.6273
 7572SOL     OW34348   0.826   0.672  17.486  0.8570  0.0968 -0.2138
 7572SOL    HW134349   0.909   0.693  17.443  0.4238  0.3354 -0.9456
 7572SOL    HW234350   0.847   0.586  17.521  0.0387 -0.0047  0.0107
 7573SOL     OW34351   0.790   2.469   7.225  0.0056  0.5390 -0.0554
 7573SOL    HW134352   0.867   2.473   7.283  0.2911  1.6947 -0.5153
 7573SOL    HW234353   0.741   2.536   7.273 -1.2847 -0.2988 -0.1992
 7574SOL     OW34354   4.338   3.378   2.694 -0.1940 -0.8514  0.4424
 7574SOL    HW134355   4.280   3.408   2.765  2.2201  1.9258  1.2630
 7574SOL    HW234356   4.401   3.450   2.686  0.5376 -1.0857  3.8233
 7575SOL     OW34357   0.546   0.226   3.882  0.0055 -0.0406 -0.8013
 7575SOL    HW134358   0.548   0.164   3.809  3.3745  1.2495 -1.8071
 7575SOL    HW234359   0.481   0.291   3.855  0.3340  1.6551  2.4606
 7576SOL     OW34360   0.822   2.282   6.757 -0.2818 -0.6371  0.9377
 7576SOL    HW134361   0.902   2.328   6.780  0.9309 -2.0614 -0.4159
 7576SOL    HW234362   0.754   2.349   6.756  0.4192  0.0533  0.1189
 7577SOL     OW34363   4.108   3.842   8.239  0.1607  0.1924 -0.4816
 7577SOL    HW134364   4.112   3.818   8.331  0.6282 -1.9132 -1.0404
 7577SOL    HW234365   4.199   3.865   8.223 -0.1499  0.8393 -1.2872
 7578SOL     OW34366   0.321   2.201   3.536  0.1704  0.1678 -0.4838
 7578SOL    HW134367   0.257   2.231   3.601  1.4161  1.3621  0.2042
 7578SOL    HW234368   0.260   2.146   3.487 -1.1675 -0.1211  1.4868
 7579SOL     OW34369   3.511   0.903   2.380 -0.2953 -0.0053 -0.1770
 7579SOL    HW134370   3.562   0.976   2.345 -0.7892  0.6639  0.4994
 7579SOL    HW234371   3.472   0.949   2.454  2.1354 -1.0672  1.7424
 7580SOL     OW34372   0.377   2.553   5.100  0.1957 -0.1010 -0.4456
 7580SOL    HW134373   0.421   2.563   5.015 -2.0673  1.6552 -1.3936
 7580SOL    HW234374   0.371   2.459   5.087 -1.5050  0.1656 -1.5722
 7581SOL     OW34375   2.244   0.116  10.978 -0.0319  0.4670 -0.5942
 7581SOL    HW134376   2.203   0.105  11.064  2.5794 -0.1046  0.5586
 7581SOL    HW234377   2.240   0.210  10.959 -1.4107  0.7523  1.1151
 7582SOL     OW34378   3.881   1.699   8.404  0.1240 -0.1134 -0.0094
 7582SOL    HW134379   3.966   1.677   8.440 -1.4496 -0.5067  3.4269
 7582SOL    HW234380   3.893   1.788   8.371 -0.6266 -0.1334 -0.3566
 7583SOL     OW34381   1.626   2.299   7.034  0.1378  0.0105  0.0378
 7583SOL    HW134382   1.713   2.287   7.072  0.1467 -0.2716 -0.0709
 7583SOL    HW234383   1.632   2.394   7.021 -0.2893 -0.2151 -1.9393
 7584SOL     OW34384   4.563   3.061   4.994 -0.1704 -0.1804  0.7518
 7584SOL    HW134385   4.513   2.986   4.963 -0.2315 -0.1911  0.8749
 7584SOL    HW234386   4.649   3.022   5.009 -0.3073 -0.3677  1.0669
 7585SOL     OW34387   4.127   2.049   0.701 -0.4574 -0.2884  0.0831
 7585SOL    HW134388   4.159   2.125   0.654 -2.3127 -0.9108 -2.2223
 7585SOL    HW234389   4.031   2.058   0.702 -0.5853 -1.6309  0.0138
 7586SOL     OW34390   3.638   3.602   7.355  0.5388 -0.0215 -0.2658
 7586SOL    HW134391   3.617   3.572   7.443 -3.8899  0.3052 -1.1643
 7586SOL    HW234392   3.703   3.661   7.390  0.6353 -0.9345  1.0702
 7587SOL     OW34393   4.020   3.843   2.088  0.3817  0.2022 -0.3426
 7587SOL    HW134394   3.991   3.926   2.051  0.4397  0.9761  1.3938
 7587SOL    HW234395   4.066   3.879   2.163  0.3334 -2.7518  1.1129
 7588SOL     OW34396   4.045   1.064  17.392 -0.1714  0.0097  0.0738
 7588SOL    HW134397   4.077   0.995  17.333 -1.0870 -1.0669  0.8200
 7588SOL    HW234398   4.058   1.142  17.339 -0.7747  1.0445  1.4834
 7589SOL     OW34399   2.298   2.507  11.665  0.1314 -0.4803 -0.9634
 7589SOL    HW134400   2.352   2.453  11.608 -0.2434 -0.7824 -1.0310
 7589SOL    HW234401   2.278   2.574  11.600 -2.1931  0.2117  0.4510
 7590SOL     OW34402   4.728   2.382   5.839 -0.0842 -0.4442  0.3271
 7590SOL    HW134403   4.649   2.331   5.823 -0.9651  1.2984 -0.8867
 7590SOL    HW234404   0.028   2.405   5.753 -2.4105  1.1488 -0.1916
 7591SOL     OW34405   2.771   1.117   1.812 -0.7438  0.9198  0.2571
 7591SOL    HW134406   2.842   1.157   1.761 -0.2512 -0.9110 -0.4928
 7591SOL    HW234407   2.818   1.037   1.839 -0.6770  1.2054  1.0038
 7592SOL     OW34408   2.487   3.264   2.400 -0.3380  0.4452  0.4854
 7592SOL    HW134409   2.444   3.191   2.355  2.4607 -2.4642  2.4731
 7592SOL    HW234410   2.489   3.330   2.331 -0.3022 -1.2606 -1.1544
 7593SOL     OW34411   4.216   2.143   7.715  0.1177  0.4370  0.3240
 7593SOL    HW134412   4.139   2.165   7.663  0.0492 -0.8155 -0.1019
 7593SOL    HW234413   4.213   2.050   7.695 -0.7680 -0.0914  2.9164
 7594SOL     OW34414   1.664   2.887  10.004 -0.2768 -0.0843 -0.1779
 7594SOL    HW134415   1.608   2.813   9.978 -2.7170  1.5406  0.4648
 7594SOL    HW234416   1.681   2.935   9.923  1.3570 -1.0938 -0.4389
 7595SOL     OW34417   3.602   2.416   1.323  0.4506  0.5431 -0.0755
 7595SOL    HW134418   3.696   2.430   1.323  0.6747 -0.9190 -0.4732
 7595SOL    HW234419   3.589   2.383   1.234  1.3504 -0.4664  0.1711
 7596SOL     OW34420   3.073   3.596  16.729  0.0800 -0.3739 -0.5496
 7596SOL    HW134421   3.026   3.662  16.678  0.5233 -0.6085 -1.2576
 7596SOL    HW234422   3.038   3.619  16.815  1.5574  0.7545 -0.2675
 7597SOL     OW34423   2.340   2.598   8.005 -0.8494  0.0309 -0.7163
 7597SOL    HW134424   2.415   2.646   7.970  0.3575 -0.7905  0.7056
 7597SOL    HW234425   2.387   2.523   8.044 -1.3590  0.9861  1.7388
 7598SOL     OW34426   3.156   1.402   8.302 -0.0965  0.2089 -0.1698
 7598SOL    HW134427   3.226   1.443   8.353 -0.0113  1.2820 -1.1611
 7598SOL    HW234428   3.213   1.353   8.242  0.0513 -0.8497  0.8238
 7599SOL     OW34429   2.271   1.186   3.082  0.1755  0.8250  0.3103
 7599SOL    HW134430   2.327   1.111   3.099 -1.5012  0.1140  2.6348
 7599SOL    HW234431   2.329   1.243   3.030  0.5845  2.3978  2.4921
 7600SOL     OW34432   0.418   1.410   1.082 -0.0794 -0.6365  0.3266
 7600SOL    HW134433   0.345   1.400   1.143  0.0455  1.3773  0.8028
 7600SOL    HW234434   0.479   1.451   1.144 -0.3679 -0.7726  0.7003
 7601SOL     OW34435   2.549   2.621   6.467 -0.0130 -0.5819  0.2092
 7601SOL    HW134436   2.511   2.536   6.445 -2.4637  0.1289  1.7875
 7601SOL    HW234437   2.495   2.681   6.415 -1.9167 -0.9907  1.7426
 7602SOL     OW34438   3.749   3.003   0.276  0.5907 -0.0924 -0.1189
 7602SOL    HW134439   3.791   2.921   0.301 -1.1993 -1.3216 -1.1559
 7602SOL    HW234440   3.753   3.005   0.181  1.0922  2.1378 -0.0561
 7603SOL     OW34441   3.601   0.946   9.160  0.2398 -0.5846  0.9937
 7603SOL    HW134442   3.658   0.891   9.213  0.9783 -1.6028 -0.8653
 7603SOL    HW234443   3.655   1.023   9.142  0.1109 -0.8960 -0.6686
 7604SOL     OW34444   3.788   0.589   2.805  0.5464 -0.1279 -0.2859
 7604SOL    HW134445   3.776   0.684   2.801 -0.8909 -0.2424  1.3880
 7604SOL    HW234446   3.863   0.579   2.863 -0.4849  0.2356  1.1131
 7605SOL     OW34447   1.134   3.910  14.809 -0.4642 -0.1564 -0.1324
 7605SOL    HW134448   1.156   3.851  14.737  0.6477 -1.2722  1.1326
 7605SOL    HW234449   1.039   3.903  14.802 -0.5317 -0.2194  0.8757
 7606SOL     OW34450   2.026   1.838   8.989 -0.1336  0.1816  0.3858
 7606SOL    HW134451   1.990   1.771   8.931  0.3098 -0.0287  0.3515
 7606SOL    HW234452   2.119   1.828   8.969 -0.7334 -1.3948 -1.6313
 7607SOL     OW34453   3.079   3.341  11.049  0.0373  0.4003 -0.5391
 7607SOL    HW134454   3.105   3.431  11.068 -0.6905  0.7050 -0.9639
 7607SOL    HW234455   3.025   3.332  11.128  0.4284 -0.7289 -0.4115
 7608SOL     OW34456   0.621   0.050   9.649  0.1270  0.6880 -0.0188
 7608SOL    HW134457   0.550   0.010   9.598 -1.5335  3.7439 -0.0973
 7608SOL    HW234458   0.696   0.001   9.616 -0.1750  1.3025 -1.6245
 7609SOL     OW34459   2.500   4.392   1.524  0.0129  0.2092 -0.3189
 7609SOL    HW134460   2.580   4.441   1.541 -0.2245  0.2173  0.7842
 7609SOL    HW234461   2.451   4.400   1.606  0.6161  1.7948 -0.1127
 7610SOL     OW34462   1.668   2.801   3.471 -0.2776  0.5546  0.0619
 7610SOL    HW134463   1.607   2.845   3.412 -0.7155  0.9573  0.8071
 7610SOL    HW234464   1.601   2.758   3.525  0.3793 -0.2088  0.2666
 7611SOL     OW34465   1.414   2.394  13.377 -0.5929  0.4834  0.6098
 7611SOL    HW134466   1.371   2.323  13.424 -0.7698  0.8328  0.9662
 7611SOL    HW234467   1.497   2.348  13.364 -1.4595 -1.2814  1.3898
 7612SOL     OW34468   3.803   2.309   7.566  0.3321 -0.0183 -0.1829
 7612SOL    HW134469   3.732   2.370   7.548 -1.0191 -0.6983  2.7740
 7612SOL    HW234470   3.878   2.355   7.527  0.1349 -1.4472 -2.2328
 7613SOL     OW34471   1.503   1.764   9.627 -0.2512 -0.3364 -0.2989
 7613SOL    HW134472   1.574   1.806   9.578 -0.2834 -1.4391 -1.3042
 7613SOL    HW234473   1.451   1.751   9.548 -0.9953 -0.3197  0.1896
 7614SOL     OW34474   4.106   1.370   0.091  0.7386  0.9749 -0.3241
 7614SOL    HW134475   4.144   1.369   0.003  2.6398 -1.8451  0.5147
 7614SOL    HW234476   4.024   1.323   0.076  0.3892  1.2696  0.6616
 7615SOL     OW34477   2.100   4.179   8.169 -0.1793  0.4233 -0.9655
 7615SOL    HW134478   2.089   4.088   8.140 -0.4416  0.1312  0.0140
 7615SOL    HW234479   2.021   4.195   8.221  0.4746 -1.2353  0.5574
 7616SOL     OW34480   4.650   3.875   5.253 -0.0043  0.2826 -0.4428
 7616SOL    HW134481   4.708   3.838   5.187 -0.4020 -0.1697 -0.5346
 7616SOL    HW234482   4.692   3.953   5.289  0.5966 -0.0979 -0.3275
 7617SOL     OW34483   2.192   0.377  10.844 -0.1245  0.3935 -0.2613
 7617SOL    HW134484   2.234   0.462  10.833 -1.7432  1.0383 -1.4691
 7617SOL    HW234485   2.251   0.323  10.792  1.6856  0.6400  1.5277
 7618SOL     OW34486   1.140   4.465  17.498 -0.0468  1.2245 -0.7369
 7618SOL    HW134487   1.164   4.391  17.555 -2.7961  2.4766  2.0762
 7618SOL    HW234488   1.156   4.427  17.412  0.1013  0.4073 -0.3579
 7619SOL     OW34489   0.373   3.998   3.017 -0.3281  0.1609 -0.0205
 7619SOL    HW134490   0.448   3.939   3.003 -0.7297 -0.2346 -0.5226
 7619SOL    HW234491   0.304   3.937   2.990  0.6933 -1.0409  0.0490
 7620SOL     OW34492   0.638   2.077   6.430  0.0528  0.3207  0.2577
 7620SOL    HW134493   0.601   2.124   6.356  1.2351 -0.0420 -0.5595
 7620SOL    HW234494   0.571   2.085   6.498  0.9541  0.0010  1.1810
 7621SOL     OW34495   1.168   1.456  15.072  0.3147  0.0537 -0.1250
 7621SOL    HW134496   1.096   1.421  15.125 -0.1626  0.5905 -0.4119
 7621SOL    HW234497   1.122   1.498  14.999  2.5173  0.4092 -1.2851
 7622SOL     OW34498   2.784   1.057  16.739 -0.0520  0.0378  0.4153
 7622SOL    HW134499   2.876   1.042  16.761  0.2303 -1.7739 -2.0094
 7622SOL    HW234500   2.748   0.968  16.740 -0.4893  0.2219  1.1209
 7623SOL     OW34501   3.188   3.152   3.021 -0.2086  0.0986 -0.3660
 7623SOL    HW134502   3.220   3.228   2.973  0.1086 -0.4211 -0.9850
 7623SOL    HW234503   3.241   3.156   3.100 -0.1494  1.0631 -0.4570
 7624SOL     OW34504   4.493   1.157   5.289  0.1293 -0.5777  0.2467
 7624SOL    HW134505   4.467   1.137   5.199 -1.3639  1.6723  0.1922
 7624SOL    HW234506   4.409   1.137   5.330  1.1722 -0.6719  2.3074
 7625SOL     OW34507   2.510   2.363   7.099  0.0492  0.3779  0.2561
 7625SOL    HW134508   2.594   2.341   7.059  1.2798  3.6493  1.0553
 7625SOL    HW234509   2.539   2.363   7.190  0.1508  2.2786  0.2208
 7626SOL     OW34510   1.527   4.653   5.639 -0.0426 -0.3370 -0.9775
 7626SOL    HW134511   1.543   4.607   5.722  3.1386  0.7090 -1.0422
 7626SOL    HW234512   1.441   4.617   5.616 -0.3373 -0.2724  0.0171
 7627SOL     OW34513   4.172   1.481   3.926 -0.1587  0.4714  0.5255
 7627SOL    HW134514   4.217   1.406   3.888  0.4812  1.0027  0.2255
 7627SOL    HW234515   4.210   1.555   3.878  3.3610 -1.3588  0.5051
 7628SOL     OW34516   3.323   1.532   1.621 -0.2211  0.3560 -0.3351
 7628SOL    HW134517   3.237   1.572   1.626 -1.4575 -2.8917  3.7114
 7628SOL    HW234518   3.298   1.444   1.649  1.8066 -0.0655  0.1843
 7629SOL     OW34519   0.277   1.539   8.043  0.2167  0.0600 -0.3178
 7629SOL    HW134520   0.334   1.610   8.072  2.2382 -1.5262 -0.3546
 7629SOL    HW234521   0.203   1.558   8.101  0.0265  0.9117 -0.8441
 7630SOL     OW34522   3.206   1.374   1.961  0.2626 -0.4419  0.1137
 7630SOL    HW134523   3.296   1.341   1.963  0.5858  0.4343 -0.0426
 7630SOL    HW234524   3.176   1.354   1.873 -1.2110 -1.3318  0.8025
 7631SOL     OW34525   3.547   4.245   9.215 -0.3935 -0.6087 -0.5521
 7631SOL    HW134526   3.587   4.206   9.137  0.4174 -2.0190  0.5660
 7631SOL    HW234527   3.619   4.264   9.274  0.6509  1.1977 -2.4190
 7632SOL     OW34528   0.335   0.237   9.442 -0.3785 -0.6644  0.8205
 7632SOL    HW134529   0.317   0.244   9.536 -1.8924  2.3049  0.3095
 7632SOL    HW234530   0.398   0.309   9.435 -1.2178 -0.0383 -0.3322
 7633SOL     OW34531   2.309   0.510   6.626  0.4268  0.8770  0.2950
 7633SOL    HW134532   2.305   0.536   6.534  1.3031  2.4183  0.6836
 7633SOL    HW234533   2.374   0.440   6.623 -2.2063 -1.4517 -2.1156
 7634SOL     OW34534   0.852   4.521   6.978 -0.0064 -0.2319  0.1498
 7634SOL    HW134535   0.883   4.590   7.036 -0.7017 -0.7379  1.1290
 7634SOL    HW234536   0.909   4.534   6.903  1.6805  1.4788  1.7385
 7635SOL     OW34537   3.889   1.830  17.178  0.2058 -0.7092 -0.3690
 7635SOL    HW134538   3.963   1.879  17.141  0.6563 -0.5174  0.7649
 7635SOL    HW234539   3.849   1.794  17.100 -1.7764  0.2512  0.2078
 7636SOL     OW34540   3.493   0.417  14.155  0.5089  0.0679 -0.0006
 7636SOL    HW134541   3.499   0.496  14.209 -0.7358  0.3614 -0.3009
 7636SOL    HW234542   3.514   0.452  14.068  0.3268  0.8826  0.2838
 7637SOL     OW34543   3.939   3.608   3.618 -0.3156  0.5659 -0.4410
 7637SOL    HW134544   3.856   3.573   3.648 -0.2214  0.3037 -0.4858
 7637SOL    HW234545   3.959   3.668   3.690  1.0090 -3.6268  2.6664
 7638SOL     OW34546   4.021   4.388   5.031  0.2602 -0.0711 -0.2767
 7638SOL    HW134547   3.995   4.419   5.117 -0.0931 -1.3009  0.0557
 7638SOL    HW234548   3.980   4.303   5.016 -0.0893 -0.0390  0.5358
 7639SOL     OW34549   3.570   2.972   1.895 -0.0765  0.0093  0.5433
 7639SOL    HW134550   3.545   3.000   1.807 -1.2346 -0.5238  0.6991
 7639SOL    HW234551   3.494   2.914   1.899 -0.0139 -0.1113 -0.0879
 7640SOL     OW34552   2.876   3.945   6.429 -0.0439 -0.1503  0.3298
 7640SOL    HW134553   2.885   3.984   6.342 -2.5924 -0.0181  0.1521
 7640SOL    HW234554   2.788   3.978   6.444  0.6614  2.0243 -0.2552
 7641SOL     OW34555   1.282   4.554   2.024  0.0162 -0.5986  0.6502
 7641SOL    HW134556   1.301   4.513   2.108  1.4348  0.0222  0.6304
 7641SOL    HW234557   1.291   4.479   1.966 -0.2718 -0.2623  0.1730
 7642SOL     OW34558   3.609   4.124   5.524 -0.0968 -0.3970  0.2622
 7642SOL    HW134559   3.598   4.199   5.583 -0.0156  0.4206 -0.7595
 7642SOL    HW234560   3.522   4.114   5.484  0.1142 -1.4211  0.0702
 7643SOL     OW34561   2.042   2.865  12.877  0.3843  0.4273 -0.4641
 7643SOL    HW134562   2.105   2.876  12.806  0.0513  1.4380 -0.6106
 7643SOL    HW234563   2.090   2.806  12.934 -1.1037  0.3849  0.7420
 7644SOL     OW34564   4.515   2.831   4.577  0.2890 -0.0250  0.7001
 7644SOL    HW134565   4.569   2.836   4.499 -0.0397  1.3428  0.5739
 7644SOL    HW234566   4.487   2.740   4.569  0.0775  0.0271  0.8244
 7645SOL     OW34567   4.001   3.866  13.021 -0.1965 -0.3157 -0.1542
 7645SOL    HW134568   4.040   3.816  12.950  1.7864 -1.2133  1.5944
 7645SOL    HW234569   4.024   3.952  12.986 -1.0821 -0.6231 -1.5032
 7646SOL     OW34570   1.344   4.140   3.858 -0.6840  0.1549  0.0289
 7646SOL    HW134571   1.439   4.131   3.860 -0.9090 -2.9788 -2.5968
 7646SOL    HW234572   1.333   4.164   3.766 -1.1920 -2.3788 -0.5789
 7647SOL     OW34573   3.814   0.904  15.726 -0.0560 -0.1929 -0.0820
 7647SOL    HW134574   3.830   0.997  15.738 -2.2517  0.3454 -1.4262
 7647SOL    HW234575   3.904   0.876  15.705  0.0046 -2.2946  3.0747
 7648SOL     OW34576   4.506   4.722   5.508 -0.0824  0.1683  0.2639
 7648SOL    HW134577   4.519   4.628   5.521  0.9433  0.1339 -1.0829
 7648SOL    HW234578   4.417   4.719   5.472  0.2908 -0.8552 -0.5647
 7649SOL     OW34579   0.115   0.361   1.669  0.6261 -0.7456 -0.3986
 7649SOL    HW134580   0.067   0.281   1.688 -0.8157 -0.1663 -1.6649
 7649SOL    HW234581   0.050   0.429   1.686  1.8598 -0.1471  2.0245
 7650SOL     OW34582   0.548   3.935   7.210 -0.0421 -0.1438 -0.0393
 7650SOL    HW134583   0.469   3.933   7.155 -0.4938 -1.1198  0.6471
 7650SOL    HW234584   0.585   4.021   7.190  0.3120  0.1459  1.9288
 7651SOL     OW34585   0.975   0.988   8.530  0.2173  0.0579  0.0425
 7651SOL    HW134586   0.901   0.954   8.580 -1.0516  1.1925 -1.0509
 7651SOL    HW234587   0.957   1.082   8.538 -0.2697  0.1097 -1.5118
 7652SOL     OW34588   0.009   3.453   6.863 -0.2848 -0.4190  0.5567
 7652SOL    HW134589   4.698   3.373   6.890 -2.1170  0.8625  1.1518
 7652SOL    HW234590   0.089   3.413   6.826 -0.0291  0.0410  0.6185
 7653SOL     OW34591   2.838   4.189  16.744 -0.0252 -0.2635 -0.6131
 7653SOL    HW134592   2.837   4.243  16.665 -0.5345 -0.3173 -0.6433
 7653SOL    HW234593   2.752   4.150  16.735  0.6120 -0.7514 -4.3459
 7654SOL     OW34594   0.733   4.013   3.210  0.0957 -0.1010 -0.7547
 7654SOL    HW134595   0.713   3.956   3.284  1.1347  0.1875 -0.2553
 7654SOL    HW234596   0.820   3.980   3.189  0.3941  1.2899 -1.6777
 7655SOL     OW34597   0.078   2.493   3.614 -0.1468  0.2206  0.6703
 7655SOL    HW134598   0.104   2.407   3.646  0.7481  0.0219 -0.6189
 7655SOL    HW234599   4.735   2.501   3.669  0.8105  2.8093  1.6868
 7656SOL     OW34600   3.936   1.489   0.810  0.1449  0.0231 -0.5923
 7656SOL    HW134601   4.009   1.486   0.748  0.2072  0.2456 -0.5294
 7656SOL    HW234602   3.869   1.501   0.743 -0.8737  0.2671  0.4631
 7657SOL     OW34603   1.469   2.518   5.694  0.0290  0.4781 -0.2365
 7657SOL    HW134604   1.421   2.571   5.631 -1.8141  0.0589  0.8045
 7657SOL    HW234605   1.552   2.565   5.684 -0.5212  1.2392 -1.1659
 7658SOL     OW34606   1.933   3.672   3.781  0.2755 -0.0223  0.3964
 7658SOL    HW134607   1.889   3.636   3.704  0.2246 -2.4453  1.5731
 7658SOL    HW234608   2.015   3.704   3.744 -0.1632  0.8507  0.1763
 7659SOL     OW34609   0.785   3.750   1.208  0.3200 -0.3124  0.3366
 7659SOL    HW134610   0.867   3.782   1.246  1.5441 -3.5654  0.3899
 7659SOL    HW234611   0.812   3.696   1.134 -1.7362  0.1475 -0.7526
 7660SOL     OW34612   0.923   0.944   7.794 -0.1360  0.1687 -0.2261
 7660SOL    HW134613   0.939   1.035   7.769  1.0537  0.3457  1.2086
 7660SOL    HW234614   0.950   0.948   7.886  0.5321 -0.3191 -0.4076
 7661SOL     OW34615   3.398   0.727   1.909  0.0614 -0.5757 -0.1213
 7661SOL    HW134616   3.350   0.694   1.833  0.4148 -0.5961 -0.3353
 7661SOL    HW234617   3.486   0.698   1.883  0.6489  1.0512  0.0504
 7662SOL     OW34618   1.747   3.906   9.731  0.1962  0.2972  0.0844
 7662SOL    HW134619   1.824   3.962   9.739  0.5652  0.2245 -3.0716
 7662SOL    HW234620   1.772   3.831   9.678  1.0085  0.2348  0.5597
 7663SOL     OW34621   3.333   0.830   5.481 -0.0814 -0.3712  0.3751
 7663SOL    HW134622   3.301   0.778   5.407  1.7595 -1.3706  0.2769
 7663SOL    HW234623   3.351   0.769   5.552  0.9078 -0.6896 -0.1528
 7664SOL     OW34624   1.461   1.220   6.946  0.1364  0.1723 -0.1862
 7664SOL    HW134625   1.450   1.295   7.005 -0.3337  2.3009 -2.9537
 7664SOL    HW234626   1.367   1.214   6.930  0.4204 -1.1953 -1.3326
 7665SOL     OW34627   0.501   2.971   3.446 -0.1958  0.0992  0.0812
 7665SOL    HW134628   0.453   2.902   3.400  0.3864 -0.0599 -0.2760
 7665SOL    HW234629   0.440   3.045   3.449  0.5986  0.7630 -0.4051
 7666SOL     OW34630   4.519   2.547   9.027 -0.3642  0.7897 -0.1867
 7666SOL    HW134631   4.561   2.603   9.093 -1.5862  0.9462  0.4705
 7666SOL    HW234632   4.434   2.521   9.061 -0.4906  2.7671  1.0456
 7667SOL     OW34633   0.321   2.454   9.049  0.0717 -0.4833  0.1750
 7667SOL    HW134634   0.249   2.518   9.054 -0.5285 -1.0925 -0.6008
 7667SOL    HW234635   0.392   2.512   9.024  0.8968 -1.4309  0.3450
 7668SOL     OW34636   4.090   0.937  15.791 -0.1950 -0.1319  0.3598
 7668SOL    HW134637   4.111   1.012  15.848  1.4656  0.8448 -1.5502
 7668SOL    HW234638   4.097   0.993  15.714 -1.4244 -1.1510 -0.4794
 7669SOL     OW34639   2.987   3.448  10.164 -0.1771 -0.0110 -0.2831
 7669SOL    HW134640   3.069   3.399  10.166  0.6866  1.3655 -2.7607
 7669SOL    HW234641   2.995   3.491  10.249  1.2836 -2.0222  0.6031
 7670SOL     OW34642   3.786   0.057   7.451 -0.2455 -0.2558 -0.2802
 7670SOL    HW134643   3.701   0.101   7.442 -0.5651 -1.0819 -1.3024
 7670SOL    HW234644   3.793   0.047   7.546  1.0382 -1.5477 -0.5109
 7671SOL     OW34645   3.621   4.547   8.858  0.1376  0.4867 -0.3942
 7671SOL    HW134646   3.647   4.636   8.833  2.0286  0.2264  0.6690
 7671SOL    HW234647   3.581   4.527   8.773  1.6463 -0.4057 -0.8947
 7672SOL     OW34648   4.655   3.291  15.726  0.5547  0.2000  0.0039
 7672SOL    HW134649   4.718   3.359  15.747  0.4481 -0.1209  1.3617
 7672SOL    HW234650   4.610   3.333  15.653 -0.8319  4.2323  3.1979
 7673SOL     OW34651   0.959   1.213   1.464  0.0535 -0.2463 -0.2370
 7673SOL    HW134652   1.025   1.272   1.500  0.5382  0.6434 -2.5960
 7673SOL    HW234653   0.966   1.229   1.370  1.2122  0.1094 -0.0935
 7674SOL     OW34654   0.589   2.579   4.268 -0.6956  0.1022 -0.0623
 7674SOL    HW134655   0.556   2.551   4.354 -1.6099  1.6030  0.0842
 7674SOL    HW234656   0.510   2.622   4.233 -0.3855 -0.8783 -1.9130
 7675SOL     OW34657   3.095   4.231   5.632  0.4470  0.6757  0.1422
 7675SOL    HW134658   3.069   4.323   5.638 -0.4465  0.4390 -0.1298
 7675SOL    HW234659   3.008   4.192   5.639  1.9913 -2.6483  0.4583
 7676SOL     OW34660   2.301   1.819  14.465 -0.5207 -0.6346  0.0600
 7676SOL    HW134661   2.358   1.805  14.541 -0.6661 -0.9422  0.1134
 7676SOL    HW234662   2.303   1.732  14.426  1.2488 -0.3433 -0.4787
 7677SOL     OW34663   3.805   3.322   2.880  0.2394  0.1352  0.8941
 7677SOL    HW134664   3.846   3.386   2.822 -2.8578  0.8046 -0.5287
 7677SOL    HW234665   3.849   3.340   2.963  0.6162  3.6349 -0.0824
 7678SOL     OW34666   0.697   0.486   7.853  0.1613 -0.2286 -0.1831
 7678SOL    HW134667   0.738   0.562   7.811 -0.2547 -0.1547 -0.4641
 7678SOL    HW234668   0.633   0.530   7.909  2.6290  1.9119  0.9438
 7679SOL     OW34669   1.832   0.698  12.923  0.0611 -0.1653 -0.8503
 7679SOL    HW134670   1.839   0.674  12.830  0.2619 -0.7937 -0.6729
 7679SOL    HW234671   1.769   0.770  12.920 -0.7887 -0.8597  0.5830
 7680SOL     OW34672   2.726   3.161  12.627 -0.3578 -0.1410  0.5496
 7680SOL    HW134673   2.750   3.242  12.672  1.0401 -0.1801 -0.1183
 7680SOL    HW234674   2.811   3.117  12.619 -0.2941  0.1285 -0.2462
 7681SOL     OW34675   1.308   0.676  11.789 -0.0209  0.1250  0.1242
 7681SOL    HW134676   1.276   0.590  11.816 -3.3132  1.0179 -1.0162
 7681SOL    HW234677   1.288   0.727  11.867 -0.0622 -0.3273  0.4102
 7682SOL     OW34678   1.271   0.495   3.291  0.5629 -0.2877  0.7271
 7682SOL    HW134679   1.220   0.472   3.213  1.6866 -2.7146  0.6886
 7682SOL    HW234680   1.253   0.418   3.344  2.2474 -0.2424  1.3641
 7683SOL     OW34681   1.293   1.409   6.629  0.1283  0.0864 -0.3479
 7683SOL    HW134682   1.246   1.387   6.710  1.1045 -1.6625 -0.2481
 7683SOL    HW234683   1.295   1.501   6.653  0.5925  0.0124 -0.0916
 7684SOL     OW34684   3.481   3.443  17.248 -0.3487  0.2208 -0.5062
 7684SOL    HW134685   3.557   3.407  17.202  0.4231 -0.8920  1.6366
 7684SOL    HW234686   3.504   3.423  17.339  0.9727 -0.2935 -0.9409
 7685SOL     OW34687   4.259   2.265   4.949  0.0769  0.4978  0.6499
 7685SOL    HW134688   4.228   2.343   4.994 -1.1484  0.0348  0.5881
 7685SOL    HW234689   4.249   2.308   4.864  1.5088 -2.2342 -0.8779
 7686SOL     OW34690   3.902   3.265  10.095 -0.1136  0.0994  0.3654
 7686SOL    HW134691   3.908   3.357  10.069  1.2248  0.2963  1.3700
 7686SOL    HW234692   3.965   3.263  10.167  2.1091 -1.1405 -1.6051
 7687SOL     OW34693   1.958   1.841   9.526  0.2098  0.0280  0.5438
 7687SOL    HW134694   1.922   1.831   9.438 -0.2184 -1.1940  0.8589
 7687SOL    HW234695   2.043   1.799   9.521 -0.0456 -1.0235  4.8555
 7688SOL     OW34696   3.768   0.032   5.830  0.6356  0.2451  0.3121
 7688SOL    HW134697   3.817   0.096   5.881  0.7603 -0.4080  1.0139
 7688SOL    HW234698   3.838   0.013   5.767  1.1670 -1.3905  1.4005
 7689SOL     OW34699   2.103   1.062  17.482 -0.1234  0.1527  0.1712
 7689SOL    HW134700   2.045   1.082  17.555 -0.3479  2.6338 -0.6973
 7689SOL    HW234701   2.139   1.142  17.444  1.3738 -1.4275 -1.7456
 7690SOL     OW34702   3.837   2.463   2.065 -0.4289 -0.1490  0.6641
 7690SOL    HW134703   3.898   2.474   2.137 -0.5834 -0.1084  0.7876
 7690SOL    HW234704   3.894   2.500   1.997 -2.8941 -1.0328 -1.8759
 7691SOL     OW34705   3.316   4.346   5.797 -0.1021  0.5575 -0.2093
 7691SOL    HW134706   3.295   4.332   5.890  0.0416 -0.5809 -0.3611
 7691SOL    HW234707   3.271   4.268   5.766  2.1199 -1.0585  0.6176
 7692SOL     OW34708   2.996   1.177   4.244 -0.0572 -0.4955  0.1274
 7692SOL    HW134709   3.061   1.226   4.294  1.1008 -2.0314  0.1291
 7692SOL    HW234710   2.944   1.140   4.316  0.1081 -0.2469  0.3737
 7693SOL     OW34711   0.690   2.643  17.101  0.6377 -0.0229  0.3848
 7693SOL    HW134712   0.715   2.657  17.009  0.6048  1.3590  0.5826
 7693SOL    HW234713   0.749   2.703  17.147 -0.0111  0.4184  0.6382
 7694SOL     OW34714   0.288   1.356  13.772 -0.0446 -0.4057 -0.1837
 7694SOL    HW134715   0.260   1.444  13.748  0.1317 -1.1209 -2.9923
 7694SOL    HW234716   0.380   1.374  13.794  0.3139 -0.5822 -1.5590
 7695SOL     OW34717   2.702   1.563  15.305 -0.2977 -0.0326  0.2191
 7695SOL    HW134718   2.690   1.626  15.376  0.6565  0.9907 -0.5100
 7695SOL    HW234719   2.798   1.555  15.306 -0.2761  0.3387  1.2385
 7696SOL     OW34720   2.535   4.691   5.161  0.2325 -0.4454 -0.0204
 7696SOL    HW134721   2.541   4.714   5.068 -0.1009  1.8340  0.5026
 7696SOL    HW234722   2.593   4.616   5.161  0.9260  0.0942 -0.2071
 7697SOL     OW34723   1.604   3.894   6.388 -0.2921 -0.0678 -0.9328
 7697SOL    HW134724   1.679   3.915   6.444 -2.0703 -0.3105  1.5010
 7697SOL    HW234725   1.641   3.822   6.337 -0.4007 -0.9603  0.2467
 7698SOL     OW34726   0.790   3.717   4.371 -0.2890  0.4826  0.0306
 7698SOL    HW134727   0.862   3.671   4.415  0.0145  0.4674 -0.4785
 7698SOL    HW234728   0.821   3.722   4.281 -0.8846 -2.7391 -0.3596
 7699SOL     OW34729   2.387   4.005   1.659 -0.2824  0.1188 -0.3261
 7699SOL    HW134730   2.458   3.950   1.692 -1.5644 -1.4745 -0.2361
 7699SOL    HW234731   2.336   3.944   1.607  0.8971 -1.2434  0.1182
 7700SOL     OW34732   4.133   3.068   4.633 -0.0570 -0.0221 -0.4288
 7700SOL    HW134733   4.142   3.160   4.611  1.3727 -0.0346  0.1689
 7700SOL    HW234734   4.206   3.055   4.693  0.4348  0.3044 -0.9683
 7701SOL     OW34735   3.748   2.739   5.550 -0.8654  0.5066 -0.2537
 7701SOL    HW134736   3.837   2.756   5.583 -0.4583  0.9101 -1.5393
 7701SOL    HW234737   3.731   2.787   5.470  2.7022  2.0434 -0.0775
 7702SOL     OW34738   1.732   4.203   8.600 -0.2073  0.5566  0.7193
 7702SOL    HW134739   1.697   4.167   8.682 -0.1079  2.6718  1.6651
 7702SOL    HW234740   1.657   4.224   8.544  0.4854  1.0882  0.0019
 7703SOL     OW34741   0.674   0.188   7.438  0.1747  0.0942 -0.5155
 7703SOL    HW134742   0.726   0.119   7.397 -0.6959  1.7718 -4.4789
 7703SOL    HW234743   0.598   0.146   7.479 -0.7067 -0.8555 -3.1091
 7704SOL     OW34744   0.370   4.705   5.366 -0.3204 -0.6286  0.3520
 7704SOL    HW134745   0.317   4.717   5.445 -1.4976 -2.4563 -0.1608
 7704SOL    HW234746   0.307   4.684   5.297 -0.2131  0.1261  0.0183
 7705SOL     OW34747   2.562   2.974   0.915 -0.2146 -0.3042 -0.4471
 7705SOL    HW134748   2.554   3.034   0.989 -0.3019 -1.6795  0.6634
 7705SOL    HW234749   2.599   2.893   0.949 -0.7641 -0.7673 -0.9254
 7706SOL     OW34750   2.684   3.668  16.168  0.4467  0.0244 -0.2563
 7706SOL    HW134751   2.729   3.751  16.152  1.5068 -0.4331  0.3746
 7706SOL    HW234752   2.637   3.660  16.085  1.5291 -0.0928 -0.8688
 7707SOL     OW34753   3.200   3.753  17.536 -0.4346  0.4744  0.4619
 7707SOL    HW134754   3.269   3.701  17.578 -1.0533 -0.0700  0.8239
 7707SOL    HW234755   3.116   3.708  17.547 -0.1710 -0.5552 -1.8116
 7708SOL     OW34756   2.058   2.350  17.126 -0.1843 -0.0012 -0.4796
 7708SOL    HW134757   2.057   2.257  17.101  0.1971  0.3574 -1.8443
 7708SOL    HW234758   2.130   2.344  17.189 -0.2563  0.5266 -0.3496
 7709SOL     OW34759   1.774   0.660   7.393 -0.4994  0.3848  0.1399
 7709SOL    HW134760   1.733   0.579   7.363 -0.4209  1.2051 -2.1258
 7709SOL    HW234761   1.868   0.645   7.387 -0.5596  0.4360 -0.8401
 7710SOL     OW34762   0.677   0.401   1.379 -0.0984  0.2829  0.5477
 7710SOL    HW134763   0.741   0.334   1.400  2.7232  2.7243 -0.2726
 7710SOL    HW234764   0.605   0.344   1.353  0.7139 -0.6299  0.3062
 7711SOL     OW34765   2.046   1.437   1.877 -0.2749 -0.0772  0.3558
 7711SOL    HW134766   2.120   1.477   1.831 -0.8553  0.7157  0.0962
 7711SOL    HW234767   1.988   1.513   1.888  1.4130  0.6291  4.2983
 7712SOL     OW34768   1.409   2.461   4.389 -0.2894 -0.1719  0.1517
 7712SOL    HW134769   1.342   2.407   4.430  0.2897 -0.4230  0.7649
 7712SOL    HW234770   1.396   2.446   4.295  0.5034  0.7015 -0.0967
 7713SOL     OW34771   0.718   2.599   9.866 -0.2022 -0.0452  0.2741
 7713SOL    HW134772   0.720   2.503   9.871  0.7373 -0.1788 -2.7531
 7713SOL    HW234773   0.776   2.614   9.792  0.7343 -2.2711  0.5586
 7714SOL     OW34774   0.231   4.276   9.647  0.6707 -0.6113 -0.9395
 7714SOL    HW134775   0.162   4.232   9.695  0.5745  0.6162  0.0620
 7714SOL    HW234776   0.185   4.355   9.619  0.9702  0.0102  0.2908
 7715SOL     OW34777   3.142   2.777   6.795  0.2143  0.8448 -0.0183
 7715SOL    HW134778   3.218   2.832   6.777  0.2041  1.2659  1.2178
 7715SOL    HW234779   3.188   2.700   6.829  1.2653  2.4215  2.1922
 7716SOL     OW34780   3.217   1.280   4.419  0.1583 -0.4867  0.5068
 7716SOL    HW134781   3.237   1.269   4.512  1.2623 -0.3025  0.2849
 7716SOL    HW234782   3.307   1.277   4.387  0.5649  1.0085  1.5560
 7717SOL     OW34783   0.662   2.792  10.882 -0.5356  0.7410  0.1655
 7717SOL    HW134784   0.739   2.791  10.938 -0.8764 -0.9504  0.6010
 7717SOL    HW234785   0.597   2.751  10.940  0.4515 -2.2200 -0.8046
 7718SOL     OW34786   2.562   2.998   8.121  0.2323 -0.2604 -0.0280
 7718SOL    HW134787   2.626   3.069   8.109  1.8876 -1.9991 -1.3954
 7718SOL    HW234788   2.486   3.032   8.167 -0.1718  1.4542 -1.9448
 7719SOL     OW34789   3.986   3.507   4.828 -0.0189  0.0954 -0.2557
 7719SOL    HW134790   3.997   3.464   4.913  0.6642 -0.3716 -0.5750
 7719SOL    HW234791   3.939   3.440   4.779 -0.0001 -0.1782  0.1038
 7720SOL     OW34792   2.169   2.406  11.883 -0.3148  0.4162 -0.5440
 7720SOL    HW134793   2.179   2.313  11.861  1.8701  0.2852  0.9249
 7720SOL    HW234794   2.217   2.452  11.814  1.1333  2.5049  1.8487
 7721SOL     OW34795   2.202   4.154   9.610 -0.2082 -0.3845 -0.2120
 7721SOL    HW134796   2.232   4.245   9.612  0.3702 -0.6484  2.2302
 7721SOL    HW234797   2.268   4.099   9.568 -0.6969 -0.7812 -0.4612
 7722SOL     OW34798   0.145   2.880   5.517  0.2640  0.0794  0.2214
 7722SOL    HW134799   0.194   2.845   5.443 -2.7229 -1.2984 -1.1267
 7722SOL    HW234800   0.095   2.801   5.538  0.0431 -0.0528 -0.8374
 7723SOL     OW34801   0.803   1.938   3.362  0.2297  0.2602 -0.4838
 7723SOL    HW134802   0.837   1.943   3.451 -1.0138 -1.4987  0.0807
 7723SOL    HW234803   0.740   1.868   3.377  0.4279 -0.2115 -1.8187
 7724SOL     OW34804   4.404   2.879   3.922 -0.3762 -0.0554 -0.1838
 7724SOL    HW134805   4.494   2.855   3.944 -0.9894  0.3488  2.9005
 7724SOL    HW234806   4.366   2.797   3.891 -1.8436  1.3859 -2.1642
 7725SOL     OW34807   1.038   2.893   4.218  0.7944  0.0979  0.1059
 7725SOL    HW134808   1.002   2.915   4.304 -0.4514  1.6493 -0.8021
 7725SOL    HW234809   0.980   2.817   4.208 -0.0339  0.4385  2.2329
 7726SOL     OW34810   1.899   0.967   6.735  0.1206  0.3345 -0.5232
 7726SOL    HW134811   1.988   0.970   6.770  0.0336 -1.0382 -0.1898
 7726SOL    HW234812   1.848   1.021   6.795 -0.5821 -1.9879  0.9289
 7727SOL     OW34813   2.889   1.106  17.594 -0.1147 -0.2148  0.2767
 7727SOL    HW134814   2.841   1.048  17.653 -0.7812  1.5298  1.4663
 7727SOL    HW234815   2.863   1.072  17.508 -1.7367 -1.4178  1.2503
 7728SOL     OW34816   2.066   4.316   2.962  0.1108  0.2278 -0.8609
 7728SOL    HW134817   1.974   4.317   2.937 -0.3988 -1.7079  0.9644
 7728SOL    HW234818   2.087   4.394   3.013 -1.7005  2.0205 -2.8567
 7729SOL     OW34819   4.023   2.467   1.829  0.2627  0.1610  0.9391
 7729SOL    HW134820   3.933   2.444   1.805  0.8814  0.8161 -1.9870
 7729SOL    HW234821   4.049   2.516   1.751  0.7122 -1.2682  0.2072
 7730SOL     OW34822   4.567   0.422  11.838  0.5749  0.1848  0.0618
 7730SOL    HW134823   4.576   0.514  11.815 -0.7507 -0.4011 -2.8550
 7730SOL    HW234824   4.574   0.388  11.749 -0.6540 -1.0212  0.4332
 7731SOL     OW34825   4.385   0.831   7.677 -0.5117 -0.4783 -0.1583
 7731SOL    HW134826   4.344   0.918   7.676 -1.2475 -0.8230  0.0959
 7731SOL    HW234827   4.335   0.787   7.608 -0.9333 -0.5434  0.1898
 7732SOL     OW34828   4.393   1.061   9.071 -0.7410 -0.0524 -0.3064
 7732SOL    HW134829   4.481   1.028   9.086 -0.3118  0.0253 -2.6150
 7732SOL    HW234830   4.355   1.055   9.158  0.6315  0.1389  0.2981
 7733SOL     OW34831   3.786   0.403  10.057  0.3629 -0.6201  0.1198
 7733SOL    HW134832   3.716   0.414  10.121 -0.3942  0.4059 -0.8879
 7733SOL    HW234833   3.810   0.310  10.063 -1.3293 -0.9366  1.6582
 7734SOL     OW34834   4.291   0.790   1.336 -0.1598  0.1982 -0.3505
 7734SOL    HW134835   4.333   0.860   1.385  0.1355 -0.5692  0.4982
 7734SOL    HW234836   4.218   0.837   1.296  0.6918  2.4963  0.7786
 7735SOL     OW34837   3.714   0.365   1.649  0.1413 -0.2738  0.1891
 7735SOL    HW134838   3.704   0.276   1.615 -0.3051  0.4612 -1.6287
 7735SOL    HW234839   3.757   0.407   1.574 -1.3176 -1.3581 -1.2419
 7736SOL     OW34840   2.538   1.228   5.036  0.6373  0.4530  0.7177
 7736SOL    HW134841   2.455   1.189   5.064  1.0562 -1.7118 -0.9634
 7736SOL    HW234842   2.568   1.272   5.115  1.5523 -0.7660  1.0590
 7737SOL     OW34843   2.311   3.688   1.819  0.7237  0.0704 -0.1876
 7737SOL    HW134844   2.345   3.702   1.908  2.0067 -0.4082 -0.6058
 7737SOL    HW234845   2.266   3.605   1.833  1.5037 -0.3154  0.0362
 7738SOL     OW34846   4.352   1.002   5.511  0.2223  0.4005  0.0065
 7738SOL    HW134847   4.309   0.976   5.430  1.6646  1.5431 -1.1251
 7738SOL    HW234848   4.434   0.954   5.516 -1.9698 -3.1849  1.9097
 7739SOL     OW34849   2.403   1.065   3.907 -0.3085 -0.5413 -0.2447
 7739SOL    HW134850   2.331   1.105   3.859 -0.4272 -2.8538 -1.9494
 7739SOL    HW234851   2.455   1.020   3.841  1.9929 -0.1688  1.2847
 7740SOL     OW34852   1.458   0.476  14.969 -0.3556 -0.2225 -0.4303
 7740SOL    HW134853   1.541   0.444  14.933 -1.0777 -1.2489 -1.1730
 7740SOL    HW234854   1.428   0.530  14.897 -2.1714 -0.9255 -0.1965
 7741SOL     OW34855   1.423   3.005   7.040 -0.3293 -0.0537 -0.0505
 7741SOL    HW134856   1.501   2.968   7.001 -0.2748  0.3276 -0.3066
 7741SOL    HW234857   1.403   3.080   6.983  1.7741 -0.3589 -1.1781
 7742SOL     OW34858   0.916   4.258   6.378 -0.1351 -0.1745  0.2153
 7742SOL    HW134859   0.993   4.219   6.420 -0.5842 -1.9825 -0.6586
 7742SOL    HW234860   0.948   4.339   6.337 -0.3226 -1.0432 -1.6627
 7743SOL     OW34861   3.399   3.369   6.543  0.1564 -0.6787  0.0835
 7743SOL    HW134862   3.314   3.385   6.500 -0.2476 -0.2880  1.0184
 7743SOL    HW234863   3.434   3.296   6.492 -0.2758  0.1918 -1.4711
 7744SOL     OW34864   0.754   0.696   9.572  0.4144 -0.2987 -0.1092
 7744SOL    HW134865   0.842   0.706   9.609 -0.0635 -2.1968  1.5524
 7744SOL    HW234866   0.699   0.712   9.648  0.6501 -0.0912  0.0177
 7745SOL     OW34867   2.599   0.875   8.736  0.1934 -0.7662  0.5593
 7745SOL    HW134868   2.604   0.961   8.696 -2.5926 -1.5192 -1.3976
 7745SOL    HW234869   2.676   0.833   8.699 -0.2804 -1.9841  0.9238
 7746SOL     OW34870   3.180   0.290   8.236  0.0961  0.3374 -0.0534
 7746SOL    HW134871   3.177   0.199   8.267  1.8698  0.9303  1.8546
 7746SOL    HW234872   3.097   0.292   8.188 -0.7173  0.1803  1.3666
 7747SOL     OW34873   4.017   1.678   4.433 -0.1311 -0.0259  0.1211
 7747SOL    HW134874   3.992   1.593   4.471  2.3383 -1.7171 -2.0589
 7747SOL    HW234875   4.065   1.664   4.352  1.4678  2.0560  0.7172
 7748SOL     OW34876   4.245   2.473  13.174 -0.2261 -0.0778  0.4039
 7748SOL    HW134877   4.230   2.546  13.234 -0.1183 -0.5851  1.0475
 7748SOL    HW234878   4.180   2.408  13.201  0.8083 -1.0784  0.4606
 7749SOL     OW34879   2.556   0.821   9.085 -0.1864 -0.0391 -0.4132
 7749SOL    HW134880   2.609   0.742   9.071 -0.7098 -0.3542 -0.6049
 7749SOL    HW234881   2.571   0.819   9.180 -1.5298  0.9114 -0.1783
 7750SOL     OW34882   0.048   3.300   9.952 -0.2232 -0.1685  0.2388
 7750SOL    HW134883   4.733   3.333  10.026 -0.2216 -3.0135  1.5274
 7750SOL    HW234884   0.135   3.333   9.971 -0.6349  0.6337  0.7171
 7751SOL     OW34885   2.503   2.372   8.831 -0.0756  0.0045 -0.4997
 7751SOL    HW134886   2.491   2.461   8.865  0.1112 -0.7497  1.5095
 7751SOL    HW234887   2.594   2.354   8.856 -0.7138 -0.6853  1.3272
 7752SOL     OW34888   0.557   1.006   3.313 -0.2975 -0.2531  0.2123
 7752SOL    HW134889   0.637   1.057   3.323  0.7809 -1.9711  0.4443
 7752SOL    HW234890   0.585   0.927   3.360 -1.5453 -0.9991 -0.2950
 7753SOL     OW34891   2.772   3.326   7.107  0.3842 -0.2325  0.1356
 7753SOL    HW134892   2.792   3.357   7.195 -1.7898 -0.7201  0.8132
 7753SOL    HW234893   2.712   3.254   7.124 -0.9268  1.0561  0.9851
 7754SOL     OW34894   3.308   0.541   8.540  0.7586  0.1253 -0.2286
 7754SOL    HW134895   3.323   0.613   8.478  1.1375 -0.0917 -0.3859
 7754SOL    HW234896   3.369   0.561   8.610 -0.3827 -1.5095  1.2328
 7755SOL     OW34897   0.395   4.521  17.421  0.0659 -0.0666  0.1292
 7755SOL    HW134898   0.467   4.500  17.362  0.0106  1.1277 -0.3618
 7755SOL    HW234899   0.394   4.612  17.390  0.2626  0.1229  0.6705
 7756SOL     OW34900   1.225   2.846   7.753  0.3296  0.3221  0.0336
 7756SOL    HW134901   1.300   2.787   7.756  0.6889  0.7424 -0.5743
 7756SOL    HW234902   1.261   2.923   7.798 -1.3359  2.6267 -2.5951
 7757SOL     OW34903   3.857   0.869   7.307  0.2204  0.0760  0.1886
 7757SOL    HW134904   3.927   0.807   7.289  0.4493 -0.2726  2.2030
 7757SOL    HW234905   3.888   0.943   7.254  0.0761  0.3096  0.4280
 7758SOL     OW34906   3.453   1.685   7.673 -0.3053 -0.3958  0.2609
 7758SOL    HW134907   3.404   1.604   7.684  0.1358 -0.4538  1.9158
 7758SOL    HW234908   3.459   1.708   7.766  0.0795 -0.9521  0.3757
 7759SOL     OW34909   3.008   1.811  10.029  0.2805  0.3547  0.1650
 7759SOL    HW134910   2.929   1.839  10.076  1.5085  0.5483  2.1319
 7759SOL    HW234911   3.010   1.716  10.027 -1.2779  0.2896  0.9085
 7760SOL     OW34912   1.403   1.427   8.291 -0.1718 -0.3343  0.4806
 7760SOL    HW134913   1.398   1.503   8.350  0.3635  0.8495 -0.9862
 7760SOL    HW234914   1.393   1.353   8.351  1.1064  0.4783  1.7079
 7761SOL     OW34915   0.592   2.309   8.222 -0.1070  0.3974  0.1227
 7761SOL    HW134916   0.556   2.265   8.144 -2.0504  0.2766  1.0819
 7761SOL    HW234917   0.518   2.289   8.281 -1.8034  1.0195 -1.7943
 7762SOL     OW34918   3.950   3.264   7.321  0.0797 -0.5380 -0.1720
 7762SOL    HW134919   3.883   3.297   7.263 -0.6273  1.2912  1.6711
 7762SOL    HW234920   3.899   3.255   7.402 -0.9193  0.5473 -0.6796
 7763SOL     OW34921   1.478   1.265   3.692 -0.0952 -0.3539 -0.4480
 7763SOL    HW134922   1.417   1.202   3.731  0.3101 -0.3236  0.2155
 7763SOL    HW234923   1.443   1.274   3.603  0.1360  1.3144 -0.3614
 7764SOL     OW34924   3.916   1.396   1.059  0.0328  0.1462 -0.6891
 7764SOL    HW134925   3.944   1.429   0.974  0.6638  0.5430 -0.3259
 7764SOL    HW234926   3.974   1.319   1.061  1.4709  1.2284 -0.5621
 7765SOL     OW34927   3.126   0.752   8.231 -0.0595  0.4241 -0.1380
 7765SOL    HW134928   3.133   0.676   8.174  1.0239  1.2249 -1.0562
 7765SOL    HW234929   3.094   0.815   8.167  1.3671 -1.1225 -2.3405
 7766SOL     OW34930   1.202   4.272   4.098 -0.0865 -0.0200  0.2416
 7766SOL    HW134931   1.238   4.354   4.062 -0.1422 -0.8597 -1.7633
 7766SOL    HW234932   1.230   4.211   4.030  2.3062  1.3082 -0.0003
 7767SOL     OW34933   0.489   1.788   4.526  0.1670  0.0179 -0.7944
 7767SOL    HW134934   0.558   1.787   4.460 -1.0644 -1.7917 -2.0644
 7767SOL    HW234935   0.446   1.705   4.504  0.4053 -0.3530  0.1683
 7768SOL     OW34936   3.066   4.612  13.448  0.1893  0.5246  0.2597
 7768SOL    HW134937   3.001   4.658  13.395  1.3493 -0.2670 -1.8537
 7768SOL    HW234938   3.121   4.563  13.387 -0.2274  0.2395  0.1109
 7769SOL     OW34939   0.327   0.076  10.776  0.0144 -0.2204 -0.1956
 7769SOL    HW134940   0.364   0.084  10.688 -1.0621 -0.3173 -0.6602
 7769SOL    HW234941   0.334   0.168  10.803 -0.6125 -0.5535  1.0905
 7770SOL     OW34942   4.662   0.051   8.842  0.1722  0.0165 -0.1635
 7770SOL    HW134943   4.606   0.073   8.768  2.6201 -0.1865 -2.1008
 7770SOL    HW234944   4.590   0.031   8.902  0.6441 -1.1901  0.0012
 7771SOL     OW34945   0.474   0.301   9.681 -0.0651 -0.1052  0.7383
 7771SOL    HW134946   0.503   0.342   9.600 -0.9533  1.7917  1.3770
 7771SOL    HW234947   0.527   0.222   9.672  1.2425  0.8352  0.2013
 7772SOL     OW34948   0.167   3.650   0.465 -0.2413 -1.2822  0.6466
 7772SOL    HW134949   0.145   3.733   0.423  1.2697 -2.1624 -1.8495
 7772SOL    HW234950   0.106   3.587   0.428 -2.2804  0.2379  1.3952
 7773SOL     OW34951   2.177   3.122   2.408 -0.0062 -0.6752 -0.3333
 7773SOL    HW134952   2.161   3.034   2.443 -0.1929 -0.3515  0.3811
 7773SOL    HW234953   2.102   3.159   2.454  0.3611  0.8046 -0.9541
 7774SOL     OW34954   1.942   2.406   5.028 -0.2395 -0.0420 -0.1391
 7774SOL    HW134955   1.853   2.440   5.019 -0.5774 -0.0932  2.7091
 7774SOL    HW234956   1.996   2.481   5.003  1.1056 -0.5933  1.0959
 7775SOL     OW34957   3.773   1.579   8.183  0.3295 -0.3484  0.0292
 7775SOL    HW134958   3.812   1.596   8.269  0.5740 -0.7890  0.0088
 7775SOL    HW234959   3.850   1.577   8.126  1.0034  1.1319  0.9062
 7776SOL     OW34960   2.041   4.497   4.144 -0.5016 -0.2829 -0.1130
 7776SOL    HW134961   2.079   4.484   4.058  1.9945  1.9450  0.6462
 7776SOL    HW234962   2.079   4.426   4.197  2.0925  1.4961  0.4504
 7777SOL     OW34963   3.585   1.079   6.234 -0.0266  0.3348 -0.1505
 7777SOL    HW134964   3.530   1.048   6.306  0.2267 -0.6745 -0.4022
 7777SOL    HW234965   3.561   1.172   6.231 -1.9345 -0.2324 -1.7860
 7778SOL     OW34966   0.289   1.524   8.463  0.3182  0.3695 -0.4216
 7778SOL    HW134967   0.233   1.584   8.413  1.6957  1.7305 -0.3145
 7778SOL    HW234968   0.235   1.447   8.444 -0.5796  0.3470  2.1071
 7779SOL     OW34969   1.099   3.432   0.058 -0.4412 -0.5498  0.0743
 7779SOL    HW134970   1.163   3.371   0.095 -0.5553  0.0899  1.3372
 7779SOL    HW234971   1.014   3.389   0.061 -1.4423  1.2321 -2.8295
 7780SOL     OW34972   3.916   0.766   6.297  0.0452 -0.1995 -0.4310
 7780SOL    HW134973   3.860   0.784   6.372  0.4196  0.9536 -0.4311
 7780SOL    HW234974   3.986   0.823   6.328 -0.6144 -1.4252  3.3373
 7781SOL     OW34975   3.499   3.598   6.266 -0.4580  0.4027 -0.2181
 7781SOL    HW134976   3.551   3.566   6.340  0.5969 -0.8052 -1.4622
 7781SOL    HW234977   3.536   3.684   6.246 -0.2684  0.2055 -0.7154
 7782SOL     OW34978   2.622   2.150   9.053 -0.0404  0.3716 -0.3417
 7782SOL    HW134979   2.697   2.128   9.108  0.5485  3.7438  0.2275
 7782SOL    HW234980   2.666   2.188   8.977 -0.3691 -0.3423 -0.8898
 7783SOL     OW34981   3.252   0.147   3.683  0.5313  0.8188 -0.2419
 7783SOL    HW134982   3.182   0.212   3.684 -0.4905 -0.2899  0.0569
 7783SOL    HW234983   3.246   0.096   3.603 -1.2300  1.7069 -0.6736
 7784SOL     OW34984   2.450   4.335  12.944 -0.0262  0.2287  0.0201
 7784SOL    HW134985   2.432   4.368  12.856  1.0863 -3.2478 -1.5063
 7784SOL    HW234986   2.504   4.412  12.963 -1.1271  0.8067  0.7804
 7785SOL     OW34987   4.163   0.098   3.606 -0.0492  0.4789 -0.0513
 7785SOL    HW134988   4.209   0.123   3.687 -0.3273 -2.2121  0.9313
 7785SOL    HW234989   4.087   0.156   3.618  1.4901  1.8689  2.9803
 7786SOL     OW34990   3.856   1.407   6.372  0.1964 -0.1678 -0.1062
 7786SOL    HW134991   3.809   1.388   6.452 -1.1621  2.2858 -0.3214
 7786SOL    HW234992   3.872   1.318   6.340  0.3623 -0.9731  2.2111
 7787SOL     OW34993   1.466   0.098   8.185  0.2336  0.1179  0.2158
 7787SOL    HW134994   1.503   0.117   8.099 -1.3894  1.9148 -0.0612
 7787SOL    HW234995   1.386   0.150   8.180  0.4324  0.0602 -3.6781
 7788SOL     OW34996   4.516   2.207   5.778  0.2921 -0.8536 -0.0508
 7788SOL    HW134997   4.569   2.132   5.753 -3.0032 -2.7183 -1.4267
 7788SOL    HW234998   4.447   2.159   5.824  1.6379 -1.2743  1.5316
 7789SOL     OW34999   4.322   1.032   0.088  0.2742 -0.2208 -0.0524
 7789SOL    HW135000   4.274   1.027   0.006  0.8975  0.2761 -0.4473
 7789SOL    HW235001   4.415   1.026   0.065  0.0051  0.8382 -1.4278
 7790SOL     OW35002   3.551   4.519   7.326 -0.6162  0.5167 -0.7517
 7790SOL    HW135003   3.484   4.485   7.386  1.5512 -0.4080  1.1683
 7790SOL    HW235004   3.535   4.460   7.252  0.8862 -3.1380  1.7882
 7791SOL     OW35005   4.369   1.729  16.995 -0.1837 -0.0586 -0.2118
 7791SOL    HW135006   4.441   1.784  17.028  0.1861 -0.8375  0.2803
 7791SOL    HW235007   4.423   1.659  16.959  0.7048 -0.7199  2.3885
 7792SOL     OW35008   2.552   0.761   7.596  0.3291  0.1801  0.3585
 7792SOL    HW135009   2.519   0.851   7.605 -0.0890  0.0897 -0.2489
 7792SOL    HW235010   2.570   0.754   7.690  0.4376 -0.7822  0.2594
 7793SOL     OW35011   1.223   0.369   2.370 -0.0505 -0.1591  0.0852
 7793SOL    HW135012   1.157   0.325   2.315  0.4053 -0.4867 -0.1923
 7793SOL    HW235013   1.247   0.447   2.320 -1.3829 -0.7941 -1.5756
 7794SOL     OW35014   2.574   1.560   1.738 -0.4395  0.0717  0.0537
 7794SOL    HW135015   2.534   1.505   1.671  1.1508 -0.5543 -0.3870
 7794SOL    HW235016   2.658   1.516   1.752 -0.2254  0.2241 -0.7636
 7795SOL     OW35017   3.450   4.723  16.829 -0.4687  0.7251  0.6294
 7795SOL    HW135018   3.363   4.686  16.842 -0.4019 -0.9084 -3.4154
 7795SOL    HW235019   3.442   0.029  16.743 -1.6016 -0.2722  0.2544
 7796SOL     OW35020   2.425   0.344   6.167 -0.4115 -0.1602  0.3910
 7796SOL    HW135021   2.459   0.344   6.078  0.0854 -1.8134  0.5780
 7796SOL    HW235022   2.505   0.336   6.219  1.4135  1.9406 -2.1303
 7797SOL     OW35023   3.341   3.492  10.885 -0.1837 -0.1474  0.6398
 7797SOL    HW135024   3.309   3.512  10.973 -0.8061 -1.5606  0.7440
 7797SOL    HW235025   3.273   3.427  10.865  0.5193 -1.3081  2.0098
 7798SOL     OW35026   2.772   4.410   4.340  0.0370 -0.4333 -0.4717
 7798SOL    HW135027   2.684   4.406   4.305 -0.3399  1.9273  0.2487
 7798SOL    HW235028   2.796   4.317   4.330  0.7563 -0.3336  0.3083
 7799SOL     OW35029   3.484   2.750   8.153  0.6823 -0.1041 -0.0388
 7799SOL    HW135030   3.577   2.773   8.151  0.4676  0.7530 -0.5058
 7799SOL    HW235031   3.472   2.730   8.246  0.9270 -3.1306 -0.6711
 7800SOL     OW35032   0.829   0.157   6.550  0.1209  0.3226 -0.6669
 7800SOL    HW135033   0.909   0.199   6.579  0.6080 -1.0514  0.0024
 7800SOL    HW235034   0.842   0.077   6.601 -0.4811  0.2380 -0.6360
 7801SOL     OW35035   1.192   3.239  13.504  0.1616 -0.3385  0.0174
 7801SOL    HW135036   1.282   3.272  13.494  0.7610 -0.7531  4.2214
 7801SOL    HW235037   1.194   3.157  13.456 -2.7864 -0.9840  1.0110
 7802SOL     OW35038   0.300   0.915   6.812 -0.3221  0.6844  0.2976
 7802SOL    HW135039   0.212   0.930   6.849  0.7902  2.1055  2.4077
 7802SOL    HW235040   0.318   0.833   6.859  1.2308  0.6430 -0.3799
 7803SOL     OW35041   0.214   2.011   5.305  0.1201 -0.2286  0.0581
 7803SOL    HW135042   0.299   1.969   5.295 -0.4038 -0.7859 -2.0282
 7803SOL    HW235043   0.168   1.937   5.345 -0.7704  0.4623  0.3282
 7804SOL     OW35044   0.414   2.143   7.605  0.1899  0.3437 -0.7943
 7804SOL    HW135045   0.346   2.184   7.551 -0.3553 -0.1374 -0.4676
 7804SOL    HW235046   0.488   2.189   7.566 -0.0948  2.5850  1.3526
 7805SOL     OW35047   2.217   1.523   4.401 -0.4841 -0.2420 -0.2832
 7805SOL    HW135048   2.158   1.535   4.327 -0.0429  2.8085 -0.1215
 7805SOL    HW235049   2.291   1.576   4.373 -1.2596  0.5875 -0.7543
 7806SOL     OW35050   1.758   1.135   2.814  0.1149  0.0521 -0.0767
 7806SOL    HW135051   1.781   1.115   2.904 -0.2999 -0.1524 -0.0186
 7806SOL    HW235052   1.689   1.069   2.809  0.1005  0.1114 -0.7590
 7807SOL     OW35053   0.390   1.481   2.561 -0.6568 -0.0017 -0.2880
 7807SOL    HW135054   0.297   1.471   2.581 -1.1636  1.8793 -1.6327
 7807SOL    HW235055   0.415   1.400   2.517 -0.1167  0.8203 -1.5092
 7808SOL     OW35056   1.718   4.095   8.881  0.0216  0.9136 -0.2689
 7808SOL    HW135057   1.759   4.133   8.958  1.1280 -1.9358  0.5443
 7808SOL    HW235058   1.769   4.014   8.878  0.2436  1.0284  0.7844
 7809SOL     OW35059   3.022   3.647  13.068 -0.3916  0.6180 -0.2135
 7809SOL    HW135060   2.961   3.679  13.135  0.8224  1.9366  0.2618
 7809SOL    HW235061   3.013   3.717  13.002  2.1630  0.3838 -0.8033
 7810SOL     OW35062   0.492   0.572  11.572 -0.3525  0.8471  0.0043
 7810SOL    HW135063   0.562   0.636  11.556  1.4655 -1.5534 -1.8289
 7810SOL    HW235064   0.477   0.540  11.483 -0.5477 -0.2990  0.4580
 7811SOL     OW35065   1.932   2.304   1.804 -0.5077  0.1525  0.8659
 7811SOL    HW135066   1.940   2.359   1.725  0.8380 -1.3350 -0.0304
 7811SOL    HW235067   1.838   2.316   1.817 -0.4412  0.5668  0.9650
 7812SOL     OW35068   1.922   2.626   2.097  0.4184  0.4892  0.3555
 7812SOL    HW135069   1.951   2.668   2.016 -0.8054  1.2137  0.2928
 7812SOL    HW235070   1.848   2.577   2.061 -0.3088 -0.2298  2.7745
 7813SOL     OW35071   2.910   3.737  17.359 -0.8982  0.4281  0.4578
 7813SOL    HW135072   2.833   3.706  17.406 -0.3102  0.4848  1.4656
 7813SOL    HW235073   2.961   3.658  17.345  0.1366  1.0420  0.7221
 7814SOL     OW35074   3.430   3.397   1.229 -0.4830  0.5476 -0.6781
 7814SOL    HW135075   3.389   3.331   1.286  0.9988  0.1270 -0.0820
 7814SOL    HW235076   3.483   3.445   1.293 -2.4533  0.3103  1.1249
 7815SOL     OW35077   3.755   2.064   5.406  0.2187 -0.0383 -0.5331
 7815SOL    HW135078   3.823   2.105   5.353  0.1262 -0.9815 -1.3753
 7815SOL    HW235079   3.687   2.041   5.342  1.0799 -0.5091 -1.2743
 7816SOL     OW35080   3.191   0.951   1.749  0.1308  0.1057 -0.4534
 7816SOL    HW135081   3.134   0.999   1.810  1.0377 -1.5901  1.7207
 7816SOL    HW235082   3.141   0.869   1.748 -2.5379  1.7201  1.6852
 7817SOL     OW35083   1.770   0.896  13.126 -0.7646 -0.5528 -0.1933
 7817SOL    HW135084   1.678   0.870  13.121 -0.3126 -2.8054  3.6685
 7817SOL    HW235085   1.758   0.984  13.092  1.9241  0.3881  1.3244
 7818SOL     OW35086   4.683   3.171  16.256 -0.6100  0.0095  0.5038
 7818SOL    HW135087   4.718   3.206  16.339  1.8714 -0.3037 -0.4219
 7818SOL    HW235088   4.597   3.138  16.282 -0.9152 -0.0508 -0.5939
 7819SOL     OW35089   3.922   3.707   6.451  0.0198  0.4657 -0.0527
 7819SOL    HW135090   3.895   3.692   6.360 -1.1645 -1.7544  0.6640
 7819SOL    HW235091   3.873   3.787   6.470 -0.9255 -0.6415  2.1233
 7820SOL     OW35092   4.165   0.273   4.286  0.1960  0.0914 -0.5222
 7820SOL    HW135093   4.198   0.327   4.214  1.4819 -0.1913 -0.1457
 7820SOL    HW235094   4.213   0.325   4.351 -1.9021 -1.1548  2.0350
 7821SOL     OW35095   0.545   2.803   6.197  0.3854 -0.2882 -0.2483
 7821SOL    HW135096   0.479   2.811   6.266  0.0985  0.3431 -0.6075
 7821SOL    HW235097   0.612   2.751   6.243  2.3308  0.3309 -2.4050
 7822SOL     OW35098   3.154   1.079   7.157 -0.0239 -0.0364  0.3264
 7822SOL    HW135099   3.064   1.081   7.189 -0.2600 -1.4483 -0.2594
 7822SOL    HW235100   3.201   1.118   7.230 -0.8417 -0.1397  0.9070
 7823SOL     OW35101   1.171   0.307   4.866  0.1306 -0.5481  0.4596
 7823SOL    HW135102   1.225   0.342   4.937  0.0766  0.4655  0.0099
 7823SOL    HW235103   1.216   0.326   4.783  1.3866 -0.5610  1.1416
 7824SOL     OW35104   3.059   3.484   3.650  0.1583  0.2696  0.4227
 7824SOL    HW135105   3.117   3.495   3.726  2.3889  0.3579 -1.3104
 7824SOL    HW235106   2.973   3.471   3.692 -0.7325  1.2909 -1.0703
 7825SOL     OW35107   2.128   1.477   3.254 -0.0806  0.2998 -0.4062
 7825SOL    HW135108   2.078   1.459   3.334  0.2003  0.0181 -0.2970
 7825SOL    HW235109   2.179   1.555   3.276 -1.0609  1.1572 -1.1783
 7826SOL     OW35110   4.090   3.821   5.078 -0.2177 -0.1119  0.0535
 7826SOL    HW135111   4.160   3.804   5.015 -0.0287 -1.3158  0.5813
 7826SOL    HW235112   4.015   3.789   5.028 -0.0558 -1.3157  0.5925
 7827SOL     OW35113   3.969   4.129  15.924 -0.1178  0.2497  0.0135
 7827SOL    HW135114   3.958   4.219  15.894 -0.3180  1.0295  2.4131
 7827SOL    HW235115   3.938   4.132  16.015  0.6404  1.6813  0.2242
 7828SOL     OW35116   1.664   3.325   6.135  0.0882  0.1361 -0.5136
 7828SOL    HW135117   1.726   3.351   6.067  0.3994  0.9417  0.0731
 7828SOL    HW235118   1.618   3.259   6.083  3.5362 -1.1271 -1.9262
 7829SOL     OW35119   1.038   3.401   6.871  0.1111 -0.0312  0.2391
 7829SOL    HW135120   0.949   3.367   6.866 -0.2686  1.2610 -1.8212
 7829SOL    HW235121   1.017   3.461   6.943  0.9337  0.1274  0.3483
 7830SOL     OW35122   2.768   3.086   1.436 -0.0208  0.2926  0.0603
 7830SOL    HW135123   2.752   3.161   1.494 -2.1301 -0.4629  0.4566
 7830SOL    HW235124   2.860   3.067   1.455 -0.9252 -1.7290  2.5075
 7831SOL     OW35125   3.743   3.772   8.283 -0.0886 -0.2808 -0.0676
 7831SOL    HW135126   3.729   3.740   8.372 -0.6859 -2.1095 -0.8352
 7831SOL    HW235127   3.801   3.707   8.243 -1.0758  0.6111 -2.8623
 7832SOL     OW35128   1.406   4.023  11.992 -0.1745 -0.0330 -0.3693
 7832SOL    HW135129   1.447   3.985  12.070  1.6033  1.1443 -0.7335
 7832SOL    HW235130   1.428   3.959  11.924  2.0587  2.1747 -1.7126
 7833SOL     OW35131   1.536   0.193   1.356 -0.0592 -0.8866 -0.0058
 7833SOL    HW135132   1.470   0.136   1.317  0.6413  0.3193 -2.8921
 7833SOL    HW235133   1.613   0.155   1.314 -0.3286 -0.4074 -0.9168
 7834SOL     OW35134   4.134   1.879  10.764  0.4591 -0.0304 -0.3027
 7834SOL    HW135135   4.129   1.812  10.832 -2.5939 -0.1559 -0.6588
 7834SOL    HW235136   4.057   1.930  10.790 -0.2103 -0.3537 -1.6556
 7835SOL     OW35137   4.446   0.812   3.510  0.2278 -0.5290 -0.5341
 7835SOL    HW135138   4.460   0.735   3.455 -1.5351 -2.1140  1.2087
 7835SOL    HW235139   4.478   0.785   3.596 -0.7956  1.6907  0.5507
 7836SOL     OW35140   1.677   0.771   4.095 -0.3031 -0.0268 -0.0052
 7836SOL    HW135141   1.733   0.733   4.163  1.9409  2.0627 -0.6849
 7836SOL    HW235142   1.603   0.782   4.154  1.7299  3.2375  1.9388
 7837SOL     OW35143   1.447   0.786  11.543 -0.0814  0.1738 -0.4416
 7837SOL    HW135144   1.445   0.694  11.568  2.4465  0.6607  1.5555
 7837SOL    HW235145   1.364   0.800  11.497  0.9665 -0.4280 -2.4972
 7838SOL     OW35146   3.600   4.539  16.237  0.6326  0.0371  0.6691
 7838SOL    HW135147   3.614   4.518  16.145  1.1346  1.9082  0.3016
 7838SOL    HW235148   3.655   4.477  16.283  1.8065  0.4406 -0.1706
 7839SOL     OW35149   0.862   1.052   5.336  0.1971 -0.8208 -0.0719
 7839SOL    HW135150   0.809   1.038   5.258  0.2921 -0.1298 -0.2626
 7839SOL    HW235151   0.917   0.976   5.354  0.5663 -0.6934 -0.6523
 7840SOL     OW35152   1.047   4.338  10.679 -0.4261 -0.3310 -0.0125
 7840SOL    HW135153   0.967   4.293  10.653 -0.6261  0.4716 -0.8171
 7840SOL    HW235154   1.017   4.374  10.763  2.7360  1.2872  0.4259
 7841SOL     OW35155   3.715   3.063   1.119 -0.2549 -0.7451  0.5272
 7841SOL    HW135156   3.674   3.148   1.103  0.0870 -0.5617  0.6133
 7841SOL    HW235157   3.709   3.059   1.214 -0.4562 -3.7330  0.3616
 7842SOL     OW35158   3.082   3.294   1.329 -0.4408  0.7823 -0.3118
 7842SOL    HW135159   3.165   3.271   1.371 -0.0744  0.4282 -1.2494
 7842SOL    HW235160   3.100   3.236   1.255 -1.9182  1.1841 -0.9881
 7843SOL     OW35161   4.339   4.460   8.564 -0.2075 -0.0122  0.2778
 7843SOL    HW135162   4.357   4.409   8.485 -0.4947  1.8844 -1.0100
 7843SOL    HW235163   4.384   4.542   8.543 -0.3431  0.1200  0.5096
 7844SOL     OW35164   3.998   2.602   1.589 -0.5311 -0.1821 -0.1689
 7844SOL    HW135165   4.049   2.650   1.523 -0.3328  1.0193  0.8595
 7844SOL    HW235166   3.953   2.674   1.634 -1.5010  0.2659 -1.8324
 7845SOL     OW35167   0.244   0.844  15.104  0.1392 -0.4735  0.0657
 7845SOL    HW135168   0.265   0.846  15.011 -2.7395 -1.9419 -0.5944
 7845SOL    HW235169   0.224   0.935  15.124  0.0274 -0.7742  1.3343
 7846SOL     OW35170   0.587   0.893   5.746 -0.0938 -0.2429  0.6499
 7846SOL    HW135171   0.608   0.971   5.797  1.8884  1.1268 -2.2542
 7846SOL    HW235172   0.492   0.896   5.740 -0.1060 -3.4531 -0.7768
 7847SOL     OW35173   4.447   2.451   2.160  0.0278 -0.2338 -0.0647
 7847SOL    HW135174   4.383   2.459   2.231  0.1522 -0.8734  0.1203
 7847SOL    HW235175   4.412   2.524   2.110  1.4065  1.0440  0.8205
 7848SOL     OW35176   1.417   4.606  15.731  0.0168  0.1715  0.4734
 7848SOL    HW135177   1.454   4.678  15.681 -1.2220  1.9344  2.1082
 7848SOL    HW235178   1.485   4.602  15.799  0.1320  1.4098  0.4255
 7849SOL     OW35179   3.713   2.630  11.850 -0.2274 -0.2506 -0.0519
 7849SOL    HW135180   3.800   2.639  11.810 -1.3171  1.4904 -1.9898
 7849SOL    HW235181   3.684   2.720  11.863 -1.5331 -0.5718 -0.7921
 7850SOL     OW35182   3.920   2.353   3.009 -0.0432  0.2136  0.1041
 7850SOL    HW135183   3.914   2.297   2.932  2.3871 -0.9558  0.7593
 7850SOL    HW235184   3.835   2.397   3.003  0.3651  0.8903 -0.6078
 7851SOL     OW35185   2.154   3.608   3.173 -0.0147  0.6696 -0.4851
 7851SOL    HW135186   2.182   3.517   3.180 -1.3192  0.3287  0.1580
 7851SOL    HW235187   2.125   3.627   3.262  0.2247  0.5077 -0.3707
 7852SOL     OW35188   3.779   1.434   5.521 -0.0054 -0.8625 -0.4564
 7852SOL    HW135189   3.835   1.361   5.548  0.4745 -1.5259 -3.2184
 7852SOL    HW235190   3.696   1.386   5.522 -0.9244  0.7639  0.3309
 7853SOL     OW35191   4.012   0.666   1.710  0.5434 -0.2994  0.0644
 7853SOL    HW135192   3.979   0.650   1.799  0.8819  0.4712  0.3279
 7853SOL    HW235193   4.102   0.696   1.722  0.5135  0.6130 -1.9156
 7854SOL     OW35194   3.707   2.162   4.259 -1.1133 -0.1609 -0.2729
 7854SOL    HW135195   3.621   2.193   4.233 -0.7447  0.8943 -0.2148
 7854SOL    HW235196   3.772   2.206   4.205  0.0708 -0.9664  0.4696
 7855SOL     OW35197   3.318   1.304   5.999 -0.0083 -0.3408 -0.1583
 7855SOL    HW135198   3.292   1.367   6.067 -1.3508 -1.2693  0.1776
 7855SOL    HW235199   3.404   1.337   5.972 -0.3346  0.5605 -0.0931
 7856SOL     OW35200   1.611   0.908   2.124 -0.2359 -0.1598 -0.0693
 7856SOL    HW135201   1.537   0.968   2.118 -0.5918 -0.7240 -1.1809
 7856SOL    HW235202   1.685   0.968   2.127  0.2966 -0.9049  1.4475
 7857SOL     OW35203   4.206   2.971   1.990 -0.1527 -0.0473  0.0953
 7857SOL    HW135204   4.250   2.980   1.905 -0.8190 -3.5873 -0.6413
 7857SOL    HW235205   4.226   3.049   2.041  2.0226 -1.2209  1.0334
 7858SOL     OW35206   4.571   1.933  16.972 -0.0180  0.2188  0.5750
 7858SOL    HW135207   4.615   1.888  16.900  0.0670 -0.8428  1.2819
 7858SOL    HW235208   4.644   1.981  17.011 -0.4472  2.1298 -0.9709
 7859SOL     OW35209   0.868   3.687   4.092  0.7133  0.0403 -0.1396
 7859SOL    HW135210   0.898   3.597   4.108 -0.4475 -0.2839  0.2248
 7859SOL    HW235211   0.841   3.670   4.001 -1.2347 -0.9674  0.6208
 7860SOL     OW35212   1.711   0.151   7.037 -0.6217  0.0914  0.1610
 7860SOL    HW135213   1.733   0.061   7.012  1.7434  0.1995  1.8244
 7860SOL    HW235214   1.769   0.149   7.114 -0.3449  0.0570 -0.0500
 7861SOL     OW35215   3.611   0.732   7.055  0.4197 -0.4465  0.4432
 7861SOL    HW135216   3.616   0.765   7.144 -0.4557  2.3074 -0.5328
 7861SOL    HW235217   3.522   0.764   7.040  0.2401 -0.5331  1.3072
 7862SOL     OW35218   3.904   3.039   8.358 -0.4536  0.0698  0.1884
 7862SOL    HW135219   3.977   3.086   8.320 -1.9898  3.4736  1.4509
 7862SOL    HW235220   3.874   3.116   8.407  1.2277  1.2666 -0.7145
 7863SOL     OW35221   4.426   1.424  16.943  1.0189 -0.7243  0.1254
 7863SOL    HW135222   4.468   1.342  16.968  2.0010 -0.5253 -0.8941
 7863SOL    HW235223   4.380   1.406  16.861  0.3818  0.2168  0.2708
 7864SOL     OW35224   1.609   0.978   3.670 -0.2468 -0.0403  0.2259
 7864SOL    HW135225   1.641   1.060   3.632 -2.3217 -0.7091 -2.8596
 7864SOL    HW235226   1.693   0.934   3.683  0.1359  0.9049  0.9519
 7865SOL     OW35227   3.391   4.245   7.154  0.7046  0.2320  0.0292
 7865SOL    HW135228   3.321   4.210   7.210  0.5809 -0.1251 -0.3527
 7865SOL    HW235229   3.349   4.326   7.128  0.6061 -0.0307 -0.6201
 7866SOL     OW35230   0.181   2.700  15.926  0.0356 -0.1809  0.5707
 7866SOL    HW135231   0.186   2.781  15.977 -1.9233  1.3171 -1.6213
 7866SOL    HW235232   0.190   2.627  15.987 -1.3363 -0.3902  0.5242
 7867SOL     OW35233   1.268   4.086   9.284  0.2244  0.5304 -0.0521
 7867SOL    HW135234   1.259   3.994   9.258  0.2311  0.1659  1.1889
 7867SOL    HW235235   1.175   4.107   9.299  1.1148  2.3759  2.7943
 7868SOL     OW35236   1.267   4.570   7.308 -0.4354  0.4205  0.3170
 7868SOL    HW135237   1.303   4.657   7.326 -0.1971  0.8904 -2.4459
 7868SOL    HW235238   1.328   4.524   7.366 -0.7148  0.5962  0.7496
 7869SOL     OW35239   2.184   1.220   3.833 -0.4974 -0.4397  0.0862
 7869SOL    HW135240   2.210   1.294   3.778 -2.3878 -0.3410 -0.6678
 7869SOL    HW235241   2.095   1.204   3.801 -0.9734 -2.8977  2.6788
 7870SOL     OW35242   0.829   3.030  16.615  0.7940  0.2235  0.6456
 7870SOL    HW135243   0.885   3.042  16.538 -0.1853  0.0455 -0.0939
 7870SOL    HW235244   0.782   3.113  16.616  2.1633  0.9888  1.3903
 7871SOL     OW35245   4.705   1.108   1.688 -0.5177 -0.1721  0.0336
 7871SOL    HW135246   0.005   1.029   1.646 -1.5835 -0.4942 -0.2535
 7871SOL    HW235247   0.026   1.097   1.765 -1.5953 -1.9248  0.5776
 7872SOL     OW35248   0.279   1.715   2.375 -0.0679  0.2033 -0.1122
 7872SOL    HW135249   0.314   1.779   2.437 -0.8606  0.7064 -0.1888
 7872SOL    HW235250   0.363   1.689   2.337 -1.7072 -0.2969 -3.3864
 7873SOL     OW35251   1.589   4.431   3.600 -0.0669  0.4167 -0.1387
 7873SOL    HW135252   1.573   4.449   3.692  0.8371  1.1050 -0.1135
 7873SOL    HW235253   1.549   4.511   3.565  0.4216  0.9984  0.6363
 7874SOL     OW35254   0.777   3.544   3.052 -0.3273 -0.2372 -0.1837
 7874SOL    HW135255   0.731   3.623   3.080  1.2147  0.5415  0.1556
 7874SOL    HW235256   0.862   3.586   3.037 -0.2551 -1.1933 -2.4581
 7875SOL     OW35257   2.068   4.149   7.848 -0.1977  0.0504  0.1314
 7875SOL    HW135258   2.076   4.242   7.869  1.9112 -0.2649  0.6457
 7875SOL    HW235259   2.135   4.142   7.780  0.6542 -0.2778  1.0209
 7876SOL     OW35260   1.953   4.388   3.306  0.4534  0.2227  0.3475
 7876SOL    HW135261   2.016   4.407   3.236  0.0533 -1.4690 -0.4498
 7876SOL    HW235262   1.921   4.478   3.315 -0.0521 -0.0008  0.7703
 7877SOL     OW35263   3.830   4.069  14.997  0.0176 -0.0409 -0.5700
 7877SOL    HW135264   3.876   4.153  14.999  0.1570 -0.1745  1.5306
 7877SOL    HW235265   3.876   3.994  15.034 -0.1193 -0.5962 -1.5347
 7878SOL     OW35266   0.890   0.097  14.680 -0.4042 -0.3144 -0.2611
 7878SOL    HW135267   0.913   0.044  14.604 -0.2879  2.6085 -2.2722
 7878SOL    HW235268   0.971   0.094  14.731 -1.4916  1.2651  1.5841
 7879SOL     OW35269   4.463   4.527   6.978  0.2958  0.4268 -0.1678
 7879SOL    HW135270   4.427   4.611   6.949 -0.3508  0.6858  1.3512
 7879SOL    HW235271   4.482   4.543   7.071  0.4886 -1.9907  0.1993
 7880SOL     OW35272   0.873   4.384   3.022 -0.2085  0.5994 -0.2257
 7880SOL    HW135273   0.812   4.413   3.089 -1.2989  0.0688 -0.9719
 7880SOL    HW235274   0.835   4.426   2.945 -0.8537 -0.6119 -0.5730
 7881SOL     OW35275   0.012   4.280   4.539  0.1382 -0.6641 -0.4950
 7881SOL    HW135276   0.010   4.301   4.446 -0.3848 -1.6882 -0.7125
 7881SOL    HW235277   4.670   4.333   4.560  1.5056  1.3094 -0.4463
 7882SOL     OW35278   3.536   3.036   1.645  0.3360  0.4018 -0.2472
 7882SOL    HW135279   3.546   3.118   1.597 -1.5010  2.0197  2.1176
 7882SOL    HW235280   3.579   2.976   1.585  2.2404  0.7209  0.7897
 7883SOL     OW35281   1.209   4.647   6.109  0.0409 -0.1500  0.3022
 7883SOL    HW135282   1.126   4.681   6.075  0.4276 -0.5700 -1.0694
 7883SOL    HW235283   1.260   4.728   6.110 -0.4299  0.1437  0.6525
 7884SOL     OW35284   0.097   1.421   3.459 -0.1229  0.1878 -0.4233
 7884SOL    HW135285   0.061   1.333   3.465 -0.1105  0.1405 -0.9912
 7884SOL    HW235286   0.141   1.417   3.373 -0.9715  2.6941 -0.9647
 7885SOL     OW35287   1.582   1.352   2.752 -0.0721  0.9039  0.1587
 7885SOL    HW135288   1.636   1.274   2.766 -0.6288  0.6352  0.8093
 7885SOL    HW235289   1.502   1.315   2.716  0.1064  0.2562  0.4326
 7886SOL     OW35290   1.768   2.404   0.817  0.0585 -0.1733  0.7684
 7886SOL    HW135291   1.811   2.432   0.898  3.2236 -3.7772  0.2993
 7886SOL    HW235292   1.822   2.328   0.794 -0.2703 -0.2553  0.2847
 7887SOL     OW35293   1.145   3.267   3.588 -0.3507 -0.3330  0.2034
 7887SOL    HW135294   1.216   3.240   3.646 -1.7029 -0.7053  1.6986
 7887SOL    HW235295   1.170   3.359   3.591 -1.8221  0.1490 -2.3160
 7888SOL     OW35296   0.576   0.359   5.537  0.0411  0.2009  0.8288
 7888SOL    HW135297   0.513   0.390   5.602  0.6633 -0.3138  1.6868
 7888SOL    HW235298   0.650   0.418   5.552  0.8904 -0.4436 -0.8293
 7889SOL     OW35299   1.836   4.133   4.316 -0.1851  0.6239  0.2509
 7889SOL    HW135300   1.780   4.113   4.242  1.4807  0.5155 -0.9880
 7889SOL    HW235301   1.919   4.135   4.268 -0.4522 -3.0151 -0.3448
 7890SOL     OW35302   0.600   0.779   6.537  0.1146  0.1016 -0.1123
 7890SOL    HW135303   0.601   0.683   6.533 -1.4926  0.1265 -1.2014
 7890SOL    HW235304   0.630   0.791   6.627 -0.6200 -1.2955  0.3206
 7891SOL     OW35305   1.279   3.523   7.681  0.8710 -0.7071 -0.2687
 7891SOL    HW135306   1.220   3.564   7.744  0.0679  1.1911 -2.2259
 7891SOL    HW235307   1.233   3.558   7.604  0.3883  0.5395  0.5698
 7892SOL     OW35308   0.095   1.872   6.032 -0.4729  0.0468 -0.2869
 7892SOL    HW135309   0.124   1.848   6.120  0.8951  1.1234 -0.4442
 7892SOL    HW235310   0.022   1.815   6.008 -0.3741 -0.0902 -0.2653
 7893SOL     OW35311   1.176   1.972   2.586 -0.5001  0.1858  0.2437
 7893SOL    HW135312   1.231   1.989   2.662  0.4958  0.2284 -0.4908
 7893SOL    HW235313   1.244   1.978   2.520  2.1225  1.0539  3.0525
 7894SOL     OW35314   1.801   1.747   4.842 -0.2394  0.1561 -0.3659
 7894SOL    HW135315   1.895   1.737   4.855 -0.3667 -1.8765 -0.9456
 7894SOL    HW235316   1.784   1.654   4.827  0.4832 -0.3446  2.0393
 7895SOL     OW35317   1.184   1.402   6.885  0.1486 -0.4455 -0.2339
 7895SOL    HW135318   1.170   1.496   6.899  2.2975  0.2290 -2.4249
 7895SOL    HW235319   1.112   1.389   6.945 -0.1133  1.3151 -0.1680
 7896SOL     OW35320   1.794   0.561   8.990  0.3698 -0.5387  0.0611
 7896SOL    HW135321   1.775   0.552   8.897 -2.4675 -1.0294  0.7079
 7896SOL    HW235322   1.831   0.650   8.996 -1.8167  0.3941 -0.4476
 7897SOL     OW35323   4.351   3.711  15.591  0.0088  0.2529  0.2777
 7897SOL    HW135324   4.292   3.704  15.516 -0.4350 -0.2854  0.6793
 7897SOL    HW235325   4.363   3.806  15.593 -0.0915  0.2351  1.4700
 7898SOL     OW35326   0.851   0.151   7.732  0.3382  0.2578 -0.7266
 7898SOL    HW135327   0.898   0.114   7.657  1.4877 -3.1132  1.6476
 7898SOL    HW235328   0.796   0.218   7.693  1.0402  1.6347  0.6752
 7899SOL     OW35329   2.913   3.250  16.883 -0.0672 -0.2045  0.0040
 7899SOL    HW135330   2.955   3.284  16.805 -1.8851  0.6171 -0.6093
 7899SOL    HW235331   2.920   3.155  16.869 -1.6042 -0.4960  1.1417
 7900SOL     OW35332   1.026   0.446  17.335 -0.1990 -0.6542 -0.2677
 7900SOL    HW135333   1.015   0.461  17.241  0.5863 -0.1268 -0.2752
 7900SOL    HW235334   0.972   0.370  17.355 -3.4198  1.8661  0.5531
 7901SOL     OW35335   3.818   2.856   9.236 -0.1415 -0.2627  0.4513
 7901SOL    HW135336   3.811   2.766   9.267  0.1845 -1.0614 -1.7892
 7901SOL    HW235337   3.729   2.884   9.259 -0.2178  0.4859 -0.7609
 7902SOL     OW35338   2.751   3.320  10.147 -0.7659  0.1549 -0.0121
 7902SOL    HW135339   2.839   3.356  10.134 -0.4458 -0.9295 -0.8151
 7902SOL    HW235340   2.747   3.294  10.239 -1.5081  2.2784  0.5615
 7903SOL     OW35341   4.704   2.480   2.085  0.0713 -0.1920 -0.3552
 7903SOL    HW135342   0.031   2.438   2.144  0.9552  0.7014 -0.6550
 7903SOL    HW235343   4.618   2.443   2.107  1.0557 -2.1527  0.2254
 7904SOL     OW35344   1.320   2.631   2.455  0.0034 -0.1346 -0.1236
 7904SOL    HW135345   1.390   2.623   2.391  0.0235  1.5694 -0.2991
 7904SOL    HW235346   1.312   2.539   2.483 -0.1715 -0.3449 -0.8582
 7905SOL     OW35347   2.553   4.358   1.014  0.1074 -0.1300  0.7433
 7905SOL    HW135348   2.531   4.342   1.106  2.6734 -2.5331  0.9259
 7905SOL    HW235349   2.545   4.268   0.985 -1.8959  0.4902 -0.6354
 7906SOL     OW35350   1.901   0.868   5.373 -0.3756 -0.1745 -0.3653
 7906SOL    HW135351   1.835   0.935   5.389  0.2286  0.7443 -1.6145
 7906SOL    HW235352   1.931   0.853   5.462 -0.5436  1.1803 -0.0747
 7907SOL     OW35353   2.984   4.056  17.257 -0.3030 -1.0253 -0.1666
 7907SOL    HW135354   2.984   4.064  17.352 -2.9255 -1.4773 -0.1492
 7907SOL    HW235355   2.923   3.985  17.240 -1.2101 -0.4361  0.6634
 7908SOL     OW35356   3.476   1.292   3.775  0.1585  0.1344  0.1216
 7908SOL    HW135357   3.502   1.381   3.751  0.2808 -0.5169 -2.1579
 7908SOL    HW235358   3.384   1.303   3.751  0.6152  1.0327 -1.1866
 7909SOL     OW35359   1.068   4.085   8.314 -0.1357  0.0151  0.3750
 7909SOL    HW135360   1.024   4.088   8.229  1.5680  2.3578 -0.4071
 7909SOL    HW235361   1.034   4.005   8.355  0.6207  0.3077  1.5716
 7910SOL     OW35362   2.490   3.784   5.207  0.2610 -0.3752  0.0988
 7910SOL    HW135363   2.464   3.865   5.250 -2.5568 -1.3219  0.2231
 7910SOL    HW235364   2.577   3.770   5.245  1.5965 -0.1266 -2.9102
 7911SOL     OW35365   2.199   4.036   8.901 -0.3895 -0.0097  0.6238
 7911SOL    HW135366   2.153   4.030   8.818  0.2080  0.1991  0.2766
 7911SOL    HW235367   2.128   4.028   8.965 -1.3403 -1.9776 -0.6903
 7912SOL     OW35368   3.838   3.135   9.595  0.2011 -0.3428 -0.0296
 7912SOL    HW135369   3.786   3.118   9.674 -0.3254 -0.3262 -0.3776
 7912SOL    HW235370   3.895   3.058   9.589 -0.9877 -1.2397  0.3033
 7913SOL     OW35371   4.618   0.178   4.041 -0.0017 -0.0188 -0.1695
 7913SOL    HW135372   4.599   0.269   4.017  1.0037  0.2940  0.2303
 7913SOL    HW235373   4.698   0.189   4.092  0.1694 -0.4927 -0.3407
 7914SOL     OW35374   2.374   0.892   1.073 -0.1700  0.5628  0.3042
 7914SOL    HW135375   2.311   0.831   1.034  0.7283  0.0687 -0.3936
 7914SOL    HW235376   2.424   0.827   1.123 -1.0479 -0.4570 -0.1368
 7915SOL     OW35377   1.035   0.067   5.527  0.0155  0.0265 -0.5160
 7915SOL    HW135378   0.960   0.008   5.531 -0.7346  0.9743 -0.4494
 7915SOL    HW235379   1.022   0.121   5.606 -0.0565 -1.7331  0.6700
 7916SOL     OW35380   0.061   0.781   3.755 -0.0687 -0.0191  0.0086
 7916SOL    HW135381   0.086   0.840   3.684 -0.7197  2.5661  1.9046
 7916SOL    HW235382   0.054   0.845   3.826  1.0425  0.8236 -0.6524
 7917SOL     OW35383   2.441   0.057   9.237  0.0426 -0.3208  0.4375
 7917SOL    HW135384   2.417   0.034   9.147 -1.6043 -2.0608  1.3049
 7917SOL    HW235385   2.351   0.079   9.264 -1.4419 -2.9597 -2.3108
 7918SOL     OW35386   4.647   3.349   4.096 -0.4882 -0.0849  0.7584
 7918SOL    HW135387   4.673   3.409   4.166 -0.8234 -1.9004  2.4586
 7918SOL    HW235388   4.573   3.307   4.140 -0.5513  0.5496  1.2602
 7919SOL     OW35389   3.840   3.634   7.546 -0.1639 -0.0424  0.5320
 7919SOL    HW135390   3.920   3.605   7.501 -1.7429 -0.5020 -1.9326
 7919SOL    HW235391   3.863   3.726   7.562 -0.9525  0.3329 -0.5125
 7920SOL     OW35392   1.825   3.241   5.341  0.7596 -0.0529 -0.4324
 7920SOL    HW135393   1.735   3.225   5.371  0.7956 -0.5485 -0.5800
 7920SOL    HW235394   1.815   3.323   5.293 -1.1847  1.5292  2.6929
 7921SOL     OW35395   2.949   0.685   1.081  0.4393  0.3126  0.0216
 7921SOL    HW135396   3.022   0.705   1.022 -0.6080 -2.7239 -2.2708
 7921SOL    HW235397   2.957   0.590   1.082 -1.2709  0.1908  2.4179
 7922SOL     OW35398   0.889   1.813   7.595  0.7079 -0.2232  0.3415
 7922SOL    HW135399   0.826   1.877   7.562  1.0128  0.1128  0.4108
 7922SOL    HW235400   0.922   1.776   7.513  1.1801 -1.4812  1.0959
 7923SOL     OW35401   1.470   3.328   2.384  0.2925  0.2602  0.0485
 7923SOL    HW135402   1.563   3.305   2.378  0.6333  0.5453  3.7539
 7923SOL    HW235403   1.429   3.282   2.311 -0.8132  1.6145 -0.1632
 7924SOL     OW35404   2.306   1.888   1.583 -0.7400  0.1931  0.3270
 7924SOL    HW135405   2.279   1.866   1.673 -1.3484 -1.0726 -0.1619
 7924SOL    HW235406   2.398   1.864   1.576 -0.7000  0.1502  0.9725
 7925SOL     OW35407   0.387   1.530   0.829 -0.1378  0.0882 -0.0193
 7925SOL    HW135408   0.393   1.501   0.920  0.5806  2.8458  0.7997
 7925SOL    HW235409   0.296   1.508   0.809  0.7909 -3.3309 -0.4719
 7926SOL     OW35410   0.575   0.024   6.839 -0.1051 -0.5003  0.0967
 7926SOL    HW135411   0.620   4.690   6.791 -1.2359 -1.1460 -0.0303
 7926SOL    HW235412   0.493   0.038   6.793 -0.0358  1.5955  0.6205
 7927SOL     OW35413   1.946   2.832   6.530 -0.4065  0.2644  0.0489
 7927SOL    HW135414   1.960   2.744   6.494 -1.8993  0.5406 -1.2255
 7927SOL    HW235415   1.974   2.876   6.450 -0.1122 -0.7531 -0.4127
 7928SOL     OW35416   4.472   0.909   2.259  0.0781 -0.6876  0.2076
 7928SOL    HW135417   4.467   0.819   2.227 -0.8690 -0.4222 -0.3888
 7928SOL    HW235418   4.525   0.957   2.195  0.1318 -2.1204 -0.8356
 7929SOL     OW35419   2.958   2.754   6.248  0.8450  0.2444 -0.1432
 7929SOL    HW135420   3.006   2.694   6.306  2.1121 -0.2569 -1.6999
 7929SOL    HW235421   2.867   2.729   6.260  0.8797  0.2462  0.1242
 7930SOL     OW35422   0.356   2.231   8.901  0.1951 -0.1099 -0.1272
 7930SOL    HW135423   0.414   2.283   8.847 -1.0660  0.3184 -1.0723
 7930SOL    HW235424   0.339   2.284   8.979 -0.5119 -1.3364  0.5599
 7931SOL     OW35425   2.372   0.286  11.258  0.2982  0.5954  0.0010
 7931SOL    HW135426   2.422   0.235  11.195  0.2931  0.6142 -0.0182
 7931SOL    HW235427   2.280   0.264  11.242  0.7484  0.8687 -2.9979
 7932SOL     OW35428   3.382   0.532   6.895 -0.7118  0.2208  0.6437
 7932SOL    HW135429   3.350   0.616   6.928  0.5943  1.4583 -1.2723
 7932SOL    HW235430   3.355   0.472   6.965 -0.8306  0.5418  0.8724
 7933SOL     OW35431   4.691   2.002   5.744  0.1111 -0.1890 -0.0773
 7933SOL    HW135432   0.023   1.952   5.792  0.1176  0.5408  0.6728
 7933SOL    HW235433   0.002   2.029   5.665 -1.9212  3.0121 -0.1399
 7934SOL     OW35434   0.520   0.445   9.451  0.0752 -0.4621  0.0968
 7934SOL    HW135435   0.566   0.455   9.368 -1.8064  2.5198 -0.5865
 7934SOL    HW235436   0.490   0.535   9.465 -0.5449 -0.3430 -1.9725
 7935SOL     OW35437   0.714   2.312   3.138 -0.1346  0.4241  0.0447
 7935SOL    HW135438   0.690   2.285   3.049 -0.5135  0.7694  0.0425
 7935SOL    HW235439   0.722   2.408   3.139  3.1445  0.1822 -1.2264
 7936SOL     OW35440   0.476   0.277   7.921 -0.2970  0.2895  0.4872
 7936SOL    HW135441   0.427   0.333   7.860 -2.0247 -1.2385  0.4828
 7936SOL    HW235442   0.561   0.310   7.893 -1.0929  1.9507 -0.0290
 7937SOL     OW35443   1.554   2.546  12.049 -0.1947 -0.5103 -0.5495
 7937SOL    HW135444   1.586   2.636  12.048 -1.1121 -0.1995 -1.9824
 7937SOL    HW235445   1.557   2.538  12.144 -1.9486  0.8679 -0.3758
 7938SOL     OW35446   4.662   1.420   9.991 -0.3414 -0.1174  0.4794
 7938SOL    HW135447   4.715   1.398   9.914 -0.9577 -0.9170  0.2808
 7938SOL    HW235448   4.595   1.352   9.985  1.3295 -1.6036 -1.1304
 7939SOL     OW35449   0.502   3.437   4.610 -0.0580  0.9341  0.2045
 7939SOL    HW135450   0.465   3.359   4.650 -0.2765 -1.3080 -4.3011
 7939SOL    HW235451   0.566   3.459   4.677  1.2396  0.0072 -0.7315
 7940SOL     OW35452   4.381   4.130   4.759  0.7382 -0.0015  0.0781
 7940SOL    HW135453   4.292   4.105   4.781  0.9316  0.2580  1.1305
 7940SOL    HW235454   4.422   4.099   4.840  0.9925  0.3444  0.0821
 7941SOL     OW35455   3.004   4.085   6.605  0.2048  0.6624 -0.1928
 7941SOL    HW135456   3.088   4.043   6.587 -0.5884  0.5472 -3.6399
 7941SOL    HW235457   2.952   4.048   6.533  0.3129 -1.1157  0.6733
 7942SOL     OW35458   1.036   0.967   3.556 -0.5320 -0.0918 -0.3652
 7942SOL    HW135459   1.063   1.031   3.490  0.9035 -2.6690 -2.2364
 7942SOL    HW235460   1.049   0.885   3.509  2.1885  0.2734 -0.2303
 7943SOL     OW35461   1.376   0.209  14.886 -0.1337  0.0619 -0.1289
 7943SOL    HW135462   1.397   0.271  14.956 -1.4422  2.4963 -1.8561
 7943SOL    HW235463   1.457   0.217  14.835  0.1140  1.7484  0.5127
 7944SOL     OW35464   4.592   1.260  14.511  0.6166  0.0491 -0.2901
 7944SOL    HW135465   4.629   1.173  14.493  0.4580 -0.1432  0.3230
 7944SOL    HW235466   4.652   1.281  14.582  0.0710 -2.5939  0.9742
 7945SOL     OW35467   0.793   1.365   0.136 -0.3953  0.0667  0.0337
 7945SOL    HW135468   0.799   1.460   0.133 -0.4593  0.0138 -1.8040
 7945SOL    HW235469   0.722   1.349   0.075 -0.8323  1.8642  0.0947
 7946SOL     OW35470   2.683   3.270  14.362  0.0150  0.1979 -0.1973
 7946SOL    HW135471   2.640   3.348  14.397 -0.4360 -0.3399  0.4357
 7946SOL    HW235472   2.772   3.278  14.399  0.3612  2.2232 -1.4449
 7947SOL     OW35473   2.353   4.106   6.889 -0.2385  0.4003 -0.1548
 7947SOL    HW135474   2.273   4.055   6.902  0.6836 -1.2325 -0.8716
 7947SOL    HW235475   2.397   4.055   6.821 -0.3028 -0.8460  0.7446
 7948SOL     OW35476   4.628   1.974   3.062  0.4372 -0.1634  0.0057
 7948SOL    HW135477   4.588   2.057   3.088 -4.7067 -2.1000 -1.7283
 7948SOL    HW235478   4.614   1.987   2.968  1.5009  0.8455 -0.0024
 7949SOL     OW35479   3.016   4.314   5.368 -0.8315  0.8122 -0.9295
 7949SOL    HW135480   3.078   4.387   5.370 -0.2495  0.3130 -0.7979
 7949SOL    HW235481   2.948   4.344   5.429 -1.9489 -1.7575 -0.9394
 7950SOL     OW35482   0.953   4.457  10.918  0.0351 -0.8401 -0.1336
 7950SOL    HW135483   0.979   4.452  11.010 -2.0962  0.7625  0.5737
 7950SOL    HW235484   0.860   4.434  10.927 -0.0463 -0.2965  0.4098
 7951SOL     OW35485   1.452   0.479  16.143 -0.1174  0.5867  0.0660
 7951SOL    HW135486   1.417   0.397  16.109  1.7069 -1.2063  2.5201
 7951SOL    HW235487   1.546   0.490  16.128 -0.3329  3.4182  0.7148
 7952SOL     OW35488   0.229   3.719  13.963  0.9522 -0.8425  0.4527
 7952SOL    HW135489   0.214   3.663  13.887 -0.6773 -2.8904  2.3005
 7952SOL    HW235490   0.144   3.712  14.006  1.0758 -1.8152  0.5415
 7953SOL     OW35491   2.730   3.407   8.279 -0.5883  0.0197 -0.0304
 7953SOL    HW135492   2.722   3.497   8.247 -0.1913  0.2027  0.3828
 7953SOL    HW235493   2.652   3.399   8.333 -0.5395 -0.4687 -0.0327
 7954SOL     OW35494   1.137   1.472  12.045 -0.3779 -0.5808 -0.2772
 7954SOL    HW135495   1.211   1.455  12.103  0.4793 -0.8224 -1.4485
 7954SOL    HW235496   1.061   1.450  12.100 -0.4607 -2.2378 -1.0253
 7955SOL     OW35497   3.484   3.355   8.561  0.3658 -0.1087 -0.6455
 7955SOL    HW135498   3.521   3.268   8.577 -1.4662 -0.3678  2.1629
 7955SOL    HW235499   3.541   3.387   8.491  1.4734 -0.9436 -0.1267
 7956SOL     OW35500   4.504   1.652   7.266  0.0203  0.0143  0.5736
 7956SOL    HW135501   4.533   1.644   7.356  0.1126 -0.9252  0.4549
 7956SOL    HW235502   4.573   1.714   7.243 -0.7412  1.0629  1.1362
 7957SOL     OW35503   1.821   1.323   7.359 -0.8157  0.0899  0.6162
 7957SOL    HW135504   1.760   1.393   7.334  1.6684  2.5623  1.4504
 7957SOL    HW235505   1.800   1.296   7.449 -0.0144 -1.1438  0.4302
 7958SOL     OW35506   2.650   1.167  11.184 -0.0689  0.4331  0.4275
 7958SOL    HW135507   2.695   1.091  11.146 -0.1635  2.3919 -3.6352
 7958SOL    HW235508   2.717   1.212  11.236 -1.2840  2.5171  0.1774
 7959SOL     OW35509   1.246   1.782  14.524 -0.2306  0.2996  0.0357
 7959SOL    HW135510   1.300   1.841  14.578 -0.1002  1.0356 -0.8855
 7959SOL    HW235511   1.161   1.808  14.558 -0.1314  2.4684 -1.3308
 7960SOL     OW35512   3.018   4.030  10.271 -0.2353 -0.1287  0.6569
 7960SOL    HW135513   2.976   3.944  10.266  0.7164 -0.5389 -0.3118
 7960SOL    HW235514   3.078   4.027  10.196 -0.7846  3.9460  0.0663
 7961SOL     OW35515   3.861   2.683   0.748 -0.2743 -0.0135  0.0886
 7961SOL    HW135516   3.850   2.629   0.670 -0.2249 -0.4916  0.4134
 7961SOL    HW235517   3.827   2.763   0.707  1.7348  0.3508 -0.8836
 7962SOL     OW35518   1.615   3.102   1.559  0.4783  0.3326  0.5587
 7962SOL    HW135519   1.681   3.112   1.627  0.8273  4.4642 -0.3362
 7962SOL    HW235520   1.587   3.191   1.535  0.3938  0.0792 -0.2678
 7963SOL     OW35521   3.575   4.206  15.101 -0.1457  0.4177 -0.0053
 7963SOL    HW135522   3.639   4.141  15.072 -0.3388  0.8722 -1.4374
 7963SOL    HW235523   3.616   4.223  15.186  0.1591 -2.4516  0.4140
 7964SOL     OW35524   0.945   1.732   4.109  0.6913  0.6435  0.4282
 7964SOL    HW135525   0.939   1.669   4.181  2.4561  0.1173  0.0939
 7964SOL    HW235526   0.913   1.811   4.153  1.3843  0.2005  1.7027
 7965SOL     OW35527   0.106   1.838   9.636  0.0126  0.1312  0.2183
 7965SOL    HW135528   0.100   1.793   9.551 -0.3700  0.4852  0.0601
 7965SOL    HW235529   0.023   1.807   9.672  0.1574  0.3874  0.7628
 7966SOL     OW35530   3.460   0.763  15.989 -0.0581 -0.0647  0.0629
 7966SOL    HW135531   3.537   0.820  15.995  1.1940 -1.8854  1.3212
 7966SOL    HW235532   3.505   0.705  15.927  0.0745  0.8166 -0.6625
 7967SOL     OW35533   2.691   0.737   2.735 -0.0261 -0.7105  0.1085
 7967SOL    HW135534   2.753   0.702   2.800  0.6372 -0.0827 -0.1910
 7967SOL    HW235535   2.743   0.803   2.690 -0.7848  0.8394  1.4823
 7968SOL     OW35536   3.673   2.972  11.813  0.2791  0.1800 -0.0982
 7968SOL    HW135537   3.725   2.944  11.738 -1.8370 -1.2141 -1.0355
 7968SOL    HW235538   3.627   3.051  11.784  1.1635  1.8926  3.1114
 7969SOL     OW35539   3.809   0.113   8.152  0.4161 -1.0257  0.1365
 7969SOL    HW135540   3.773   0.131   8.065  1.5768 -1.8501 -0.5168
 7969SOL    HW235541   3.758   0.036   8.175 -0.3425 -0.6015 -0.1126
 7970SOL     OW35542   1.127   4.081   5.138  0.2505 -0.3674 -0.2810
 7970SOL    HW135543   1.200   4.063   5.197 -1.1407  0.4487  1.6663
 7970SOL    HW235544   1.178   4.080   5.057  4.0495 -0.6637  2.1092
 7971SOL     OW35545   1.845   3.565   2.680  0.3992  0.0898 -0.3878
 7971SOL    HW135546   1.904   3.635   2.708  0.1076  0.3968 -0.5498
 7971SOL    HW235547   1.808   3.538   2.764  1.9360 -0.4996  0.1031
 7972SOL     OW35548   1.809   1.820   3.215  0.0304  0.2803 -0.3318
 7972SOL    HW135549   1.891   1.847   3.173  1.7048 -1.6259  1.7303
 7972SOL    HW235550   1.753   1.818   3.137 -0.5817 -0.1874  0.1210
 7973SOL     OW35551   0.182   0.861  13.953 -1.1441  0.0628 -0.8314
 7973SOL    HW135552   0.098   0.904  13.972 -0.0576  0.3646  3.2786
 7973SOL    HW235553   0.211   0.835  14.040 -0.5574  0.7591 -0.8234
 7974SOL     OW35554   3.898   2.789   7.913 -0.2735  0.2428  0.9246
 7974SOL    HW135555   3.838   2.812   7.983 -3.2407 -1.6228 -0.9994
 7974SOL    HW235556   3.911   2.878   7.880  3.0644  0.0207  1.6030
 7975SOL     OW35557   1.856   3.848   2.407  0.3357 -0.2005 -0.2288
 7975SOL    HW135558   1.850   3.813   2.318 -0.6455 -1.9981  0.5557
 7975SOL    HW235559   1.785   3.801   2.450 -0.0486 -0.6838 -1.4139
 7976SOL     OW35560   1.227   3.598   4.628  0.1110 -0.4456  0.1012
 7976SOL    HW135561   1.285   3.666   4.664  0.5532 -0.4688 -0.5702
 7976SOL    HW235562   1.284   3.524   4.610 -0.1615 -1.2594  2.5320
 7977SOL     OW35563   4.586   2.080   1.756 -0.0760 -0.0808 -0.2253
 7977SOL    HW135564   4.587   1.984   1.762 -2.6501 -0.0261  0.9448
 7977SOL    HW235565   4.676   2.106   1.734  0.6810 -2.2934  0.2387
 7978SOL     OW35566   2.730   3.330   5.585  0.2050 -0.3479  0.2099
 7978SOL    HW135567   2.739   3.256   5.525 -1.3276 -0.9655  0.7626
 7978SOL    HW235568   2.685   3.276   5.649  0.3780 -0.5652  0.1474
 7979SOL     OW35569   3.978   2.259   3.734 -0.3253  0.1291 -0.0480
 7979SOL    HW135570   3.963   2.350   3.760 -0.8366  0.0328  0.0113
 7979SOL    HW235571   4.050   2.259   3.671 -1.2936  0.5057 -1.1629
 7980SOL     OW35572   2.864   4.587  10.856  0.2989  0.0479  0.5643
 7980SOL    HW135573   2.907   4.526  10.797 -0.7371 -0.0153 -0.1155
 7980SOL    HW235574   2.936   4.638  10.894  0.9540 -0.1009 -0.4773
 7981SOL     OW35575   0.928   0.569  15.190  0.2910 -1.1472  0.2036
 7981SOL    HW135576   0.977   0.540  15.113  0.6581 -2.4697  0.9246
 7981SOL    HW235577   0.868   0.626  15.143 -0.0604 -2.4228 -0.8998
 7982SOL     OW35578   0.912   1.549   4.303  0.2478  0.5351 -0.7122
 7982SOL    HW135579   0.818   1.537   4.288  0.4421 -2.0216  0.1375
 7982SOL    HW235580   0.913   1.578   4.394 -0.3419  1.0069 -0.8563
 7983SOL     OW35581   1.870   2.078   2.644 -0.0998  0.1029 -0.0296
 7983SOL    HW135582   1.924   2.141   2.693  0.2152 -2.1073  2.4098
 7983SOL    HW235583   1.867   2.011   2.712  0.5626 -0.5488 -0.6502
 7984SOL     OW35584   1.772   3.515   5.309 -0.1939  0.0536  0.0900
 7984SOL    HW135585   1.698   3.571   5.286 -0.5563  0.0457  1.2774
 7984SOL    HW235586   1.788   3.548   5.397  2.4328  2.2107 -1.2173
 7985SOL     OW35587   2.680   1.774   0.680  0.5789 -0.5898  0.0913
 7985SOL    HW135588   2.678   1.867   0.660  3.9831 -0.2369  1.3615
 7985SOL    HW235589   2.602   1.760   0.734  1.6078  1.5006  2.0876
 7986SOL     OW35590   1.853   3.864   8.885  0.5266 -0.1421  0.2133
 7986SOL    HW135591   1.792   3.834   8.817 -0.2707 -0.8469  1.2440
 7986SOL    HW235592   1.931   3.812   8.868  0.8374  0.2341  0.5100
 7987SOL     OW35593   3.513   1.199   3.437  0.8522  0.6638  0.3730
 7987SOL    HW135594   3.446   1.142   3.475  1.6298  0.9409  2.1816
 7987SOL    HW235595   3.588   1.179   3.493 -0.0932 -0.2404  1.3336
 7988SOL     OW35596   4.496   1.580   2.143 -0.0142 -0.0134  0.1444
 7988SOL    HW135597   4.556   1.509   2.118 -0.3525 -0.5171  0.7825
 7988SOL    HW235598   4.471   1.555   2.232 -0.2901  0.9899  0.3487
 7989SOL     OW35599   3.378   1.687   4.917 -0.7768 -0.0608 -0.1515
 7989SOL    HW135600   3.374   1.715   5.008 -2.5999  0.9908 -0.5624
 7989SOL    HW235601   3.368   1.592   4.929 -0.6400 -0.0638 -0.0606
 7990SOL     OW35602   1.887   0.635  14.569  0.0121 -0.2410 -0.3376
 7990SOL    HW135603   1.960   0.689  14.541  0.5130 -0.2864  0.8941
 7990SOL    HW235604   1.823   0.706  14.566 -0.0680 -0.2564  0.9334
 7991SOL     OW35605   2.087   1.483   1.517 -0.2519 -0.1622 -0.2248
 7991SOL    HW135606   2.061   1.404   1.564 -2.8818  0.7350 -0.1685
 7991SOL    HW235607   2.125   1.443   1.438  3.0404  1.0754  0.7260
 7992SOL     OW35608   3.531   3.375   2.592 -0.0010 -0.3087  0.1054
 7992SOL    HW135609   3.538   3.431   2.669  1.6909 -1.4616  0.7924
 7992SOL    HW235610   3.575   3.296   2.623 -2.0768 -1.5529 -0.1170
 7993SOL     OW35611   0.925   0.594   4.607 -0.6546  0.3595  0.1391
 7993SOL    HW135612   0.921   0.506   4.645  1.3894  0.6433  1.0202
 7993SOL    HW235613   0.854   0.639   4.652 -0.5653  1.5848 -0.9767
 7994SOL     OW35614   4.294   4.358   5.068  0.5293 -0.1934  0.1314
 7994SOL    HW135615   4.319   4.268   5.092 -1.3993 -0.8246 -0.2449
 7994SOL    HW235616   4.200   4.354   5.051  0.3821  0.2907  0.8500
 7995SOL     OW35617   4.513   2.364   6.638 -0.4363  0.6840 -0.5922
 7995SOL    HW135618   4.559   2.318   6.568  1.4410 -1.5033  2.0542
 7995SOL    HW235619   4.430   2.348   6.594 -1.5538  1.1026  1.3555
 7996SOL     OW35620   1.725   3.057   8.571 -0.3120  0.3372  0.4106
 7996SOL    HW135621   1.713   2.976   8.522  0.8499  1.2512 -1.4226
 7996SOL    HW235622   1.653   3.102   8.527 -1.7893 -0.3747  2.1061
 7997SOL     OW35623   2.604   3.587   3.653  0.6770 -0.5131  0.4387
 7997SOL    HW135624   2.532   3.528   3.630 -0.8922  0.6488  2.3848
 7997SOL    HW235625   2.556   3.666   3.675 -1.2597 -1.3999 -0.5830
 7998SOL     OW35626   4.186   3.920   1.455  0.3655 -0.1130  0.4604
 7998SOL    HW135627   4.179   3.971   1.375 -0.4457 -1.1696 -0.1420
 7998SOL    HW235628   4.280   3.908   1.466  0.4301  0.3979  0.4590
 7999SOL     OW35629   2.716   4.478  17.270  0.5180 -0.1669 -0.0184
 7999SOL    HW135630   2.806   4.508  17.277 -0.5683  2.4792  2.5865
 7999SOL    HW235631   2.687   4.530  17.196 -0.9408  0.2635  0.8541
 8000SOL     OW35632   2.385   2.095   9.926  0.4422  0.2360  0.6101
 8000SOL    HW135633   2.465   2.075   9.879  0.1839 -1.4481  0.9049
 8000SOL    HW235634   2.358   2.174   9.879  0.4127 -0.4984 -0.5957
 8001SOL     OW35635   0.704   4.625   2.394 -0.2004 -0.3571 -0.1923
 8001SOL    HW135636   0.632   4.589   2.446 -1.0589 -2.6468 -2.9664
 8001SOL    HW235637   0.669   4.611   2.306  0.8354 -0.6703 -0.5577
 8002SOL     OW35638   3.882   0.460   2.582 -0.0408  0.5083  0.8825
 8002SOL    HW135639   3.843   0.488   2.665 -1.6994 -1.5048  0.7833
 8002SOL    HW235640   3.809   0.403   2.558 -0.5809  1.7470 -0.4320
 8003SOL     OW35641   4.000   1.146   3.032 -0.1699  0.0997  0.2486
 8003SOL    HW135642   3.985   1.070   2.976 -1.1152  0.5488 -0.1137
 8003SOL    HW235643   3.914   1.188   3.026 -0.0798  0.4619  1.5905
 8004SOL     OW35644   0.907   1.165   8.755  0.5837  0.5355 -0.2648
 8004SOL    HW135645   0.920   1.172   8.849 -1.2550 -2.1470  0.2052
 8004SOL    HW235646   0.962   1.238   8.728  0.2827  1.4162  1.5415
 8005SOL     OW35647   3.979   1.095   1.446  0.0425  0.1474 -0.1796
 8005SOL    HW135648   4.007   1.162   1.509 -0.0425 -0.9203  0.9734
 8005SOL    HW235649   3.884   1.108   1.442  0.3894  2.0578 -2.2492
 8006SOL     OW35650   3.735   1.191   0.524  0.0391  0.1062 -0.2879
 8006SOL    HW135651   3.708   1.250   0.594  0.9911 -1.3888  1.3153
 8006SOL    HW235652   3.796   1.131   0.565 -0.7465 -0.3849  0.1578
 8007SOL     OW35653   1.001   1.411   5.088 -0.6106 -0.3991 -0.5418
 8007SOL    HW135654   1.075   1.409   5.028  0.1953  1.3768  0.4279
 8007SOL    HW235655   1.041   1.372   5.165  0.2632 -0.2705 -0.9321
 8008SOL     OW35656   1.858   3.478   9.005 -0.2029 -0.0433 -0.6806
 8008SOL    HW135657   1.854   3.415   8.933  0.1583 -1.8355  0.8630
 8008SOL    HW235658   1.948   3.486   9.034 -0.4903 -1.4441  0.5989
 8009SOL     OW35659   3.448   1.570  12.637  0.1612 -0.6067  0.3851
 8009SOL    HW135660   3.406   1.655  12.628  0.5735 -0.7270 -2.7753
 8009SOL    HW235661   3.377   1.520  12.678  1.2472 -0.9404  1.8436
 8010SOL     OW35662   4.356   2.978   2.346  0.0373 -0.3767 -0.2529
 8010SOL    HW135663   4.316   3.027   2.274 -2.8451 -4.3576 -1.3904
 8010SOL    HW235664   4.358   3.042   2.417 -3.2181  0.7864 -1.2223
 8011SOL     OW35665   1.456   2.079   6.894 -0.2735 -0.3605  0.1831
 8011SOL    HW135666   1.518   2.137   6.938 -0.5906 -1.0039  1.4874
 8011SOL    HW235667   1.379   2.117   6.938 -1.3913  0.0496 -2.1217
 8012SOL     OW35668   2.959   1.893   5.890  0.1948 -0.0594  0.6498
 8012SOL    HW135669   3.040   1.846   5.871 -0.6426 -0.7581 -1.2118
 8012SOL    HW235670   2.900   1.823   5.917  0.3477  0.1175  1.4482
 8013SOL     OW35671   3.233   4.070  16.477  0.0272  0.2878 -0.0880
 8013SOL    HW135672   3.281   3.999  16.436 -0.9469  0.3195 -1.2863
 8013SOL    HW235673   3.155   4.035  16.521 -0.1359 -0.2510 -0.8079
 8014SOL     OW35674   1.207   3.893   2.829  0.3504 -0.0280  0.0197
 8014SOL    HW135675   1.211   3.988   2.824  0.3787 -0.0337 -0.0758
 8014SOL    HW235676   1.265   3.873   2.903 -0.7771 -2.0769  0.3531
 8015SOL     OW35677   1.498   2.488   0.863  0.3837  0.1965 -0.3877
 8015SOL    HW135678   1.577   2.442   0.890  1.5346  1.1095 -2.2077
 8015SOL    HW235679   1.520   2.539   0.785 -3.2499  0.0145 -1.5491
 8016SOL     OW35680   3.073   2.536   3.742  0.0211 -0.1644  0.1772
 8016SOL    HW135681   3.049   2.551   3.651  1.2457 -0.5383 -0.2062
 8016SOL    HW235682   3.167   2.557   3.740  0.0308 -0.1907  0.3784
 8017SOL     OW35683   1.707   4.243  13.379  0.8293  0.1325  0.5030
 8017SOL    HW135684   1.628   4.191  13.378 -0.2538  1.7234  2.6086
 8017SOL    HW235685   1.679   4.330  13.408  1.2189  0.3541  0.2119
 8018SOL     OW35686   0.062   4.272  14.676 -0.4802 -0.3489 -0.1797
 8018SOL    HW135687   0.011   4.287  14.596 -0.4071  1.6511  0.1613
 8018SOL    HW235688   0.029   4.337  14.738  0.5524  0.4157 -0.4393
 8019SOL     OW35689   0.504   1.135   4.569  0.1753  0.4902  0.1742
 8019SOL    HW135690   0.489   1.049   4.530  1.3290  0.7461 -0.8287
 8019SOL    HW235691   0.469   1.191   4.499 -1.3021  1.3361  1.5674
 8020SOL     OW35692   1.976   0.648   4.755  0.0817  0.1670 -0.1213
 8020SOL    HW135693   1.890   0.647   4.713 -1.0212 -2.8778  2.1427
 8020SOL    HW235694   1.975   0.739   4.787 -0.3498  0.0167  0.2990
 8021SOL     OW35695   1.701   0.714   5.757  0.3967 -0.1754 -0.0045
 8021SOL    HW135696   1.633   0.764   5.801  0.7526  1.2151 -1.0362
 8021SOL    HW235697   1.685   0.631   5.803  0.2659  1.4601  2.8729
 8022SOL     OW35698   4.121   4.175  14.886 -0.2039  0.2917 -0.2447
 8022SOL    HW135699   4.180   4.169  14.810  0.5318 -0.4511  0.3767
 8022SOL    HW235700   4.176   4.213  14.954 -0.0807 -1.7230  0.7904
 8023SOL     OW35701   0.599   4.500   3.493  0.1693  0.6554  0.2245
 8023SOL    HW135702   0.539   4.572   3.476 -0.5657  0.2667  1.2243
 8023SOL    HW235703   0.546   4.421   3.504  0.8899  0.2483  0.7733
 8024SOL     OW35704   0.158   0.204  14.524  0.2404  0.2440 -0.4896
 8024SOL    HW135705   0.223   0.139  14.549  1.6854  1.4967 -0.9906
 8024SOL    HW235706   0.217   0.270  14.488  1.0771 -0.2518 -0.0287
 8025SOL     OW35707   3.397   1.083  14.552 -0.2447 -0.0245 -0.2093
 8025SOL    HW135708   3.335   1.011  14.563 -0.8646  0.6278  0.5878
 8025SOL    HW235709   3.479   1.040  14.526  1.1019  1.4515  1.5381
 8026SOL     OW35710   1.485   2.666   5.455  0.3887 -0.5403  0.3971
 8026SOL    HW135711   1.534   2.748   5.454 -0.2379 -0.2083 -1.8915
 8026SOL    HW235712   1.497   2.632   5.367 -0.2164  2.4601 -0.8264
 8027SOL     OW35713   4.334   1.641   1.445 -0.1185  0.2077 -0.5335
 8027SOL    HW135714   4.255   1.687   1.416  0.5764  2.1450  0.6499
 8027SOL    HW235715   4.382   1.713   1.486 -3.0996  1.7511  0.2317
 8028SOL     OW35716   2.958   0.816   0.250  0.0869  0.1194  0.2058
 8028SOL    HW135717   3.049   0.793   0.268  0.0010 -2.0210 -2.1213
 8028SOL    HW235718   2.952   0.812   0.154  1.0159 -0.3904  0.1731
 8029SOL     OW35719   0.400   1.178  15.589  0.3358  0.1796 -0.0825
 8029SOL    HW135720   0.339   1.250  15.574 -0.3729 -0.1335  1.3368
 8029SOL    HW235721   0.469   1.174  15.522  0.8870  2.2433  0.3754
 8030SOL     OW35722   3.569   3.255   4.432 -0.3903  0.8039  0.5387
 8030SOL    HW135723   3.580   3.309   4.353  3.2323 -0.7081  0.0133
 8030SOL    HW235724   3.557   3.326   4.495  0.9655  0.5311  1.1004
 8031SOL     OW35725   3.069   1.606  10.641  0.1766  0.2431  0.3089
 8031SOL    HW135726   3.043   1.651  10.722 -1.3646 -0.3306  0.1372
 8031SOL    HW235727   2.991   1.623  10.589 -0.3029 -0.5637  0.7630
 8032SOL     OW35728   3.662   2.100   4.721 -0.1152 -0.1997  0.2894
 8032SOL    HW135729   3.592   2.080   4.659 -0.4476  0.5956  0.4072
 8032SOL    HW235730   3.726   2.045   4.675 -0.1576 -0.7332  0.8585
 8033SOL     OW35731   4.549   4.240   3.189 -0.3153 -0.0651  0.5071
 8033SOL    HW135732   4.575   4.300   3.120  0.7657  0.1527  1.1120
 8033SOL    HW235733   4.576   4.154   3.157 -0.7375 -0.9204  2.4228
 8034SOL     OW35734   0.610   3.132   9.117 -0.0605 -0.1465 -0.0491
 8034SOL    HW135735   0.705   3.132   9.103 -0.0083  1.7677  0.3201
 8034SOL    HW235736   0.589   3.223   9.096  0.5852 -0.0022 -0.0558
 8035SOL     OW35737   2.992   3.000  16.819  0.0740  0.2897  0.5155
 8035SOL    HW135738   2.953   2.915  16.800 -0.5779  1.0486 -1.5944
 8035SOL    HW235739   3.067   3.002  16.760 -1.0197  1.7519 -0.8285
 8036SOL     OW35740   4.708   1.076   5.472  0.3544  0.0319  0.1544
 8036SOL    HW135741   4.647   1.104   5.404  0.8946 -0.3583 -0.4818
 8036SOL    HW235742   0.047   1.074   5.412  0.1611 -1.1081 -0.0372
 8037SOL     OW35743   3.043   3.848   8.449 -0.5225  0.1890  0.2958
 8037SOL    HW135744   3.110   3.914   8.465  0.3976 -0.1375 -2.1595
 8037SOL    HW235745   3.039   3.838   8.354  1.4221 -3.9941  0.6840
 8038SOL     OW35746   3.629   2.563   5.117 -0.5799 -0.2047  0.0595
 8038SOL    HW135747   3.547   2.518   5.137 -0.3513 -0.2067  1.0006
 8038SOL    HW235748   3.685   2.509   5.173 -0.1922 -0.2144 -0.3366
 8039SOL     OW35749   1.215   4.198  16.471 -0.1980  0.3283 -0.7281
 8039SOL    HW135750   1.132   4.172  16.431 -1.1666  2.8847 -0.4225
 8039SOL    HW235751   1.269   4.119  16.466 -0.0811  0.3165  0.7384
 8040SOL     OW35752   2.218   2.753  17.104 -0.5920  0.2503  0.1584
 8040SOL    HW135753   2.183   2.705  17.179 -1.3623  1.4398  0.5515
 8040SOL    HW235754   2.273   2.818  17.148  1.0893 -2.4282  2.0361
 8041SOL     OW35755   1.968   0.449  11.975 -0.1991 -0.2454  0.3416
 8041SOL    HW135756   1.973   0.452  11.879 -0.0379 -0.4108  0.3448
 8041SOL    HW235757   1.898   0.385  11.989  1.0573 -1.3278  1.7322
 8042SOL     OW35758   2.331   0.799   8.410  0.2916 -0.2085  0.3297
 8042SOL    HW135759   2.311   0.877   8.356 -1.3488 -2.2107 -1.9593
 8042SOL    HW235760   2.272   0.733   8.373  0.0417  1.0717 -1.5991
 8043SOL     OW35761   0.827   1.649   6.896 -0.5061 -0.2542 -0.2504
 8043SOL    HW135762   0.809   1.577   6.956  0.2330 -0.6841 -0.5402
 8043SOL    HW235763   0.774   1.621   6.822  0.5450  0.7742 -1.4026
 8044SOL     OW35764   1.113   0.804   5.152 -0.5986  0.1537  1.3649
 8044SOL    HW135765   1.109   0.713   5.121 -0.2921  0.2675  0.9871
 8044SOL    HW235766   1.076   0.786   5.238  0.7188  0.3193  1.9749
 8045SOL     OW35767   2.793   2.199   1.967 -0.1377  0.0231  0.5305
 8045SOL    HW135768   2.729   2.131   1.946 -0.4395  0.5994 -0.4329
 8045SOL    HW235769   2.810   2.245   1.884 -1.5814 -2.0376 -0.8991
 8046SOL     OW35770   1.328   4.182   3.297 -0.5279  0.5639  0.4231
 8046SOL    HW135771   1.366   4.170   3.211 -0.8155 -0.0344  0.3833
 8046SOL    HW235772   1.249   4.130   3.285 -0.6441  0.6908  0.6162
 8047SOL     OW35773   3.704   4.588  15.952 -0.2896  0.0711 -0.2110
 8047SOL    HW135774   3.618   4.574  15.914 -0.8057  0.4763  0.8093
 8047SOL    HW235775   3.710   4.684  15.953 -0.3736  0.0293  3.6109
 8048SOL     OW35776   0.092   3.127  13.108  0.1044 -0.6391 -0.1353
 8048SOL    HW135777   0.029   3.074  13.059 -0.8853  1.4303 -1.1093
 8048SOL    HW235778   0.060   3.121  13.198 -2.1230 -1.5162 -0.9920
 8049SOL     OW35779   3.715   0.848   8.725  0.2618  0.6243  0.0993
 8049SOL    HW135780   3.659   0.922   8.700 -1.1695  0.2843  2.3991
 8049SOL    HW235781   3.779   0.894   8.779  0.8870 -1.1634  0.8467
 8050SOL     OW35782   0.645   0.710  15.156 -0.0943  0.1341  0.0906
 8050SOL    HW135783   0.615   0.797  15.132 -1.0582  0.2913  1.8450
 8050SOL    HW235784   0.566   0.657  15.167  0.1705  0.2125  2.3448
 8051SOL     OW35785   2.821   1.476  12.060  0.3778  0.0543  0.0268
 8051SOL    HW135786   2.888   1.446  12.122 -0.2688 -1.1437  0.1434
 8051SOL    HW235787   2.770   1.540  12.110  3.1755  0.9907  1.7323
 8052SOL     OW35788   0.769   3.574  17.343  0.7289 -0.2340  0.5069
 8052SOL    HW135789   0.721   3.644  17.388 -0.9452 -0.1787 -1.3001
 8052SOL    HW235790   0.754   3.593  17.250  2.0354 -2.1031 -0.0795
 8053SOL     OW35791   1.921   3.706   7.799  0.1959 -0.3813  0.3207
 8053SOL    HW135792   1.893   3.798   7.800  0.4600 -0.2892 -0.3941
 8053SOL    HW235793   1.843   3.655   7.821 -0.7407  0.5962 -0.6767
 8054SOL     OW35794   0.714   2.775   2.693  0.3410  0.2291  0.5990
 8054SOL    HW135795   0.736   2.757   2.602 -1.0343  1.1191  0.0935
 8054SOL    HW235796   0.739   2.690   2.731  1.9336  0.8122  0.8399
 8055SOL     OW35797   2.730   2.717  16.535 -0.2026  0.0235  0.5838
 8055SOL    HW135798   2.706   2.705  16.443 -1.8010 -1.4893  1.2046
 8055SOL    HW235799   2.655   2.683  16.582 -2.2668  1.3348 -1.7654
 8056SOL     OW35800   2.870   1.171   4.497  0.5297  0.0108  0.1391
 8056SOL    HW135801   2.907   1.248   4.539  0.8489  0.1667 -0.4355
 8056SOL    HW235802   2.778   1.196   4.487  0.5821  0.4828  0.8180
 8057SOL     OW35803   1.457   3.193  16.614 -0.3139  0.3572  0.0082
 8057SOL    HW135804   1.550   3.170  16.613 -1.0018 -2.3902  0.7446
 8057SOL    HW235805   1.454   3.204  16.709 -1.8398  3.1740 -0.3567
 8058SOL     OW35806   0.697   1.407   5.831 -0.2130 -0.0561  0.1477
 8058SOL    HW135807   0.673   1.497   5.806 -1.0659  0.2490  2.0320
 8058SOL    HW235808   0.731   1.364   5.753 -0.1904  0.2555 -0.0160
 8059SOL     OW35809   3.905   3.456   6.063 -0.3676  0.0963  0.5700
 8059SOL    HW135810   3.889   3.535   6.114  0.2194  1.1298 -0.8552
 8059SOL    HW235811   3.818   3.432   6.031 -0.1987  1.7471 -1.0972
 8060SOL     OW35812   3.205   0.518  16.850 -0.0447 -0.3116 -0.5053
 8060SOL    HW135813   3.196   0.428  16.818 -3.9670 -0.4821  1.2308
 8060SOL    HW235814   3.189   0.506  16.943 -0.6806 -1.5392 -0.7723
 8061SOL     OW35815   1.617   2.007  15.451  0.1091  0.1477 -0.0386
 8061SOL    HW135816   1.675   1.939  15.486 -0.9538 -1.8488 -2.2174
 8061SOL    HW235817   1.537   1.986  15.499  0.2009 -1.4859 -0.5999
 8062SOL     OW35818   1.898   2.574   3.263  0.2732  0.2911 -0.0542
 8062SOL    HW135819   1.921   2.663   3.289  2.6804  0.2010 -1.8349
 8062SOL    HW235820   1.823   2.598   3.207 -0.4533 -1.3801  0.2034
 8063SOL     OW35821   3.148   1.797   4.584  0.3505  0.0384 -0.3368
 8063SOL    HW135822   3.066   1.758   4.613  0.7957 -0.9966 -0.4942
 8063SOL    HW235823   3.119   1.823   4.496  0.1675  0.4523 -0.1566
 8064SOL     OW35824   1.930   1.597   6.558  0.7196 -0.2564 -0.0624
 8064SOL    HW135825   1.932   1.503   6.574 -0.8315 -0.1666  0.6754
 8064SOL    HW235826   1.941   1.623   6.650  0.4583 -0.6309  0.0755
 8065SOL     OW35827   3.036   2.541  10.454  0.2104  0.2202  0.2547
 8065SOL    HW135828   3.064   2.452  10.475 -0.8989 -0.1958  0.0011
 8065SOL    HW235829   3.112   2.599  10.459  1.5142 -1.4180 -0.6635
 8066SOL     OW35830   2.436   2.534  10.493 -0.1246 -0.3854  0.2728
 8066SOL    HW135831   2.480   2.585  10.561  1.4694  0.1480 -1.1446
 8066SOL    HW235832   2.461   2.444  10.512 -2.1325 -1.1975 -0.8903
 8067SOL     OW35833   1.918   1.909   7.701 -0.2776 -0.0997  0.0283
 8067SOL    HW135834   1.988   1.949   7.650 -0.5225  0.4630  0.1354
 8067SOL    HW235835   1.910   1.966   7.778  0.1935 -0.0318  0.0272
 8068SOL     OW35836   1.548   1.440   5.120 -0.0119  0.3695 -0.0956
 8068SOL    HW135837   1.546   1.493   5.040  0.0594  1.1959  0.4558
 8068SOL    HW235838   1.517   1.353   5.093 -0.7001  0.4698  0.3787
 8069SOL     OW35839   3.420   1.632   0.952  0.2760 -0.6621 -0.0865
 8069SOL    HW135840   3.365   1.583   1.014 -2.0547  1.0144 -0.8474
 8069SOL    HW235841   3.379   1.718   0.949  0.4897 -0.5831 -0.6733
 8070SOL     OW35842   4.485   3.810   1.547 -0.5892 -0.0683 -0.0925
 8070SOL    HW135843   4.524   3.735   1.592  0.4485  0.1432 -0.6259
 8070SOL    HW235844   4.468   3.879   1.610  2.1489  1.1547 -0.6909
 8071SOL     OW35845   4.585   4.730   3.811  0.0969  0.5988 -0.4482
 8071SOL    HW135846   4.598   4.640   3.840  0.5039  1.4152  1.9248
 8071SOL    HW235847   4.617   0.043   3.888 -1.1231  0.7961 -0.0668
 8072SOL     OW35848   4.290   3.948   1.182  0.1857  0.0152  0.7758
 8072SOL    HW135849   4.335   3.869   1.214  2.3250  0.0188 -2.1840
 8072SOL    HW235850   4.362   3.995   1.139 -0.8454  0.3174 -0.5771
 8073SOL     OW35851   3.758   2.103   9.223  0.1347 -0.2581  0.3922
 8073SOL    HW135852   3.811   2.180   9.203 -2.5268  1.2787 -0.7101
 8073SOL    HW235853   3.675   2.150   9.232  0.2962 -0.0591  0.8557
 8074SOL     OW35854   2.233   3.156   0.055 -0.2442  0.1068 -0.1367
 8074SOL    HW135855   2.181   3.095   0.002  0.2621  0.6901 -1.3190
 8074SOL    HW235856   2.320   3.128   0.026 -0.4345 -0.8345  0.2049
 8075SOL     OW35857   1.796   0.054   6.172  0.1780 -0.4036 -0.4539
 8075SOL    HW135858   1.813   0.001   6.094  1.0909 -1.2642  0.3262
 8075SOL    HW235859   1.882   0.045   6.214 -0.3180 -0.9499  0.4252
 8076SOL     OW35860   3.702   0.807   7.632 -0.1938  0.1553  0.5293
 8076SOL    HW135861   3.616   0.823   7.671 -0.1139  1.0433  0.3407
 8076SOL    HW235862   3.705   0.711   7.638 -0.2356  0.3224  3.0818
 8077SOL     OW35863   4.510   3.926  15.715  0.5901  0.2180  0.0111
 8077SOL    HW135864   4.467   3.980  15.782 -1.5281 -2.5124  0.8702
 8077SOL    HW235865   4.510   3.844  15.764  2.2300 -0.3109 -0.8495
 8078SOL     OW35866   2.059   1.137   7.950  0.1111 -0.7343  0.3504
 8078SOL    HW135867   2.124   1.168   8.013  1.3911 -3.5712  0.4600
 8078SOL    HW235868   2.116   1.071   7.909  1.2083  0.2802  0.2363
 8079SOL     OW35869   0.973   2.367   1.695 -0.1310  0.0253  0.3958
 8079SOL    HW135870   1.039   2.307   1.661  0.9046  1.1728  0.3771
 8079SOL    HW235871   0.932   2.375   1.609  0.2416  0.7785  0.2892
 8080SOL     OW35872   4.456   0.912  16.297  0.0726 -0.5191 -0.0335
 8080SOL    HW135873   4.495   0.896  16.212  2.2943 -0.0110  0.8825
 8080SOL    HW235874   4.517   0.868  16.357  0.4731  0.7215  0.4619
 8081SOL     OW35875   1.825   1.347   5.603 -0.0062 -0.2617  0.5340
 8081SOL    HW135876   1.745   1.334   5.552  1.0691 -1.9093 -0.7466
 8081SOL    HW235877   1.887   1.302   5.546 -0.7336  0.2431 -0.6394
 8082SOL     OW35878   1.376   0.226   8.531 -0.0374 -0.1400  0.4161
 8082SOL    HW135879   1.323   0.152   8.500 -0.8040  0.9341 -0.8714
 8082SOL    HW235880   1.448   0.176   8.569 -0.7562 -1.3465  0.2113
 8083SOL     OW35881   1.948   4.103  10.913 -1.0910 -0.7050 -0.1013
 8083SOL    HW135882   1.872   4.157  10.932 -1.0958 -0.8900  0.4261
 8083SOL    HW235883   1.902   4.026  10.880 -0.2923 -1.0695 -0.3666
 8084SOL     OW35884   0.106   2.072   4.931  0.7274  0.8725  0.6479
 8084SOL    HW135885   0.082   2.139   4.867 -1.3046 -1.7520 -1.3481
 8084SOL    HW235886   0.104   2.128   5.008  1.4295  1.8693 -0.0672
 8085SOL     OW35887   2.626   1.609   9.362 -0.3863  0.2617 -0.1649
 8085SOL    HW135888   2.564   1.572   9.424 -1.0292  0.4281 -0.7032
 8085SOL    HW235889   2.575   1.583   9.285  0.3364  0.7019 -0.8027
 8086SOL     OW35890   3.782   4.178  10.826 -0.1669  0.1398  0.8095
 8086SOL    HW135891   3.791   4.087  10.853  2.1799  0.2330  0.3963
 8086SOL    HW235892   3.749   4.173  10.737  2.4886  1.0832 -0.2395
 8087SOL     OW35893   4.646   0.476   6.811  0.6945 -0.5194 -0.0590
 8087SOL    HW135894   4.695   0.470   6.893 -3.1762  0.2246  2.2705
 8087SOL    HW235895   4.719   0.456   6.751  0.7512 -3.7123  1.0705
 8088SOL     OW35896   0.168   2.341  11.313 -0.2832  0.2352  0.0516
 8088SOL    HW135897   0.171   2.246  11.303  0.4220  0.3168 -0.4605
 8088SOL    HW235898   0.162   2.354  11.408  0.8686 -0.1983  0.1834
 8089SOL     OW35899   0.573   2.983  11.293  0.1166  0.1952  0.5458
 8089SOL    HW135900   0.568   3.052  11.227 -2.8335  0.2364  0.7924
 8089SOL    HW235901   0.664   2.954  11.287  0.6396  2.3659 -1.9786
 8090SOL     OW35902   0.299   2.661   3.547 -0.2240  0.3324 -0.1057
 8090SOL    HW135903   0.371   2.604   3.574 -2.1665 -1.2341  1.7720
 8090SOL    HW235904   0.227   2.612   3.585 -0.5356  0.2793 -0.7751
 8091SOL     OW35905   4.611   2.267   7.985  0.2632 -0.0039 -0.3065
 8091SOL    HW135906   4.535   2.294   8.035  1.4142 -2.4303  2.7601
 8091SOL    HW235907   4.581   2.225   7.905 -2.3690 -0.1284  0.7610
 8092SOL     OW35908   0.927   1.695   5.255 -0.0565 -0.1321 -0.2016
 8092SOL    HW135909   0.997   1.639   5.221 -2.2958 -1.4421 -2.6529
 8092SOL    HW235910   0.881   1.720   5.176 -0.4646 -0.1824  0.0199
 8093SOL     OW35911   2.389   2.958   4.605 -0.2899 -0.3864  0.2268
 8093SOL    HW135912   2.434   2.980   4.686 -1.9162 -1.5473  1.4495
 8093SOL    HW235913   2.333   2.895   4.650 -1.0058  0.8487  1.0811
 8094SOL     OW35914   2.008   3.653   3.479 -0.0663  0.0049  0.4757
 8094SOL    HW135915   1.965   3.732   3.446  0.5560 -0.6455 -1.8810
 8094SOL    HW235916   1.937   3.593   3.455 -0.7920  0.6774  0.9447
 8095SOL     OW35917   3.959   2.817   6.209  0.6012 -0.1935 -0.4983
 8095SOL    HW135918   3.895   2.822   6.280 -1.2106  0.2947 -2.2031
 8095SOL    HW235919   4.029   2.783   6.266 -1.7843 -2.3831  1.1550
 8096SOL     OW35920   2.636   4.419   7.764  0.0506 -0.5290  0.1483
 8096SOL    HW135921   2.560   4.442   7.817  0.3066 -1.1555  0.7926
 8096SOL    HW235922   2.583   4.373   7.699  1.8077  1.5041 -2.7831
 8097SOL     OW35923   1.467   4.277   9.346  0.2261  0.9631 -0.4716
 8097SOL    HW135924   1.393   4.218   9.334 -0.6399  1.7468  1.0717
 8097SOL    HW235925   1.424   4.358   9.374  1.0012  0.8559  1.0271
 8098SOL     OW35926   0.444   2.654  12.243 -0.0052  0.3134  0.4503
 8098SOL    HW135927   0.477   2.578  12.290 -0.4418 -0.3407 -0.3079
 8098SOL    HW235928   0.416   2.624  12.157 -0.3176  1.6081  0.0883
 8099SOL     OW35929   1.344   0.268   3.648  0.2815 -0.6312  0.1853
 8099SOL    HW135930   1.296   0.255   3.731  1.0795 -1.0965  0.5757
 8099SOL    HW235931   1.434   0.269   3.681  0.3375 -1.7263  0.0902
 8100SOL     OW35932   2.532   4.052  15.648 -0.0721  0.2635  0.0887
 8100SOL    HW135933   2.610   4.099  15.617 -0.1265  0.9161  0.9276
 8100SOL    HW235934   2.498   4.132  15.688  0.0602  0.2107  0.3082
 8101SOL     OW35935   0.526   2.221   7.952 -0.0251 -0.3390  0.1620
 8101SOL    HW135936   0.502   2.163   7.880  0.1619  2.0090 -1.7880
 8101SOL    HW235937   0.485   2.304   7.929 -2.9110 -1.2010  2.2154
 8102SOL     OW35938   3.895   2.918   1.310  0.1511 -0.2533 -0.8582
 8102SOL    HW135939   3.973   2.868   1.333  0.2289  0.7026  0.9822
 8102SOL    HW235940   3.892   2.898   1.217  1.0045 -0.9054 -0.7319
 8103SOL     OW35941   0.307   3.913   8.573  0.5106  0.1037 -0.4130
 8103SOL    HW135942   0.285   4.006   8.563  2.8040  0.8396  1.2507
 8103SOL    HW235943   0.374   3.893   8.507  0.7026 -1.0171  0.1202
 8104SOL     OW35944   2.852   2.007   3.110 -0.1636 -0.2962 -0.6126
 8104SOL    HW135945   2.913   1.989   3.038  0.8049  0.0934  0.1156
 8104SOL    HW235946   2.906   2.028   3.185  0.7732 -0.4866 -1.2311
 8105SOL     OW35947   2.067   3.530  14.001  0.1874 -0.8938 -0.4963
 8105SOL    HW135948   2.159   3.504  13.996  0.3661 -0.0390 -1.5863
 8105SOL    HW235949   2.035   3.490  13.920  1.1823  0.8601 -1.7558
 8106SOL     OW35950   2.937   3.912   0.301  0.3369 -0.2833 -0.5147
 8106SOL    HW135951   2.964   3.951   0.384  1.2683 -1.6804 -0.1828
 8106SOL    HW235952   2.855   3.870   0.328 -0.5644 -0.2278 -3.1490
 8107SOL     OW35953   2.367   3.422   6.144 -0.7548  0.1344  0.4347
 8107SOL    HW135954   2.381   3.329   6.125  1.0505  0.1356  1.8061
 8107SOL    HW235955   2.433   3.455   6.083 -0.8442 -0.8557 -0.2021
 8108SOL     OW35956   3.444   3.206   2.315  0.9286  0.7511 -0.3870
 8108SOL    HW135957   3.408   3.266   2.380 -2.5243  0.3867 -1.9562
 8108SOL    HW235958   3.535   3.236   2.312  1.1553  0.3193  2.0039
 8109SOL     OW35959   0.511   0.879  11.151  0.3682  0.0148 -0.1128
 8109SOL    HW135960   0.519   0.784  11.140  2.0839  0.2779 -1.0786
 8109SOL    HW235961   0.561   0.882  11.233 -0.5035  1.1934  0.3658
 8110SOL     OW35962   4.226   1.380   6.266  0.1697 -0.0983 -0.2511
 8110SOL    HW135963   4.166   1.327   6.214 -2.1828  0.1563  2.2178
 8110SOL    HW235964   4.191   1.387   6.355  2.6885  1.2189  0.6289
 8111SOL     OW35965   2.404   4.026  17.213 -0.2458  0.6294 -0.0446
 8111SOL    HW135966   2.365   4.006  17.298 -0.1684 -2.2698 -0.6836
 8111SOL    HW235967   2.472   4.086  17.244 -0.1872  0.4582  0.1558
 8112SOL     OW35968   1.422   0.571   5.609  0.3448 -0.1039 -0.6104
 8112SOL    HW135969   1.468   0.602   5.530  2.0233  1.1831  0.8826
 8112SOL    HW235970   1.443   0.644   5.666 -1.0951  1.1757 -1.6844
 8113SOL     OW35971   0.191   4.466   5.495  0.3027 -0.1038  0.3479
 8113SOL    HW135972   0.116   4.476   5.436 -0.2638 -0.9798  0.9190
 8113SOL    HW235973   0.203   4.559   5.516  1.3551 -0.3764  0.9563
 8114SOL     OW35974   2.962   3.651   6.048  0.1114 -0.7555  0.4363
 8114SOL    HW135975   2.960   3.665   6.143  3.2802  1.4231  0.1953
 8114SOL    HW235976   3.050   3.679   6.022 -1.3763  1.2444 -2.4385
 8115SOL     OW35977   2.902   3.051  10.271  0.1136  0.1328  0.0986
 8115SOL    HW135978   2.875   3.105  10.345  1.3218  2.3722 -1.1119
 8115SOL    HW235979   2.988   3.088  10.251  0.8076 -1.1678  0.6817
 8116SOL     OW35980   0.981   1.057   3.805 -0.2084  0.2782 -0.4152
 8116SOL    HW135981   0.920   0.984   3.811  0.7723 -0.4889  0.2355
 8116SOL    HW235982   1.012   1.051   3.714  1.3363  0.6407  0.0810
 8117SOL     OW35983   3.506   1.321   8.702  0.8289 -0.3320  0.0562
 8117SOL    HW135984   3.427   1.270   8.722  0.4296  0.1963 -0.1856
 8117SOL    HW235985   3.495   1.406   8.745  2.2591  0.2124 -0.6778
 8118SOL     OW35986   3.602   2.166   1.116  0.3207  0.5076 -0.2835
 8118SOL    HW135987   3.624   2.115   1.193 -0.4383  0.5162 -0.0697
 8118SOL    HW235988   3.673   2.134   1.060  0.7776 -0.2556  0.7227
 8119SOL     OW35989   3.866   1.850   5.756 -0.7698  0.3348 -0.4069
 8119SOL    HW135990   3.797   1.787   5.775 -0.0432 -0.0778  0.8092
 8119SOL    HW235991   3.913   1.859   5.839  0.5162 -0.2390 -1.0684
 8120SOL     OW35992   0.206   4.531   6.217 -0.0594 -0.0148  0.7552
 8120SOL    HW135993   0.292   4.570   6.206 -0.7505  1.8761  2.1440
 8120SOL    HW235994   0.161   4.589   6.155  1.5440 -0.1245 -0.5291
 8121SOL     OW35995   2.336   3.288   3.756  0.1345  0.3281  0.2234
 8121SOL    HW135996   2.369   3.314   3.670 -0.3759 -1.4971 -0.5227
 8121SOL    HW235997   2.295   3.206   3.729 -1.9981  1.2983  0.5095
 8122SOL     OW35998   2.389   1.551  13.245  0.3722  0.4185 -0.0335
 8122SOL    HW135999   2.320   1.541  13.310  2.1585  0.9195  1.9161
 8122SOL    HW236000   2.366   1.637  13.211 -2.6097 -1.5801 -3.1036
 8123SOL     OW36001   2.571   4.139   3.787  0.2967  0.1935 -0.4323
 8123SOL    HW136002   2.644   4.176   3.837 -0.6201  1.9343 -0.3861
 8123SOL    HW236003   2.503   4.162   3.850  0.7185 -0.4265  0.2439
 8124SOL     OW36004   0.047   1.530   9.495  0.2067 -0.2959 -0.0959
 8124SOL    HW136005   0.017   1.597   9.434 -3.1088 -0.5326  1.3014
 8124SOL    HW236006   0.134   1.526   9.456  1.6475  0.3690  3.0401
 8125SOL     OW36007   0.316   0.872   6.545 -0.4314  0.2344  0.4415
 8125SOL    HW136008   0.411   0.883   6.540 -0.1182 -1.7770  2.0771
 8125SOL    HW236009   0.301   0.894   6.637  0.6506 -0.7971  0.8605
 8126SOL     OW36010   0.743   2.178   2.106  0.2971 -0.4748  0.2504
 8126SOL    HW136011   0.828   2.135   2.107  0.4901 -0.1685 -2.1569
 8126SOL    HW236012   0.736   2.194   2.012  1.1850  1.4071  0.5045
 8127SOL     OW36013   3.767   1.190   8.306  0.5784 -0.2298  0.1627
 8127SOL    HW136014   3.702   1.244   8.351  0.6110  1.3550 -1.6772
 8127SOL    HW236015   3.789   1.230   8.222 -0.5448 -0.7530 -0.3786
 8128SOL     OW36016   1.287   0.884   2.827  0.0836 -0.3071 -0.6066
 8128SOL    HW136017   1.278   0.898   2.921  0.9715  1.3541 -0.7642
 8128SOL    HW236018   1.322   0.796   2.817  0.5978 -0.3896  1.9335
 8129SOL     OW36019   3.525   3.168   6.401  0.3505  0.2007  0.3716
 8129SOL    HW136020   3.492   3.115   6.328  1.7792 -0.6592  0.3490
 8129SOL    HW236021   3.582   3.223   6.348 -0.1665 -0.4142 -0.8450
 8130SOL     OW36022   2.779   2.865   5.658 -0.1024  0.3321  0.3108
 8130SOL    HW136023   2.854   2.856   5.600 -2.0391 -0.2027 -2.1162
 8130SOL    HW236024   2.743   2.778   5.672  0.7416 -0.1825 -0.7856
 8131SOL     OW36025   4.087   0.995   4.985 -0.2046  0.3067 -0.0229
 8131SOL    HW136026   4.068   1.060   5.053 -2.3997 -1.3349  0.9307
 8131SOL    HW236027   4.107   0.916   5.035  1.3721 -0.4031 -1.7905
 8132SOL     OW36028   2.802   0.245   2.960  0.1165  0.9178 -0.1895
 8132SOL    HW136029   2.892   0.217   2.978  0.1871  0.8093 -0.7220
 8132SOL    HW236030   2.774   0.171   2.907 -0.9700  2.2530 -1.4834
 8133SOL     OW36031   3.152   0.263   6.524 -0.2203 -0.4407 -0.4489
 8133SOL    HW136032   3.165   0.355   6.547  0.8557 -1.0729  1.4556
 8133SOL    HW236033   3.219   0.258   6.456 -0.3926 -0.1914 -0.6390
 8134SOL     OW36034   3.311   3.145   5.554  0.0307  0.2151 -0.2177
 8134SOL    HW136035   3.342   3.234   5.539 -0.6051  0.2590 -1.2467
 8134SOL    HW236036   3.368   3.089   5.501  1.3031  0.1753  1.1887
 8135SOL     OW36037   2.527   4.627   6.582  0.0227 -0.0917  0.0107
 8135SOL    HW136038   2.621   4.639   6.580 -0.0722  0.8049  1.1387
 8135SOL    HW236039   2.495   4.711   6.550 -1.5567 -1.3305 -1.7168
 8136SOL     OW36040   1.815   2.724   4.555  0.7986 -0.3904  0.0562
 8136SOL    HW136041   1.775   2.645   4.518 -1.0350 -0.2886  1.8129
 8136SOL    HW236042   1.906   2.699   4.540  0.4328  0.1044 -2.8862
 8137SOL     OW36043   2.358   3.552   9.357 -0.9026 -0.3300 -0.7225
 8137SOL    HW136044   2.385   3.462   9.342 -0.1729 -0.3726  0.8609
 8137SOL    HW236045   2.415   3.583   9.428 -0.5660 -1.3949 -0.5367
 8138SOL     OW36046   3.961   3.594   8.643  0.0169 -0.2240 -0.1354
 8138SOL    HW136047   3.978   3.546   8.724 -0.2588  1.6058  1.0050
 8138SOL    HW236048   3.885   3.646   8.669  0.9163  1.2007 -0.4048
 8139SOL     OW36049   0.529   2.761   1.785 -0.9861 -0.4528  0.2138
 8139SOL    HW136050   0.606   2.817   1.790 -1.0009 -0.4436  0.3344
 8139SOL    HW236051   0.469   2.797   1.850 -1.7688 -0.4984 -0.4840
 8140SOL     OW36052   0.302   2.762   6.939 -0.0474  0.1942 -0.3218
 8140SOL    HW136053   0.307   2.772   6.844 -0.0500  0.8299 -0.2510
 8140SOL    HW236054   0.360   2.689   6.960 -1.4932 -0.9212 -0.1595
 8141SOL     OW36055   3.576   4.194   8.498 -0.0577  0.3150  0.2235
 8141SOL    HW136056   3.524   4.135   8.553  1.4972 -0.4953  0.8133
 8141SOL    HW236057   3.603   4.129   8.433 -2.2609  0.2801 -0.6767
 8142SOL     OW36058   2.435   2.958   8.916  0.3220 -0.0486  0.5067
 8142SOL    HW136059   2.406   2.870   8.891 -0.0275  0.2515 -0.1334
 8142SOL    HW236060   2.519   2.972   8.874  0.2729  0.7307  0.6672
 8143SOL     OW36061   2.027   0.280   4.056 -0.2733 -0.5697  0.0438
 8143SOL    HW136062   2.120   0.263   4.074 -0.2420 -0.5943 -0.1422
 8143SOL    HW236063   2.021   0.368   4.093  0.3053 -0.1932 -0.7517
 8144SOL     OW36064   0.853   0.670  10.000 -0.3551  0.0872 -0.0918
 8144SOL    HW136065   0.882   0.623  10.077 -2.0491  0.0680  0.5363
 8144SOL    HW236066   0.786   0.727  10.039  0.0500  1.6446 -1.6368
 8145SOL     OW36067   0.928   1.072   3.054 -0.3454 -0.1859 -0.3297
 8145SOL    HW136068   0.979   0.992   3.040 -1.6819 -1.3264  1.2755
 8145SOL    HW236069   0.847   1.055   3.005 -1.6206 -1.4253  2.2060
 8146SOL     OW36070   3.907   2.908   5.935  0.1316 -0.3332  0.2303
 8146SOL    HW136071   3.994   2.899   5.896 -0.3405 -2.0362 -0.3883
 8146SOL    HW236072   3.939   2.912   6.025 -0.0241  1.2203  0.2179
 8147SOL     OW36073   2.614   1.606  10.908 -0.2092 -0.6065  0.1431
 8147SOL    HW136074   2.608   1.539  10.976  1.4767 -0.3265  0.5721
 8147SOL    HW236075   2.597   1.682  10.963  0.4640 -0.6224  0.3705
 8148SOL     OW36076   2.952   0.997   6.643 -0.1843  0.5932 -0.1948
 8148SOL    HW136077   3.019   1.064   6.632  1.3079 -0.8665  0.0096
 8148SOL    HW236078   2.981   0.964   6.728  0.9687  0.1620 -0.7528
 8149SOL     OW36079   0.222   0.954   7.694  0.0537 -0.0517  0.2282
 8149SOL    HW136080   0.223   0.917   7.782 -0.4433 -0.2844  0.1396
 8149SOL    HW236081   0.129   0.962   7.673  0.4303 -2.0438 -2.2484
 8150SOL     OW36082   1.021   2.210  14.924 -0.0130 -0.5757  0.0895
 8150SOL    HW136083   1.073   2.220  15.003  0.1568  1.6855 -0.3073
 8150SOL    HW236084   1.015   2.301  14.895  1.4329 -0.1744  1.0930
 8151SOL     OW36085   1.374   4.022   5.264  0.5393 -0.6711 -0.4607
 8151SOL    HW136086   1.441   3.990   5.325 -0.8701 -1.2896  0.7798
 8151SOL    HW236087   1.431   4.048   5.192 -0.8876  0.5011 -1.1879
 8152SOL     OW36088   1.477   0.404   8.348  0.5530 -0.4530  0.5930
 8152SOL    HW136089   1.410   0.464   8.316  1.2931 -0.6248 -1.2308
 8152SOL    HW236090   1.428   0.343   8.404 -1.7754  1.7865  1.0084
 8153SOL     OW36091   2.591   1.474   5.947 -0.0092  0.5364  0.0385
 8153SOL    HW136092   2.666   1.533   5.946  0.0877  0.4440  1.9589
 8153SOL    HW236093   2.628   1.407   5.890  2.4491  1.0528  1.0353
 8154SOL     OW36094   2.138   3.276   6.776  0.0313 -0.1989  0.2817
 8154SOL    HW136095   2.056   3.314   6.743 -0.6158 -1.4836  0.4053
 8154SOL    HW236096   2.109   3.189   6.803 -1.2603  0.3107  0.5516
 8155SOL     OW36097   1.441   4.175   7.700 -0.0021 -0.5605  0.2870
 8155SOL    HW136098   1.523   4.135   7.732 -0.7150 -1.4889  0.9555
 8155SOL    HW236099   1.386   4.186   7.778  1.0149 -1.4711  1.1405
 8156SOL     OW36100   2.949   3.697  16.957  0.0597 -0.1396 -0.3037
 8156SOL    HW136101   3.003   3.729  17.030  0.4158 -1.2655 -0.0738
 8156SOL    HW236102   2.881   3.763  16.967  0.4211  0.2179 -0.1818
 8157SOL     OW36103   0.377   2.463   2.317 -0.4227 -0.5825  0.2824
 8157SOL    HW136104   0.430   2.430   2.244 -0.1369  0.7108 -0.0783
 8157SOL    HW236105   0.378   2.553   2.287  0.3081  0.1416  2.5117
 8158SOL     OW36106   0.269   4.311   8.668  0.3048 -0.5016 -0.5371
 8158SOL    HW136107   0.179   4.342   8.666  0.5956  0.4248  0.3271
 8158SOL    HW236108   0.269   4.248   8.740 -0.0094  0.2110  0.0829
 8159SOL     OW36109   2.849   4.235  12.075  0.6816 -0.5478  0.7225
 8159SOL    HW136110   2.886   4.308  12.124  0.1917 -0.2894  0.7028
 8159SOL    HW236111   2.757   4.244  12.100  0.8906  0.5497  1.0638
 8160SOL     OW36112   0.980   2.969   4.472  0.1619  0.0018  0.8302
 8160SOL    HW136113   1.041   3.040   4.492 -2.2978  2.2516  0.5288
 8160SOL    HW236114   1.002   2.906   4.540 -0.3745  0.8376  1.7892
 8161SOL     OW36115   2.737   0.776   4.733  0.5230 -0.5045  0.1782
 8161SOL    HW136116   2.702   0.792   4.645  0.6366 -1.9038 -0.1343
 8161SOL    HW236117   2.779   0.862   4.735  0.5906 -0.4894 -1.4635
 8162SOL     OW36118   0.432   3.737   2.797  0.4614 -0.2608 -0.7328
 8162SOL    HW136119   0.502   3.775   2.850  0.0384 -0.9529  0.3197
 8162SOL    HW236120   0.392   3.669   2.852 -0.3757 -1.5031 -2.8782
 8163SOL     OW36121   2.909   4.722   2.126  0.1653 -0.1171 -0.1347
 8163SOL    HW136122   2.956   4.639   2.128 -0.4575 -0.4621  0.2958
 8163SOL    HW236123   2.976   0.040   2.085 -0.0029  0.7347  0.6803
 8164SOL     OW36124   1.328   2.067   5.683 -0.0105  0.0768 -0.4024
 8164SOL    HW136125   1.395   2.005   5.708  0.3802  0.3706 -0.7301
 8164SOL    HW236126   1.253   2.066   5.743 -1.1999  0.6016 -1.8615
 8165SOL     OW36127   2.766   2.681  17.309  0.5429 -0.2366 -0.1847
 8165SOL    HW136128   2.795   2.653  17.222  1.4880 -0.4649  0.2100
 8165SOL    HW236129   2.799   2.771  17.314  1.2600 -0.5308  0.2220
 8166SOL     OW36130   3.579   2.969   2.552  0.1137  0.2353 -0.1439
 8166SOL    HW136131   3.510   2.922   2.504  0.9104 -1.6070  0.4903
 8166SOL    HW236132   3.537   3.028   2.614 -1.7518  0.7036 -1.8321
 8167SOL     OW36133   1.129   1.919   3.612  0.2107  0.4312  0.1884
 8167SOL    HW136134   1.126   1.827   3.639  2.8642  0.4727  0.6333
 8167SOL    HW236135   1.035   1.936   3.621 -0.0786 -2.3941  2.4626
 8168SOL     OW36136   3.028   1.548  10.011  0.1095  0.8058 -0.0258
 8168SOL    HW136137   3.073   1.469  10.041  0.0014  0.9723  0.5643
 8168SOL    HW236138   3.001   1.521   9.923  2.1341  0.5809 -0.5675
 8169SOL     OW36139   2.838   0.318   8.324 -0.3197  0.0108 -0.2384
 8169SOL    HW136140   2.800   0.347   8.407  1.9371 -0.1313  0.8523
 8169SOL    HW236141   2.882   0.235   8.343  0.9327  0.7061 -0.0782
 8170SOL     OW36142   4.076   0.850   4.227  0.1546  0.8748  0.1177
 8170SOL    HW136143   4.161   0.807   4.231  0.6240  1.9267  1.5665
 8170SOL    HW236144   4.043   0.825   4.313 -0.7591 -0.8989 -0.7415
 8171SOL     OW36145   4.549   3.497   7.160 -0.2287 -0.6232  0.5200
 8171SOL    HW136146   4.633   3.529   7.194 -1.3218  0.5841  2.0796
 8171SOL    HW236147   4.579   3.409   7.134 -2.7085 -1.4942  0.6584
 8172SOL     OW36148   2.345   2.106   0.648  0.0196  0.3534 -0.6459
 8172SOL    HW136149   2.261   2.109   0.601 -1.2573 -1.0531  1.5278
 8172SOL    HW236150   2.330   2.033   0.708 -0.2238 -0.8019 -2.1018
 8173SOL     OW36151   0.494   4.263  11.935  0.3998 -0.2080 -0.4765
 8173SOL    HW136152   0.466   4.318  12.008  2.2738 -0.9200  0.7622
 8173SOL    HW236153   0.533   4.324  11.873  0.9798  0.3094  0.3991
 8174SOL     OW36154   3.736   3.747   2.058  0.1583 -0.0073  0.4352
 8174SOL    HW136155   3.830   3.764   2.067 -0.3515  1.6219  2.4830
 8174SOL    HW236156   3.751   3.654   2.079  1.2268  0.1234  0.2472
 8175SOL     OW36157   2.001   3.923   8.038  0.0443  0.2108 -0.0514
 8175SOL    HW136158   2.069   3.908   7.973 -0.1985  0.7085 -0.4243
 8175SOL    HW236159   1.946   3.994   8.005 -1.7830  0.0344  2.6472
 8176SOL     OW36160   3.109   2.094   4.858  0.0300 -0.6537 -0.8121
 8176SOL    HW136161   3.174   2.026   4.841  1.3629  0.3737  0.1973
 8176SOL    HW236162   3.140   2.133   4.940 -3.5379  0.0534  0.2032
 8177SOL     OW36163   1.364   1.162  11.859  0.2793 -0.0402 -0.4667
 8177SOL    HW136164   1.292   1.165  11.796  2.3736 -0.1508 -2.8455
 8177SOL    HW236165   1.337   1.199  11.943 -0.9762  0.8491 -1.2578
 8178SOL     OW36166   2.734   3.464   5.236 -0.0886  0.0751  0.0488
 8178SOL    HW136167   2.779   3.501   5.312 -0.5370  1.4697 -0.3618
 8178SOL    HW236168   2.644   3.494   5.249  0.7448  1.7512  2.0518
 8179SOL     OW36169   4.326   2.590   7.152 -0.1138  0.7658  0.2414
 8179SOL    HW136170   4.304   2.682   7.170  1.7136  0.7610  2.5816
 8179SOL    HW236171   4.291   2.583   7.063  1.5944  1.7400 -0.5099
 8180SOL     OW36172   1.631   3.240   5.001 -0.1386 -0.2746 -0.2473
 8180SOL    HW136173   1.717   3.274   5.027  0.0373 -1.0666  0.1896
 8180SOL    HW236174   1.650   3.187   4.924 -0.7166 -0.5699 -0.1848
 8181SOL     OW36175   0.822   2.677   4.178 -0.2621 -0.3017  0.3325
 8181SOL    HW136176   0.745   2.639   4.220 -1.4345 -0.6165 -2.0753
 8181SOL    HW236177   0.789   2.760   4.143  2.2150  0.0229 -1.2712
 8182SOL     OW36178   0.639   3.757  15.319  0.4409  0.0057 -0.3915
 8182SOL    HW136179   0.707   3.690  15.327 -1.3610 -1.6668  1.0650
 8182SOL    HW236180   0.606   3.755  15.229 -2.6347  0.9660  0.7111
 8183SOL     OW36181   1.026   3.157  11.951  0.0682 -0.0009  0.3462
 8183SOL    HW136182   1.075   3.223  11.903  0.0063 -1.9864 -2.4653
 8183SOL    HW236183   1.034   3.192  12.040 -3.0197  2.0204 -0.1668
 8184SOL     OW36184   3.008   0.998   8.692  0.5190  0.3032  0.4590
 8184SOL    HW136185   3.009   0.955   8.778 -1.0648  0.4505  0.5617
 8184SOL    HW236186   3.030   0.925   8.635 -2.2287 -0.3245  0.1669
 8185SOL     OW36187   1.618   0.338   5.238 -0.3569  0.3837 -0.1090
 8185SOL    HW136188   1.626   0.258   5.185 -1.9496  0.9076 -1.1153
 8185SOL    HW236189   1.655   0.313   5.323 -1.8395  2.1316  1.0531
 8186SOL     OW36190   3.423   2.560   7.804  0.0274 -0.1759  0.5683
 8186SOL    HW136191   3.414   2.637   7.748  1.2028 -0.6643 -0.2891
 8186SOL    HW236192   3.424   2.492   7.737 -1.4111  1.5691 -1.2399
 8187SOL     OW36193   3.829   3.879   3.423  0.0804  0.5926  0.2667
 8187SOL    HW136194   3.923   3.897   3.414  0.3582 -0.6520  0.5923
 8187SOL    HW236195   3.783   3.958   3.395 -1.2032  0.4077  1.8596
 8188SOL     OW36196   4.732   0.923   3.090 -0.1536 -0.2136  0.6748
 8188SOL    HW136197   4.735   0.927   2.994 -0.6575 -3.3892  0.5128
 8188SOL    HW236198   0.018   0.832   3.110 -2.8083 -1.0120 -0.1824
 8189SOL     OW36199   1.401   1.698   3.531 -0.2147 -0.4328  0.0046
 8189SOL    HW136200   1.487   1.738   3.523 -0.3441  0.0363  0.9517
 8189SOL    HW236201   1.366   1.708   3.443  0.2725 -1.3027 -0.2837
 8190SOL     OW36202   0.188   3.009   6.657  0.3143  0.1701 -0.2250
 8190SOL    HW136203   0.262   3.025   6.716 -1.0480 -1.5545  1.9404
 8190SOL    HW236204   0.173   2.916   6.670  0.3586 -0.1389 -2.4213
 8191SOL     OW36205   1.846   2.965   5.981  0.3540  0.1451 -0.4797
 8191SOL    HW136206   1.861   2.942   5.889 -0.6947 -0.7413 -0.4274
 8191SOL    HW236207   1.935   2.944   6.009  0.1921  1.3294  0.9002
 8192SOL     OW36208   4.103   2.347   5.798 -0.1283 -0.1412  0.3153
 8192SOL    HW136209   4.173   2.405   5.827 -2.5879  2.1683  1.6289
 8192SOL    HW236210   4.025   2.387   5.837 -1.4121  0.5841 -3.0224
 8193SOL     OW36211   0.423   3.636   4.930 -0.1893 -0.2435 -0.1856
 8193SOL    HW136212   0.472   3.555   4.923  3.8977  1.9122  3.6704
 8193SOL    HW236213   0.386   3.649   4.842 -1.2395  0.8959  0.4189
 8194SOL     OW36214   3.958   2.825  17.355 -0.3295  0.0022 -0.1722
 8194SOL    HW136215   3.998   2.825  17.269 -1.1819 -0.4066 -0.5729
 8194SOL    HW236216   3.912   2.907  17.370 -0.6470  0.0635 -1.5070
 8195SOL     OW36217   2.169   4.674  15.747  1.0094  0.1202  0.1972
 8195SOL    HW136218   2.185   4.725  15.827  0.5589  1.3634 -0.4924
 8195SOL    HW236219   2.216   4.734  15.688  0.8156  1.3106  1.2443
 8196SOL     OW36220   2.152   0.485   4.436 -0.2648 -0.0043  0.0943
 8196SOL    HW136221   2.100   0.549   4.387 -0.8231 -1.5644 -1.3610
 8196SOL    HW236222   2.085   0.418   4.450 -0.4980  0.5451  1.5885
 8197SOL     OW36223   0.240   4.184  17.404  0.3738 -0.2300  0.1663
 8197SOL    HW136224   0.254   4.093  17.430  1.0816  0.3601  1.8532
 8197SOL    HW236225   0.148   4.186  17.379  1.1060  0.5805 -2.4391
 8198SOL     OW36226   3.741   0.325   9.789  0.2480 -0.2049 -0.4564
 8198SOL    HW136227   3.778   0.395   9.736 -1.4568  1.2326  0.2318
 8198SOL    HW236228   3.761   0.358   9.876 -2.6717  1.0921 -0.2697
 8199SOL     OW36229   2.733   0.689  12.862  0.1029  0.1348 -0.2956
 8199SOL    HW136230   2.675   0.760  12.890 -1.2215 -1.4630  1.0087
 8199SOL    HW236231   2.676   0.613  12.871 -0.1448  0.4891  1.0241
 8200SOL     OW36232   0.054   1.678   5.034  0.3500 -0.5465 -0.0287
 8200SOL    HW136233   0.124   1.724   4.986 -0.3548 -2.6502 -3.1184
 8200SOL    HW236234   0.104   1.648   5.110  0.8942  1.1238  0.2793
 8201SOL     OW36235   0.110   4.633   3.069  0.4645 -0.0062  0.7648
 8201SOL    HW136236   0.075   4.558   3.117  0.8627 -1.3815 -1.0858
 8201SOL    HW236237   0.037   4.694   3.061  0.2182 -0.0762  2.4782
 8202SOL     OW36238   0.001   3.914   2.565 -0.1166  0.0876  0.4066
 8202SOL    HW136239   0.085   3.901   2.609 -1.2813  0.1612  2.6160
 8202SOL    HW236240   4.708   4.000   2.594  1.2459  2.1259 -4.2419
 8203SOL     OW36241   0.898   4.561   8.619 -0.1791  0.5567 -0.2115
 8203SOL    HW136242   0.810   4.598   8.629  0.2257  1.4836 -0.1035
 8203SOL    HW236243   0.938   4.606   8.693  0.6891  0.2329 -0.4944
 8204SOL     OW36244   3.011   2.065   3.347 -0.0027  0.6078  0.7250
 8204SOL    HW136245   2.992   2.123   3.421 -2.8211 -1.4041  1.5339
 8204SOL    HW236246   3.098   2.098   3.321  0.6138 -0.4529  1.4568
 8205SOL     OW36247   1.110   0.338  11.038 -0.7385  0.0291 -0.0525
 8205SOL    HW136248   1.020   0.344  11.068 -0.0556 -1.0841  2.2192
 8205SOL    HW236249   1.134   0.422  11.000 -1.5300 -0.2226 -1.1076
 8206SOL     OW36250   1.585   0.396  15.325 -0.0473  0.4434  0.9371
 8206SOL    HW136251   1.539   0.363  15.403 -2.3888  0.6436 -0.3351
 8206SOL    HW236252   1.566   0.324  15.265  0.3430  2.5543 -1.7006
 8207SOL     OW36253   2.863   2.852   2.204  0.0446 -0.2665 -0.1537
 8207SOL    HW136254   2.897   2.825   2.290  0.9709  2.4985  0.3363
 8207SOL    HW236255   2.771   2.827   2.211 -0.0658  0.2003  0.0681
 8208SOL     OW36256   1.342   2.510   4.753  0.4661  0.1278 -0.0308
 8208SOL    HW136257   1.431   2.494   4.722  0.7316  0.3262  0.6113
 8208SOL    HW236258   1.284   2.469   4.689 -0.0913  0.0751  0.5084
 8209SOL     OW36259   4.097   0.701   7.993  0.2131  0.1634 -0.0244
 8209SOL    HW136260   4.012   0.666   8.020  0.2683 -0.6913 -0.9479
 8209SOL    HW236261   4.092   0.779   8.049 -0.3379  0.9512 -1.1446
 8210SOL     OW36262   2.788   1.655   5.906 -0.5404 -0.0593  0.6567
 8210SOL    HW136263   2.855   1.619   5.964 -1.5061 -0.5568  1.4704
 8210SOL    HW236264   2.835   1.642   5.824 -1.2177  1.5929  0.0162
 8211SOL     OW36265   2.381   2.554  13.279 -0.3637 -0.4887  0.3974
 8211SOL    HW136266   2.426   2.552  13.194 -0.8360 -1.2973  0.1642
 8211SOL    HW236267   2.289   2.563  13.257  0.2549 -0.7363 -2.3285
 8212SOL     OW36268   4.655   2.732  10.856  0.4451 -0.9215  0.2709
 8212SOL    HW136269   4.640   2.814  10.904  0.3779 -0.3644 -0.7089
 8212SOL    HW236270   0.016   2.729  10.859  0.4698  0.4368  0.8713
 8213SOL     OW36271   3.279   2.265   9.685 -0.0956  0.2027  0.1095
 8213SOL    HW136272   3.262   2.357   9.706 -2.7395 -0.5665  1.2692
 8213SOL    HW236273   3.295   2.232   9.773 -0.4918  0.3673  0.2388
 8214SOL     OW36274   1.016   0.078   3.539  1.0724 -0.6620  0.3270
 8214SOL    HW136275   0.998   0.014   3.608 -0.4819  0.1857  0.6768
 8214SOL    HW236276   1.027   0.016   3.467 -1.3279 -0.9101  0.1767
 8215SOL     OW36277   0.888   2.256  10.644  0.0170  0.2728  0.0901
 8215SOL    HW136278   0.797   2.235  10.662  0.1210  1.8090  2.3605
 8215SOL    HW236279   0.892   2.222  10.554 -0.8567  0.9437 -0.1991
 8216SOL     OW36280   0.783   4.320   8.995  0.1018 -0.0338 -0.2779
 8216SOL    HW136281   0.833   4.395   9.025  0.9448 -0.8021  0.2230
 8216SOL    HW236282   0.806   4.248   9.053  2.8322 -0.9219 -2.4659
 8217SOL     OW36283   4.540   0.729   3.747 -0.1460 -0.4552  0.2165
 8217SOL    HW136284   4.540   0.635   3.730  1.2237  0.2745 -3.7475
 8217SOL    HW236285   4.634   0.738   3.737 -0.2741 -0.6331 -1.0990
 8218SOL     OW36286   4.048   4.732   6.624 -0.4915  0.1072 -0.4287
 8218SOL    HW136287   4.033   4.712   6.716 -0.3591 -2.3910 -0.9679
 8218SOL    HW236288   4.016   4.648   6.593 -2.6112  0.8771 -0.3220
 8219SOL     OW36289   4.457   1.574   8.302 -0.0846  0.0705 -0.0084
 8219SOL    HW136290   4.485   1.663   8.281  0.7770 -0.4378 -0.9951
 8219SOL    HW236291   4.508   1.550   8.379  1.8798  1.8381 -0.7715
 8220SOL     OW36292   4.498   4.730  16.620 -0.3811  0.6004 -0.3152
 8220SOL    HW136293   4.587   4.709  16.593  0.3624  0.5360  2.2341
 8220SOL    HW236294   4.490   0.074  16.567  0.2949  0.8943  0.0313
 8221SOL     OW36295   3.097   0.434  12.442  0.3026  0.0023 -0.0646
 8221SOL    HW136296   3.144   0.397  12.517 -0.5773  0.5644  0.7617
 8221SOL    HW236297   3.050   0.504  12.487  1.7492  1.6195 -1.0626
 8222SOL     OW36298   3.536   1.569  15.937 -0.1609 -0.2883 -0.2241
 8222SOL    HW136299   3.473   1.501  15.959 -0.3263  0.1230  0.5889
 8222SOL    HW236300   3.489   1.651  15.952  2.8346  0.8788  2.7606
 8223SOL     OW36301   0.619   2.035   2.856 -0.3186 -0.3581 -0.7110
 8223SOL    HW136302   0.571   1.984   2.920  0.0434  0.5272  0.2636
 8223SOL    HW236303   0.710   2.019   2.881 -0.7098  0.7993  1.4182
 8224SOL     OW36304   1.311   1.858   7.811  0.5966  0.2766  0.0704
 8224SOL    HW136305   1.257   1.800   7.864 -2.2673  1.8779 -1.0982
 8224SOL    HW236306   1.250   1.927   7.785 -0.9065 -2.4925 -3.5954
 8225SOL     OW36307   3.812   1.187  11.803 -0.1569  0.2103 -0.2676
 8225SOL    HW136308   3.851   1.275  11.810 -0.9961  0.4230  1.6961
 8225SOL    HW236309   3.777   1.194  11.714 -1.6438 -1.2418  0.2337
 8226SOL     OW36310   4.569   4.700   1.381 -0.1512  0.0096 -0.1105
 8226SOL    HW136311   4.627   0.006   1.317 -1.6253  0.8587 -0.8820
 8226SOL    HW236312   4.516   4.653   1.316 -0.4894  1.1703 -0.6763
 8227SOL     OW36313   1.318   4.671   7.971  0.1820  0.4482  0.2141
 8227SOL    HW136314   1.248   4.661   7.906 -0.2711 -2.3550  1.1537
 8227SOL    HW236315   1.387   4.608   7.951  1.0754  1.5197 -0.0834
 8228SOL     OW36316   1.654   2.290   5.259 -0.2569  0.4342  0.5103
 8228SOL    HW136317   1.560   2.294   5.276 -0.3608  3.8631 -1.0327
 8228SOL    HW236318   1.662   2.279   5.165 -0.0991 -0.6463  0.6444
 8229SOL     OW36319   0.068   1.756  15.657 -0.3678 -0.4591 -0.4763
 8229SOL    HW136320   0.013   1.702  15.600  0.4895 -0.7883 -0.9974
 8229SOL    HW236321   0.123   1.692  15.702  0.8020  0.4695 -0.5725
 8230SOL     OW36322   3.953   2.976   2.469 -0.6121  0.1476  0.0982
 8230SOL    HW136323   3.997   3.013   2.546  3.5884  0.2307 -2.3448
 8230SOL    HW236324   4.018   2.923   2.423  0.0836  1.0725 -0.0059
 8231SOL     OW36325   3.101   1.355  11.980  0.0626  0.2510 -0.3799
 8231SOL    HW136326   3.181   1.407  11.971  0.1646  0.7517  3.4617
 8231SOL    HW236327   3.088   1.363  12.074  1.0190 -0.1162 -0.2172
 8232SOL     OW36328   0.716   2.557   8.232  0.4891  0.2757  0.3055
 8232SOL    HW136329   0.680   2.612   8.162 -0.0674 -0.7401 -0.2141
 8232SOL    HW236330   0.669   2.474   8.220  1.0083  0.1450 -0.8390
 8233SOL     OW36331   0.918   0.852   2.065  0.1733 -0.1610  0.3928
 8233SOL    HW136332   0.842   0.888   2.111 -0.0285 -1.4908  1.0977
 8233SOL    HW236333   0.947   0.934   2.025  0.1792 -0.3676 -0.0281
 8234SOL     OW36334   1.828   3.123   8.145 -0.3684 -0.0642 -0.1426
 8234SOL    HW136335   1.750   3.157   8.101 -0.5009  0.8609  0.7912
 8234SOL    HW236336   1.862   3.202   8.188 -1.7129 -0.9960  2.6182
 8235SOL     OW36337   1.659   0.919   8.829  0.7174  0.2075  0.2324
 8235SOL    HW136338   1.580   0.871   8.804 -0.0758  2.2588 -1.2246
 8235SOL    HW236339   1.618   0.985   8.885  1.6138  1.6833 -0.8847
 8236SOL     OW36340   0.487   2.832   7.742 -0.2844 -0.1218 -0.2096
 8236SOL    HW136341   0.442   2.811   7.660 -0.4060  3.5233 -1.0701
 8236SOL    HW236342   0.535   2.749   7.741  0.7401  0.4628  0.4140
 8237SOL     OW36343   4.425   0.619   7.263  0.0420  0.2984  0.4259
 8237SOL    HW136344   4.358   0.620   7.195 -0.6283 -1.7599  1.0708
 8237SOL    HW236345   4.377   0.583   7.338 -0.2995  0.2689  0.1902
 8238SOL     OW36346   1.798   3.290   5.699  0.1365 -0.5585  0.0897
 8238SOL    HW136347   1.882   3.294   5.654  1.9314 -0.2672  3.4921
 8238SOL    HW236348   1.818   3.318   5.788  1.5873 -0.6669 -0.2041
 8239SOL     OW36349   0.764   2.218   3.393 -0.9126 -0.3675  0.3085
 8239SOL    HW136350   0.742   2.245   3.303  2.5376  0.9420 -0.1332
 8239SOL    HW236351   0.774   2.124   3.377 -0.7240 -0.1540 -0.8474
 8240SOL     OW36352   0.165   1.380   2.915  0.2290 -0.0878 -0.5297
 8240SOL    HW136353   0.202   1.457   2.959  0.7569 -0.7784  0.2446
 8240SOL    HW236354   0.110   1.339   2.982 -0.8665  1.2052 -0.6484
 8241SOL     OW36355   4.243   0.077   4.608  0.1692 -0.1665 -0.3129
 8241SOL    HW136356   4.228   4.719   4.595  0.1198 -0.2086  0.0507
 8241SOL    HW236357   4.245   0.095   4.702 -2.2423  2.0003 -0.6428
 8242SOL     OW36358   0.455   3.182   8.031 -0.3444  0.1000 -0.4097
 8242SOL    HW136359   0.434   3.089   8.040  2.4986 -0.3808  1.1431
 8242SOL    HW236360   0.382   3.218   8.080  0.6462 -0.2449  1.3185
 8243SOL     OW36361   4.194   2.105   5.689 -0.1010 -0.2510  0.1922
 8243SOL    HW136362   4.183   2.195   5.658  1.2755 -0.0811  0.2374
 8243SOL    HW236363   4.197   2.117   5.784  1.7555 -1.5086  0.2798
 8244SOL     OW36364   1.308   3.742  16.778 -0.2657  0.2060 -0.4113
 8244SOL    HW136365   1.220   3.769  16.750  0.7143  5.3500  1.5021
 8244SOL    HW236366   1.304   3.646  16.783 -0.7991  0.1707 -1.5146
 8245SOL     OW36367   0.978   4.448   6.192 -0.3042 -0.1057 -0.1152
 8245SOL    HW136368   1.045   4.403   6.138  2.2791  0.3456  2.7295
 8245SOL    HW236369   0.947   4.519   6.136 -1.6688 -2.3132 -2.1692
 8246SOL     OW36370   3.868   2.569   9.019 -0.4890 -0.0222  0.3899
 8246SOL    HW136371   3.791   2.565   8.961  0.6914 -1.1159 -1.0988
 8246SOL    HW236372   3.910   2.644   8.977 -0.5543 -0.0432  0.2865
 8247SOL     OW36373   0.989   1.273  13.652 -0.1644  0.1130 -0.9860
 8247SOL    HW136374   1.065   1.297  13.599 -0.4297 -0.4098 -1.5892
 8247SOL    HW236375   0.967   1.363  13.678 -1.0976 -0.2897 -0.3937
 8248SOL     OW36376   0.097   1.063   1.924 -0.6108  0.3377  0.6888
 8248SOL    HW136377   0.135   1.132   1.978 -0.3015  0.6349  0.0865
 8248SOL    HW236378   0.176   1.010   1.925 -0.5834  0.3676  0.0895
 8249SOL     OW36379   1.053   0.397   3.898 -0.0172 -1.0568 -0.4741
 8249SOL    HW136380   0.970   0.351   3.887  0.0731 -0.7010 -2.6500
 8249SOL    HW236381   1.069   0.441   3.815 -0.5179  1.6572  0.8680
 8250SOL     OW36382   1.551   1.199   2.336 -0.1344 -0.4365 -0.0919
 8250SOL    HW136383   1.646   1.197   2.324 -0.2465 -0.7744 -0.8900
 8250SOL    HW236384   1.559   1.139   2.411 -0.5279 -0.8022 -0.3396
 8251SOL     OW36385   1.471   0.033  10.213  0.1512 -0.1115 -0.0799
 8251SOL    HW136386   1.498   0.007  10.124  3.0937 -0.9676  1.0575
 8251SOL    HW236387   1.437   4.686  10.247  1.3249 -0.0256  1.2847
 8252SOL     OW36388   3.159   4.674  14.178  0.3131  0.5204 -0.2986
 8252SOL    HW136389   3.184   0.018  14.225  0.1947 -0.6374  1.6928
 8252SOL    HW236390   3.238   4.657  14.127  1.2815  1.0696  1.0299
 8253SOL     OW36391   0.714   1.058   8.149 -0.6283 -0.4510 -0.3993
 8253SOL    HW136392   0.799   1.016   8.143 -0.6114 -0.6276  1.0915
 8253SOL    HW236393   0.723   1.140   8.101  0.4002 -0.7281 -0.6796
 8254SOL     OW36394   1.578   2.299   2.948  0.5522 -0.3831  0.0746
 8254SOL    HW136395   1.502   2.347   2.916  1.1203 -0.6665 -1.7058
 8254SOL    HW236396   1.648   2.334   2.894  2.8189 -0.5117  2.8985
 8255SOL     OW36397   1.245   0.933  11.178  0.2170 -0.8876  0.4861
 8255SOL    HW136398   1.329   0.919  11.133  1.8400  1.4771  2.7835
 8255SOL    HW236399   1.237   1.027  11.192  0.6630 -0.8842  0.7190
 8256SOL     OW36400   2.555   4.208  14.710  0.1264 -0.0749  0.1290
 8256SOL    HW136401   2.630   4.227  14.653 -0.0427  1.1102  0.2995
 8256SOL    HW236402   2.597   4.237  14.791 -1.1756 -0.8698  1.0773
 8257SOL     OW36403   0.680   0.346   2.100  0.8484  0.0822 -0.0818
 8257SOL    HW136404   0.704   0.259   2.069  2.8091  0.0546  1.5044
 8257SOL    HW236405   0.636   0.386   2.025  1.6029 -0.4390 -0.7904
 8258SOL     OW36406   2.252   2.635   3.114  0.1239  0.2053 -0.4392
 8258SOL    HW136407   2.311   2.609   3.043 -0.0191 -0.9987 -0.1176
 8258SOL    HW236408   2.256   2.564   3.178 -0.6553 -1.0275 -1.7819
 8259SOL     OW36409   2.526   2.132   9.665  0.3328  0.1236  0.5734
 8259SOL    HW136410   2.499   2.214   9.706  0.1356 -1.8961  4.5281
 8259SOL    HW236411   2.458   2.099   9.606  1.5121 -1.2186 -0.0156
 8260SOL     OW36412   3.989   4.672   8.864  0.4442  0.5759 -0.4502
 8260SOL    HW136413   4.082   4.653   8.848  0.5366 -0.0532  0.7777
 8260SOL    HW236414   3.938   4.605   8.820 -0.0627 -0.3344  1.4954
 8261SOL     OW36415   4.642   1.383   5.996 -0.7473  0.6607 -0.8419
 8261SOL    HW136416   4.620   1.292   5.980  3.3087 -0.3376 -0.6772
 8261SOL    HW236417   4.648   1.385   6.092  0.9498 -0.4151 -0.9341
 8262SOL     OW36418   1.551   2.841   4.690 -0.5287  0.3455  0.4289
 8262SOL    HW136419   1.469   2.799   4.668 -0.2128 -0.3479  0.5793
 8262SOL    HW236420   1.617   2.772   4.681 -1.8158 -1.1178  2.2611
 8263SOL     OW36421   0.394   1.512   0.314  0.4115 -0.3512 -0.3236
 8263SOL    HW136422   0.401   1.425   0.276 -0.3247 -0.4388 -0.2633
 8263SOL    HW236423   0.409   1.497   0.408 -0.1064  1.1363  0.0074
 8264SOL     OW36424   0.833   4.692  16.875  0.4818 -0.3109  0.1200
 8264SOL    HW136425   0.797   4.608  16.905  1.8755 -0.3693  1.6377
 8264SOL    HW236426   0.780   4.707  16.797  0.1561 -3.9072 -0.3713
 8265SOL     OW36427   3.948   2.588  12.626  0.3247  0.2493  0.5409
 8265SOL    HW136428   4.014   2.527  12.658 -0.1644 -0.6557 -0.2045
 8265SOL    HW236429   3.872   2.532  12.634 -0.3455  1.0541 -0.1864
 8266SOL     OW36430   1.858   1.642   6.284 -0.0603  0.1916  0.0945
 8266SOL    HW136431   1.872   1.622   6.376  1.2922  1.3898  0.1588
 8266SOL    HW236432   1.792   1.577   6.257 -0.4021  0.2326  0.8523
 8267SOL     OW36433   1.017   2.913   5.919 -0.0429 -0.2965  0.3839
 8267SOL    HW136434   0.939   2.872   5.956  1.7206 -1.8709  2.3457
 8267SOL    HW236435   1.083   2.874   5.975  1.0859 -0.6103 -1.1533
 8268SOL     OW36436   3.144   0.222  13.766  0.0495  0.2981 -0.1068
 8268SOL    HW136437   3.058   0.255  13.793  0.2063 -0.5253  1.3709
 8268SOL    HW236438   3.150   0.238  13.672 -1.6563 -0.8841 -0.4176
 8269SOL     OW36439   2.626   0.537   9.003  0.3079 -0.3622 -0.6022
 8269SOL    HW136440   2.567   0.477   8.958 -0.5370 -0.7778  1.0525
 8269SOL    HW236441   2.680   0.567   8.930 -0.4640  1.9621 -0.2400
 8270SOL     OW36442   1.070   1.385  15.984 -0.5147 -0.5520  0.9219
 8270SOL    HW136443   1.117   1.302  15.970 -2.5027 -1.3120 -1.2285
 8270SOL    HW236444   1.098   1.442  15.913 -1.1120 -1.3887  0.0010
 8271SOL     OW36445   1.693   4.338   7.713 -0.2596 -0.2107  0.3759
 8271SOL    HW136446   1.780   4.309   7.742 -0.2513 -1.5295 -0.9547
 8271SOL    HW236447   1.700   4.322   7.619  0.4658  0.1875  0.3634
 8272SOL     OW36448   3.545   0.243   1.464  0.2906  0.4583 -0.2188
 8272SOL    HW136449   3.541   0.175   1.396 -0.8527  1.1739 -0.8756
 8272SOL    HW236450   3.494   0.198   1.531 -0.8016  0.3911 -1.0780
 8273SOL     OW36451   3.773   2.901  14.363 -0.5640  0.2278 -0.1784
 8273SOL    HW136452   3.714   2.842  14.410 -0.5208 -1.9844 -2.9208
 8273SOL    HW236453   3.779   2.974  14.425 -0.9455 -0.7317  0.9690
 8274SOL     OW36454   1.335   0.716  17.239 -0.2509  0.1978 -0.1634
 8274SOL    HW136455   1.410   0.769  17.212  0.4808 -0.6470  0.2111
 8274SOL    HW236456   1.263   0.772  17.210 -0.0314  1.0590  0.9281
 8275SOL     OW36457   0.643   1.529   4.275 -0.3270 -0.4864  0.2548
 8275SOL    HW136458   0.619   1.505   4.186  0.2433 -0.5606  0.1244
 8275SOL    HW236459   0.601   1.615   4.278 -0.3642 -0.4499 -1.7644
 8276SOL     OW36460   2.559   3.406   2.641  0.2359 -0.0999 -0.3688
 8276SOL    HW136461   2.529   3.358   2.564  1.7984 -0.1118 -0.9688
 8276SOL    HW236462   2.591   3.489   2.607  1.6758 -0.9035 -0.9824
 8277SOL     OW36463   1.434   1.829  12.321  0.2911  0.1009  0.3184
 8277SOL    HW136464   1.441   1.924  12.310 -0.7406  0.1889  0.4656
 8277SOL    HW236465   1.339   1.824  12.325  0.3102 -0.7817 -0.3177
 8278SOL     OW36466   3.802   1.311   4.872  0.3190  0.5042 -0.1700
 8278SOL    HW136467   3.706   1.312   4.879  0.4480  1.2109  1.3359
 8278SOL    HW236468   3.811   1.233   4.816  0.7326  0.4821 -0.0727
 8279SOL     OW36469   4.458   2.319  10.267 -0.4265  0.2724  0.5955
 8279SOL    HW136470   4.538   2.271  10.286 -0.0613  1.5637  2.2570
 8279SOL    HW236471   4.470   2.332  10.173  2.3970 -0.9737  0.7985
 8280SOL     OW36472   4.263   4.068   2.073 -0.2759 -0.1251 -0.3580
 8280SOL    HW136473   4.201   4.128   2.115 -1.5486 -0.9209 -1.0865
 8280SOL    HW236474   4.319   4.130   2.029  3.4154 -2.8474  0.5165
 8281SOL     OW36475   2.701   4.183   2.027 -0.0685 -0.5157  0.0885
 8281SOL    HW136476   2.639   4.179   1.954 -1.2981 -0.8836  1.1670
 8281SOL    HW236477   2.777   4.134   1.995 -1.9796 -2.3178 -1.6790
 8282SOL     OW36478   0.150   4.233   4.887 -0.0348 -0.0315 -0.3104
 8282SOL    HW136479   0.088   4.208   4.956  2.7341 -1.0157  1.8490
 8282SOL    HW236480   0.118   4.176   4.817 -2.1817  1.8837 -0.8556
 8283SOL     OW36481   1.069   0.365   6.982 -0.1926 -0.4922 -0.1001
 8283SOL    HW136482   0.990   0.397   6.940  0.0890 -0.1496 -0.3641
 8283SOL    HW236483   1.105   0.441   7.028  0.5021 -0.2292 -1.0914
 8284SOL     OW36484   1.697   0.503   0.825 -0.7608 -0.5038  0.2239
 8284SOL    HW136485   1.745   0.561   0.884 -1.5450  0.7288 -0.3543
 8284SOL    HW236486   1.612   0.545   0.827 -1.6812 -2.3494 -0.0950
 8285SOL     OW36487   2.341   3.301   3.223  0.1614 -0.3489 -0.4440
 8285SOL    HW136488   2.282   3.328   3.293  1.7881  3.2246 -0.4870
 8285SOL    HW236489   2.279   3.270   3.156 -2.2556  1.5630  0.9338
 8286SOL     OW36490   4.094   2.125   4.757  0.0749 -0.0130 -0.4350
 8286SOL    HW136491   4.178   2.084   4.737  0.7771  1.2932 -0.1146
 8286SOL    HW236492   4.118   2.167   4.839  1.9268 -0.8825 -0.5477
 8287SOL     OW36493   1.118   1.591  12.355  0.0873  0.0671  0.0036
 8287SOL    HW136494   1.135   1.679  12.320 -0.8287 -0.0259 -0.6617
 8287SOL    HW236495   1.035   1.572  12.311  1.8431 -2.3619 -2.2251
 8288SOL     OW36496   4.663   4.671   6.643  0.3734 -0.2547 -0.7861
 8288SOL    HW136497   4.667   4.706   6.554  1.3671  1.0050 -0.2473
 8288SOL    HW236498   0.005   4.615   6.635 -0.3837 -1.1963 -1.4786
 8289SOL     OW36499   2.637   0.266   7.285 -0.0425  0.2916  0.0723
 8289SOL    HW136500   2.723   0.275   7.328  1.3959  0.9431 -2.9260
 8289SOL    HW236501   2.654   0.190   7.229 -0.0887 -0.0373  0.5068
 8290SOL     OW36502   1.590   0.256  12.913 -0.7393  0.2400  0.9014
 8290SOL    HW136503   1.494   0.259  12.916 -0.8280 -0.9395 -0.8309
 8290SOL    HW236504   1.612   0.249  12.820  2.1626 -2.5606  1.8032
 8291SOL     OW36505   1.086   3.611   3.862 -0.2381  0.4308  0.7783
 8291SOL    HW136506   0.999   3.619   3.823  0.9370  0.3404 -1.8821
 8291SOL    HW236507   1.085   3.527   3.907  0.0691  0.1978  0.3459
 8292SOL     OW36508   1.149   3.169   4.578 -0.1177  0.1690  0.0965
 8292SOL    HW136509   1.192   3.218   4.508 -1.8945  0.9286 -0.4612
 8292SOL    HW236510   1.203   3.155   4.656 -1.8295  1.5435  1.5284
 8293SOL     OW36511   2.644   1.606  12.278  0.3145  0.1581  0.0045
 8293SOL    HW136512   2.566   1.577  12.326 -0.9808  1.8494 -1.0747
 8293SOL    HW236513   2.655   1.691  12.320  1.0224  0.0918 -0.0473
 8294SOL     OW36514   3.635   2.005   7.820  0.2710  0.1851  0.0411
 8294SOL    HW136515   3.670   2.093   7.835  0.6343 -0.4038  2.7172
 8294SOL    HW236516   3.592   1.981   7.902  1.9173  2.2392  1.4959
 8295SOL     OW36517   0.623   1.236   3.954  0.7884  0.6205  0.3806
 8295SOL    HW136518   0.689   1.265   3.891  1.5388 -0.2916  0.7364
 8295SOL    HW236519   0.662   1.151   3.976  1.5510  1.0866  0.8540
 8296SOL     OW36520   2.671   4.148   8.178 -0.2142  0.4252 -0.1934
 8296SOL    HW136521   2.692   4.058   8.204  0.1844 -0.3880 -3.4021
 8296SOL    HW236522   2.626   4.132   8.096  2.7429  2.6548 -2.2683
 8297SOL     OW36523   0.614   0.265  15.501  0.8988 -0.4809 -0.0570
 8297SOL    HW136524   0.707   0.275  15.480  0.7039  1.7450  0.1014
 8297SOL    HW236525   0.565   0.232  15.426 -0.5813 -0.8908  1.0776
 8298SOL     OW36526   4.334   1.973  13.386 -0.0211  0.5502  0.1594
 8298SOL    HW136527   4.418   1.973  13.433  0.2451  1.7114 -0.3274
 8298SOL    HW236528   4.316   1.881  13.366 -0.0034  0.8698 -1.3090
 8299SOL     OW36529   3.263   2.245  11.680  0.2399  0.5591 -0.0434
 8299SOL    HW136530   3.355   2.270  11.673 -0.1559  2.7441  2.5960
 8299SOL    HW236531   3.264   2.179  11.611  0.2507  0.0641  0.4338
 8300SOL     OW36532   1.719   4.707  10.846 -0.0251  0.2230  0.6796
 8300SOL    HW136533   1.796   4.678  10.895  0.9251 -0.9634 -1.5278
 8300SOL    HW236534   1.745   4.722  10.756 -1.7133 -0.8301  0.0242
 8301SOL     OW36535   3.929   3.194   1.531 -0.0255  0.0691  0.3195
 8301SOL    HW136536   3.871   3.154   1.596 -0.4392  1.1487  0.6153
 8301SOL    HW236537   3.950   3.272   1.582 -0.8860 -1.2936  2.7926
 8302SOL     OW36538   1.649   2.531   6.451  0.2989  0.0327  0.0304
 8302SOL    HW136539   1.587   2.566   6.515 -2.0812 -0.0372 -2.2103
 8302SOL    HW236540   1.727   2.571   6.490  0.1849 -0.4996  0.7930
 8303SOL     OW36541   0.298   4.209   3.176  0.2296  0.1324 -0.0793
 8303SOL    HW136542   0.391   4.219   3.156  0.1874  0.4604 -0.1215
 8303SOL    HW236543   0.289   4.118   3.149 -1.6705  0.9292 -2.1723
 8304SOL     OW36544   0.542   1.225  15.043 -0.2136 -0.2907  0.1941
 8304SOL    HW136545   0.451   1.252  15.035  0.2037  1.1570  0.2552
 8304SOL    HW236546   0.580   1.303  15.002  2.8355 -1.0992  1.4576
 8305SOL     OW36547   2.482   4.473   5.446  0.2225 -0.0816  0.2414
 8305SOL    HW136548   2.394   4.511   5.445  0.0321 -0.5058  0.9616
 8305SOL    HW236549   2.461   4.379   5.443  0.0532 -0.0439  0.2294
 8306SOL     OW36550   2.103   2.947   6.037  0.2845  0.6066  1.1972
 8306SOL    HW136551   2.161   2.963   5.962  1.6778  1.4068  2.4471
 8306SOL    HW236552   2.158   2.992   6.101  0.4365  0.0860  1.4270
 8307SOL     OW36553   4.027   2.866  12.027 -0.2582 -0.7096  0.3118
 8307SOL    HW136554   3.972   2.834  12.099  1.8600 -2.9690  0.9135
 8307SOL    HW236555   4.032   2.790  11.968  2.6388 -0.5116  0.3331
 8308SOL     OW36556   1.941   0.441   3.237  0.7042  0.2824 -0.4818
 8308SOL    HW136557   1.991   0.453   3.317 -1.5741  1.6462  0.7532
 8308SOL    HW236558   1.988   0.382   3.178 -0.7439 -2.3494  0.9821
 8309SOL     OW36559   1.038   0.945   4.678 -0.6196 -0.0390  0.5496
 8309SOL    HW136560   0.951   0.957   4.639  0.0463  1.0038 -0.6121
 8309SOL    HW236561   1.073   1.033   4.693 -0.9019 -0.4512  3.5882
 8310SOL     OW36562   0.348   1.437   6.666  0.4283  0.2889 -0.2068
 8310SOL    HW136563   0.344   1.367   6.731  0.7249  1.6362  1.2662
 8310SOL    HW236564   0.401   1.387   6.604  0.0683  0.6671 -0.8131
 8311SOL     OW36565   1.642   4.523   5.926 -0.4048  0.2668  0.1840
 8311SOL    HW136566   1.614   4.540   6.015 -3.0888 -0.1763 -0.5750
 8311SOL    HW236567   1.673   4.608   5.895  1.7855 -0.8846 -0.7778
 8312SOL     OW36568   2.959   0.263  13.535  0.2814  0.0822 -0.0067
 8312SOL    HW136569   2.903   0.228  13.604  1.1599 -1.8995 -0.2897
 8312SOL    HW236570   2.927   0.353  13.537 -0.2986 -0.1422  0.7715
 8313SOL     OW36571   0.250   3.967   2.665  0.2434  1.0179 -0.0608
 8313SOL    HW136572   0.318   3.913   2.706 -1.8728 -2.2747 -0.9011
 8313SOL    HW236573   0.296   4.022   2.602  3.2170 -0.7052  0.5989
 8314SOL     OW36574   3.839   2.727   4.635  0.1088 -0.1337  0.0788
 8314SOL    HW136575   3.829   2.702   4.727 -0.1166 -1.2549 -0.2421
 8314SOL    HW236576   3.788   2.657   4.594 -3.4659  4.0855 -2.7134
 8315SOL     OW36577   0.771   0.821   2.633 -0.0431 -0.0884 -0.2486
 8315SOL    HW136578   0.752   0.748   2.692  1.2761 -0.9056 -0.8358
 8315SOL    HW236579   0.793   0.889   2.697 -3.5817  0.4682  0.3514
 8316SOL     OW36580   3.664   3.168   2.731 -0.3841 -0.4758  0.6121
 8316SOL    HW136581   3.734   3.110   2.701 -2.6365 -1.1847 -3.3479
 8316SOL    HW236582   3.707   3.222   2.797  1.6201  0.9805 -1.8776
 8317SOL     OW36583   2.806   4.021   5.120 -0.1255  0.2465 -0.2338
 8317SOL    HW136584   2.881   4.073   5.092  2.3871 -2.8248  0.8205
 8317SOL    HW236585   2.845   3.945   5.162  1.9613  1.0953 -0.6684
 8318SOL     OW36586   2.135   4.674  13.765 -0.0350  0.6423  0.0444
 8318SOL    HW136587   2.054   4.721  13.748 -0.4250 -0.3994 -0.9666
 8318SOL    HW236588   2.152   4.645  13.675 -1.7322 -0.6785  0.1413
 8319SOL     OW36589   1.924   3.238   4.032 -0.3853  0.2694  0.4967
 8319SOL    HW136590   1.959   3.207   3.948 -1.5220 -0.3481  0.2483
 8319SOL    HW236591   1.984   3.196   4.094  0.4689 -0.3335 -0.7349
 8320SOL     OW36592   3.713   3.081   4.874 -0.0249  0.6493  0.4691
 8320SOL    HW136593   3.759   3.045   4.798 -1.5037  0.5516 -0.3845
 8320SOL    HW236594   3.785   3.059   4.933 -1.4695 -2.5914  1.0313
 8321SOL     OW36595   2.215   4.037   5.147 -0.2527 -0.3538  0.2784
 8321SOL    HW136596   2.201   4.047   5.241 -0.5507 -0.8045  0.2816
 8321SOL    HW236597   2.146   3.971   5.135 -0.2890 -0.2857  0.1099
 8322SOL     OW36598   0.649   0.899   8.411 -0.2709 -0.5971  0.6550
 8322SOL    HW136599   0.728   0.882   8.360 -2.4349 -0.8830 -2.6071
 8322SOL    HW236600   0.580   0.855   8.362 -2.9788  1.4595  2.6521
 8323SOL     OW36601   0.849   0.118  13.108  0.3754 -0.6624 -1.0472
 8323SOL    HW136602   0.754   0.108  13.110  0.2218  1.0649  0.6737
 8323SOL    HW236603   0.876   0.034  13.146 -0.9548 -0.8933 -0.6374
 8324SOL     OW36604   0.750   2.727   2.092  0.0919  0.1231  0.0363
 8324SOL    HW136605   0.716   2.776   2.167  0.5535 -0.2679  0.5006
 8324SOL    HW236606   0.745   2.638   2.128  1.4584 -0.9979 -2.5835
 8325SOL     OW36607   0.045   3.343   8.872 -0.5172 -0.5998  0.0234
 8325SOL    HW136608   0.012   3.253   8.863 -1.3776 -0.1633 -1.1806
 8325SOL    HW236609   4.701   3.388   8.845 -0.7280 -0.9561  0.0535
 8326SOL     OW36610   2.573   4.157   5.583 -0.2068  0.5132  0.4036
 8326SOL    HW136611   2.479   4.178   5.579 -0.5196 -0.9156  0.3049
 8326SOL    HW236612   2.582   4.116   5.497  1.3487 -2.1038  1.8379
 8327SOL     OW36613   1.502   0.983  13.378  0.2123  0.1091  0.1642
 8327SOL    HW136614   1.458   0.977  13.293  1.2815 -0.3196 -0.3653
 8327SOL    HW236615   1.520   1.076  13.390 -0.3413  0.2122  0.1942
 8328SOL     OW36616   1.366   2.388   4.097 -0.2079 -0.5495 -0.2139
 8328SOL    HW136617   1.325   2.450   4.036 -0.6556 -1.8732 -1.2354
 8328SOL    HW236618   1.400   2.325   4.034  0.2170  0.6854 -1.2404
 8329SOL     OW36619   4.175   3.487   2.482 -0.1954  0.3414  0.2757
 8329SOL    HW136620   4.258   3.527   2.456 -0.8410 -0.1940 -2.5127
 8329SOL    HW236621   4.133   3.572   2.490 -0.3131  0.0291  3.0168
 8330SOL     OW36622   2.193   4.206   2.466 -0.1683 -0.5016 -0.6117
 8330SOL    HW136623   2.122   4.264   2.439  0.5547  0.9161  0.5728
 8330SOL    HW236624   2.149   4.122   2.454 -0.0370 -0.6683  0.1086
 8331SOL     OW36625   2.865   0.034   8.613 -0.2365 -0.0273 -0.0809
 8331SOL    HW136626   2.816   4.697   8.574  0.0452  0.9808 -2.3199
 8331SOL    HW236627   2.884   0.006   8.703  0.4021  0.2050 -0.1482
 8332SOL     OW36628   0.281   3.173   3.472  0.3764 -0.1520 -0.1838
 8332SOL    HW136629   0.218   3.130   3.529  0.7138  2.9856  2.5758
 8332SOL    HW236630   0.299   3.251   3.525  0.7847 -1.2330  1.2473
 8333SOL     OW36631   0.019   1.719   2.762 -0.4585 -0.4947 -0.2945
 8333SOL    HW136632   4.686   1.785   2.750 -1.4387 -0.7313  3.9714
 8333SOL    HW236633   4.719   1.643   2.716  1.1201 -1.1759 -0.3745
 8334SOL     OW36634   1.646   2.995  17.047 -0.1609  0.0193  0.0062
 8334SOL    HW136635   1.635   3.056  17.120 -1.1401  3.4181 -3.0089
 8334SOL    HW236636   1.595   2.919  17.078 -1.0721  0.6651  0.1127
 8335SOL     OW36637   1.145   4.369   1.698  0.0175  0.1008 -0.2102
 8335SOL    HW136638   1.198   4.368   1.618 -0.1998  0.2636 -0.3578
 8335SOL    HW236639   1.214   4.345   1.760 -0.3678 -1.5990 -0.4436
 8336SOL     OW36640   3.465   1.291   1.954  0.1405  0.2486  0.1444
 8336SOL    HW136641   3.465   1.196   1.967 -1.4531  0.4577  1.6132
 8336SOL    HW236642   3.548   1.305   1.908  0.2858  0.0547  0.3477
 8337SOL     OW36643   0.315   1.982   1.408  0.3175  0.6573 -0.1437
 8337SOL    HW136644   0.230   1.946   1.380 -1.3638  2.2139  3.0132
 8337SOL    HW236645   0.317   1.957   1.500 -2.2356  0.0030 -0.2702
 8338SOL     OW36646   1.074   0.267  15.567  0.1643 -0.2782  0.4090
 8338SOL    HW136647   1.020   0.270  15.647 -0.2783  0.7525  0.0701
 8338SOL    HW236648   1.008   0.289  15.502  1.1731  1.1120 -0.1241
 8339SOL     OW36649   3.199   0.313  14.823  0.1852 -0.0287  0.6264
 8339SOL    HW136650   3.231   0.316  14.913  2.0000  1.6035 -0.0977
 8339SOL    HW236651   3.104   0.307  14.834  0.1597 -2.6356 -0.9606
 8340SOL     OW36652   4.485   2.808  10.657 -0.3327 -0.3882  0.0882
 8340SOL    HW136653   4.544   2.795  10.731 -1.8227  1.5514  1.6059
 8340SOL    HW236654   4.483   2.725  10.609  2.5962  0.3104 -1.2625
 8341SOL     OW36655   0.275   4.665   2.288  0.6483  0.1993  0.6626
 8341SOL    HW136656   0.267   4.621   2.203 -3.5508 -1.9816  2.1789
 8341SOL    HW236657   0.367   4.691   2.288  0.2470  1.5978  2.7674
 8342SOL     OW36658   4.036   2.806  10.958 -0.1987 -0.3413 -0.1565
 8342SOL    HW136659   4.120   2.770  10.928 -1.0138  0.3326 -3.2045
 8342SOL    HW236660   4.054   2.810  11.052 -3.2671  3.2509  0.2787
 8343SOL     OW36661   1.609   2.978   6.850  0.0190 -0.1957  0.5729
 8343SOL    HW136662   1.668   2.980   6.775  0.2012  2.0633  0.7711
 8343SOL    HW236663   1.540   2.939   6.796  1.3205 -2.4901  0.5639
 8344SOL     OW36664   0.116   1.080  11.280 -0.2957  0.0523  0.2913
 8344SOL    HW136665   0.040   1.063  11.336  0.4079 -0.4736  1.0949
 8344SOL    HW236666   0.110   0.999  11.229 -2.2385 -0.1281  0.8066
 8345SOL     OW36667   1.794   4.344   1.649  0.4587  0.2601 -0.3837
 8345SOL    HW136668   1.853   4.286   1.698  0.8150  0.5634 -0.4518
 8345SOL    HW236669   1.853   4.400   1.599  3.6943 -2.4676  0.3834
 8346SOL     OW36670   1.980   1.232   3.280 -0.5127  0.2007  0.2273
 8346SOL    HW136671   2.044   1.280   3.227 -1.7929  0.0076 -1.5351
 8346SOL    HW236672   2.031   1.159   3.313 -0.7014 -1.3360 -2.8992
 8347SOL     OW36673   4.036   3.999  17.617 -0.5854 -0.2122  0.1641
 8347SOL    HW136674   4.006   4.051  17.542  2.1875 -1.7490 -2.0225
 8347SOL    HW236675   4.130   4.005  17.602 -0.6320  0.2575  0.0487
 8348SOL     OW36676   2.291   2.812   5.220  0.0749  0.1915  0.5934
 8348SOL    HW136677   2.361   2.805   5.155  0.6420 -0.8800  1.3121
 8348SOL    HW236678   2.227   2.765   5.167  0.5414 -1.1097  1.1908
 8349SOL     OW36679   1.598   0.881  12.865 -0.6142  0.3016 -0.0196
 8349SOL    HW136680   1.557   0.818  12.924  2.8095 -3.7850 -1.8793
 8349SOL    HW236681   1.522   0.902  12.812 -0.3276  2.2589  0.3765
 8350SOL     OW36682   1.257   2.901   3.428 -0.0879 -0.4968 -0.3924
 8350SOL    HW136683   1.326   2.955   3.390 -0.5503  0.9872  0.9104
 8350SOL    HW236684   1.315   2.828   3.451  2.2022  1.4768  0.0423
 8351SOL     OW36685   0.871   1.952  15.636  0.2286 -0.0791  0.0990
 8351SOL    HW136686   0.924   1.894  15.692  1.2417 -0.0785 -0.8580
 8351SOL    HW236687   0.857   1.902  15.556  2.0576  0.8427 -0.8144
 8352SOL     OW36688   2.165   0.294   6.124  0.3552 -0.5766  0.0022
 8352SOL    HW136689   2.163   0.377   6.076 -0.5735  0.1708  1.3125
 8352SOL    HW236690   2.256   0.310   6.149 -0.1464  0.8189  0.9529
 8353SOL     OW36691   3.145   4.559   8.136 -0.5966  0.5692  0.1153
 8353SOL    HW136692   3.175   4.476   8.174 -0.3305 -0.0271 -1.4109
 8353SOL    HW236693   3.141   4.542   8.042  3.1001 -2.2442  0.4573
 8354SOL     OW36694   2.305   2.547   2.532 -0.5320 -0.1946 -0.0872
 8354SOL    HW136695   2.296   2.525   2.440 -0.8159 -2.2198  0.4287
 8354SOL    HW236696   2.382   2.497   2.559 -1.8044 -1.1142  1.8221
 8355SOL     OW36697   1.681   3.848   9.144 -0.2436 -0.1257 -0.5560
 8355SOL    HW136698   1.754   3.830   9.086 -0.0345  0.5248 -0.4957
 8355SOL    HW236699   1.622   3.898   9.087 -1.9052 -1.1169  0.2826
 8356SOL     OW36700   3.598   1.431   8.056 -0.1734 -0.3035 -0.1753
 8356SOL    HW136701   3.532   1.487   8.015 -1.0449 -0.0075  1.6081
 8356SOL    HW236702   3.653   1.495   8.102 -1.4028  1.8451 -1.7252
 8357SOL     OW36703   3.725   2.313   2.523  0.8552  0.6400 -0.5720
 8357SOL    HW136704   3.653   2.372   2.502 -0.0641 -0.3853 -0.2999
 8357SOL    HW236705   3.721   2.246   2.455 -0.3392  0.7950 -0.6522
 8358SOL     OW36706   3.791   0.861   7.987  0.6966 -0.3626 -0.3143
 8358SOL    HW136707   3.871   0.894   8.026  0.4515 -0.1383  0.0020
 8358SOL    HW236708   3.795   0.771   8.021 -0.9555  0.3842  1.8323
 8359SOL     OW36709   1.630   1.596   2.121  0.0029 -0.5640 -0.3533
 8359SOL    HW136710   1.708   1.637   2.082  1.1676 -1.9188  0.5481
 8359SOL    HW236711   1.642   1.503   2.102  1.6766 -0.2111 -1.0132
 8360SOL     OW36712   3.258   2.638  13.987 -0.3423 -0.0420 -0.6972
 8360SOL    HW136713   3.317   2.714  13.985 -0.7925  0.3559  1.8465
 8360SOL    HW236714   3.184   2.672  14.036  1.3322 -1.7898  3.0946
 8361SOL     OW36715   1.796   1.097  17.110  0.7716 -0.5255 -0.3332
 8361SOL    HW136716   1.779   1.041  17.186 -2.0467  0.6760 -0.0719
 8361SOL    HW236717   1.808   1.187  17.140 -1.6526  0.0932 -1.1876
 8362SOL     OW36718   4.582   2.589   3.331  0.3024 -0.2921 -0.0165
 8362SOL    HW136719   4.660   2.577   3.276 -1.6428  2.1649 -3.3486
 8362SOL    HW236720   4.505   2.596   3.273 -0.5133 -0.8232  1.0157
 8363SOL     OW36721   2.525   0.002   6.840  0.4218  0.3026  0.1892
 8363SOL    HW136722   2.564   0.086   6.817  2.3471 -0.6162  0.1426
 8363SOL    HW236723   2.532   4.692   6.757 -2.1481  1.5973 -0.7302
 8364SOL     OW36724   2.245   1.988   4.979  0.0795 -0.2063 -0.0187
 8364SOL    HW136725   2.170   2.042   5.005 -0.0327  0.5762 -1.9841
 8364SOL    HW236726   2.275   2.035   4.901  1.8326  0.6449  1.1507
 8365SOL     OW36727   0.628   3.826   4.545 -0.1442  0.5786  0.2340
 8365SOL    HW136728   0.673   3.774   4.478 -1.9136 -1.1012  0.3723
 8365SOL    HW236729   0.550   3.774   4.563 -0.6829  1.8609  1.6192
 8366SOL     OW36730   2.651   0.522  16.263  0.5556 -0.3903  0.2127
 8366SOL    HW136731   2.661   0.560  16.351 -1.2970  1.0298 -0.1833
 8366SOL    HW236732   2.686   0.586  16.202 -1.2510 -1.6509 -2.1256
 8367SOL     OW36733   2.688   3.724   8.933 -0.1706 -1.1346 -0.1744
 8367SOL    HW136734   2.708   3.634   8.960 -1.5467 -0.8017  1.9190
 8367SOL    HW236735   2.614   3.747   8.988  1.5767  2.4607  0.6399
 8368SOL     OW36736   0.110   4.158   9.196 -0.2223  0.0449  0.1060
 8368SOL    HW136737   0.109   4.130   9.287 -1.1448 -0.4479 -0.0626
 8368SOL    HW236738   0.100   4.082   9.139 -1.9477 -0.5319  1.2083
 8369SOL     OW36739   0.967   1.213   4.652 -0.0077  0.0659 -0.2904
 8369SOL    HW136740   0.892   1.270   4.639  0.3441  1.1080  2.2366
 8369SOL    HW236741   0.994   1.194   4.562 -0.1432  0.0990 -0.3375
 8370SOL     OW36742   3.204   3.624   3.089 -0.0996 -0.3164 -0.6316
 8370SOL    HW136743   3.265   3.680   3.137 -1.5997 -0.7352  1.7937
 8370SOL    HW236744   3.138   3.599   3.155  1.4391  0.1698  1.1041
 8371SOL     OW36745   1.122   2.525   8.012 -0.2274 -0.1438  0.8238
 8371SOL    HW136746   1.110   2.499   8.103 -1.9669 -2.5242 -0.0869
 8371SOL    HW236747   1.163   2.611   8.024 -0.4343  0.0678 -0.0051
 8372SOL     OW36748   2.805   1.499   7.775  0.1570  0.2298  0.1066
 8372SOL    HW136749   2.885   1.523   7.728 -0.9276  3.6121 -0.0292
 8372SOL    HW236750   2.750   1.540   7.709  1.3469  0.2190 -0.8793
 8373SOL     OW36751   2.614   3.322   6.285  0.0773 -0.6665  0.2062
 8373SOL    HW136752   2.653   3.243   6.247  0.7914 -0.3801  0.3274
 8373SOL    HW236753   2.527   3.292   6.310 -0.3213 -0.0505 -0.4453
 8374SOL     OW36754   3.575   1.691   2.079  0.0791  0.7750  0.4076
 8374SOL    HW136755   3.637   1.625   2.047  0.2706  1.3784 -0.4859
 8374SOL    HW236756   3.524   1.709   2.000 -1.6426 -0.7879  1.1763
 8375SOL     OW36757   3.188   3.987   7.716  0.4415 -0.4032  0.2791
 8375SOL    HW136758   3.248   4.016   7.785  0.1708 -2.6258  1.4326
 8375SOL    HW236759   3.247   3.919   7.683 -0.4725 -1.2415  0.3826
 8376SOL     OW36760   2.913   2.045   6.770 -0.8111 -0.0289  0.4893
 8376SOL    HW136761   2.947   2.127   6.804  1.8110 -1.1301  0.5433
 8376SOL    HW236762   2.956   1.973   6.818 -2.2820 -1.4717 -0.3449
 8377SOL     OW36763   0.247   2.740   5.879  0.0310  0.3113  0.4893
 8377SOL    HW136764   0.290   2.811   5.926 -1.4821  0.9729  0.8644
 8377SOL    HW236765   0.156   2.767   5.893 -0.1096  0.0487  0.0790
 8378SOL     OW36766   3.469   2.730   4.494  0.3875  0.4080 -0.4437
 8378SOL    HW136767   3.380   2.721   4.527  0.4730 -0.3880 -0.4314
 8378SOL    HW236768   3.523   2.671   4.546  0.8762  2.0139  0.8804
 8379SOL     OW36769   3.813   4.167   7.489  0.4092  0.0728  0.0924
 8379SOL    HW136770   3.864   4.248   7.482  0.9589 -0.2537  0.3497
 8379SOL    HW236771   3.741   4.196   7.546  0.9261  0.5904  0.4858
 8380SOL     OW36772   0.227   0.194   8.428  0.2536  0.1719  0.1513
 8380SOL    HW136773   0.182   0.126   8.479  2.6503 -1.8019 -0.3146
 8380SOL    HW236774   0.287   0.230   8.493 -2.1274  1.5379  1.5734
 8381SOL     OW36775   1.219   2.695   7.499 -0.2398 -0.0337  0.4220
 8381SOL    HW136776   1.210   2.640   7.576 -2.4036  0.3650  0.4617
 8381SOL    HW236777   1.165   2.769   7.525  0.9330  0.7762  0.5541
 8382SOL     OW36778   2.020   0.623   6.240 -0.2288  0.3251  0.2390
 8382SOL    HW136779   1.943   0.601   6.292 -0.1907  2.4967  1.2076
 8382SOL    HW236780   1.974   0.637   6.158  1.1553 -0.2333 -0.6297
 8383SOL     OW36781   1.074   3.608  16.415  0.5733  0.9608 -0.7618
 8383SOL    HW136782   1.052   3.585  16.325 -0.6115 -0.9517  0.0133
 8383SOL    HW236783   1.022   3.544  16.464  2.9234 -1.3568 -1.3427
 8384SOL     OW36784   3.522   1.327   6.229  0.2293  0.4434 -0.0788
 8384SOL    HW136785   3.435   1.367   6.221  0.6380  1.1928 -0.8179
 8384SOL    HW236786   3.582   1.401   6.223  0.7425  0.0311  0.0547
 8385SOL     OW36787   0.252   3.161   8.463 -0.1198  0.0788  0.2151
 8385SOL    HW136788   0.259   3.178   8.369  2.9383 -0.1455  0.3807
 8385SOL    HW236789   0.194   3.224   8.505  0.1836 -0.4116  1.3606
 8386SOL     OW36790   0.797   2.543   4.568 -0.4584 -0.2320 -0.5018
 8386SOL    HW136791   0.866   2.608   4.580  0.6143 -1.6479  0.8911
 8386SOL    HW236792   0.727   2.591   4.611 -0.1721 -1.7846  1.6685
 8387SOL     OW36793   2.211   3.404   0.417 -0.3182 -0.0041  0.1212
 8387SOL    HW136794   2.304   3.391   0.395 -0.3477  1.2656 -0.7623
 8387SOL    HW236795   2.195   3.495   0.395  1.3072  0.4234  0.6941
 8388SOL     OW36796   4.518   3.475   8.837  0.6043 -0.2767 -0.1099
 8388SOL    HW136797   4.505   3.560   8.881  0.0484 -0.1836 -0.4513
 8388SOL    HW236798   4.450   3.427   8.885 -0.2229 -0.2845 -1.2843
 8389SOL     OW36799   2.126   4.272   2.152  0.1004  0.0469  0.5074
 8389SOL    HW136800   2.094   4.296   2.239  2.8274  0.4129  1.4018
 8389SOL    HW236801   2.099   4.354   2.111  0.2698 -0.9255 -1.5665
 8390SOL     OW36802   4.087   4.710   7.390 -0.3251 -0.0638  0.6109
 8390SOL    HW136803   4.124   0.047   7.439  1.3466 -0.1189 -0.5847
 8390SOL    HW236804   3.995   4.715   7.418 -0.3702  1.0933  0.2562
 8391SOL     OW36805   4.034   4.350   2.644 -0.4212 -0.1668 -0.1477
 8391SOL    HW136806   4.004   4.314   2.727  1.8397  0.0347  0.7485
 8391SOL    HW236807   4.110   4.294   2.625  1.0507  1.3910  1.2700
 8392SOL     OW36808   2.918   3.051   0.912 -0.1511 -0.1823 -0.3929
 8392SOL    HW136809   2.945   2.973   0.960 -0.0360  1.7494  2.6845
 8392SOL    HW236810   2.942   3.037   0.820  0.6313  0.4432 -0.2949
 8393SOL     OW36811   3.644   4.377   7.112  0.1599 -0.0110 -0.1468
 8393SOL    HW136812   3.566   4.322   7.101 -0.2134  0.5069 -0.0859
 8393SOL    HW236813   3.707   4.319   7.155  0.8123  0.8096 -0.0007
 8394SOL     OW36814   2.816   0.040   4.452 -0.3971  0.0063 -0.1500
 8394SOL    HW136815   2.737   0.080   4.487  0.4337  2.3228 -0.8728
 8394SOL    HW236816   2.883   0.079   4.508  0.5887 -0.9182 -0.6839
 8395SOL     OW36817   0.186   0.552   3.873  0.1729  0.0641  0.4985
 8395SOL    HW136818   0.270   0.529   3.836  0.2648 -0.9959  1.3717
 8395SOL    HW236819   0.163   0.628   3.819 -4.0544 -1.3019  0.3464
 8396SOL     OW36820   1.070   2.611   4.841 -0.6293 -0.3968  0.1445
 8396SOL    HW136821   1.045   2.604   4.933  0.3733 -1.8651  0.2983
 8396SOL    HW236822   1.156   2.569   4.840  0.6084  2.0932  1.0296
 8397SOL     OW36823   3.564   3.501  13.975 -0.0619 -0.1406 -0.3262
 8397SOL    HW136824   3.555   3.537  14.064 -0.1626 -1.9143  0.3675
 8397SOL    HW236825   3.644   3.549  13.954  0.2189 -0.0407  0.9259
 8398SOL     OW36826   3.523   3.503  16.358 -0.1136 -0.4387 -0.5272
 8398SOL    HW136827   3.472   3.457  16.292  0.2427  0.1376 -1.1990
 8398SOL    HW236828   3.458   3.497  16.428  0.2940  1.1815 -0.0221
 8399SOL     OW36829   3.147   2.769   0.849  0.3662  1.1333  0.4021
 8399SOL    HW136830   3.218   2.833   0.840  0.6918  0.9470  1.5944
 8399SOL    HW236831   3.156   2.712   0.773  0.0331  0.1033  1.1422
 8400SOL     OW36832   0.998   0.184   5.932  0.6072  0.2387 -0.1429
 8400SOL    HW136833   1.081   0.222   5.958  1.2033 -1.2275  0.1096
 8400SOL    HW236834   0.965   0.241   5.863 -1.6269 -0.7831  0.0706
 8401SOL     OW36835   2.521   3.944   4.745 -0.2368  0.2123  0.0255
 8401SOL    HW136836   2.502   3.997   4.822 -1.0736 -0.1046  0.0364
 8401SOL    HW236837   2.589   3.890   4.785  0.4152  1.1612  0.2164
 8402SOL     OW36838   3.683   1.199  12.040  0.0704 -0.8721 -0.3231
 8402SOL    HW136839   3.715   1.149  11.965  2.2931  0.6336 -0.4040
 8402SOL    HW236840   3.747   1.270  12.046 -2.2115  0.9812  2.1483
 8403SOL     OW36841   3.453   0.441  11.656  0.0791  0.2027 -0.1129
 8403SOL    HW136842   3.465   0.530  11.620  1.1044  0.3748  0.6562
 8403SOL    HW236843   3.426   0.464  11.745 -0.7631  0.8839 -0.5351
 8404SOL     OW36844   4.501   1.585   4.104  0.4385  0.0958 -0.3887
 8404SOL    HW136845   4.448   1.560   4.028  0.1657  0.6318 -0.3731
 8404SOL    HW236846   4.575   1.625   4.059  1.1697  0.5494  1.2017
 8405SOL     OW36847   3.739   3.432   5.544 -0.4320 -0.6888  0.3452
 8405SOL    HW136848   3.734   3.508   5.486  0.1742 -0.5290  0.4927
 8405SOL    HW236849   3.834   3.429   5.560 -0.3724 -0.0449  0.1210
 8406SOL     OW36850   1.808   2.548  16.023 -0.2716 -0.5895  0.1337
 8406SOL    HW136851   1.780   2.634  16.053  0.4773 -0.1809 -0.3298
 8406SOL    HW236852   1.727   2.499  16.035 -0.4926 -0.1369  0.4857
 8407SOL     OW36853   0.717   3.551   5.817 -0.1975  0.2923  0.2209
 8407SOL    HW136854   0.777   3.567   5.745  1.5701  0.6569  1.7740
 8407SOL    HW236855   0.737   3.459   5.833 -2.9978 -0.3897 -0.2370
 8408SOL     OW36856   3.251   3.850  16.330 -0.0276 -0.4245 -0.6212
 8408SOL    HW136857   3.316   3.808  16.274 -0.0845  1.2953 -1.9876
 8408SOL    HW236858   3.210   3.901  16.260 -1.1725  1.7771  1.6733
 8409SOL     OW36859   0.636   2.807   5.797 -0.2807  0.0561 -0.7098
 8409SOL    HW136860   0.555   2.821   5.846  0.4461  0.9493  0.2399
 8409SOL    HW236861   0.690   2.756   5.857  0.1175  2.1376  0.6989
 8410SOL     OW36862   1.021   2.140  10.838  0.0653 -0.4269 -0.0869
 8410SOL    HW136863   1.063   2.221  10.867 -1.7567  0.4460  0.0677
 8410SOL    HW236864   0.964   2.185  10.775 -0.8987 -2.9809 -1.0163
 8411SOL     OW36865   3.637   0.155   6.870  0.4203 -0.3972  0.2064
 8411SOL    HW136866   3.636   0.125   6.962  0.5803  0.2294  0.4099
 8411SOL    HW236867   3.616   0.247   6.881  0.9585  0.2773 -4.7221
 8412SOL     OW36868   1.014   1.289   5.328 -0.8350  0.4269  0.3177
 8412SOL    HW136869   0.979   1.200   5.327  0.1076  0.0474  1.7446
 8412SOL    HW236870   0.932   1.339   5.328  0.2840  2.2829 -0.1283
 8413SOL     OW36871   1.196   4.532   3.584  0.1397  0.7284  0.2996
 8413SOL    HW136872   1.229   4.515   3.496 -1.0018 -0.8695  0.1986
 8413SOL    HW236873   1.268   4.592   3.606 -0.1831  1.8090 -1.6099
 8414SOL     OW36874   3.000   4.185   4.836  0.2217 -0.0436 -0.1313
 8414SOL    HW136875   2.922   4.130   4.829 -2.5467  4.0387 -1.6090
 8414SOL    HW236876   2.963   4.249   4.776  1.2041  0.1770 -0.5054
 8415SOL     OW36877   4.659   0.958  15.150  0.1747 -0.3084 -0.3884
 8415SOL    HW136878   4.644   0.864  15.151 -3.4151  0.3071  2.5137
 8415SOL    HW236879   0.012   0.955  15.111 -0.3051  0.0907 -1.5058
 8416SOL     OW36880   3.774   1.007   2.036  0.3983 -0.4659 -0.1806
 8416SOL    HW136881   3.754   0.950   2.110 -2.0023 -0.0636 -0.5216
 8416SOL    HW236882   3.682   1.024   2.014  0.5827 -1.1220 -1.4516
 8417SOL     OW36883   3.995   2.197   7.228 -0.2058 -0.5348 -0.0043
 8417SOL    HW136884   4.032   2.168   7.145  1.7824 -0.5537  0.8993
 8417SOL    HW236885   3.907   2.158   7.233 -1.0024  1.3764  0.8856
 8418SOL     OW36886   2.994   3.746  12.066 -0.3366 -0.0584 -0.3290
 8418SOL    HW136887   3.011   3.837  12.039  1.6659  0.1360  1.5329
 8418SOL    HW236888   2.920   3.760  12.126 -0.0447  0.7834 -0.1515
 8419SOL     OW36889   2.224   2.681   4.895  0.0029 -0.1392  0.0912
 8419SOL    HW136890   2.218   2.591   4.863  0.7537  0.5413 -1.9753
 8419SOL    HW236891   2.314   2.680   4.928 -0.2332 -1.8776  0.6990
 8420SOL     OW36892   3.480   3.002   5.404 -0.2831  0.3733 -0.3866
 8420SOL    HW136893   3.562   3.049   5.422  2.1682 -2.9544 -2.7409
 8420SOL    HW236894   3.513   2.952   5.329 -0.6767 -0.3894 -0.0539
 8421SOL     OW36895   0.732   4.503   5.231 -0.1382 -0.7448  0.1221
 8421SOL    HW136896   0.791   4.440   5.271  0.5143 -0.7234 -0.8095
 8421SOL    HW236897   0.785   4.519   5.153 -1.0503  1.8340  0.0134
 8422SOL     OW36898   1.801   4.381   2.017  0.1565  0.3229 -0.7304
 8422SOL    HW136899   1.870   4.436   2.054 -1.2985  1.9128 -0.3680
 8422SOL    HW236900   1.847   4.301   1.993  2.6692  1.2544  0.9957
 8423SOL     OW36901   3.428   1.509   0.627  0.0787  0.2967  0.3241
 8423SOL    HW136902   3.489   1.482   0.696 -0.2002 -0.6156  0.2157
 8423SOL    HW236903   3.388   1.424   0.611  0.2096  0.7544 -2.3618
 8424SOL     OW36904   2.480   4.423   4.008  0.3907 -0.3482 -0.2514
 8424SOL    HW136905   2.567   4.388   3.990  1.3688  0.5082  2.8114
 8424SOL    HW236906   2.432   4.348   3.973  0.4641 -1.5889  2.3229
 8425SOL     OW36907   2.398   2.883   6.087  0.3562  0.4244  0.4019
 8425SOL    HW136908   2.341   2.806   6.085  1.2936 -0.3121  1.3198
 8425SOL    HW236909   2.477   2.841   6.052 -0.6203  0.3339 -1.6625
 8426SOL     OW36910   3.673   0.568   7.792 -0.2052 -0.3601  0.2883
 8426SOL    HW136911   3.581   0.571   7.819 -0.8990 -0.0820 -2.0742
 8426SOL    HW236912   3.707   0.631   7.856  0.2273 -1.4285  1.1046
 8427SOL     OW36913   2.864   4.192  10.035 -0.0489  0.2678  0.2530
 8427SOL    HW136914   2.827   4.152   9.957 -2.2048  1.4985  0.6289
 8427SOL    HW236915   2.956   4.169  10.023 -0.2792 -0.9012  0.7113
 8428SOL     OW36916   1.346   0.030   9.392 -0.2638 -0.3347  0.1524
 8428SOL    HW136917   1.292   0.109   9.388  0.3517  0.0964  0.3705
 8428SOL    HW236918   1.433   0.067   9.379 -0.4324  0.4449  1.2274
 8429SOL     OW36919   4.323   4.086   5.151  0.3561  0.1834  0.3763
 8429SOL    HW136920   4.342   3.993   5.140 -1.3427 -0.2243  0.8061
 8429SOL    HW236921   4.372   4.108   5.231  1.1585  0.2267 -0.1307
 8430SOL     OW36922   1.584   1.608   6.818  0.3570 -0.1169 -0.4156
 8430SOL    HW136923   1.498   1.643   6.798  2.2343  4.4005 -0.6737
 8430SOL    HW236924   1.557   1.552   6.891 -0.5131  1.3790  0.4322
 8431SOL     OW36925   0.022   0.970   6.873  0.4220 -0.4644 -0.1600
 8431SOL    HW136926   4.692   0.901   6.863 -0.0473 -0.0872  0.3172
 8431SOL    HW236927   4.706   1.026   6.931  1.6133 -1.2411  1.6437
 8432SOL     OW36928   1.575   4.024   7.356 -0.1246 -0.2626 -0.2397
 8432SOL    HW136929   1.638   3.952   7.360  0.9758  0.8721  2.6532
 8432SOL    HW236930   1.516   3.976   7.298  0.5696 -0.4049 -0.8235
 8433SOL     OW36931   1.520   2.840   6.403  0.1600  0.0772 -0.3068
 8433SOL    HW136932   1.599   2.894   6.409 -0.3273  0.7412  0.2358
 8433SOL    HW236933   1.478   2.879   6.327  0.3902  0.6423 -0.1469
 8434SOL     OW36934   3.973   3.265   8.719 -0.4478  0.2189 -0.1636
 8434SOL    HW136935   3.926   3.308   8.791  0.8672  0.2636  0.6642
 8434SOL    HW236936   3.949   3.173   8.727 -0.7555  0.3049 -0.0969
 8435SOL     OW36937   2.030   0.520   7.313 -0.3495  0.5435  0.3624
 8435SOL    HW136938   2.086   0.455   7.356 -1.0780 -1.1085 -1.2111
 8435SOL    HW236939   2.010   0.462   7.240 -1.0945  0.3687  0.7023
 8436SOL     OW36940   4.022   2.319   6.624 -0.0907  0.4609  0.0164
 8436SOL    HW136941   4.063   2.233   6.634 -0.3886  0.4360  1.0230
 8436SOL    HW236942   4.039   2.347   6.714  1.0536 -1.2269  0.3277
 8437SOL     OW36943   4.127   4.290   2.129  0.4548 -0.1899 -1.1013
 8437SOL    HW136944   4.062   4.355   2.155 -0.3616 -0.7122 -1.8554
 8437SOL    HW236945   4.201   4.339   2.167  0.8100 -1.6548  0.1200
 8438SOL     OW36946   0.821   3.655   3.792  0.2687  0.1422 -0.0399
 8438SOL    HW136947   0.779   3.734   3.758  1.9442  0.7732 -0.6560
 8438SOL    HW236948   0.778   3.583   3.745 -2.1929  1.1538  0.6619
 8439SOL     OW36949   1.670   2.423   8.200  0.0888 -0.4624  0.8193
 8439SOL    HW136950   1.646   2.494   8.259  0.6632  1.3560 -1.1252
 8439SOL    HW236951   1.729   2.369   8.252  1.3868 -0.0630 -0.2471
 8440SOL     OW36952   0.737   1.589   6.114  0.3623 -0.3865  0.0076
 8440SOL    HW136953   0.760   1.614   6.203  0.3086  1.0104 -0.3788
 8440SOL    HW236954   0.643   1.603   6.103  0.2770 -0.9168  0.0447
 8441SOL     OW36955   2.616   2.276   5.438  0.5305  0.5920 -0.0063
 8441SOL    HW136956   2.636   2.356   5.390 -0.4604  0.3416 -0.8420
 8441SOL    HW236957   2.534   2.300   5.481 -1.3676  0.4281 -3.5917
 8442SOL     OW36958   2.257   3.333   4.022 -0.2816  0.6803  0.1657
 8442SOL    HW136959   2.181   3.391   4.021 -0.7345  0.0837  0.1226
 8442SOL    HW236960   2.302   3.349   3.939 -0.8686 -1.2711 -0.5232
 8443SOL     OW36961   2.850   0.988   3.489  0.5726 -0.4081  0.0574
 8443SOL    HW136962   2.760   1.018   3.502  0.1857 -0.8616 -1.6107
 8443SOL    HW236963   2.846   0.906   3.539 -2.7883 -0.6155 -0.5396
 8444SOL     OW36964   1.500   0.546   8.895 -0.4327  0.3437 -0.2397
 8444SOL    HW136965   1.594   0.550   8.877 -0.2166  1.1492  1.1038
 8444SOL    HW236966   1.462   0.588   8.818 -0.7454 -0.6500 -0.6371
 8445SOL     OW36967   3.516   4.363   8.317 -0.4274 -0.7189  0.2341
 8445SOL    HW136968   3.604   4.400   8.311  0.3127 -2.0776  2.6107
 8445SOL    HW236969   3.527   4.299   8.387 -0.2788 -2.8337 -1.7125
 8446SOL     OW36970   4.578   3.987  17.120 -0.1219 -0.4408 -0.5696
 8446SOL    HW136971   4.597   4.063  17.064  0.4486  1.4224  2.1454
 8446SOL    HW236972   4.599   3.909  17.069  0.9933  0.9286 -2.2118
 8447SOL     OW36973   3.434   1.802   6.755 -0.4961 -0.4457 -0.3344
 8447SOL    HW136974   3.378   1.759   6.820  0.6412 -3.0024 -1.0521
 8447SOL    HW236975   3.478   1.726   6.717  1.5649  1.1707 -1.1824
 8448SOL     OW36976   2.160   4.193  12.959 -0.3230  0.2190  0.3212
 8448SOL    HW136977   2.162   4.097  12.959  0.2722  0.2292  0.9214
 8448SOL    HW236978   2.255   4.203  12.948 -0.6040  2.0008 -0.4565
 8449SOL     OW36979   0.568   1.029  13.710  0.0273 -0.1360 -0.6354
 8449SOL    HW136980   0.528   0.943  13.727  0.9070 -0.7792 -1.7902
 8449SOL    HW236981   0.609   1.012  13.625  2.2213  0.9241  0.2006
 8450SOL     OW36982   2.086   2.040  17.218  0.1554  0.1002 -0.1274
 8450SOL    HW136983   2.078   1.951  17.182 -1.7244  0.2954 -0.1652
 8450SOL    HW236984   2.123   2.071  17.135  1.4265  0.1954  0.4669
 8451SOL     OW36985   2.250   2.814   3.730 -0.4520 -0.0506  0.6141
 8451SOL    HW136986   2.223   2.744   3.670 -0.9138  1.6039 -1.0834
 8451SOL    HW236987   2.215   2.784   3.815  0.2529  0.4294  1.0739
 8452SOL     OW36988   4.398   4.040   9.027  0.4758 -0.1878  0.2784
 8452SOL    HW136989   4.449   4.018   9.105 -1.6081 -0.6791  1.5160
 8452SOL    HW236990   4.312   4.005   9.049  1.1877 -1.7405  0.5826
 8453SOL     OW36991   2.161   2.129   7.823  0.0464  0.4681  0.0571
 8453SOL    HW136992   2.242   2.167   7.790  0.6794 -0.3692  0.6554
 8453SOL    HW236993   2.101   2.151   7.752  0.5507 -1.3013 -0.9253
 8454SOL     OW36994   2.807   3.823   1.428 -0.3374  0.3582  0.0422
 8454SOL    HW136995   2.823   3.916   1.410 -3.3527  0.9322  0.3342
 8454SOL    HW236996   2.834   3.789   1.343 -0.2329  2.7348 -0.8958
 8455SOL     OW36997   3.271   4.256   4.782  0.7126  0.2796 -0.3188
 8455SOL    HW136998   3.219   4.336   4.774 -4.2359 -3.0808 -1.8669
 8455SOL    HW236999   3.199   4.195   4.798  0.4365  0.8515  0.5888
 8456SOL     OW37000   1.567   1.097   4.527  0.0894 -0.3123 -0.4425
 8456SOL    HW137001   1.647   1.088   4.579  1.8476 -1.4531 -3.3612
 8456SOL    HW237002   1.604   1.099   4.439  0.5926 -0.9960 -0.2496
 8457SOL     OW37003   0.410   2.477   7.912 -0.0339 -0.7934 -0.2555
 8457SOL    HW137004   0.331   2.452   7.865 -1.0543  0.5840  0.7400
 8457SOL    HW237005   0.467   2.510   7.843  1.1532  0.7538  1.4532
 8458SOL     OW37006   4.619   2.343   5.143  0.1666  0.1709  0.3032
 8458SOL    HW137007   4.706   2.306   5.134  0.1563 -0.2883  2.1585
 8458SOL    HW237008   4.567   2.263   5.139  1.0806 -0.2374 -3.8402
 8459SOL     OW37009   3.166   3.672   6.735 -0.4093  1.2076  0.5537
 8459SOL    HW137010   3.074   3.673   6.710 -0.6352  0.4750  1.3534
 8459SOL    HW237011   3.204   3.740   6.679  2.7078 -0.8813  0.1075
 8460SOL     OW37012   3.746   1.573   5.009  0.3218  1.1300  0.5238
 8460SOL    HW137013   3.768   1.496   4.957 -0.9175  0.2892  1.2474
 8460SOL    HW237014   3.829   1.600   5.048  0.3340 -0.5732  1.7104
 8461SOL     OW37015   4.708   1.244  11.071 -0.3601  0.5299 -0.1009
 8461SOL    HW137016   0.011   1.185  11.135  1.0176  1.9190  0.3582
 8461SOL    HW237017   0.035   1.260  11.000  1.5230 -0.3585  1.3505
 8462SOL     OW37018   4.420   3.806  11.281 -0.3015 -0.1396  0.0967
 8462SOL    HW137019   4.510   3.830  11.303 -0.0333 -0.3452 -0.7587
 8462SOL    HW237020   4.446   3.715  11.271 -0.3631 -0.3902  2.2609
 8463SOL     OW37021   3.534   3.798   8.086  0.1161 -0.8845  0.1168
 8463SOL    HW137022   3.531   3.882   8.132 -0.9560  0.1450 -1.8211
 8463SOL    HW237023   3.614   3.764   8.127  2.7351  1.3378 -3.1562
 8464SOL     OW37024   0.952   1.860   6.566  0.1758  0.1739 -0.3649
 8464SOL    HW137025   0.999   1.900   6.640  1.1250 -0.8129 -0.4355
 8464SOL    HW237026   0.953   1.932   6.503  0.2503  0.2859 -0.2352
 8465SOL     OW37027   0.145   2.438   6.235  0.6013 -0.0150  0.0809
 8465SOL    HW137028   0.133   2.347   6.209 -2.7467  0.7071 -0.8691
 8465SOL    HW237029   0.082   2.479   6.176 -1.6336  1.0902  3.2097
 8466SOL     OW37030   4.603   3.899   8.885 -0.1014  0.1012 -0.1503
 8466SOL    HW137031   4.553   3.976   8.912 -0.3521  0.3553 -1.3528
 8466SOL    HW237032   4.636   3.924   8.799 -0.6233  1.8560  0.1715
 8467SOL     OW37033   3.327   2.548  13.730  0.0330 -0.1317  0.2329
 8467SOL    HW137034   3.312   2.624  13.674  0.0296  1.1021  1.9298
 8467SOL    HW237035   3.304   2.584  13.815 -1.3547 -0.1691 -0.1344
 8468SOL     OW37036   2.108   2.796   2.934 -0.3556  0.0150  0.4956
 8468SOL    HW137037   2.137   2.738   3.004  1.2434  1.0324  0.6881
 8468SOL    HW237038   2.186   2.814   2.882  1.1928  1.3027  3.2460
 8469SOL     OW37039   0.960   1.803   9.161  0.4763 -0.2964  0.0146
 8469SOL    HW137040   0.927   1.801   9.071  0.8116  1.4957 -0.1283
 8469SOL    HW237041   0.877   1.828   9.201  0.4292  0.4457 -0.5587
 8470SOL     OW37042   3.105   1.175   3.098 -0.3708 -0.1359  0.3973
 8470SOL    HW137043   3.070   1.259   3.067 -1.4673 -0.6599  0.2091
 8470SOL    HW237044   3.076   1.109   3.035 -0.0574  1.5580 -1.5298
 8471SOL     OW37045   0.276   1.323  16.902 -0.0243  0.1490 -0.0815
 8471SOL    HW137046   0.348   1.377  16.934 -1.3944  1.6212  0.5249
 8471SOL    HW237047   0.310   1.273  16.828 -0.5857 -1.9300  1.0685
 8472SOL     OW37048   3.835   3.029   0.014 -0.2222 -0.4030  0.1691
 8472SOL    HW137049   3.928   3.040   0.031 -0.5727  0.4043  1.5565
 8472SOL    HW237050   3.819   3.093  17.685  1.1478  0.9671  1.1208
 8473SOL     OW37051   1.791   0.565   5.278 -0.3773 -0.7496  0.1547
 8473SOL    HW137052   1.808   0.658   5.290 -0.2077 -0.7674  0.0424
 8473SOL    HW237053   1.764   0.570   5.186 -0.5451 -1.0652  0.1862
 8474SOL     OW37054   0.021   3.365   9.197 -0.3993 -0.1043 -0.3715
 8474SOL    HW137055   0.055   3.355   9.108  0.9495  1.4554 -0.0326
 8474SOL    HW237056   0.094   3.408   9.243 -0.2371 -0.9917  0.1953
 8475SOL     OW37057   2.805   2.345  10.855  0.5094  0.2394  0.1230
 8475SOL    HW137058   2.773   2.369  10.768 -1.9890 -1.6176  0.5076
 8475SOL    HW237059   2.875   2.405  10.877 -0.6008  0.6578  2.4581
 8476SOL     OW37060   0.880   0.847   3.321 -0.4412  0.2682 -0.0520
 8476SOL    HW137061   0.893   0.941   3.307  0.2999 -0.0777 -1.6003
 8476SOL    HW237062   0.940   0.809   3.257 -1.1733  3.1397 -2.4638
 8477SOL     OW37063   0.523   2.639  11.100 -0.8640  0.4648 -0.3745
 8477SOL    HW137064   0.456   2.586  11.143  0.5838  0.7965  2.2277
 8477SOL    HW237065   0.555   2.697  11.168 -0.7833 -1.0289  0.8419
 8478SOL     OW37066   1.014   3.198   0.372 -0.2967 -0.6156  0.0916
 8478SOL    HW137067   1.033   3.289   0.396 -1.9239 -0.0569 -0.7600
 8478SOL    HW237068   0.951   3.186   0.443 -1.3110  0.3802 -0.6501
 8479SOL     OW37069   1.944   2.827   6.254  0.3545  0.3140  0.0300
 8479SOL    HW137070   2.004   2.861   6.188 -0.9037  1.9220 -0.3086
 8479SOL    HW237071   1.927   2.742   6.214 -0.0197  1.2161 -1.7141
 8480SOL     OW37072   2.231   1.627   6.708  0.2416  0.0174  0.2863
 8480SOL    HW137073   2.300   1.677   6.750  0.8937  0.1876 -0.9800
 8480SOL    HW237074   2.272   1.541   6.697 -0.6424 -0.2755 -0.7853
 8481SOL     OW37075   0.747   1.604   8.382 -0.4536 -0.4521  0.3741
 8481SOL    HW137076   0.843   1.598   8.385 -0.4183  0.2418  0.4244
 8481SOL    HW237077   0.730   1.674   8.444  0.8412  0.3568 -0.1925
 8482SOL     OW37078   3.083   1.341   6.324  0.4307  0.4630  0.5815
 8482SOL    HW137079   3.157   1.391   6.290  0.0009  0.9196  0.3306
 8482SOL    HW237080   3.102   1.327   6.417  0.0801  0.9122  0.7157
 8483SOL     OW37081   0.323   2.498   4.458 -0.5796  0.3014  0.1131
 8483SOL    HW137082   0.242   2.504   4.407 -0.5413  0.3736  0.0601
 8483SOL    HW237083   0.347   2.590   4.474 -1.0204  0.6340 -1.1164
 8484SOL     OW37084   3.236   3.411   6.810  0.4672 -0.0949  0.0879
 8484SOL    HW137085   3.268   3.419   6.900 -0.3281  1.5893  0.2244
 8484SOL    HW237086   3.212   3.501   6.788  1.3127  0.5650  1.8278
 8485SOL     OW37087   0.562   2.052   9.575 -0.0335 -0.1071 -0.2783
 8485SOL    HW137088   0.498   2.025   9.509 -1.3874  1.2334  0.4831
 8485SOL    HW237089   0.608   2.125   9.532  1.6908 -1.3214 -0.4947
 8486SOL     OW37090   2.695   1.116   7.761  0.5934 -0.0143 -0.3752
 8486SOL    HW137091   2.643   1.112   7.841 -0.9860  0.3155 -1.3914
 8486SOL    HW237092   2.780   1.083   7.790 -0.6710  0.0197  3.3857
 8487SOL     OW37093   3.297   3.816   2.865  0.1724  0.1486 -0.1720
 8487SOL    HW137094   3.263   3.740   2.818 -1.0841  0.0604  0.9054
 8487SOL    HW237095   3.358   3.770   2.923 -1.3088  1.1230  2.1180
 8488SOL     OW37096   4.593   0.370   4.784 -0.4833 -0.0870  0.4248
 8488SOL    HW137097   4.538   0.374   4.706 -1.4167  0.8698  1.1312
 8488SOL    HW237098   4.657   0.441   4.786 -1.5038  0.8742 -1.1689
 8489SOL     OW37099   0.358   3.700  12.258 -0.4198  0.7212  0.1442
 8489SOL    HW137100   0.410   3.762  12.207 -0.1045  0.6467  0.3795
 8489SOL    HW237101   0.400   3.712  12.343  1.0622  1.0694 -0.6378
 8490SOL     OW37102   3.977   2.977   7.254  0.2887 -0.5702 -0.0861
 8490SOL    HW137103   3.983   3.072   7.260  0.8365 -0.4058 -3.1681
 8490SOL    HW237104   4.039   2.957   7.325 -0.2630 -1.8484  0.0274
 8491SOL     OW37105   0.332   1.695   7.735  0.2290  0.2996  0.3027
 8491SOL    HW137106   0.374   1.615   7.704  0.1361 -0.4950  2.2418
 8491SOL    HW237107   0.298   1.729   7.652  0.0689  0.6764  0.5251
 8492SOL     OW37108   2.660   0.555   5.797  0.3709 -0.2234 -0.0414
 8492SOL    HW137109   2.626   0.587   5.880 -1.3754  0.5054 -1.0396
 8492SOL    HW237110   2.603   0.601   5.736  1.9909 -0.6399 -1.8401
 8493SOL     OW37111   0.978   2.032   2.181  0.1131  0.0779 -0.6353
 8493SOL    HW137112   1.058   1.988   2.210  0.2227  1.9933  1.9585
 8493SOL    HW237113   1.015   2.074   2.103  1.7703  0.9580  0.6210
 8494SOL     OW37114   2.160   2.739   6.803  0.3654  0.3374  0.5152
 8494SOL    HW137115   2.154   2.695   6.719 -0.4198  3.1612 -0.9239
 8494SOL    HW237116   2.082   2.696   6.839  0.3964  1.0826  1.4819
 8495SOL     OW37117   2.714   3.186  14.114  0.0177 -0.2731  0.3747
 8495SOL    HW137118   2.704   3.214  14.205  0.1886  2.6037 -0.4848
 8495SOL    HW237119   2.771   3.110  14.126  0.6021 -0.3363 -2.7545
 8496SOL     OW37120   3.082   4.032  17.520 -0.1612  0.1947 -0.6368
 8496SOL    HW137121   3.111   3.943  17.539 -0.9079  0.0952  0.0370
 8496SOL    HW237122   3.039   4.057  17.601 -0.3883  0.7375 -0.9214
 8497SOL     OW37123   3.572   1.529   6.437  0.1158 -0.1106 -0.5266
 8497SOL    HW137124   3.571   1.523   6.532  1.3120  0.1791 -0.4944
 8497SOL    HW237125   3.532   1.446   6.409 -0.0082 -0.7915  1.6752
 8498SOL     OW37126   1.878   3.421  15.819  0.3186 -0.2646 -0.3486
 8498SOL    HW137127   1.926   3.458  15.894 -0.3288 -3.2735  1.5615
 8498SOL    HW237128   1.846   3.502  15.782 -1.9344 -0.3878  1.3075
 8499SOL     OW37129   4.454   0.009  13.099  0.5132 -0.2879 -0.4598
 8499SOL    HW137130   4.496   4.670  13.142 -0.6184 -0.2871  0.6327
 8499SOL    HW237131   4.466   0.080  13.162  0.9240 -2.0260  1.3991
 8500SOL     OW37132   1.899   0.209   4.447 -0.4075 -0.0408 -0.1167
 8500SOL    HW137133   1.893   0.169   4.360 -1.8669 -0.5638  0.2197
 8500SOL    HW237134   1.941   0.130   4.482 -1.2257  0.1382  1.2717
 8501SOL     OW37135   3.133   2.371  12.025 -0.0002  0.5717  0.3640
 8501SOL    HW137136   3.134   2.467  12.034  1.5594  0.7746 -1.9552
 8501SOL    HW237137   3.201   2.363  11.959 -0.5757  0.5992 -0.2285
 8502SOL     OW37138   4.566   2.377   3.495  0.0475 -0.3886  0.4139
 8502SOL    HW137139   4.588   2.450   3.437 -4.6971  0.5068 -0.2259
 8502SOL    HW237140   4.481   2.355   3.458 -0.7058 -0.9319  2.4808
 8503SOL     OW37141   0.587   1.466   5.151 -0.2318 -0.1874  0.2948
 8503SOL    HW137142   0.532   1.541   5.170 -0.6372 -0.2288 -0.6918
 8503SOL    HW237143   0.633   1.500   5.074 -0.5361  1.8098  1.0133
 8504SOL     OW37144   4.374   1.778   2.718  0.7165  0.3604 -0.2634
 8504SOL    HW137145   4.409   1.771   2.629 -0.4954  2.2081 -0.8918
 8504SOL    HW237146   4.422   1.713   2.769  0.6517  1.2358  0.9109
 8505SOL     OW37147   2.807   2.197   5.653  0.9610  0.9572 -0.2321
 8505SOL    HW137148   2.853   2.260   5.707 -0.0345  0.0217  1.7101
 8505SOL    HW237149   2.755   2.249   5.591 -0.9490  2.3110  2.4685
 8506SOL     OW37150   3.590   2.715   2.308  0.2975  0.4317 -0.1894
 8506SOL    HW137151   3.520   2.779   2.300  0.5767  0.8807  0.8937
 8506SOL    HW237152   3.641   2.750   2.234 -1.7961 -0.2599 -1.9482
 8507SOL     OW37153   2.032   0.665  13.123  0.5691  0.7824  0.5117
 8507SOL    HW137154   1.970   0.688  13.053 -0.3006 -0.6889  0.8015
 8507SOL    HW237155   1.994   0.726  13.187 -0.1496  1.9025 -0.9602
 8508SOL     OW37156   1.578   1.797   2.295  0.5350 -0.0562  0.5813
 8508SOL    HW137157   1.665   1.775   2.328 -0.6661 -0.3640  3.5197
 8508SOL    HW237158   1.575   1.726   2.231 -2.6128 -0.4385  1.1613
 8509SOL     OW37159   2.431   1.858  11.043 -0.3104 -0.0933  0.7897
 8509SOL    HW137160   2.352   1.814  11.010  1.1491 -0.6411 -2.0233
 8509SOL    HW237161   2.396   1.913  11.113  0.3005  0.4735  0.6436
 8510SOL     OW37162   0.082   1.783   9.350 -0.4266 -0.2888  0.1982
 8510SOL    HW137163   0.129   1.770   9.267  1.7898  1.5888  1.1612
 8510SOL    HW237164   0.082   1.878   9.363  1.8315 -0.2508 -0.1650
 8511SOL     OW37165   3.715   2.118   7.369  0.0213 -0.5529 -0.2533
 8511SOL    HW137166   3.698   2.039   7.421  2.5740 -1.5016 -0.8912
 8511SOL    HW237167   3.704   2.190   7.431 -2.9340 -0.9372 -0.3149
 8512SOL     OW37168   0.456   0.511  15.200  0.0428  0.4709 -0.1103
 8512SOL    HW137169   0.452   0.417  15.185 -1.5366  0.5039  0.1456
 8512SOL    HW237170   0.364   0.536  15.202 -0.7305 -2.4224 -0.2423
 8513SOL     OW37171   0.474   2.964   7.271 -0.1051  0.4362  0.4071
 8513SOL    HW137172   0.410   2.992   7.205 -0.6267 -0.1887  0.6454
 8513SOL    HW237173   0.431   3.014   7.340  0.1404  0.8902  0.2277
 8514SOL     OW37174   3.955   0.796   2.492  0.2639 -0.0901 -0.2856
 8514SOL    HW137175   4.025   0.858   2.470  0.8765 -0.9931 -0.8915
 8514SOL    HW237176   3.929   0.831   2.577  2.8106 -1.2408  0.9422
 8515SOL     OW37177   2.310   2.438   6.926 -0.7571 -0.1692  0.6939
 8515SOL    HW137178   2.379   2.428   6.991  0.2154  0.6125 -0.2245
 8515SOL    HW237179   2.347   2.507   6.873  0.4106 -1.5125 -0.2354
 8516SOL     OW37180   3.584   0.329   8.778  0.2263 -0.0592 -0.3129
 8516SOL    HW137181   3.597   0.320   8.872  4.1778  0.4481 -0.7708
 8516SOL    HW237182   3.493   0.301   8.770  0.1846 -0.1800  0.6811
 8517SOL     OW37183   1.700   4.212   4.567  0.1143  0.3073 -0.1858
 8517SOL    HW137184   1.751   4.205   4.487  1.3190 -0.4712  0.6544
 8517SOL    HW237185   1.679   4.120   4.578 -1.6086  0.7436  0.2090
 8518SOL     OW37186   3.739   4.527  13.362 -0.3717  0.3029  0.2759
 8518SOL    HW137187   3.699   4.546  13.447 -5.3710 -0.5890 -1.9099
 8518SOL    HW237188   3.707   4.607  13.321  0.1060 -0.6564 -1.9660
 8519SOL     OW37189   4.094   0.561   7.749 -0.2605 -0.6883 -0.0985
 8519SOL    HW137190   4.090   0.639   7.805 -1.0825  0.7978 -2.2200
 8519SOL    HW237191   4.162   0.519   7.801  1.0524 -1.4856 -2.4887
 8520SOL     OW37192   2.485   4.616   3.289 -0.4447  0.3853 -0.2734
 8520SOL    HW137193   2.455   4.634   3.377 -1.0463  0.6564 -0.5392
 8520SOL    HW237194   2.468   4.522   3.294 -0.7328  0.4254 -0.4854
 8521SOL     OW37195   2.764   0.058  11.581  0.6391 -0.2434  0.7552
 8521SOL    HW137196   2.705   0.029  11.650  0.3067 -0.6936  0.2823
 8521SOL    HW237197   2.852   0.048  11.617  1.1607 -0.7284 -0.6427
 8522SOL     OW37198   1.775   0.597   5.012 -0.0734  0.0356  0.0550
 8522SOL    HW137199   1.755   0.653   4.936 -1.1098  0.3416  0.5520
 8522SOL    HW237200   1.778   0.509   4.974 -0.7858  0.9745 -2.2068
 8523SOL     OW37201   0.489   2.551   6.045  0.1752  0.2937 -0.2719
 8523SOL    HW137202   0.436   2.596   5.979  2.0790  1.0557 -1.2648
 8523SOL    HW237203   0.469   2.610   6.118  1.5227 -1.6330  1.6502
 8524SOL     OW37204   2.662   2.267   8.221 -0.1675 -1.0782 -0.2238
 8524SOL    HW137205   2.728   2.324   8.260 -0.9584 -0.3722  0.0680
 8524SOL    HW237206   2.677   2.177   8.249  0.8074 -0.6323  0.6839
 8525SOL     OW37207   2.435   0.681   5.375 -0.4859 -0.3321  0.0316
 8525SOL    HW137208   2.405   0.607   5.322 -0.8451  2.0315 -3.0145
 8525SOL    HW237209   2.354   0.718   5.410 -0.0151 -0.6570  1.4887
 8526SOL     OW37210   1.980   4.246   1.428  0.2734 -0.3190  0.4079
 8526SOL    HW137211   1.974   4.337   1.455 -1.8648 -0.1880 -0.4787
 8526SOL    HW237212   2.075   4.235   1.437  0.3241 -0.2390 -0.0394
 8527SOL     OW37213   3.096   4.637  10.014  0.4033  0.2602 -0.3715
 8527SOL    HW137214   3.014   4.684   9.997  0.6433  0.5920 -0.6077
 8527SOL    HW237215   3.153   4.655   9.939 -0.7558 -0.5172 -1.4312
 8528SOL     OW37216   3.808   1.597   5.307 -0.0386  0.1152 -0.0606
 8528SOL    HW137217   3.858   1.658   5.361  1.2705  0.4089 -1.5963
 8528SOL    HW237218   3.810   1.522   5.366  0.3446 -0.6966 -1.1065
 8529SOL     OW37219   4.449   4.144   5.381 -0.2255 -0.1507 -0.0365
 8529SOL    HW137220   4.411   4.121   5.465 -1.8066 -2.7085 -1.4512
 8529SOL    HW237221   4.541   4.121   5.395 -1.0041 -2.0204  1.9696
 8530SOL     OW37222   4.167   0.738   6.496  0.0316 -0.8547  0.2130
 8530SOL    HW137223   4.075   0.719   6.480 -0.3437  1.5424 -0.5685
 8530SOL    HW237224   4.164   0.834   6.492 -0.6611 -0.9629 -2.0026
 8531SOL     OW37225   3.424   3.832  11.810  0.2697 -0.4503 -1.2966
 8531SOL    HW137226   3.515   3.819  11.836 -0.4637  1.9268  2.4450
 8531SOL    HW237227   3.379   3.790  11.883  0.3934  0.1627 -0.8673
 8532SOL     OW37228   4.167   2.071   6.702  1.0422  0.0006 -0.1596
 8532SOL    HW137229   4.230   2.091   6.633  0.4486  1.3487 -0.3093
 8532SOL    HW237230   4.147   1.980   6.683  0.8683  0.1274 -0.5913
 8533SOL     OW37231   0.013   2.795   8.487 -0.1290  0.1667  0.0085
 8533SOL    HW137232   4.718   2.704   8.492 -0.7620  0.5060  2.4628
 8533SOL    HW237233   4.691   2.828   8.418  0.6425 -1.2430 -1.2980
 8534SOL     OW37234   2.492   0.978  15.250  0.6764  0.4613  0.7417
 8534SOL    HW137235   2.545   0.900  15.236  2.2318  1.5666  0.4542
 8534SOL    HW237236   2.538   1.035  15.312  5.3558 -0.4801 -1.8324
 8535SOL     OW37237   2.757   3.274   1.069  0.0693 -0.0002 -0.0921
 8535SOL    HW137238   2.808   3.339   1.021 -1.4208 -0.4651 -2.3368
 8535SOL    HW237239   2.811   3.196   1.058  1.0003  0.5711  0.4397
 8536SOL     OW37240   2.917   0.001  13.186 -0.0746  0.0189 -0.6265
 8536SOL    HW137241   2.925   4.641  13.176  0.9524  0.1719 -1.2711
 8536SOL    HW237242   2.994   0.038  13.143  0.0893 -0.0573 -0.3968
 8537SOL     OW37243   3.742   0.308   6.575  0.4374 -0.1792 -0.1996
 8537SOL    HW137244   3.778   0.354   6.499  1.2005 -1.1459 -0.4291
 8537SOL    HW237245   3.760   0.218   6.548 -1.7372 -0.2320 -1.4214
 8538SOL     OW37246   1.699   0.532  15.802  0.2474 -0.0327  0.2868
 8538SOL    HW137247   1.623   0.589  15.786 -0.5037 -0.6723  1.6540
 8538SOL    HW237248   1.760   0.574  15.741 -0.3338 -1.1905 -1.0781
 8539SOL     OW37249   0.478   1.656  15.001 -0.1300 -0.1742 -0.2579
 8539SOL    HW137250   0.531   1.577  15.001  2.0551  1.2778  1.7675
 8539SOL    HW237251   0.417   1.632  14.931  1.3189  0.2314 -1.6430
 8540SOL     OW37252   0.149   3.893   7.759 -0.3060  0.3718  0.4298
 8540SOL    HW137253   0.163   3.806   7.722  0.1450  0.6486 -0.0561
 8540SOL    HW237254   0.237   3.911   7.793 -0.8751 -1.1413  2.6879
 8541SOL     OW37255   2.824   1.918   7.642  0.3312  0.4914  0.1337
 8541SOL    HW137256   2.744   1.926   7.591  0.8859  0.3466 -0.7661
 8541SOL    HW237257   2.793   1.901   7.731 -0.2950  1.3851  0.0816
 8542SOL     OW37258   4.688   2.620   2.936  0.1078  0.2905 -0.0281
 8542SOL    HW137259   0.010   2.686   2.974 -0.5626  1.6878 -1.4404
 8542SOL    HW237260   4.669   2.647   2.846  1.2516 -0.0819 -0.3716
 8543SOL     OW37261   0.514   2.565  10.550  0.4483 -0.2847  0.2015
 8543SOL    HW137262   0.596   2.614  10.544 -1.6198  3.0245 -1.2685
 8543SOL    HW237263   0.489   2.564  10.458 -1.2422  0.1451  0.6520
 8544SOL     OW37264   1.281   3.645   0.630 -0.7370  0.2677  0.1737
 8544SOL    HW137265   1.203   3.691   0.660 -2.3083 -1.5546 -1.1726
 8544SOL    HW237266   1.334   3.725   0.631 -0.5379  0.1241  2.2920
 8545SOL     OW37267   4.400   1.895   0.999 -1.0335 -0.2673  0.1803
 8545SOL    HW137268   4.306   1.877   0.996 -0.9013 -0.7270 -1.1964
 8545SOL    HW237269   4.438   1.810   0.980 -0.7619  0.1172 -0.9463
 8546SOL     OW37270   0.559   0.935   5.146 -0.4505 -0.2858 -0.6069
 8546SOL    HW137271   0.610   1.012   5.121 -0.9435  0.3902  0.4479
 8546SOL    HW237272   0.563   0.889   5.062  0.2817 -2.4975  0.6310
 8547SOL     OW37273   4.047   2.816   5.189 -0.0130 -0.1254  0.1106
 8547SOL    HW137274   4.080   2.875   5.121  0.3475  0.1753  0.5414
 8547SOL    HW237275   4.127   2.818   5.242  0.7703  1.8730 -1.0997
 8548SOL     OW37276   4.312   2.059   7.398  0.0522  0.5274  0.3334
 8548SOL    HW137277   4.312   1.974   7.441 -2.3114 -0.4563 -1.5999
 8548SOL    HW237278   4.272   2.116   7.464 -0.2218 -0.3984  0.9637
 8549SOL     OW37279   2.365   3.630  15.046  0.1825  0.0344  0.2271
 8549SOL    HW137280   2.379   3.656  15.137  0.8460 -1.2318  0.4880
 8549SOL    HW237281   2.277   3.663  15.026  0.3693  0.5443  0.2506
 8550SOL     OW37282   2.384   1.708  16.153 -0.6143  0.3690  0.0624
 8550SOL    HW137283   2.444   1.649  16.106 -1.0260 -2.2659  2.8198
 8550SOL    HW237284   2.299   1.663  16.149 -0.6724  0.4062  0.9451
 8551SOL     OW37285   3.398   4.507  10.222 -0.0425 -0.8025 -0.0197
 8551SOL    HW137286   3.491   4.519  10.244 -0.1410 -2.6858  1.5146
 8551SOL    HW237287   3.396   4.424  10.175 -0.8934 -0.8825  0.1656
 8552SOL     OW37288   2.291   0.428   5.289 -0.3366 -0.0029 -0.4010
 8552SOL    HW137289   2.244   0.350   5.319 -0.6055  0.3710  0.1317
 8552SOL    HW237290   2.225   0.472   5.235  0.6660 -0.0229 -1.6577
 8553SOL     OW37291   3.170   4.722  16.546 -0.0575 -0.3866  0.2117
 8553SOL    HW137292   3.150   4.630  16.566  1.8019 -0.7791  0.2063
 8553SOL    HW237293   3.104   0.034  16.596 -1.7789 -2.7064  0.1862
 8554SOL     OW37294   2.950   2.156   0.406  0.2280  0.1386  0.3469
 8554SOL    HW137295   2.887   2.209   0.454  1.2462  0.6242  1.1348
 8554SOL    HW237296   2.943   2.072   0.452  0.5339 -0.0300  0.0914
 8555SOL     OW37297   4.723   0.415   9.191  0.0681  0.1982 -0.1837
 8555SOL    HW137298   4.695   0.327   9.165  0.9389  0.4936 -2.1128
 8555SOL    HW237299   0.036   0.437   9.111  2.5367  1.1117  1.5664
 8556SOL     OW37300   1.599   3.757  11.584  0.4755  0.2569 -0.3985
 8556SOL    HW137301   1.674   3.701  11.605  1.4389  2.3055  1.6623
 8556SOL    HW237302   1.639   3.802  11.510 -1.3339 -0.1474 -1.6144
 8557SOL     OW37303   2.687   2.520   3.173 -1.0960  0.1564 -0.3184
 8557SOL    HW137304   2.649   2.561   3.250 -0.7920 -1.7605  0.8518
 8557SOL    HW237305   2.625   2.448   3.164  1.2334 -2.3018  3.7262
 8558SOL     OW37306   0.188   0.628   6.504 -0.2373 -0.4150  0.7410
 8558SOL    HW137307   0.223   0.716   6.516 -2.9437  0.7926 -0.1273
 8558SOL    HW237308   0.226   0.577   6.575  1.6908  0.9557  0.6811
 8559SOL     OW37309   1.407   2.969   6.160 -0.5222 -0.5372  0.2878
 8559SOL    HW137310   1.351   2.903   6.118  0.2010 -0.0620 -1.4326
 8559SOL    HW237311   1.359   3.050   6.174  1.0328  0.2992  0.6675
 8560SOL     OW37312   2.045   2.084   1.907 -0.5226  0.5678  0.2131
 8560SOL    HW137313   2.002   2.165   1.880 -0.1456  0.6331 -0.1886
 8560SOL    HW237314   1.977   2.021   1.884 -1.2425  1.2179  0.5733
 8561SOL     OW37315   0.141   0.142   0.791 -0.2261  0.6492  0.3705
 8561SOL    HW137316   0.100   0.106   0.712  0.1133 -1.5688  1.2276
 8561SOL    HW237317   0.072   0.198   0.827 -0.9722 -0.6663  0.9570
 8562SOL     OW37318   3.454   0.566   8.953 -0.1257 -0.4409  0.4047
 8562SOL    HW137319   3.439   0.481   8.993 -0.0328 -0.7411 -0.2021
 8562SOL    HW237320   3.404   0.621   9.014  2.8299  1.8020  0.8074
 8563SOL     OW37321   4.330   1.493   4.536 -0.3423  0.2958 -0.2944
 8563SOL    HW137322   4.413   1.483   4.490  0.1030  2.9315 -0.0799
 8563SOL    HW237323   4.314   1.587   4.546  0.1570  0.0331  3.0063
 8564SOL     OW37324   0.620   2.675   7.362  0.0150  0.4653  0.2316
 8564SOL    HW137325   0.580   2.762   7.356  0.5353  0.6598 -0.4455
 8564SOL    HW237326   0.554   2.615   7.397  0.2918  0.2939  0.4554
 8565SOL     OW37327   2.222   1.718   8.040 -0.0536  0.1710 -0.8183
 8565SOL    HW137328   2.242   1.783   7.972 -1.4469  0.5759 -0.8472
 8565SOL    HW237329   2.249   1.769   8.117 -0.6080 -2.7471  1.3188
 8566SOL     OW37330   0.371   2.765   8.188 -0.3968 -0.2190 -0.1162
 8566SOL    HW137331   0.300   2.702   8.173 -1.2224  0.6475  0.1975
 8566SOL    HW237332   0.353   2.774   8.281 -0.2648 -1.1631  0.0025
 8567SOL     OW37333   1.588   4.539   3.250 -0.1051 -0.7827 -0.1913
 8567SOL    HW137334   1.612   4.481   3.178  1.8405  1.6399 -1.5003
 8567SOL    HW237335   1.510   4.581   3.212  0.3769 -0.0922 -0.4088
 8568SOL     OW37336   0.857   4.667   7.918  0.6871 -0.2597 -0.0723
 8568SOL    HW137337   0.839   0.023   7.898 -0.8546 -0.6016 -0.1774
 8568SOL    HW237338   0.935   4.672   7.974 -0.7791 -0.5331  1.9824
 8569SOL     OW37339   0.863   3.218   8.950  0.3852 -0.0587  0.4622
 8569SOL    HW137340   0.881   3.125   8.959  0.5458 -0.0022  0.7228
 8569SOL    HW237341   0.931   3.252   8.892  1.9973  0.1791  2.4804
 8570SOL     OW37342   4.461   2.204  15.985  0.3723 -0.3580  0.0314
 8570SOL    HW137343   4.446   2.166  15.899 -2.5062 -0.4133  0.5747
 8570SOL    HW237344   4.406   2.282  15.989 -0.3669 -0.9891  2.1546
 8571SOL     OW37345   0.801   2.819  14.069  0.3678  0.3726 -0.1624
 8571SOL    HW137346   0.852   2.898  14.085 -0.2407  0.5252  1.0386
 8571SOL    HW237347   0.720   2.859  14.100 -0.0676 -0.9091  0.3871
 8572SOL     OW37348   0.403   1.053   3.019  0.2123 -0.3622  0.2696
 8572SOL    HW137349   0.348   1.021   3.091  1.6655 -0.2997  1.4178
 8572SOL    HW237350   0.357   1.012   2.946  0.2668  0.8148 -0.4220
 8573SOL     OW37351   4.726   3.237   3.252 -0.3254 -0.2341  0.1614
 8573SOL    HW137352   0.024   3.153   3.283  0.4616 -0.0273 -0.1295
 8573SOL    HW237353   0.074   3.255   3.209 -0.6655 -2.0230 -1.2965
 8574SOL     OW37354   2.740   4.703   3.277  0.0320  0.0676  0.1913
 8574SOL    HW137355   2.743   4.704   3.181  0.1791  1.4562  0.2054
 8574SOL    HW237356   2.651   4.672   3.288 -0.1203  1.0065  1.5886
 8575SOL     OW37357   2.473   1.255   3.681 -0.0587  0.2242 -0.5654
 8575SOL    HW137358   2.462   1.273   3.774 -2.4466 -1.1716 -0.5938
 8575SOL    HW237359   2.390   1.284   3.645 -0.9043 -0.1345  1.0653
 8576SOL     OW37360   3.538   2.777   6.577  0.1664 -0.0158  0.3341
 8576SOL    HW137361   3.629   2.789   6.551  0.5192 -0.1991  1.4752
 8576SOL    HW237362   3.525   2.683   6.568 -0.1122 -0.0704  1.2636
 8577SOL     OW37363   2.085   2.441   8.624 -0.4456 -0.0869  0.1558
 8577SOL    HW137364   2.121   2.530   8.628 -2.5591  0.8192 -0.7878
 8577SOL    HW237365   1.992   2.465   8.626 -0.8757 -1.5990 -1.8743
 8578SOL     OW37366   3.532   2.385   4.677 -0.0643  0.3191 -0.2128
 8578SOL    HW137367   3.530   2.302   4.724 -1.7838  0.5077  0.0474
 8578SOL    HW237368   3.438   2.401   4.668 -0.0735  0.4777  0.1873
 8579SOL     OW37369   4.239   0.753   7.463 -0.3138  0.0422 -0.1870
 8579SOL    HW137370   4.159   0.701   7.473  0.1299 -0.5454  0.3249
 8579SOL    HW237371   4.231   0.795   7.378  1.5988  0.7169 -0.0321
 8580SOL     OW37372   2.698   3.076   7.772 -0.4861 -0.1967 -0.1233
 8580SOL    HW137373   2.727   2.996   7.817  0.4372  0.0843 -0.2177
 8580SOL    HW237374   2.677   3.128   7.850 -0.5071 -1.6044  0.8235
 8581SOL     OW37375   0.007   4.065   3.049 -0.1586 -0.0093 -0.6647
 8581SOL    HW137376   4.718   4.154   3.025 -2.1192  0.0831  1.6477
 8581SOL    HW237377   0.012   4.027   2.961  2.2041  2.4189 -1.5712
 8582SOL     OW37378   3.688   4.047   8.278 -0.0567 -0.2207  0.5441
 8582SOL    HW137379   3.774   4.069   8.242 -1.0091  1.3441 -0.7576
 8582SOL    HW237380   3.693   3.953   8.260  1.7458 -0.1605  0.6998
 8583SOL     OW37381   0.639   3.664   8.620 -0.1142 -0.0896 -0.2745
 8583SOL    HW137382   0.612   3.575   8.597 -0.6809  0.2809 -1.0363
 8583SOL    HW237383   0.604   3.713   8.546 -2.2967  0.7914  1.3299
 8584SOL     OW37384   2.166   0.729   1.029  0.2743  0.1627 -0.2896
 8584SOL    HW137385   2.127   0.731   1.117 -1.5644 -0.1042 -1.0982
 8584SOL    HW237386   2.113   0.661   0.987 -1.0934 -0.5056  2.5245
 8585SOL     OW37387   0.226   1.879   1.680  0.3509  0.5870  0.4572
 8585SOL    HW137388   0.271   1.808   1.726  1.0386 -0.5034 -1.9085
 8585SOL    HW237389   0.134   1.851   1.676  0.6608 -0.1921 -1.2048
 8586SOL     OW37390   2.558   2.380   5.937  0.1485 -0.2156 -0.3209
 8586SOL    HW137391   2.473   2.421   5.953  0.4178 -0.2257  1.1281
 8586SOL    HW237392   2.528   2.289   5.948 -0.2481  0.0031  0.4025
 8587SOL     OW37393   0.862   2.073   5.075 -0.6114 -0.6776 -0.4104
 8587SOL    HW137394   0.836   2.093   5.165  0.0900  2.5159 -0.9332
 8587SOL    HW237395   0.955   2.076   5.098 -0.0837 -1.5170 -2.4114
 8588SOL     OW37396   2.072   0.480  14.380  0.3140  0.5633  0.0530
 8588SOL    HW137397   2.018   0.530  14.320 -0.9564 -0.6654  0.1799
 8588SOL    HW237398   2.097   0.401  14.331  0.9668  0.0252  1.2534
 8589SOL     OW37399   2.466   1.245   7.250  0.6229  0.1339  0.1375
 8589SOL    HW137400   2.383   1.292   7.259  0.4947  0.3325 -2.1625
 8589SOL    HW237401   2.444   1.159   7.212 -1.5378  1.1184 -0.8191
 8590SOL     OW37402   3.353   1.247  11.581  0.7094 -0.2792 -0.1146
 8590SOL    HW137403   3.376   1.199  11.502  0.8119 -1.7416  0.7856
 8590SOL    HW237404   3.390   1.185  11.644 -1.4247 -0.5386  0.8901
 8591SOL     OW37405   2.078   3.263   4.273 -0.5833 -0.3079  0.1663
 8591SOL    HW137406   2.083   3.227   4.361  2.4031 -0.4695 -0.0590
 8591SOL    HW237407   2.169   3.255   4.244 -0.8164  0.3999 -0.7668
 8592SOL     OW37408   3.407   4.636  16.378  0.6194  0.0377  0.6698
 8592SOL    HW137409   3.360   4.554  16.396  1.2193  0.2012  2.9483
 8592SOL    HW237410   3.470   4.598  16.317 -0.3324  0.0938 -0.3436
 8593SOL     OW37411   1.252   1.636   2.781 -0.1998 -0.1477  0.5146
 8593SOL    HW137412   1.320   1.601   2.840  0.4088 -0.3862 -0.3382
 8593SOL    HW237413   1.301   1.626   2.700 -1.0493 -1.3476  0.1572
 8594SOL     OW37414   0.282   0.658   6.877  0.5781 -0.2178  0.1853
 8594SOL    HW137415   0.281   0.600   6.953 -0.7064 -0.1124  0.2486
 8594SOL    HW237416   0.319   0.593   6.816  2.0540  1.2147 -0.4466
 8595SOL     OW37417   1.061   4.696   8.100 -0.0763  0.4233  0.0978
 8595SOL    HW137418   1.036   4.636   8.170  1.0149  0.6964  0.7236
 8595SOL    HW237419   1.140   0.001   8.137 -0.2842  0.4507  0.5053
 8596SOL     OW37420   3.083   2.695   8.826 -0.1172 -0.3652  0.2417
 8596SOL    HW137421   3.145   2.622   8.821  0.1781 -0.0577 -0.5060
 8596SOL    HW237422   3.021   2.640   8.875  0.6215 -1.6836 -0.3096
 8597SOL     OW37423   1.427   0.427  10.785 -0.1643  0.3635  0.1809
 8597SOL    HW137424   1.472   0.356  10.739  0.8215  0.5422  0.8626
 8597SOL    HW237425   1.500   0.477  10.821  0.5040  1.4384 -2.6628
 8598SOL     OW37426   2.800   4.284  17.015  0.0963  0.1575 -0.2861
 8598SOL    HW137427   2.708   4.258  17.016  0.6790 -1.8785  0.9556
 8598SOL    HW237428   2.822   4.245  16.930  1.5021 -0.3938  0.3290
 8599SOL     OW37429   0.148   2.317  17.148 -0.1235 -0.1245 -0.0602
 8599SOL    HW137430   0.115   2.379  17.212 -1.3585  0.8108 -1.6048
 8599SOL    HW237431   0.230   2.280  17.183  0.5314  0.1540 -1.3096
 8600SOL     OW37432   0.992   1.592   6.280 -0.0490 -0.4472 -0.1396
 8600SOL    HW137433   0.983   1.680   6.243 -0.9652 -0.5240 -0.1086
 8600SOL    HW237434   1.041   1.616   6.359 -0.6342  0.6657 -0.1049
 8601SOL     OW37435   2.460   1.385   1.543 -0.0580  0.2454  0.2912
 8601SOL    HW137436   2.394   1.346   1.486  0.2265  0.3418 -0.0995
 8601SOL    HW237437   2.538   1.364   1.492  0.3205 -1.9970  1.7669
 8602SOL     OW37438   1.298   4.564  16.670  1.6875 -0.0268 -0.1317
 8602SOL    HW137439   1.222   4.596  16.719  2.5466 -1.9726  2.4659
 8602SOL    HW237440   1.337   4.500  16.729  0.2177  2.5264  3.6837
 8603SOL     OW37441   2.714   4.080   7.680 -0.0768 -0.1925  0.0235
 8603SOL    HW137442   2.802   4.064   7.647 -0.2466  0.8079 -0.9314
 8603SOL    HW237443   2.685   4.134   7.606 -1.2446  0.5867  1.0560
 8604SOL     OW37444   4.364   4.402   2.529  0.6244 -0.3946  0.7651
 8604SOL    HW137445   4.317   4.427   2.608  2.8580  1.3781  1.5251
 8604SOL    HW237446   4.372   4.487   2.486 -0.2395 -0.2806  0.8239
 8605SOL     OW37447   3.608   4.438   5.190 -0.0524 -0.6420 -0.3135
 8605SOL    HW137448   3.645   4.354   5.215 -0.2015 -1.0983 -1.5837
 8605SOL    HW237449   3.547   4.451   5.262  1.2969  1.5259  0.4368
 8606SOL     OW37450   4.039   4.343  10.785  0.0380  0.1485  0.2642
 8606SOL    HW137451   4.014   4.257  10.751 -0.7784  0.4512  0.0973
 8606SOL    HW237452   3.990   4.337  10.867 -1.4158 -0.6535 -0.6697
 8607SOL     OW37453   1.389   3.932   9.771  0.8196  0.2076 -0.0148
 8607SOL    HW137454   1.374   3.951   9.679  1.1731  0.1236 -0.0907
 8607SOL    HW237455   1.459   3.992   9.796  1.6945 -0.2686 -1.3246
 8608SOL     OW37456   3.455   1.497   0.138  0.0892  0.3457 -0.4548
 8608SOL    HW137457   3.376   1.550   0.153 -1.2041 -1.8732  0.4939
 8608SOL    HW237458   3.446   1.492   0.042 -0.0407 -1.0249 -0.3623
 8609SOL     OW37459   2.748   1.971   9.997 -0.6475  0.2328 -0.1873
 8609SOL    HW137460   2.745   1.953   9.903  1.4064  1.7913 -0.5398
 8609SOL    HW237461   2.751   2.066   9.991  3.0027  0.1944  1.1786
 8610SOL     OW37462   1.586   2.610  15.173 -0.1021  0.0978  0.2295
 8610SOL    HW137463   1.661   2.563  15.138  0.7338  1.8904 -0.3526
 8610SOL    HW237464   1.600   2.697  15.137 -0.9018  0.4574  0.7788
 8611SOL     OW37465   0.209   0.398   5.316  0.4141  0.6269  0.1276
 8611SOL    HW137466   0.265   0.340   5.264  2.7580  0.3572  2.9320
 8611SOL    HW237467   0.239   0.481   5.280 -0.2572  0.5358 -0.6528
 8612SOL     OW37468   2.196   0.103  15.488 -0.3382 -0.3098  1.3324
 8612SOL    HW137469   2.202   0.154  15.407  0.0164 -1.4055  0.6646
 8612SOL    HW237470   2.271   0.138  15.537 -2.0628  0.3144  3.5250
 8613SOL     OW37471   2.582   3.612   0.168  0.0401 -0.7509 -0.0389
 8613SOL    HW137472   2.616   3.595   0.080  0.1557  1.1641 -0.3609
 8613SOL    HW237473   2.588   3.707   0.180  3.2144 -1.1787  1.7615
 8614SOL     OW37474   3.093   0.726   6.319 -0.3758 -0.4654 -0.3364
 8614SOL    HW137475   3.001   0.704   6.306 -0.4650  0.6193 -1.5341
 8614SOL    HW237476   3.115   0.782   6.245 -0.4292  0.5437  0.4169
 8615SOL     OW37477   2.619   1.246   6.371  0.2414 -0.0610 -0.0820
 8615SOL    HW137478   2.526   1.236   6.352  0.1444 -2.5646  1.6999
 8615SOL    HW237479   2.632   1.326   6.423 -0.4644  1.1533 -1.7822
 8616SOL     OW37480   3.144   1.087  12.460 -0.0953  0.8650 -0.0694
 8616SOL    HW137481   3.238   1.101  12.459  0.0219  0.2672  2.0664
 8616SOL    HW237482   3.152   1.027  12.534 -1.2983  0.3829 -0.3315
 8617SOL     OW37483   0.317   0.579  10.977 -0.2220  0.2705 -0.3718
 8617SOL    HW137484   0.225   0.607  10.981 -0.4149 -0.3906 -0.1918
 8617SOL    HW237485   0.314   0.492  10.938  0.1036  0.2160 -0.2805
 8618SOL     OW37486   1.673   4.068  11.874 -0.1484 -0.4277  0.2812
 8618SOL    HW137487   1.626   4.118  11.808  0.5978  1.5987  1.2732
 8618SOL    HW237488   1.627   3.984  11.872  0.1831 -0.5745 -1.2297
 8619SOL     OW37489   3.456   4.505   2.571  0.7492 -0.0058  0.3679
 8619SOL    HW137490   3.376   4.557   2.568  1.1879  0.6972  0.9156
 8619SOL    HW237491   3.446   4.467   2.659 -1.0305  0.9528  0.5751
 8620SOL     OW37492   1.010   0.044   7.499  0.0899  0.0100 -0.1821
 8620SOL    HW137493   0.942   0.052   7.431 -1.3379 -0.9865  1.1337
 8620SOL    HW237494   0.999   4.688   7.525  1.9654  0.1566  1.1029
 8621SOL     OW37495   0.613   0.052  11.904 -0.4433 -0.3678  0.0994
 8621SOL    HW137496   0.546   4.727  11.938  0.5473 -1.2621  0.4408
 8621SOL    HW237497   0.636   0.104  11.981  1.5365 -1.4032  0.1862
 8622SOL     OW37498   0.692   3.229   3.319 -0.0266  0.5553 -0.1966
 8622SOL    HW137499   0.752   3.166   3.279  0.0627 -0.9171  2.2338
 8622SOL    HW237500   0.740   3.237   3.402 -0.2831  0.5935 -0.0496
 8623SOL     OW37501   0.022   2.165   3.403 -0.0268  0.1923 -0.3241
 8623SOL    HW137502   4.708   2.101   3.456  2.4010 -1.4756 -0.0764
 8623SOL    HW237503   4.702   2.242   3.417  0.1764  0.0763  1.1679
 8624SOL     OW37504   0.426   1.645   4.983 -0.2818  0.8442 -0.0999
 8624SOL    HW137505   0.400   1.715   4.923  1.0298  0.2902 -1.3100
 8624SOL    HW237506   0.375   1.570   4.952  1.2944 -0.5567  0.7235
 8625SOL     OW37507   4.150   1.911   3.804 -0.7999 -0.1658 -0.2702
 8625SOL    HW137508   4.183   1.952   3.724 -0.1766 -1.1212 -0.4941
 8625SOL    HW237509   4.055   1.916   3.794 -1.0084 -0.6270  1.5113
 8626SOL     OW37510   1.481   0.962  17.142  0.0900  0.4545  0.4422
 8626SOL    HW137511   1.565   0.958  17.186  0.0446 -0.8022  0.4035
 8626SOL    HW237512   1.514   0.931  17.058  2.1115  2.5805  0.4482
 8627SOL     OW37513   1.065   0.106   9.133 -0.1783 -0.1596 -0.2188
 8627SOL    HW137514   1.077   0.191   9.090  1.2772 -1.7384 -2.9532
 8627SOL    HW237515   1.075   0.128   9.226 -1.2251 -1.5468  0.2158
 8628SOL     OW37516   4.348   4.479   3.479 -0.5133 -0.0182  0.0350
 8628SOL    HW137517   4.322   4.414   3.415  0.2617 -1.9722  1.7118
 8628SOL    HW237518   4.435   4.494   3.445  1.3029  0.0980  4.7007
 8629SOL     OW37519   1.990   0.513   5.665 -0.4260 -0.1599 -0.7712
 8629SOL    HW137520   2.013   0.428   5.629  0.8376 -0.0137 -0.3047
 8629SOL    HW237521   1.922   0.484   5.725  1.6551 -0.9168  1.2243
 8630SOL     OW37522   2.383   4.408   7.117  0.0816  0.3210 -0.1881
 8630SOL    HW137523   2.477   4.413   7.097  0.0888 -0.9641 -0.4551
 8630SOL    HW237524   2.382   4.329   7.170 -0.5750  1.0226  0.8398
 8631SOL     OW37525   4.722   4.574  14.116  0.3214 -0.2217 -0.3390
 8631SOL    HW137526   0.063   4.629  14.098 -0.7898  1.0131 -1.2901
 8631SOL    HW237527   4.724   4.521  14.037  1.7199 -0.8202  0.0907
 8632SOL     OW37528   1.165   1.350   4.850 -0.3724 -0.2597 -0.1605
 8632SOL    HW137529   1.116   1.287   4.797 -0.9658  0.5761 -0.6202
 8632SOL    HW237530   1.226   1.288   4.888 -0.9305 -1.1295 -0.6797
 8633SOL     OW37531   3.935   4.107   7.010  0.3413  0.5530 -0.2839
 8633SOL    HW137532   4.000   4.177   7.017 -0.8308  1.7379 -1.2477
 8633SOL    HW237533   3.885   4.116   7.091  2.0713  0.4460  0.8005
 8634SOL     OW37534   3.462   2.016   0.634 -0.3331  0.2097  0.3733
 8634SOL    HW137535   3.493   2.027   0.544  1.9175 -1.5093  0.9126
 8634SOL    HW237536   3.534   1.966   0.673  0.3967 -0.5367 -1.8886
 8635SOL     OW37537   1.077   0.389   7.408 -0.3082 -0.0943 -0.3004
 8635SOL    HW137538   1.033   0.403   7.324  2.0057 -0.4445 -1.5425
 8635SOL    HW237539   1.015   0.427   7.471  1.6829 -0.7540  2.0370
 8636SOL     OW37540   4.081   0.159   8.416 -0.2881 -0.1405  0.0381
 8636SOL    HW137541   4.144   0.138   8.485 -0.4186 -0.9057 -0.0766
 8636SOL    HW237542   4.105   0.252   8.412  2.7538 -0.9187 -0.1049
 8637SOL     OW37543   0.219   4.036   5.169 -0.3959  0.1645 -0.2384
 8637SOL    HW137544   0.309   4.055   5.196 -0.3737 -0.8967  0.4474
 8637SOL    HW237545   0.232   3.941   5.166 -3.4141 -0.3468  3.3148
 8638SOL     OW37546   4.615   1.531   2.637 -0.1494  0.2071 -0.5352
 8638SOL    HW137547   4.597   1.439   2.616  0.1490 -0.1729  0.8953
 8638SOL    HW237548   4.588   1.579   2.558 -0.7787 -0.6379 -0.8320
 8639SOL     OW37549   2.348   1.391   5.835  0.1077 -0.4993  0.1050
 8639SOL    HW137550   2.359   1.463   5.772  0.8879  1.2654  2.2774
 8639SOL    HW237551   2.387   1.424   5.915  0.0317 -0.0207 -0.0520
 8640SOL     OW37552   2.800   0.829   3.221  0.2006 -0.3878  0.6189
 8640SOL    HW137553   2.831   0.846   3.132 -2.0200 -2.0649 -0.4695
 8640SOL    HW237554   2.856   0.880   3.279  1.4405  1.0364 -1.8196
 8641SOL     OW37555   4.389   3.014   6.790  0.2361 -0.4338 -0.4821
 8641SOL    HW137556   4.354   3.022   6.879  1.8644  1.0971  0.0265
 8641SOL    HW237557   4.356   3.090   6.743  1.2868  1.6707  2.1556
 8642SOL     OW37558   2.684   1.025   8.995  0.3127  0.3590 -0.0063
 8642SOL    HW137559   2.631   0.957   9.036  1.5208 -0.1626  0.6959
 8642SOL    HW237560   2.737   0.979   8.929 -0.3510 -0.3861 -0.0221
 8643SOL     OW37561   2.883   0.097   6.864  0.1975  0.0328  0.1709
 8643SOL    HW137562   2.877   0.171   6.803  1.4381  0.5312  0.6687
 8643SOL    HW237563   2.855   0.136   6.947 -0.4012  0.7781 -0.3821
 8644SOL     OW37564   3.379   4.077  15.424 -0.4071 -0.3291  0.6246
 8644SOL    HW137565   3.371   3.982  15.423 -0.3910 -0.3181 -0.6887
 8644SOL    HW237566   3.474   4.086  15.431 -0.7057  3.3818 -0.0530
 8645SOL     OW37567   1.996   3.112   3.814  0.3598  0.7217  0.2151
 8645SOL    HW137568   2.067   3.115   3.750  1.2499 -0.6963  1.1385
 8645SOL    HW237569   1.964   3.022   3.814  0.7408  0.5853 -0.9152
 8646SOL     OW37570   1.282   3.779   3.762 -0.7112  0.1879 -0.3976
 8646SOL    HW137571   1.278   3.695   3.717 -0.7507 -0.8810  1.5826
 8646SOL    HW237572   1.217   3.761   3.830 -0.8896  0.6001 -0.4560
 8647SOL     OW37573   0.548   3.922   2.208  0.2540  0.3957  0.3107
 8647SOL    HW137574   0.607   3.974   2.262  1.5322 -0.2791 -0.4213
 8647SOL    HW237575   0.608   3.896   2.138 -0.1791  0.4827 -0.0953
 8648SOL     OW37576   0.400   4.372  13.291  0.0599 -0.2514  0.3450
 8648SOL    HW137577   0.388   4.301  13.355 -0.2508  0.3481  0.9522
 8648SOL    HW237578   0.423   4.329  13.209 -3.1219 -1.0136 -0.1428
 8649SOL     OW37579   4.010   1.538   7.160 -0.5299  0.0933  0.0473
 8649SOL    HW137580   3.980   1.621   7.122  0.8995  0.5459 -0.0677
 8649SOL    HW237581   3.954   1.542   7.238 -0.4756 -2.4558  0.2182
 8650SOL     OW37582   1.837   2.628   4.133 -0.1994  0.0573 -0.4869
 8650SOL    HW137583   1.803   2.642   4.045 -0.0726  0.1155 -0.5265
 8650SOL    HW237584   1.799   2.548   4.170 -0.9307  1.0782  0.9529
 8651SOL     OW37585   4.563   0.855   7.412 -0.2327 -0.3076  0.7233
 8651SOL    HW137586   4.590   0.802   7.337 -0.2096 -0.3565  0.7662
 8651SOL    HW237587   4.505   0.791   7.453  0.1984 -0.6649  0.7736
 8652SOL     OW37588   3.683   1.941   7.570 -0.5168 -0.9406 -0.4370
 8652SOL    HW137589   3.661   1.977   7.656 -1.3067  1.3319 -1.5689
 8652SOL    HW237590   3.624   1.867   7.583 -1.9462  0.1141 -0.8530
 8653SOL     OW37591   2.167   1.646  15.471  0.0932 -0.0378  0.0264
 8653SOL    HW137592   2.206   1.587  15.407  0.2337 -1.7145  1.6858
 8653SOL    HW237593   2.228   1.720  15.471  1.2998 -1.0458  1.8908
 8654SOL     OW37594   4.270   0.918   7.246 -0.2971 -0.4370 -0.0394
 8654SOL    HW137595   4.191   0.869   7.225 -0.8700 -0.0581  1.2109
 8654SOL    HW237596   4.246   1.011   7.241 -2.1784 -1.0166 -1.7221
 8655SOL     OW37597   3.714   3.603   5.336 -0.4486 -0.1983  0.1649
 8655SOL    HW137598   3.787   3.658   5.308  1.0159 -1.6091  1.3056
 8655SOL    HW237599   3.640   3.650   5.296 -1.3197 -0.2727  1.7094
 8656SOL     OW37600   3.046   4.391   4.116 -0.3854 -0.4530 -0.0191
 8656SOL    HW137601   3.023   4.477   4.080 -2.6920 -2.8123 -4.2333
 8656SOL    HW237602   3.036   4.339   4.036 -1.8451 -0.5141  0.2080
 8657SOL     OW37603   1.121   1.049  11.709 -0.3800 -0.4291  0.1162
 8657SOL    HW137604   1.147   0.984  11.774  0.6911  0.8671  0.9868
 8657SOL    HW237605   1.109   0.989  11.636 -0.5078 -0.9852  0.5953
 8658SOL     OW37606   3.234   0.998   7.628 -0.7619 -0.0759  0.1439
 8658SOL    HW137607   3.210   1.088   7.647  0.8360  0.3900  0.0039
 8658SOL    HW237608   3.255   0.962   7.715  0.5643 -1.2795 -0.6754
 8659SOL     OW37609   0.770   0.569   3.707  0.8698  0.6607  0.0345
 8659SOL    HW137610   0.833   0.548   3.638  1.7575 -1.2299  1.3913
 8659SOL    HW237611   0.690   0.594   3.661  1.4053  1.3373 -0.5157
 8660SOL     OW37612   4.630   2.923   8.286  0.5816  0.1754 -0.1455
 8660SOL    HW137613   4.597   2.996   8.233 -0.3551  0.4773  0.8685
 8660SOL    HW237614   4.706   2.888   8.238 -0.0997  1.0509 -1.8783
 8661SOL     OW37615   3.269   3.796   3.523  0.7559  0.1353 -1.0603
 8661SOL    HW137616   3.300   3.793   3.614  2.1736  1.7017 -1.4828
 8661SOL    HW237617   3.223   3.880   3.524  0.8009  0.1130  2.5471
 8662SOL     OW37618   4.344   1.523   9.724 -0.2901  0.4544 -0.2560
 8662SOL    HW137619   4.287   1.450   9.749 -0.4017  0.6198 -0.0324
 8662SOL    HW237620   4.339   1.586   9.795  0.9280  1.4266 -1.0183
 8663SOL     OW37621   3.989   2.792   2.002 -0.6269  0.0048  0.7039
 8663SOL    HW137622   3.972   2.793   1.908 -0.2278 -1.2709  0.6102
 8663SOL    HW237623   4.081   2.820   2.002 -0.7381  0.3251 -2.3241
 8664SOL     OW37624   1.930   1.929   8.179  0.2977 -0.4677 -0.2681
 8664SOL    HW137625   2.021   1.900   8.169  1.7817  3.7142  0.8909
 8664SOL    HW237626   1.897   1.860   8.236 -0.7629  1.4167  1.4111
 8665SOL     OW37627   3.266   2.480   8.410 -1.0101  0.3461  0.6001
 8665SOL    HW137628   3.186   2.521   8.445 -0.8850  1.8957 -0.8777
 8665SOL    HW237629   3.247   2.462   8.318  0.1474  0.2420  0.3829
 8666SOL     OW37630   2.082   0.381   2.183  0.1189  0.2177  0.1751
 8666SOL    HW137631   2.027   0.452   2.150  0.8374 -0.4473 -2.5003
 8666SOL    HW237632   2.054   0.307   2.129 -0.5114 -1.0309  2.2141
 8667SOL     OW37633   3.366   0.782   9.088 -0.4695 -0.8683  0.2413
 8667SOL    HW137634   3.446   0.834   9.092 -1.6991  0.9065  1.6728
 8667SOL    HW237635   3.300   0.849   9.073  0.3421  0.5016  2.8271
 8668SOL     OW37636   4.127   4.599  10.751  0.5698 -0.0209  0.7016
 8668SOL    HW137637   4.176   4.567  10.675 -2.8798 -0.5181 -1.2721
 8668SOL    HW237638   4.088   4.516  10.778  0.4393 -0.4692 -0.8709
 8669SOL     OW37639   3.998   2.682  17.600  0.2818  0.2616  0.7024
 8669SOL    HW137640   4.062   2.615  17.576  1.1651  1.3333  0.0534
 8669SOL    HW237641   3.999   2.722  17.513 -2.0098 -2.0327 -0.3445
 8670SOL     OW37642   0.121   4.701   6.871 -0.8420 -0.0068 -0.2520
 8670SOL    HW137643   0.062   4.723   6.799 -0.1944 -0.6141 -0.9656
 8670SOL    HW237644   0.174   4.634   6.829 -0.1256  1.5966 -1.8832
 8671SOL     OW37645   1.373   0.384  10.238 -0.1631 -0.0256 -0.1916
 8671SOL    HW137646   1.383   0.290  10.222  0.1359 -0.2046  1.1130
 8671SOL    HW237647   1.314   0.400  10.164 -2.6237 -1.1175  1.5238
 8672SOL     OW37648   2.076   4.463   4.944 -0.3809  0.0545  0.5592
 8672SOL    HW137649   2.165   4.428   4.936 -1.1981 -2.1758  1.1230
 8672SOL    HW237650   2.085   4.557   4.956 -0.0320  0.1183 -0.1836
 8673SOL     OW37651   1.651   1.252   6.744  0.1035  0.3925 -0.2479
 8673SOL    HW137652   1.613   1.216   6.824  0.3063 -0.0654 -0.3584
 8673SOL    HW237653   1.580   1.254   6.680  0.8123 -1.0501 -1.0832
 8674SOL     OW37654   2.731   1.119  16.430 -0.2378  0.3834  0.1542
 8674SOL    HW137655   2.754   1.049  16.491 -3.6316  0.7018  1.7788
 8674SOL    HW237656   2.752   1.185  16.495  0.8563  1.2218 -1.0620
 8675SOL     OW37657   3.604   4.128   0.649  0.1901 -0.3865 -0.7494
 8675SOL    HW137658   3.673   4.186   0.681  0.0996 -1.2400  1.0081
 8675SOL    HW237659   3.643   4.091   0.569 -0.8470 -3.4688  0.1576
 8676SOL     OW37660   4.359   3.891   2.270 -0.0586 -0.0956 -0.6806
 8676SOL    HW137661   4.315   3.948   2.207  1.0486  1.1242 -0.3610
 8676SOL    HW237662   4.396   3.957   2.329 -0.7006 -1.6670  1.4597
 8677SOL     OW37663   0.698   4.577   6.114 -0.6535 -0.0671 -0.5069
 8677SOL    HW137664   0.705   4.608   6.204 -3.0931 -1.6114  0.2385
 8677SOL    HW237665   0.783   4.606   6.082  0.4196  0.7761  3.0995
 8678SOL     OW37666   2.356   0.979   9.510 -0.7437  0.1757 -0.0752
 8678SOL    HW137667   2.347   1.067   9.471 -0.0827 -0.7861 -2.4231
 8678SOL    HW237668   2.287   0.925   9.470 -0.0288  0.5556 -1.8379
 8679SOL     OW37669   1.657   1.902   9.287  0.0730 -0.7250 -0.0506
 8679SOL    HW137670   1.682   1.951   9.208 -2.3401  1.5197  0.6034
 8679SOL    HW237671   1.739   1.853   9.296  0.1854 -0.4107  0.5883
 8680SOL     OW37672   3.259   3.520   3.480 -0.1821 -0.3240  0.4501
 8680SOL    HW137673   3.250   3.613   3.460  1.1341 -0.7258 -2.0039
 8680SOL    HW237674   3.188   3.517   3.544 -1.2060  0.5824 -0.6435
 8681SOL     OW37675   3.550   1.136  11.318  0.5095  0.2086  0.0234
 8681SOL    HW137676   3.523   1.152  11.227 -0.1814 -0.2615  0.1489
 8681SOL    HW237677   3.620   1.201  11.309  2.0121 -1.3491  0.4052
 8682SOL     OW37678   4.589   3.740   5.864 -0.1312  0.1240  0.2376
 8682SOL    HW137679   4.662   3.799   5.882 -1.0778  0.5457  2.5758
 8682SOL    HW237680   4.520   3.786   5.911 -0.4665 -2.3065  2.1147
 8683SOL     OW37681   4.724   3.208  10.894 -0.4265 -0.0548  0.4659
 8683SOL    HW137682   0.043   3.284  10.914 -0.1997 -0.2574  0.6221
 8683SOL    HW237683   4.681   3.239  10.814  2.9022 -2.2413 -2.1749
 8684SOL     OW37684   3.372   2.025   9.127 -0.5140 -0.0743 -0.3170
 8684SOL    HW137685   3.364   1.956   9.192 -0.7452 -0.4743 -0.7726
 8684SOL    HW237686   3.280   2.050   9.114 -1.1061 -2.8120 -1.2262
 8685SOL     OW37687   0.721   0.122   9.928 -0.2277 -0.1899 -0.8991
 8685SOL    HW137688   0.718   0.119   9.832 -2.9110 -3.9372 -0.6869
 8685SOL    HW237689   0.762   0.208   9.933 -2.2792  0.9226 -3.4994
 8686SOL     OW37690   1.445   0.237  16.005  0.2740  0.2069  0.3955
 8686SOL    HW137691   1.380   0.227  15.937 -0.9391 -0.9542  1.7338
 8686SOL    HW237692   1.444   0.150  16.044 -3.4705 -0.4113 -1.0978
 8687SOL     OW37693   4.003   3.524  15.640 -0.3735  0.1920 -0.0184
 8687SOL    HW137694   3.936   3.592  15.638 -0.7362 -0.1537  0.2921
 8687SOL    HW237695   4.014   3.497  15.549  1.0913  0.0123  0.2127
 8688SOL     OW37696   4.121   0.737   8.622 -0.4212  0.1197 -0.6001
 8688SOL    HW137697   4.029   0.745   8.598 -0.3300 -0.6465 -1.1772
 8688SOL    HW237698   4.124   0.752   8.717  2.1515  1.7272 -0.9409
 8689SOL     OW37699   1.812   0.908  14.374  0.5077 -0.0891  0.1650
 8689SOL    HW137700   1.904   0.896  14.396  1.2177  1.7193 -1.8054
 8689SOL    HW237701   1.767   0.887  14.456 -1.9479  1.3415 -0.8280
 8690SOL     OW37702   2.704   0.911   2.393 -0.0222  0.5291  0.2819
 8690SOL    HW137703   2.719   0.922   2.487 -1.2500  0.6252  0.4618
 8690SOL    HW237704   2.610   0.913   2.409  0.0402 -4.0274  1.1274
 8691SOL     OW37705   3.875   3.092   3.937  0.1669 -0.4279 -0.2517
 8691SOL    HW137706   3.873   3.184   3.909  1.4535 -0.7824 -1.4896
 8691SOL    HW237707   3.849   3.097   4.029 -0.6116 -2.0627 -0.3945
 8692SOL     OW37708   0.779   3.500  12.475 -0.9232  0.3499  0.4319
 8692SOL    HW137709   0.818   3.538  12.554  0.3249  2.1959 -1.0676
 8692SOL    HW237710   0.814   3.556  12.405  0.0881  0.1979  0.8185
 8693SOL     OW37711   1.478   0.260   9.624  0.1719 -0.4384  0.1331
 8693SOL    HW137712   1.495   0.325   9.556  2.6338 -0.2455  0.9428
 8693SOL    HW237713   1.437   0.302   9.700 -0.4653  0.8791 -0.9276
 8694SOL     OW37714   1.413   2.128   9.131 -0.2802 -0.2016 -0.1250
 8694SOL    HW137715   1.466   2.143   9.209  0.8693  0.4208 -1.0172
 8694SOL    HW237716   1.375   2.216   9.122 -1.1992 -0.2762  3.2196
 8695SOL     OW37717   2.806   2.164   5.268 -0.2022 -0.9431 -0.0921
 8695SOL    HW137718   2.735   2.187   5.328  0.3607 -0.9418  0.5766
 8695SOL    HW237719   2.871   2.233   5.282 -0.5119 -0.4055 -1.3184
 8696SOL     OW37720   0.639   1.235  10.937 -0.3731  0.3319  0.3391
 8696SOL    HW137721   0.549   1.225  10.967 -0.3554 -2.6118 -0.5504
 8696SOL    HW237722   0.692   1.211  11.013 -2.0206  0.3775  1.4985
 8697SOL     OW37723   4.480   1.639   0.926 -0.4673 -0.0287  0.0008
 8697SOL    HW137724   4.418   1.589   0.873 -0.4371  2.2903 -2.2344
 8697SOL    HW237725   4.543   1.575   0.958  1.6580  1.7009 -0.7290
 8698SOL     OW37726   4.074   3.577   5.879  0.0958  0.2624 -0.0799
 8698SOL    HW137727   4.025   3.533   5.949 -1.0485 -0.0776 -1.1031
 8698SOL    HW237728   4.139   3.626   5.929 -1.9100  1.7682  1.0034
 8699SOL     OW37729   2.335   2.331   4.537  0.0188  0.1443 -0.0458
 8699SOL    HW137730   2.362   2.420   4.562 -0.1704  0.1757  0.0491
 8699SOL    HW237731   2.253   2.340   4.489  0.1937 -0.8167 -0.5198
 8700SOL     OW37732   0.093   4.057   7.993  0.4298 -0.1015  0.3252
 8700SOL    HW137733   0.114   4.011   7.911  0.2602 -1.2528  0.9279
 8700SOL    HW237734   4.733   4.061   7.985  0.5004 -1.0804 -1.1846
 8701SOL     OW37735   1.185   2.273   4.887  0.2137 -0.5012 -0.4387
 8701SOL    HW137736   1.243   2.349   4.889  0.6074 -0.7839 -1.1673
 8701SOL    HW237737   1.258   2.213   4.870  0.5977  0.0747 -0.8561
 8702SOL     OW37738   3.948   4.345   5.680  0.2452  0.0217  1.0449
 8702SOL    HW137739   3.932   4.337   5.774  0.9068  1.2764  1.2524
 8702SOL    HW237740   4.010   4.417   5.671 -0.3876  0.3985 -0.2626
 8703SOL     OW37741   0.861   0.654   5.930 -0.5390 -0.2201 -0.0217
 8703SOL    HW137742   0.876   0.736   5.976  0.4545 -0.6785  0.4900
 8703SOL    HW237743   0.933   0.607   5.972  0.8390  0.0033 -2.1424
 8704SOL     OW37744   3.635   4.103   8.954 -0.1032  0.3595 -0.1814
 8704SOL    HW137745   3.544   4.079   8.940  0.1989 -0.0933 -1.3098
 8704SOL    HW237746   3.651   4.144   8.869 -0.8202 -1.4214 -1.1713
 8705SOL     OW37747   2.430   1.706   7.576 -0.3408 -0.2594  0.0275
 8705SOL    HW137748   2.422   1.657   7.657  1.0525  2.2138  1.6629
 8705SOL    HW237749   2.427   1.795   7.611 -0.1658  0.4344 -1.6809
 8706SOL     OW37750   1.777   3.530   8.193  0.1066 -0.3031  0.1551
 8706SOL    HW137751   1.745   3.612   8.155  3.1977  0.4291 -0.8162
 8706SOL    HW237752   1.792   3.557   8.284 -0.8607  1.3648 -0.1849
 8707SOL     OW37753   0.765   0.722   5.238  0.2781 -0.0815 -0.3202
 8707SOL    HW137754   0.704   0.743   5.168  0.0736  4.4761  1.2264
 8707SOL    HW237755   0.708   0.725   5.316  0.7277  3.6055 -0.1163
 8708SOL     OW37756   2.430   3.405   5.736 -0.1112 -0.2541 -0.1554
 8708SOL    HW137757   2.410   3.357   5.656  3.1363  0.2479 -1.2648
 8708SOL    HW237758   2.373   3.355   5.795  0.0509 -0.0320  0.1914
 8709SOL     OW37759   0.299   3.021   5.277 -0.2605 -0.0779  0.2164
 8709SOL    HW137760   0.281   3.029   5.184 -1.9949  0.8506  0.6250
 8709SOL    HW237761   0.284   2.927   5.288 -2.6140 -0.1355 -3.5875
 8710SOL     OW37762   2.662   2.023  15.258  0.4757 -0.0059  0.6938
 8710SOL    HW137763   2.660   1.974  15.176  0.2223 -1.2104  1.4279
 8710SOL    HW237764   2.642   2.111  15.227  0.6063  0.1405  1.0261
 8711SOL     OW37765   2.224   3.074   0.718  0.3611 -0.2603  0.0030
 8711SOL    HW137766   2.139   3.085   0.760  0.1940 -0.8478 -0.1800
 8711SOL    HW237767   2.215   2.983   0.691  0.6848  0.1871 -1.6316
 8712SOL     OW37768   0.762   3.650   7.127 -0.5550 -0.7726 -0.2567
 8712SOL    HW137769   0.799   3.565   7.104 -0.7735 -1.3688  1.5874
 8712SOL    HW237770   0.711   3.665   7.047  0.7661  0.3682 -0.8865
 8713SOL     OW37771   2.631   2.482   5.270 -0.3944  0.0533 -0.3693
 8713SOL    HW137772   2.575   2.478   5.193 -0.6578 -2.2506 -0.0510
 8713SOL    HW237773   2.712   2.469   5.221 -1.0086 -1.6230 -0.9444
 8714SOL     OW37774   3.022   1.442   5.891  0.3674 -0.2840 -0.3289
 8714SOL    HW137775   3.097   1.382   5.890  1.1682  0.6997 -0.1696
 8714SOL    HW237776   2.952   1.378   5.887 -0.8926  1.1657 -1.5996
 8715SOL     OW37777   2.763   3.028  17.460  0.1162 -0.6636 -0.1287
 8715SOL    HW137778   2.763   3.035  17.365 -0.4247 -0.0713 -0.0833
 8715SOL    HW237779   2.833   3.091  17.480 -0.1706 -1.3978  3.2685
 8716SOL     OW37780   1.037   2.873   8.315  0.2323 -0.1372  0.4664
 8716SOL    HW137781   1.009   2.782   8.329  0.6747 -0.0798  1.7530
 8716SOL    HW237782   1.128   2.868   8.344  0.5128 -0.2111 -0.4178
 8717SOL     OW37783   2.043   4.019   8.665 -0.2638 -0.1831 -0.5310
 8717SOL    HW137784   1.972   4.077   8.637 -2.2467 -1.7955  1.1064
 8717SOL    HW237785   2.122   4.057   8.626 -0.7259  0.8415 -0.4746
 8718SOL     OW37786   2.108   0.656  10.037 -0.0031  0.0257 -0.5035
 8718SOL    HW137787   2.079   0.662   9.945 -0.1569 -1.6820 -0.5613
 8718SOL    HW237788   2.180   0.593  10.039  0.6964  0.7796 -1.6960
 8719SOL     OW37789   0.431   0.837   4.020  0.3171  0.0879  0.3707
 8719SOL    HW137790   0.387   0.891   3.954  0.5799 -0.1602 -0.0043
 8719SOL    HW237791   0.519   0.875   4.016 -0.3695  1.6916  0.2270
 8720SOL     OW37792   4.210   3.456   2.922 -0.0447 -0.0512  0.0043
 8720SOL    HW137793   4.211   3.400   3.000  1.1358  2.3226  1.7242
 8720SOL    HW237794   4.121   3.492   2.929 -0.1328 -0.8466  3.3781
 8721SOL     OW37795   1.413   2.711   3.563  0.1633 -0.6949 -0.3024
 8721SOL    HW137796   1.355   2.645   3.525 -1.7423  0.5717  0.4134
 8721SOL    HW237797   1.411   2.681   3.654 -0.3078 -1.0738 -0.4378
 8722SOL     OW37798   0.279   2.528   8.419 -0.0456 -0.3932 -0.3383
 8722SOL    HW137799   0.266   2.621   8.398  0.0993 -0.3151 -0.0890
 8722SOL    HW237800   0.239   2.497   8.337 -0.5238  0.4465 -0.4284
 8723SOL     OW37801   4.733   3.380  13.029 -0.4546  0.0783 -0.0262
 8723SOL    HW137802   0.021   3.305  13.085 -0.8749  0.3487  0.5179
 8723SOL    HW237803   0.070   3.366  12.968  0.0088  0.7721  0.3671
 8724SOL     OW37804   3.483   3.644   3.987  0.6603  0.2962 -0.6639
 8724SOL    HW137805   3.489   3.675   4.078 -0.4445 -0.3073 -0.3822
 8724SOL    HW237806   3.576   3.647   3.965  1.1408  0.1343  1.3425
 8725SOL     OW37807   1.176   0.496   6.556 -0.0856 -0.1788  0.8229
 8725SOL    HW137808   1.171   0.590   6.568 -0.3204 -0.1511  0.4958
 8725SOL    HW237809   1.269   0.483   6.537 -0.0667 -0.3118  1.0066
 8726SOL     OW37810   0.223   3.540   2.108 -0.1124  0.1796 -0.0416
 8726SOL    HW137811   0.184   3.581   2.185  0.2170 -1.5229  1.0353
 8726SOL    HW237812   0.169   3.583   2.041  1.5937 -0.7481 -2.0015
 8727SOL     OW37813   3.705   4.012  14.058 -0.2980  0.2174  0.4273
 8727SOL    HW137814   3.674   3.959  13.985  1.5739 -0.5927  0.1966
 8727SOL    HW237815   3.778   3.961  14.094  0.5560  0.6507 -0.7137
 8728SOL     OW37816   0.884   3.570   5.612  0.1782 -0.1687  0.2346
 8728SOL    HW137817   0.846   3.572   5.523  1.5868 -1.8586 -0.4032
 8728SOL    HW237818   0.940   3.493   5.605 -0.5333 -0.8754  2.2408
 8729SOL     OW37819   4.128   1.277   7.473  0.0779  0.0473  0.5278
 8729SOL    HW137820   4.161   1.296   7.385  0.9714  0.2523  0.9125
 8729SOL    HW237821   4.199   1.231   7.519 -0.0581 -0.0369  0.6560
 8730SOL     OW37822   1.784   0.625   1.448 -0.4614 -0.3018  0.0410
 8730SOL    HW137823   1.715   0.579   1.401  0.4986  1.2061 -2.8101
 8730SOL    HW237824   1.730   0.669   1.514 -0.9204  0.4815 -0.8640
 8731SOL     OW37825   4.645   3.991   1.861 -0.7295  0.4581  0.2390
 8731SOL    HW137826   4.599   3.911   1.833  2.9966 -2.0206  1.2012
 8731SOL    HW237827   4.734   3.965   1.886 -0.1276  1.3843 -0.9626
 8732SOL     OW37828   0.689   1.584  14.123  0.2761  0.4376 -0.2464
 8732SOL    HW137829   0.606   1.545  14.152  0.2912 -0.6808 -1.7353
 8732SOL    HW237830   0.748   1.528  14.174  0.6306  1.6808  0.7261
 8733SOL     OW37831   0.475   0.030   5.885 -0.2814  0.2322 -0.3491
 8733SOL    HW137832   0.443   0.113   5.850  0.9484  0.3446 -1.2161
 8733SOL    HW237833   0.568   0.053   5.880  0.1158 -1.5276 -0.8874
 8734SOL     OW37834   0.891   2.287   8.759 -0.1862 -0.3690 -0.2837
 8734SOL    HW137835   0.946   2.228   8.707  0.8673  0.3928 -0.0448
 8734SOL    HW237836   0.951   2.361   8.764 -1.1512  0.4158 -0.4404
 8735SOL     OW37837   1.991   2.571   6.045  0.6747 -0.5893 -0.0830
 8735SOL    HW137838   1.957   2.535   6.126 -1.5522 -0.0896 -0.7975
 8735SOL    HW237839   1.916   2.557   5.987  1.3619  2.1290 -1.6458
 8736SOL     OW37840   0.084   3.191   2.123 -0.4967 -0.3097 -0.5341
 8736SOL    HW137841   0.012   3.245   2.155  0.1994 -0.0110  0.5131
 8736SOL    HW237842   0.026   3.115   2.115 -2.4483  1.4262 -2.8860
 8737SOL     OW37843   2.892   0.596   3.449 -0.0420 -0.1252  0.2631
 8737SOL    HW137844   2.910   0.664   3.514 -2.2064  1.5879 -0.9262
 8737SOL    HW237845   2.981   0.595   3.414  0.1930 -1.8984  0.9167
 8738SOL     OW37846   2.820   3.918   5.615 -0.6434 -0.3510  0.0175
 8738SOL    HW137847   2.786   3.870   5.691  0.9818 -0.4908  0.6671
 8738SOL    HW237848   2.913   3.894   5.618 -0.6342 -0.4227 -1.0288
 8739SOL     OW37849   1.503   0.036   3.837 -0.5086  0.3023  0.1547
 8739SOL    HW137850   1.530   0.128   3.842  0.7481 -0.1425  1.5347
 8739SOL    HW237851   1.408   0.027   3.841 -0.4381 -0.1823  0.7477
 8740SOL     OW37852   2.740   3.348  10.421 -0.3977  0.3222  0.1874
 8740SOL    HW137853   2.812   3.304  10.465  0.2357  0.3147 -0.8735
 8740SOL    HW237854   2.662   3.317  10.468 -0.8614  0.0727 -0.7418
 8741SOL     OW37855   1.567   3.453  13.328 -0.0020 -0.5009 -0.3557
 8741SOL    HW137856   1.590   3.361  13.335 -0.9055 -0.7318 -0.3095
 8741SOL    HW237857   1.563   3.473  13.422 -1.7596 -0.3113 -0.4542
 8742SOL     OW37858   2.270   4.525   2.489  0.6012 -0.2850 -0.4711
 8742SOL    HW137859   2.280   4.605   2.437  0.4385 -0.0482 -0.1393
 8742SOL    HW237860   2.298   4.463   2.421  2.3293 -0.5425  0.4555
 8743SOL     OW37861   0.263   1.859   2.688 -0.5251 -0.1765 -1.1484
 8743SOL    HW137862   0.310   1.778   2.710 -1.6108 -0.4296  0.2525
 8743SOL    HW237863   0.173   1.826   2.688 -0.2362 -0.9472  0.0242
 8744SOL     OW37864   1.114   2.072   5.190  0.4959 -0.1757 -0.0524
 8744SOL    HW137865   1.200   2.114   5.185  0.4984 -0.5337 -2.7661
 8744SOL    HW237866   1.113   2.036   5.279 -2.2820  3.3529  1.3640
 8745SOL     OW37867   2.049   4.431   7.662  0.0225 -0.0452 -0.0360
 8745SOL    HW137868   1.965   4.477   7.662  0.1666  0.2295 -1.1232
 8745SOL    HW237869   2.082   4.443   7.751 -0.4458 -1.0706  0.2781
 8746SOL     OW37870   2.608   2.271   7.339 -0.2560  0.0109  0.6658
 8746SOL    HW137871   2.639   2.245   7.426  0.0747 -1.8448 -0.0164
 8746SOL    HW237872   2.683   2.329   7.325  0.1430 -0.4033  1.0743
 8747SOL     OW37873   2.753   0.529   6.506 -0.6386  0.0481 -0.0126
 8747SOL    HW137874   2.736   0.539   6.600  1.0261 -1.4175  0.4619
 8747SOL    HW237875   2.767   0.621   6.483 -0.6284 -0.5887 -2.5646
 8748SOL     OW37876   2.321   0.187   5.829 -0.0977 -0.3059  0.2690
 8748SOL    HW137877   2.356   0.247   5.894  2.1056 -0.3341 -0.9132
 8748SOL    HW237878   2.299   0.248   5.759  0.7053 -0.7282 -0.3495
 8749SOL     OW37879   2.005   2.482   7.594 -0.0359  0.2169 -0.3568
 8749SOL    HW137880   2.066   2.484   7.668  1.1099  1.4765 -1.3401
 8749SOL    HW237881   2.000   2.387   7.606 -1.1493  0.4556  1.0881
 8750SOL     OW37882   2.666   3.089   6.805  0.2708 -0.3193 -0.4577
 8750SOL    HW137883   2.603   3.023   6.835  2.3052 -1.6129  1.0030
 8750SOL    HW237884   2.740   3.027   6.801  1.6884  1.2001  2.1296
 8751SOL     OW37885   1.700   2.359  12.661 -0.3079 -0.2703  0.1265
 8751SOL    HW137886   1.670   2.314  12.582 -1.4360 -1.6377  1.3257
 8751SOL    HW237887   1.784   2.314  12.669 -0.7999 -1.4777 -1.4688
 8752SOL     OW37888   1.231   0.724   7.959  0.3072  0.3038  0.3337
 8752SOL    HW137889   1.325   0.733   7.973  0.2822 -0.1766  0.8445
 8752SOL    HW237890   1.216   0.815   7.934  0.7007  0.2148 -0.2372
 8753SOL     OW37891   3.687   3.146   1.377  0.3837  0.1048  0.0155
 8753SOL    HW137892   3.782   3.135   1.388  0.3057 -0.9264 -0.2919
 8753SOL    HW237893   3.664   3.211   1.443  0.0293 -1.4901  1.4615
 8754SOL     OW37894   3.375   2.374  12.200 -0.3615 -0.1382 -0.0627
 8754SOL    HW137895   3.319   2.441  12.238 -1.8949 -1.5887  0.2606
 8754SOL    HW237896   3.335   2.336  12.122  3.2792 -3.3846 -0.3359
 8755SOL     OW37897   4.025   2.650   4.333  0.2863 -0.4033 -0.2994
 8755SOL    HW137898   3.956   2.716   4.338  1.5466  0.8941 -0.3268
 8755SOL    HW237899   4.097   2.706   4.360  0.8387 -0.4399 -1.6576
 8756SOL     OW37900   1.102   1.124   6.026 -0.6179  0.3095  0.1970
 8756SOL    HW137901   1.151   1.203   6.050  2.2820 -0.7312 -2.3365
 8756SOL    HW237902   1.065   1.136   5.939 -0.4001  0.3843  0.1138
 8757SOL     OW37903   3.872   4.073   5.645  0.4850 -0.1659  0.3173
 8757SOL    HW137904   3.955   4.120   5.647 -0.0385  0.8638 -2.7673
 8757SOL    HW237905   3.825   4.129   5.584  0.7637 -0.9664 -0.6260
 8758SOL     OW37906   0.363   3.776   4.695  0.0302  0.0480  0.3157
 8758SOL    HW137907   0.401   3.842   4.754  1.6093 -0.7963  0.2198
 8758SOL    HW237908   0.288   3.826   4.661 -1.4865 -0.8215  2.3623
 8759SOL     OW37909   3.019   4.111  11.596  0.4896 -0.0101  1.1123
 8759SOL    HW137910   3.106   4.116  11.556 -0.7396 -1.8914 -1.7648
 8759SOL    HW237911   3.001   4.020  11.574 -1.2187  0.3547  0.9806
 8760SOL     OW37912   0.299   1.324   6.339  0.7957  0.6486 -0.3586
 8760SOL    HW137913   0.247   1.275   6.402  1.5851  2.4982  1.7356
 8760SOL    HW237914   0.387   1.288   6.352  0.3777 -0.2234  0.0449
 8761SOL     OW37915   2.708   2.173  12.431  0.7930 -0.0458 -0.3502
 8761SOL    HW137916   2.639   2.179  12.365 -0.6074  0.2588  1.1285
 8761SOL    HW237917   2.778   2.140  12.375  0.1079 -1.3461 -0.4420
 8762SOL     OW37918   1.609   3.462   8.758  0.3627 -0.2386  0.0269
 8762SOL    HW137919   1.696   3.432   8.781  0.9062  1.7758  0.6540
 8762SOL    HW237920   1.567   3.448   8.843 -0.6454 -0.4741 -0.5093
 8763SOL     OW37921   2.138   1.254   4.106  0.4754 -0.0006  0.0774
 8763SOL    HW137922   2.153   1.348   4.100 -1.3776  0.3166  0.5774
 8763SOL    HW237923   2.150   1.233   4.013  2.8078  1.2496  0.0736
 8764SOL     OW37924   3.609   2.233  10.518  0.5068 -0.2077 -0.0534
 8764SOL    HW137925   3.601   2.152  10.467 -1.1296 -0.8521  1.2057
 8764SOL    HW237926   3.690   2.257  10.473  0.8062 -3.9216 -1.5833
 8765SOL     OW37927   4.621   3.517   2.682 -0.6770  0.8270  0.3369
 8765SOL    HW137928   4.648   3.454   2.749  1.1113 -1.2266 -2.3407
 8765SOL    HW237929   4.621   3.462   2.604  0.6134 -0.2394  1.0855
 8766SOL     OW37930   2.675   0.127  13.265  0.7053  0.4029  0.5662
 8766SOL    HW137931   2.768   0.109  13.248  1.0844  2.0964  0.7556
 8766SOL    HW237932   2.638   0.116  13.178 -0.1010 -0.1255  0.9812
 8767SOL     OW37933   3.069   4.582  15.592  0.4191  0.2000  0.2287
 8767SOL    HW137934   3.012   4.645  15.548  0.8857  0.6994  0.3433
 8767SOL    HW237935   3.012   4.542  15.658  0.0385 -3.3433 -2.1932
 8768SOL     OW37936   0.703   1.482   7.150 -0.3254 -0.3412  0.2927
 8768SOL    HW137937   0.729   1.399   7.188 -0.9006 -0.0295  1.3679
 8768SOL    HW237938   0.659   1.460   7.068 -0.1707  0.0579  0.1004
 8769SOL     OW37939   4.427   3.238   3.441  0.2740  0.2212 -0.1195
 8769SOL    HW137940   4.348   3.285   3.470  1.7638  2.1697  0.8110
 8769SOL    HW237941   4.488   3.309   3.459  1.5245 -0.8392 -0.1940
 8770SOL     OW37942   2.757   4.638  17.727  0.4908 -0.2031 -0.2206
 8770SOL    HW137943   2.712   4.595  17.654 -0.9198 -0.0394  0.5546
 8770SOL    HW237944   2.816   4.697  17.679  0.0890 -0.0996 -0.5821
 8771SOL     OW37945   4.080   1.460  16.588 -0.3086 -0.3635 -0.4916
 8771SOL    HW137946   4.166   1.432  16.621  0.8162  2.4220 -1.0117
 8771SOL    HW237947   4.072   1.422  16.501  1.1355 -1.5355 -0.1009
 8772SOL     OW37948   3.719   2.684   3.693 -0.1328  0.9206  0.0616
 8772SOL    HW137949   3.688   2.603   3.652  0.1480  0.9855 -0.2780
 8772SOL    HW237950   3.752   2.730   3.616 -0.5033 -1.5880 -1.5774
 8773SOL     OW37951   2.433   4.383   2.295 -0.0430 -0.3237 -0.0503
 8773SOL    HW137952   2.452   4.319   2.226  1.0247  0.8584 -0.8687
 8773SOL    HW237953   2.414   4.333   2.374 -0.5860  1.3480  0.8944
 8774SOL     OW37954   2.321   4.316   8.126 -0.1845  0.1547  0.0740
 8774SOL    HW137955   2.347   4.281   8.211  0.2711 -1.3530 -0.6863
 8774SOL    HW237956   2.235   4.275   8.130  0.1457 -0.3674  1.8303
 8775SOL     OW37957   4.604   2.542   6.838 -0.9438  0.4692 -0.0808
 8775SOL    HW137958   4.510   2.560   6.840 -0.9990  0.0995  0.4107
 8775SOL    HW237959   4.596   2.483   6.763  1.4943 -0.4669  0.3998
 8776SOL     OW37960   3.318   3.373   2.106  0.1775 -0.1768 -0.8303
 8776SOL    HW137961   3.388   3.438   2.098  0.7897 -0.7075  0.2610
 8776SOL    HW237962   3.365   3.292   2.129  1.7220  1.5102  1.9217
 8777SOL     OW37963   4.383   0.959  15.177 -0.3800  0.0008 -0.3556
 8777SOL    HW137964   4.477   0.972  15.178 -0.3617 -0.1246 -0.4537
 8777SOL    HW237965   4.372   0.926  15.088 -0.7511 -0.7097 -0.0468
 8778SOL     OW37966   1.506   3.747  17.073  0.0407  0.0160 -0.0762
 8778SOL    HW137967   1.554   3.688  17.014  0.5418 -0.8193  1.1454
 8778SOL    HW237968   1.444   3.679  17.099 -1.1531  1.3755  0.6247
 8779SOL     OW37969   3.936   4.272   9.033  0.5476  0.1770  0.0083
 8779SOL    HW137970   3.879   4.208   9.076 -0.3300  0.4378 -0.7645
 8779SOL    HW237971   3.879   4.319   8.972 -0.3077 -0.2868  0.4542
 8780SOL     OW37972   4.073   4.518  16.703  0.2216  0.0800  0.0785
 8780SOL    HW137973   4.048   4.461  16.630 -0.4987  0.6174 -0.0874
 8780SOL    HW237974   3.984   4.545  16.727  0.3756  0.3070  0.3896
 8781SOL     OW37975   4.051   1.476  15.299  0.1667  0.3353 -0.3885
 8781SOL    HW137976   4.092   1.406  15.248 -0.7346 -0.8593  0.5215
 8781SOL    HW237977   3.969   1.437  15.331 -0.1367  1.5488  0.3065
 8782SOL     OW37978   0.936   0.184  15.066  0.2681 -0.2865 -0.2499
 8782SOL    HW137979   0.877   0.109  15.067  2.0096 -1.6447 -0.6123
 8782SOL    HW237980   0.866   0.243  15.038  0.6760 -0.4355 -1.5650
 8783SOL     OW37981   2.924   1.135  16.169 -0.9758 -0.1826  0.0208
 8783SOL    HW137982   2.896   1.139  16.078 -0.6431  0.2838 -0.0597
 8783SOL    HW237983   2.848   1.124  16.226 -0.4565 -2.1590  0.3319
 8784SOL     OW37984   4.153   0.597   2.683  0.1408 -0.0647 -0.3301
 8784SOL    HW137985   4.083   0.565   2.626  0.4542  1.7794 -1.7300
 8784SOL    HW237986   4.159   0.510   2.724  0.5605  0.8563  1.5369
 8785SOL     OW37987   3.903   4.329   6.361  0.3647  0.2569  0.3789
 8785SOL    HW137988   3.973   4.388   6.331  1.2237 -1.2982 -0.7245
 8785SOL    HW237989   3.933   4.315   6.451 -1.0349 -2.2234  0.4635
 8786SOL     OW37990   3.226   1.911   5.497 -0.5184  0.2884  0.1020
 8786SOL    HW137991   3.240   1.911   5.402  0.0953  1.8677  0.1827
 8786SOL    HW237992   3.238   1.816   5.505  2.6867  0.6353 -0.3604
 8787SOL     OW37993   1.167   1.861   4.858  0.0911 -0.4530  0.4325
 8787SOL    HW137994   1.179   1.767   4.841 -1.4235 -0.4992 -0.3763
 8787SOL    HW237995   1.238   1.876   4.920  0.3282 -0.4563  0.1612
 8788SOL     OW37996   3.530   2.476   2.400 -0.4666  0.0786  0.7090
 8788SOL    HW137997   3.465   2.485   2.330  0.1880  0.6251  0.1683
 8788SOL    HW237998   3.562   2.565   2.388  2.8867 -1.7639 -3.9989
 8789SOL     OW37999   0.526   4.375   6.198  0.7488  0.0591  0.6946
 8789SOL    HW138000   0.604   4.322   6.216 -0.5192 -1.9307  0.2135
 8789SOL    HW238001   0.568   4.439   6.140 -2.1459  0.8178 -0.5334
 8790SOL     OW38002   3.292   2.531   1.803 -0.2508  0.3287 -0.0652
 8790SOL    HW138003   3.280   2.547   1.710  0.8513 -0.5359 -0.3424
 8790SOL    HW238004   3.373   2.577   1.824  0.7893 -1.9838  0.9423
 8791SOL     OW38005   0.906   3.312  12.170 -0.1630 -0.0905  0.3605
 8791SOL    HW138006   0.956   3.393  12.162 -0.3420 -0.1717 -1.4232
 8791SOL    HW238007   0.937   3.289  12.258  1.1461  2.6714  0.6072
 8792SOL     OW38008   1.259   0.437   4.068 -0.4753 -0.2578  0.5814
 8792SOL    HW138009   1.244   0.528   4.095  1.5529  0.7961 -1.7651
 8792SOL    HW238010   1.181   0.423   4.013 -0.1992 -1.2199  0.4421
 8793SOL     OW38011   0.680   1.973   1.283 -0.3801  0.1163  0.3738
 8793SOL    HW138012   0.666   1.896   1.339  3.8651 -0.1449  1.0499
 8793SOL    HW238013   0.717   2.038   1.344  1.4706  0.4346 -1.1020
 8794SOL     OW38014   3.090   2.123   3.853 -0.1740  0.0833 -0.0086
 8794SOL    HW138015   3.142   2.203   3.847  0.9074 -0.7922 -2.1454
 8794SOL    HW238016   3.157   2.058   3.874  0.1524  0.1481 -0.8389
 8795SOL     OW38017   3.840   1.226   6.984 -0.5700 -0.2060 -0.9697
 8795SOL    HW138018   3.865   1.149   6.932 -0.3738 -2.4705  2.4877
 8795SOL    HW238019   3.904   1.294   6.965 -1.2264  0.2101 -1.7202
 8796SOL     OW38020   0.361   3.128   7.454  0.4958 -0.1831 -0.2210
 8796SOL    HW138021   0.404   3.178   7.523 -0.5161  1.5072 -0.8167
 8796SOL    HW238022   0.274   3.169   7.459  0.2636 -0.5114 -1.7030
 8797SOL     OW38023   3.306   0.069  14.341 -0.8631  0.1852  0.2666
 8797SOL    HW138024   3.298   0.164  14.327 -0.1966  0.1975 -0.0293
 8797SOL    HW238025   3.276   0.075  14.431 -0.2111  1.4088  0.4065
 8798SOL     OW38026   2.721   1.363  12.420 -0.5714  0.1822 -0.0749
 8798SOL    HW138027   2.790   1.384  12.357  0.4079 -0.8649  0.6602
 8798SOL    HW238028   2.653   1.429  12.404 -1.4601  0.1121  3.4345
 8799SOL     OW38029   2.316   4.337   4.824 -0.2690 -0.2642  0.7697
 8799SOL    HW138030   2.333   4.259   4.877 -0.8110 -1.1972 -0.4455
 8799SOL    HW238031   2.262   4.292   4.759  0.3402  1.2502 -0.7794
 8800SOL     OW38032   0.133   2.689   6.690 -0.5608  0.5495 -0.6676
 8800SOL    HW138033   0.068   2.746   6.730  0.2761  0.3178  1.0136
 8800SOL    HW238034   0.100   2.607   6.726  3.1253 -0.6173  0.0591
 8801SOL     OW38035   1.684   3.276   9.867  0.2173  0.0346 -0.2667
 8801SOL    HW138036   1.765   3.251   9.911  0.5366  0.3412 -0.6773
 8801SOL    HW238037   1.675   3.197   9.813  0.0991 -0.0645 -0.1015
 8802SOL     OW38038   2.657   2.127   4.248 -0.3448 -0.2692  0.4405
 8802SOL    HW138039   2.671   2.220   4.260 -2.2685  0.1461 -0.4837
 8802SOL    HW238040   2.689   2.114   4.159 -1.3246  0.4058 -0.0128
 8803SOL     OW38041   3.185   4.039   3.140 -1.0971  0.3550 -0.0715
 8803SOL    HW138042   3.215   3.954   3.109 -1.3738  0.3885 -0.4344
 8803SOL    HW238043   3.144   4.016   3.224  0.3185 -0.1753  0.4633
 8804SOL     OW38044   4.624   1.885  15.845  0.4931 -0.3172 -0.5221
 8804SOL    HW138045   4.685   1.846  15.782 -0.3164 -0.2736 -1.3246
 8804SOL    HW238046   4.571   1.808  15.865  0.8520 -0.9082 -1.8552
 8805SOL     OW38047   2.764   4.077   2.619 -0.3382  0.0961  0.3454
 8805SOL    HW138048   2.796   4.164   2.643 -0.0418 -0.0396  0.4369
 8805SOL    HW238049   2.842   4.029   2.647 -0.3098 -0.0398  0.0250
 8806SOL     OW38050   1.316   0.543   7.392 -0.2492 -0.2933 -0.3983
 8806SOL    HW138051   1.361   0.517   7.472  0.3469 -1.5769 -1.1400
 8806SOL    HW238052   1.247   0.476   7.396 -1.7942  1.3080 -0.5619
 8807SOL     OW38053   0.532   3.672   0.909  0.0048  0.2205 -0.0234
 8807SOL    HW138054   0.456   3.728   0.892 -0.9490 -0.8385  0.7150
 8807SOL    HW238055   0.605   3.719   0.869 -0.7354  2.8683  1.7367
 8808SOL     OW38056   3.053   0.721   2.904 -0.1566  0.0956 -1.0638
 8808SOL    HW138057   3.042   0.637   2.948  2.3066  1.2038  1.6330
 8808SOL    HW238058   3.133   0.749   2.948 -1.4243  2.1541 -0.0550
 8809SOL     OW38059   4.368   3.543   4.346 -0.0105  0.3843  0.5964
 8809SOL    HW138060   4.280   3.552   4.384 -0.0089  2.1698  0.1952
 8809SOL    HW238061   4.426   3.565   4.419  1.5269  0.5645 -0.6737
 8810SOL     OW38062   0.120   3.570   9.591 -0.0941 -0.0118 -0.5644
 8810SOL    HW138063   0.049   3.507   9.581  0.0895 -0.4483  0.8456
 8810SOL    HW238064   0.190   3.505   9.602  1.1077  1.5438  0.9490
 8811SOL     OW38065   0.010   2.059   8.175 -0.1222 -0.4187  0.0723
 8811SOL    HW138066   0.100   2.030   8.163 -0.2187 -1.5118  1.9719
 8811SOL    HW238067   4.725   2.121   8.106  0.9825 -1.5858 -1.3154
 8812SOL     OW38068   4.721   2.904   4.380 -0.0201  0.1755  0.2212
 8812SOL    HW138069   0.043   2.833   4.351 -1.2899 -0.2452 -1.2153
 8812SOL    HW238070   0.041   2.938   4.452  3.2659 -4.0528 -0.3065
 8813SOL     OW38071   3.212   3.036   7.207 -0.3786 -0.4363  0.2479
 8813SOL    HW138072   3.283   2.985   7.170  1.7315  1.9860  1.0001
 8813SOL    HW238073   3.141   3.015   7.145 -1.1560 -2.1989  1.7419
 8814SOL     OW38074   2.452   0.461   7.293  0.2169  0.0197  0.3609
 8814SOL    HW138075   2.412   0.459   7.380 -0.7119 -4.8502 -0.1533
 8814SOL    HW238076   2.508   0.383   7.285 -0.0531  0.0819 -2.2012
 8815SOL     OW38077   2.974   1.021  11.748  0.2079  0.3487  0.1161
 8815SOL    HW138078   2.991   0.978  11.832  2.1736  1.5246  0.3139
 8815SOL    HW238079   3.004   1.111  11.762  0.3964 -0.1500  2.9141
 8816SOL     OW38080   4.579   1.437  10.247  0.2213 -0.1736  0.2781
 8816SOL    HW138081   4.496   1.388  10.244  0.8360 -1.1396 -1.0897
 8816SOL    HW238082   4.614   1.439  10.158  1.0714  1.8011  0.6549
 8817SOL     OW38083   1.538   0.560  10.408 -0.2818  0.0913 -0.1657
 8817SOL    HW138084   1.612   0.502  10.425 -1.1349 -0.4889  1.5923
 8817SOL    HW238085   1.484   0.510  10.347  0.8920  0.3949 -1.4369
 8818SOL     OW38086   0.022   4.097   5.425 -0.3873 -0.5255 -0.0545
 8818SOL    HW138087   0.115   4.097   5.404 -0.2571 -0.9023  0.5338
 8818SOL    HW238088   0.030   4.108   5.519 -0.9120  2.6313 -0.3914
 8819SOL     OW38089   2.096   1.022   2.762 -0.0706  0.3275  0.2555
 8819SOL    HW138090   2.060   1.110   2.747  1.1334  0.7078 -0.4105
 8819SOL    HW238091   2.021   0.963   2.761 -0.9572  1.4654 -1.1538
 8820SOL     OW38092   3.779   3.012   8.765  0.5181 -0.0184 -0.3799
 8820SOL    HW138093   3.845   2.944   8.777  1.3591  0.8562 -0.0356
 8820SOL    HW238094   3.762   3.024   8.859  3.5738 -0.2058  0.2062
 8821SOL     OW38095   0.724   1.778   1.807 -0.2629  0.2869 -0.4857
 8821SOL    HW138096   0.712   1.683   1.804 -1.9194  0.4657  0.4468
 8821SOL    HW238097   0.688   1.797   1.894  0.6261  2.6319 -0.6174
 8822SOL     OW38098   3.117   0.008   6.637  0.2486  0.1468 -0.4123
 8822SOL    HW138099   3.126   0.098   6.606 -0.1189  0.6206  0.8624
 8822SOL    HW238100   3.200   4.710   6.603  0.2614  1.4591 -1.6579
 8823SOL     OW38101   2.662   1.716  14.409 -0.6035 -0.6016 -0.3527
 8823SOL    HW138102   2.604   1.673  14.345 -2.1312  0.1005  0.5675
 8823SOL    HW238103   2.604   1.731  14.483 -1.6544  0.1699 -1.3263
 8824SOL     OW38104   0.869   1.048   7.470  0.2470 -0.0927  0.6741
 8824SOL    HW138105   0.890   0.955   7.478 -0.7675 -0.4794 -1.1581
 8824SOL    HW238106   0.937   1.089   7.524 -1.1173  1.2866  1.3599
 8825SOL     OW38107   1.489   0.767  13.090  0.0796 -0.1066 -0.7847
 8825SOL    HW138108   1.490   0.686  13.039 -1.7484  0.2255 -1.3555
 8825SOL    HW238109   1.415   0.757  13.149 -0.4719  1.3036 -1.2390
 8826SOL     OW38110   4.474   4.150   6.729  0.1489  0.1824 -0.5632
 8826SOL    HW138111   4.428   4.205   6.793  1.3348 -0.0310  0.4744
 8826SOL    HW238112   4.408   4.081   6.719  1.0428 -0.8802  0.8649
 8827SOL     OW38113   2.114   0.853   6.325 -0.1518 -0.2730 -0.5484
 8827SOL    HW138114   2.201   0.813   6.336 -0.6889 -0.9941  1.1296
 8827SOL    HW238115   2.058   0.776   6.315 -1.0220  0.1873  0.6762
 8828SOL     OW38116   4.570   2.518   5.362  0.2213  0.8281  0.3266
 8828SOL    HW138117   4.531   2.491   5.445 -0.9819  0.3193 -0.3978
 8828SOL    HW238118   4.563   2.450   5.294  2.9752  1.6492 -0.7657
 8829SOL     OW38119   0.469   4.503   7.437 -0.5694 -0.3456 -0.1590
 8829SOL    HW138120   0.562   4.488   7.452 -0.8850 -2.0183  0.1063
 8829SOL    HW238121   0.456   4.427   7.380 -0.9805 -0.1605 -0.3168
 8830SOL     OW38122   0.505   3.774  15.080  0.2579 -1.0430 -0.0337
 8830SOL    HW138123   0.474   3.862  15.096 -1.5823 -1.3260 -2.0231
 8830SOL    HW238124   0.421   3.728  15.086 -0.5407  0.7869  2.6130
 8831SOL     OW38125   1.107   2.045   0.349  0.3458 -0.4156  0.3729
 8831SOL    HW138126   1.033   2.105   0.344  0.0830 -0.7059  0.7748
 8831SOL    HW238127   1.100   2.000   0.434  1.1114 -0.9132  0.1716
 8832SOL     OW38128   0.782   2.292   9.518  0.4629  0.4221 -0.1768
 8832SOL    HW138129   0.789   2.237   9.441 -0.5756  0.7319 -0.4916
 8832SOL    HW238130   0.872   2.326   9.520  0.5017  0.3012  0.2523
 8833SOL     OW38131   4.168   0.506   3.265  0.6407  0.9357  0.2879
 8833SOL    HW138132   4.214   0.476   3.187 -1.5928 -0.9148 -0.3281
 8833SOL    HW238133   4.173   0.601   3.252  0.9655  0.6910 -1.3825
 8834SOL     OW38134   1.414   1.859   4.962  0.2684 -0.3954  0.4097
 8834SOL    HW138135   1.486   1.919   4.981 -1.1828  1.1561  1.0839
 8834SOL    HW238136   1.462   1.777   4.953  0.8728 -0.3325  3.1215
 8835SOL     OW38137   4.296   0.192   6.224  0.2150 -0.1356 -0.7407
 8835SOL    HW138138   4.386   0.193   6.190  0.4853 -2.4109 -0.1032
 8835SOL    HW238139   4.312   0.230   6.311 -3.5067  2.2608 -1.1070
 8836SOL     OW38140   0.600   1.782   8.801  1.0345 -0.2721 -0.0998
 8836SOL    HW138141   0.535   1.713   8.815  2.0318 -1.1934  0.0046
 8836SOL    HW238142   0.561   1.860   8.840  0.1502 -1.0348  0.5197
 8837SOL     OW38143   1.122   1.420  11.241 -0.5162  0.4785  0.5191
 8837SOL    HW138144   1.163   1.495  11.285 -0.2800  0.6255  0.0582
 8837SOL    HW238145   1.034   1.451  11.219 -0.3488 -0.5871 -1.6499
 8838SOL     OW38146   2.212   2.384   4.869  0.4706  0.1928  0.3350
 8838SOL    HW138147   2.193   2.356   4.958 -2.5680  2.9450  0.5016
 8838SOL    HW238148   2.267   2.316   4.828  0.8132 -0.0665  1.2262
 8839SOL     OW38149   1.444   1.127   2.054  0.3856  0.0570 -0.1273
 8839SOL    HW138150   1.350   1.143   2.052  0.5065  0.7127 -0.5850
 8839SOL    HW238151   1.456   1.118   2.149  2.2627 -1.0498 -0.4677
 8840SOL     OW38152   1.259   3.503   3.682 -0.2350  0.2706  0.0442
 8840SOL    HW138153   1.223   3.508   3.771  0.2969  2.5664  0.1455
 8840SOL    HW238154   1.325   3.435   3.689 -0.2538  0.1455 -1.0573
 8841SOL     OW38155   4.655   2.560   1.830 -0.3387 -0.4299  0.0720
 8841SOL    HW138156   4.687   2.530   1.915  1.0117 -1.8312 -0.9304
 8841SOL    HW238157   4.699   2.645   1.822 -2.4815  0.6602 -0.2766
 8842SOL     OW38158   1.537   0.386   9.370  0.2288  0.4473 -0.1365
 8842SOL    HW138159   1.569   0.432   9.293  0.9055 -2.4360 -1.5895
 8842SOL    HW238160   1.555   0.296   9.341 -2.6016  0.5119 -1.9993
 8843SOL     OW38161   3.225   1.626   6.018  0.2295 -0.1043  0.2139
 8843SOL    HW138162   3.251   1.712   5.982 -0.5065  0.2573  0.5490
 8843SOL    HW238163   3.170   1.598   5.945  1.1473 -2.6752  0.5284
 8844SOL     OW38164   3.118   1.057  12.180  0.1348  0.0310 -0.1762
 8844SOL    HW138165   3.074   0.983  12.138 -1.1107  1.2138 -0.9532
 8844SOL    HW238166   3.115   1.033  12.273  0.5276 -2.6144 -0.8571
 8845SOL     OW38167   1.946   0.480   1.621  0.7632 -0.6918  0.3080
 8845SOL    HW138168   2.003   0.549   1.655  0.6240  0.0595 -0.9679
 8845SOL    HW238169   1.920   0.507   1.533  1.4382 -1.3298 -0.0904
 8846SOL     OW38170   2.994   0.072   3.332  0.0675  0.1639 -0.3550
 8846SOL    HW138171   2.920   0.015   3.312 -1.1867  1.5360  0.4788
 8846SOL    HW238172   2.949   0.156   3.332  2.7573  1.5985 -0.5113
 8847SOL     OW38173   3.595   3.526  10.764  0.0800 -0.7269 -0.1535
 8847SOL    HW138174   3.503   3.500  10.753  0.0352 -0.1145 -1.2462
 8847SOL    HW238175   3.627   3.477  10.688 -1.9405 -2.4122  0.0528
 8848SOL     OW38176   3.218   1.417  15.634  0.0995 -0.2234 -0.0826
 8848SOL    HW138177   3.249   1.352  15.570 -1.4724 -0.6172 -0.4604
 8848SOL    HW238178   3.243   1.501  15.597 -1.7654 -0.2750 -1.4932
 8849SOL     OW38179   4.270   1.907   4.772  0.2280  0.2260  0.7276
 8849SOL    HW138180   4.321   1.920   4.852  1.5373 -2.4612  0.3142
 8849SOL    HW238181   4.207   1.849   4.814 -0.1601  0.1523  0.0354
 8850SOL     OW38182   3.778   2.353   8.400  0.6000  0.2845  0.5029
 8850SOL    HW138183   3.834   2.286   8.361 -1.6455 -0.6282 -1.1986
 8850SOL    HW238184   3.716   2.378   8.331  0.9627  0.3501  0.2049
 8851SOL     OW38185   1.155   1.855  15.985  0.3885 -0.1733 -0.5110
 8851SOL    HW138186   1.071   1.831  15.944 -0.1823  1.2045 -0.1300
 8851SOL    HW238187   1.202   1.774  16.005  1.0159  0.7436  1.6865
 8852SOL     OW38188   2.341   1.564   8.311 -0.0092  0.5122 -0.6530
 8852SOL    HW138189   2.357   1.478   8.271 -1.6460  0.0410 -0.3075
 8852SOL    HW238190   2.327   1.538   8.402  1.3893  0.6569 -0.3998
 8853SOL     OW38191   3.233   3.646   5.223 -0.5492  0.1244 -0.5058
 8853SOL    HW138192   3.201   3.575   5.279  1.4500 -1.0152 -0.7908
 8853SOL    HW238193   3.189   3.721   5.263  1.1847  0.3116  1.0715
 8854SOL     OW38194   0.320   0.342  11.625 -0.7326 -0.0210 -0.1480
 8854SOL    HW138195   0.377   0.368  11.552 -1.0718  0.9957 -0.0474
 8854SOL    HW238196   0.310   0.424  11.672  1.3088 -0.2872  0.7595
 8855SOL     OW38197   1.906   4.295   5.779  0.4764  0.0928 -0.0809
 8855SOL    HW138198   1.896   4.201   5.762  1.4016 -0.0619  0.1985
 8855SOL    HW238199   1.922   4.291   5.873  0.9351  1.1120 -0.1237
 8856SOL     OW38200   1.529   2.111  16.332 -0.3574  0.1420  0.0888
 8856SOL    HW138201   1.613   2.066  16.326 -0.5300  0.0241 -1.7069
 8856SOL    HW238202   1.460   2.044  16.333 -1.0587  0.8489 -1.0956
 8857SOL     OW38203   4.409   2.681   8.708  0.1295 -0.0281 -0.1110
 8857SOL    HW138204   4.495   2.645   8.729 -0.1222 -0.6475 -0.1278
 8857SOL    HW238205   4.433   2.764   8.667  1.4749  0.7212  2.1719
 8858SOL     OW38206   1.359   3.574   0.387  0.0078  1.0891  0.5127
 8858SOL    HW138207   1.337   3.635   0.316  1.3092  0.4308 -0.4497
 8858SOL    HW238208   1.325   3.622   0.463  1.1226 -0.7181  2.1176
 8859SOL     OW38209   3.369   1.894   1.307 -0.1268  0.3813  0.4511
 8859SOL    HW138210   3.418   1.925   1.383  0.8478 -0.8654  0.3232
 8859SOL    HW238211   3.317   1.818   1.333  0.5562 -0.7388 -1.4995
 8860SOL     OW38212   4.262   4.113   8.750  0.2976 -0.1791  0.1024
 8860SOL    HW138213   4.221   4.038   8.793  0.0770  0.6711  1.3679
 8860SOL    HW238214   4.182   4.164   8.734  1.1888  1.0160 -0.5674
 8861SOL     OW38215   4.402   2.329   8.174  0.1963 -0.1470 -0.4002
 8861SOL    HW138216   4.418   2.420   8.199  0.4024 -0.8462  1.9500
 8861SOL    HW238217   4.334   2.338   8.107 -0.0914 -2.8049 -0.4749
 8862SOL     OW38218   1.152   4.412   8.549 -0.2144  0.0293 -0.0974
 8862SOL    HW138219   1.238   4.410   8.589  0.1367 -4.1655 -1.0787
 8862SOL    HW238220   1.090   4.392   8.619  0.9685  0.3664  1.0324
 8863SOL     OW38221   3.564   1.263  13.091 -0.5687 -0.0874 -0.6062
 8863SOL    HW138222   3.602   1.350  13.097  0.0882 -0.6499  3.2169
 8863SOL    HW238223   3.505   1.272  13.016 -1.6800  1.2002  0.4388
 8864SOL     OW38224   1.564   0.338   7.578 -0.1439 -0.1942  0.1376
 8864SOL    HW138225   1.500   0.399   7.615 -1.0134 -2.4789  2.3702
 8864SOL    HW238226   1.511   0.265   7.545 -0.0961  0.2125 -0.8563
 8865SOL     OW38227   2.582   1.127   2.035  0.6374 -0.1357  0.4694
 8865SOL    HW138228   2.521   1.109   1.963  0.9745  1.7347 -0.2827
 8865SOL    HW238229   2.621   1.040   2.046 -0.2858 -0.9499 -2.8638
 8866SOL     OW38230   3.537   2.937   7.242  0.2909 -0.1650 -0.7799
 8866SOL    HW138231   3.470   2.893   7.191  0.4560  0.6608 -1.7169
 8866SOL    HW238232   3.607   2.904   7.186 -0.1270 -1.1940 -0.6956
 8867SOL     OW38233   2.058   3.023   6.859 -0.0563  0.0705 -0.1296
 8867SOL    HW138234   2.075   2.929   6.854 -2.1010 -0.3246  0.2805
 8867SOL    HW238235   1.990   3.019   6.926 -1.3229 -2.5596 -1.5725
 8868SOL     OW38236   0.391   2.254   8.454  0.0744 -0.3691  0.3007
 8868SOL    HW138237   0.371   2.337   8.498 -0.2648 -1.0866  1.4966
 8868SOL    HW238238   0.341   2.263   8.373  0.0267 -1.9520  0.1727
 8869SOL     OW38239   2.383   2.657   8.832  0.1764  0.1056  0.5744
 8869SOL    HW138240   2.298   2.614   8.829  1.1559 -1.8596  0.8964
 8869SOL    HW238241   2.393   2.674   8.738  1.9777  0.4787  0.8178
 8870SOL     OW38242   3.367   0.321   9.060 -0.1837  0.0774  0.1373
 8870SOL    HW138243   3.364   0.225   9.056  3.6389 -0.1932  3.5288
 8870SOL    HW238244   3.292   0.342   9.115 -2.0862 -1.9484 -1.6760
 8871SOL     OW38245   0.086   1.423   4.438  0.1783  0.2879 -0.2896
 8871SOL    HW138246   0.091   1.438   4.532  1.2382  1.6274 -0.5486
 8871SOL    HW238247   0.174   1.436   4.402  0.1013  0.3950 -0.4408
 8872SOL     OW38248   1.942   0.461   8.036  0.3358  0.0643 -0.0510
 8872SOL    HW138249   1.850   0.482   8.051  0.1727 -1.0232  0.5533
 8872SOL    HW238250   1.967   0.399   8.105 -1.5531  0.5090  1.0096
 8873SOL     OW38251   3.196   4.358   4.356  0.2619 -0.3628 -0.1659
 8873SOL    HW138252   3.117   4.304   4.364  0.3224 -0.7812 -2.2806
 8873SOL    HW238253   3.172   4.384   4.267 -1.4732 -0.2908  0.3364
 8874SOL     OW38254   1.553   3.008  11.389 -0.0362 -0.5155  0.2900
 8874SOL    HW138255   1.584   2.971  11.472 -2.8653 -0.8875  1.2070
 8874SOL    HW238256   1.479   3.063  11.415  2.3932  2.3324  1.2364
 8875SOL     OW38257   3.241   2.590  11.094  0.1670 -0.2803  0.2209
 8875SOL    HW138258   3.238   2.516  11.034  2.3218 -0.1946 -0.0229
 8875SOL    HW238259   3.175   2.652  11.063 -0.8494 -0.2732  2.4304
 8876SOL     OW38260   4.216   3.404   6.277 -0.2921 -0.6661 -0.6158
 8876SOL    HW138261   4.264   3.448   6.347 -0.0051 -0.1932 -1.1077
 8876SOL    HW238262   4.258   3.438   6.197  1.8660 -0.7955  0.4903
 8877SOL     OW38263   0.235   3.707   9.061  0.1296  0.1449  0.1705
 8877SOL    HW138264   0.298   3.646   9.099 -0.3931 -1.0206 -0.7941
 8877SOL    HW238265   0.282   3.722   8.979 -0.4329 -0.4452 -0.2643
 8878SOL     OW38266   4.023   4.137   4.505 -0.2377  0.3141  0.1784
 8878SOL    HW138267   4.082   4.210   4.486  1.2420 -0.8732  0.1507
 8878SOL    HW238268   3.956   4.182   4.555  0.9583  0.5866  1.5615
 8879SOL     OW38269   2.740   3.313   5.019 -0.1481 -0.2040  0.2218
 8879SOL    HW138270   2.772   3.377   5.082  0.9481  1.2529 -1.8065
 8879SOL    HW238271   2.702   3.379   4.961  1.1433  1.3246  1.1072
 8880SOL     OW38272   3.742   2.984  17.382  0.0967  0.4501  0.1147
 8880SOL    HW138273   3.730   2.912  17.321  2.1118 -0.9713  1.3920
 8880SOL    HW238274   3.674   2.958  17.444 -0.1793  0.2122 -0.2962
 8881SOL     OW38275   0.117   4.021   9.879 -0.2426  0.6698  0.2186
 8881SOL    HW138276   0.065   4.072   9.816 -0.4406 -0.8324 -0.8271
 8881SOL    HW238277   0.113   3.935   9.839  1.7743  1.9636 -2.7632
 8882SOL     OW38278   3.900   0.524   3.257 -0.4273 -0.7672  0.8307
 8882SOL    HW138279   3.981   0.483   3.285  1.7612  1.6663 -1.8759
 8882SOL    HW238280   3.840   0.492   3.324 -1.4846 -1.2729 -0.3433
 8883SOL     OW38281   3.201   3.450   8.333 -1.2567 -0.7485 -0.2991
 8883SOL    HW138282   3.216   3.476   8.242  0.8691  1.4324  0.6820
 8883SOL    HW238283   3.245   3.365   8.343  0.2060  0.0676  0.2349
 8884SOL     OW38284   0.739   4.219   1.998 -0.0798  0.0702 -0.3172
 8884SOL    HW138285   0.673   4.272   2.043  0.4682 -0.2104  0.7969
 8884SOL    HW238286   0.690   4.137   1.992  0.4732 -0.1712 -1.5554
 8885SOL     OW38287   4.088   0.330   2.736 -0.1028 -0.0077 -0.1286
 8885SOL    HW138288   4.010   0.344   2.682  0.1839  1.5844 -0.1260
 8885SOL    HW238289   4.053   0.272   2.804  1.5898  0.7585  1.3686
 8886SOL     OW38290   0.912   0.290  10.387 -0.0228 -0.0090  0.5409
 8886SOL    HW138291   0.949   0.204  10.407  1.8724  0.2192 -2.0794
 8886SOL    HW238292   0.995   0.335  10.375 -0.3112  0.7246  1.2670
 8887SOL     OW38293   3.474   3.153   8.917  0.4658 -0.5731 -0.1632
 8887SOL    HW138294   3.465   3.248   8.923  0.0773 -0.7981  2.6908
 8887SOL    HW238295   3.445   3.138   8.827  1.2189  2.1590 -0.8433
 8888SOL     OW38296   0.476   4.040   6.412  0.0294 -0.2560 -0.7045
 8888SOL    HW138297   0.470   3.955   6.456  0.9144  0.4300  0.7548
 8888SOL    HW238298   0.510   4.015   6.326  0.6212 -0.6018 -0.3708
 8889SOL     OW38299   1.666   0.176   6.781  0.5297  0.3937  0.0545
 8889SOL    HW138300   1.687   0.173   6.875  0.4974  1.2239  0.0882
 8889SOL    HW238301   1.719   0.249   6.750 -0.2163 -0.0714 -2.3029
 8890SOL     OW38302   4.026   4.167   3.515  0.2651 -0.1980 -0.2393
 8890SOL    HW138303   4.035   4.261   3.494  1.9733 -0.2222  0.3718
 8890SOL    HW238304   4.000   4.182   3.605 -1.4054 -1.5051 -0.5294
 8891SOL     OW38305   1.819   3.736  15.891 -0.2909 -0.0304 -0.1148
 8891SOL    HW138306   1.847   3.702  15.975  0.3220  2.0026  0.5052
 8891SOL    HW238307   1.895   3.711  15.838  0.2447  1.6632 -0.1688
 8892SOL     OW38308   1.053   0.805   9.415  0.4469  0.3190 -0.3765
 8892SOL    HW138309   1.098   0.742   9.471 -1.7278 -1.4640 -0.6323
 8892SOL    HW238310   0.974   0.756   9.392  0.2792  0.3537  0.1329
 8893SOL     OW38311   0.445   4.696  16.794 -0.4408  0.2220 -0.1891
 8893SOL    HW138312   0.476   4.639  16.724 -0.5383  2.6011 -2.1588
 8893SOL    HW238313   0.496   0.040  16.775  1.1523 -0.7374  0.0622
 8894SOL     OW38314   0.141   4.460   1.720 -0.2746 -0.0794  0.7651
 8894SOL    HW138315   0.231   4.442   1.749  0.6023  1.9872 -0.6861
 8894SOL    HW238316   0.130   4.404   1.644  1.4107  1.0880 -0.3527
 8895SOL     OW38317   1.394   2.138  16.886  0.4097  0.2190  0.1104
 8895SOL    HW138318   1.347   2.074  16.832  0.8323 -0.6712  0.7871
 8895SOL    HW238319   1.336   2.213  16.872  1.5792  0.7575 -1.8041
 8896SOL     OW38320   0.662   3.343   8.816 -0.1292 -0.0017  0.8685
 8896SOL    HW138321   0.737   3.289   8.842 -0.2699 -0.6745 -0.1279
 8896SOL    HW238322   0.616   3.286   8.755  1.3282 -0.6453  0.3676
 8897SOL     OW38323   2.977   3.103  14.427  0.0795  0.2848  0.1719
 8897SOL    HW138324   3.041   3.160  14.469 -0.7189  0.5489  1.0533
 8897SOL    HW238325   2.910   3.087  14.494 -0.3516  2.3323  0.2472
 8898SOL     OW38326   0.945   0.056  10.143 -0.0812  0.3722  0.0896
 8898SOL    HW138327   1.032   0.066  10.105 -0.5395 -0.9822 -1.3132
 8898SOL    HW238328   0.967   0.031  10.232  1.1493 -1.7476 -0.8095
 8899SOL     OW38329   3.051   0.610   6.035  0.4920 -0.7073  0.3850
 8899SOL    HW138330   3.025   0.695   6.001  1.6898 -0.4710  0.0463
 8899SOL    HW238331   2.971   0.587   6.083 -0.3808  0.4736 -0.5068
 8900SOL     OW38332   2.098   1.270   8.350 -0.0880  0.2492  0.3764
 8900SOL    HW138333   2.123   1.230   8.433 -0.8033 -1.5408 -0.2659
 8900SOL    HW238334   2.040   1.200   8.319 -0.3314  1.5349 -2.0639
 8901SOL     OW38335   3.603   0.831   1.685 -0.3792 -0.0103 -0.4272
 8901SOL    HW138336   3.684   0.869   1.720 -1.0585 -0.8242  2.0627
 8901SOL    HW238337   3.607   0.740   1.713  0.2136  0.5999  1.4708
 8902SOL     OW38338   3.769   1.722  14.680  0.0296  0.2767  0.3625
 8902SOL    HW138339   3.691   1.778  14.673 -0.2415 -0.0468  0.8053
 8902SOL    HW238340   3.756   1.665  14.603  0.1685 -0.7895  1.1232
 8903SOL     OW38341   0.510   4.661  13.311 -0.5736 -0.8234 -0.2059
 8903SOL    HW138342   0.468   0.001  13.270  2.0800  1.0091  0.4711
 8903SOL    HW238343   0.447   4.590  13.297 -1.3035  0.0318 -1.2469
 8904SOL     OW38344   2.647   0.748  15.169  0.0407  0.3629  0.3796
 8904SOL    HW138345   2.630   0.680  15.103  1.7901 -0.8934  1.2247
 8904SOL    HW238346   2.730   0.779  15.134 -0.2361 -0.8079 -1.3357
 8905SOL     OW38347   0.705   0.436   8.619  0.1634 -0.0787 -0.4398
 8905SOL    HW138348   0.653   0.356   8.620  0.8470 -0.5639 -3.6065
 8905SOL    HW238349   0.654   0.492   8.678  3.1908  1.6339  0.5568
 8906SOL     OW38350   2.688   1.296   1.413  0.1210  0.4744 -0.2921
 8906SOL    HW138351   2.744   1.336   1.347 -1.5323  0.6611 -1.5849
 8906SOL    HW238352   2.670   1.209   1.377  1.1722  0.7387 -1.4516
 8907SOL     OW38353   3.637   0.895  14.220  0.3617 -0.0911 -0.2554
 8907SOL    HW138354   3.649   0.948  14.141  0.9432 -0.5981 -0.5057
 8907SOL    HW238355   3.704   0.834  14.189 -1.4104 -3.1389  2.0734
 8908SOL     OW38356   4.079   0.886   3.679 -0.1688 -0.1094 -0.4235
 8908SOL    HW138357   4.143   0.874   3.749  2.1177 -1.0639 -2.6603
 8908SOL    HW238358   4.059   0.979   3.689 -1.6983 -0.3246 -1.4819
 8909SOL     OW38359   0.752   4.587  11.566 -0.2151 -0.3547  0.5579
 8909SOL    HW138360   0.739   4.535  11.486  1.5020 -0.8815  0.6343
 8909SOL    HW238361   0.846   4.588  11.580  0.0138  1.0475 -1.1328
 8910SOL     OW38362   1.810   0.200   1.749  0.1779  0.1221  0.1152
 8910SOL    HW138363   1.736   0.260   1.740  1.2836  1.5042  0.3303
 8910SOL    HW238364   1.778   0.132   1.808  0.1291 -0.1416 -0.2136
 8911SOL     OW38365   0.075   1.189   8.731 -0.4396  0.1027  0.0148
 8911SOL    HW138366   0.074   1.185   8.636 -1.6368 -0.8260  0.0787
 8911SOL    HW238367   4.734   1.137   8.757 -0.9299  0.9836  0.3200
 8912SOL     OW38368   3.189   0.113  13.135 -0.1420  0.8454 -0.2608
 8912SOL    HW138369   3.257   0.046  13.141 -0.2952  0.7984  0.9593
 8912SOL    HW238370   3.205   0.151  13.221  0.4998 -0.1270  0.0550
 8913SOL     OW38371   2.057   1.931   2.121 -0.0999 -0.3985  0.7405
 8913SOL    HW138372   2.061   1.987   2.044  3.5857  0.6963  1.7290
 8913SOL    HW238373   2.021   1.991   2.187  1.7483  0.5587  0.8634
 8914SOL     OW38374   3.072   3.823   5.699 -0.1734 -0.0233  0.0181
 8914SOL    HW138375   3.145   3.847   5.756 -2.2983  3.3775  1.2900
 8914SOL    HW238376   3.062   3.731   5.724  1.3485  0.6860  3.1850
 8915SOL     OW38377   0.256   3.279   8.190  0.5813  0.6995 -0.1130
 8915SOL    HW138378   0.164   3.253   8.193  0.4477  1.1904  0.1213
 8915SOL    HW238379   0.262   3.363   8.236  0.9806 -0.1118  1.3017
 8916SOL     OW38380   1.498   1.281   3.407  0.2795  0.5397 -0.2031
 8916SOL    HW138381   1.591   1.260   3.418  0.4055  1.5642  0.7231
 8916SOL    HW238382   1.486   1.261   3.315  2.4754  1.5784 -0.7227
 8917SOL     OW38383   2.040   3.182   7.697 -0.3344  0.5556  0.0307
 8917SOL    HW138384   1.999   3.185   7.611 -0.3956  0.2016  0.0460
 8917SOL    HW238385   2.127   3.218   7.677  0.5152 -0.8023  1.2357
 8918SOL     OW38386   1.982   3.520   2.946 -0.2629 -0.3511  0.2014
 8918SOL    HW138387   1.917   3.487   3.008  0.9131  0.4169  1.8440
 8918SOL    HW238388   2.062   3.501   2.995  0.4327  1.6640 -0.1927
 8919SOL     OW38389   0.375   0.246   2.910  0.7122 -0.1937  0.2039
 8919SOL    HW138390   0.300   0.188   2.925  0.4594  0.6385  2.1652
 8919SOL    HW238391   0.380   0.223   2.817  1.4093 -0.6773  0.3594
 8920SOL     OW38392   3.199   3.304   0.748  0.4769  0.4623 -0.6297
 8920SOL    HW138393   3.248   3.326   0.828 -1.5998  1.0958  0.4536
 8920SOL    HW238394   3.254   3.337   0.677 -1.7700  0.9756 -2.1199
 8921SOL     OW38395   1.278   0.638   2.343  0.5256 -0.0538  0.1243
 8921SOL    HW138396   1.229   0.684   2.275 -1.7409 -0.9566  1.1491
 8921SOL    HW238397   1.362   0.683   2.338 -0.4462  1.9820  1.8155
 8922SOL     OW38398   4.017   2.018   4.288  0.3326 -0.1082  1.0103
 8922SOL    HW138399   4.066   1.998   4.208 -1.0865  0.3247  0.0504
 8922SOL    HW238400   3.939   1.969   4.262  1.0708 -0.2142 -1.0397
 8923SOL     OW38401   1.196   1.179   2.040 -0.7068  0.3545  0.4212
 8923SOL    HW138402   1.125   1.133   1.994  0.6045 -0.7820 -0.4324
 8923SOL    HW238403   1.142   1.243   2.087  0.4116  0.3704  1.6837
 8924SOL     OW38404   3.233   2.907  16.616  0.3609 -0.4970 -0.0801
 8924SOL    HW138405   3.247   2.899  16.521  5.2660 -0.9339  0.6884
 8924SOL    HW238406   3.285   2.986  16.630 -1.3120  0.9875 -2.1851
 8925SOL     OW38407   2.747   4.187   1.606 -0.3947 -0.2060  0.7186
 8925SOL    HW138408   2.770   4.138   1.527  1.2214  0.8064  0.5482
 8925SOL    HW238409   2.797   4.136   1.670 -1.3370  0.3790  1.9259
 8926SOL     OW38410   0.392   3.712   2.511  0.7067 -0.7570  0.0421
 8926SOL    HW138411   0.339   3.634   2.498  0.1358 -0.2161 -0.8408
 8926SOL    HW238412   0.408   3.703   2.605 -1.2539  0.4423  0.4904
 8927SOL     OW38413   2.809   3.624   1.597 -0.3016 -0.5792 -0.2492
 8927SOL    HW138414   2.804   3.704   1.545 -1.1593 -1.7617 -1.9843
 8927SOL    HW238415   2.874   3.580   1.543  0.1817  0.1194 -0.2378
 8928SOL     OW38416   2.820   3.448  13.056 -0.3111 -0.1218  0.0140
 8928SOL    HW138417   2.773   3.530  13.042 -0.0567  0.1193  0.5897
 8928SOL    HW238418   2.910   3.479  13.053 -0.2798 -0.1680  0.5438
 8929SOL     OW38419   1.376   0.062   2.448  0.2215 -0.3866 -0.4075
 8929SOL    HW138420   1.400   0.154   2.458 -1.9416 -0.1317  2.1817
 8929SOL    HW238421   1.457   0.014   2.466 -0.3309 -0.7150  1.1332
 8930SOL     OW38422   2.747   0.977   2.644  0.4202  0.0233  0.3946
 8930SOL    HW138423   2.684   1.004   2.711  2.4315 -0.7170  2.6225
 8930SOL    HW238424   2.806   1.051   2.657 -0.9934  1.3269 -0.6414
 8931SOL     OW38425   0.060   3.686   6.567  0.0047  0.3205  0.1688
 8931SOL    HW138426   0.099   3.749   6.505 -1.1875 -0.2208 -1.1201
 8931SOL    HW238427   0.001   3.734   6.624  0.3910  1.0658 -0.0525
 8932SOL     OW38428   3.832   0.441   8.650  0.1324  0.4238 -1.2360
 8932SOL    HW138429   3.737   0.435   8.654  0.2328  0.6611  1.4867
 8932SOL    HW238430   3.864   0.381   8.718 -1.6811  0.1499 -0.6362
 8933SOL     OW38431   3.200   3.252   3.498  0.7438  0.0760 -0.0770
 8933SOL    HW138432   3.198   3.235   3.592 -2.1348  0.8138 -0.0004
 8933SOL    HW238433   3.233   3.341   3.487 -0.3882  0.3666 -1.1421
 8934SOL     OW38434   4.024   1.886  13.535 -0.4013 -0.0196  0.3859
 8934SOL    HW138435   4.069   1.812  13.576  0.2096  0.3320  0.3432
 8934SOL    HW238436   4.049   1.961  13.589 -0.1921  0.4713 -0.4100
 8935SOL     OW38437   0.847   4.505   4.511 -0.3678  0.1327  0.4230
 8935SOL    HW138438   0.925   4.452   4.497 -1.1021 -1.4848  2.3221
 8935SOL    HW238439   0.868   4.553   4.592  0.9830 -0.1799  0.2507
 8936SOL     OW38440   1.164   0.995   0.190  0.3809  0.8720  0.3646
 8936SOL    HW138441   1.183   0.939   0.115 -3.1871  0.2161 -0.0825
 8936SOL    HW238442   1.084   1.042   0.165 -0.1886  1.1120  2.5973
 8937SOL     OW38443   4.719   3.653   9.127  0.3742 -0.0302 -0.0243
 8937SOL    HW138444   0.076   3.659   9.106  0.3642 -1.4446 -0.5139
 8937SOL    HW238445   4.715   3.559   9.144 -0.9158  0.2731  1.3583
 8938SOL     OW38446   2.787   4.347  13.832  0.5870  0.4460 -0.4599
 8938SOL    HW138447   2.782   4.258  13.797 -0.4417  0.8781 -1.4253
 8938SOL    HW238448   2.859   4.377  13.775 -0.8143  0.8175 -2.0466
 8939SOL     OW38449   0.298   2.229   8.199 -0.4306 -0.1133  0.5354
 8939SOL    HW138450   0.261   2.141   8.208  0.3253 -0.4827  0.1166
 8939SOL    HW238451   0.262   2.262   8.117 -0.8855  1.8224  1.5291
 8940SOL     OW38452   3.196   1.551   2.165  0.5373 -0.4418 -0.4930
 8940SOL    HW138453   3.107   1.517   2.157  0.4384 -0.6333  1.5429
 8940SOL    HW238454   3.232   1.492   2.099  0.6375 -1.2101  0.2500
 8941SOL     OW38455   0.903   3.096   8.375  0.1095  0.8796 -0.0424
 8941SOL    HW138456   0.932   3.006   8.364  0.3764  0.8857  0.6507
 8941SOL    HW238457   0.952   3.133   8.448  0.8248  0.6019 -0.3881
 8942SOL     OW38458   0.138   1.245  14.515  0.0704 -0.3721 -0.2093
 8942SOL    HW138459   0.217   1.212  14.557 -0.9698  0.3919  2.3513
 8942SOL    HW238460   0.126   1.333  14.551 -3.4748  0.0369 -2.3978
 8943SOL     OW38461   4.385   2.404   8.488 -0.1096  0.1911 -0.3919
 8943SOL    HW138462   4.431   2.385   8.406 -1.6211  0.9511 -1.4026
 8943SOL    HW238463   4.407   2.496   8.498 -2.0142  0.8634 -2.6206
 8944SOL     OW38464   3.271   1.271   2.260  0.2654  0.2231 -0.1077
 8944SOL    HW138465   3.221   1.272   2.178 -0.8538 -0.2144  0.5768
 8944SOL    HW238466   3.250   1.182   2.287  1.0564  0.1030  0.1177
 8945SOL     OW38467   1.520   1.642   8.134 -0.5969  0.0489  0.3813
 8945SOL    HW138468   1.506   1.591   8.213  1.9773  0.0064  0.8096
 8945SOL    HW238469   1.491   1.581   8.066  0.3560  1.4712 -1.3183
 8946SOL     OW38470   2.966   0.074   8.353 -0.1332 -0.6038 -0.3663
 8946SOL    HW138471   2.929   0.055   8.439 -1.4849  1.6367 -0.4625
 8946SOL    HW238472   3.022   4.734   8.334  2.4804  1.0798  0.6396
 8947SOL     OW38473   4.077   2.217  15.211 -0.2488 -0.5646 -0.1475
 8947SOL    HW138474   3.994   2.229  15.166 -0.5797 -0.0329  0.5917
 8947SOL    HW238475   4.083   2.121  15.212 -1.9591 -0.6777 -0.9502
 8948SOL     OW38476   1.252   3.463   7.201  0.0392 -0.3922 -0.3179
 8948SOL    HW138477   1.323   3.403   7.223  0.6516 -0.2071 -1.8188
 8948SOL    HW238478   1.307   3.517   7.145  1.4233  0.1948  1.5943
 8949SOL     OW38479   0.010   4.457   7.945  0.1897 -0.6428 -0.6362
 8949SOL    HW138480   4.670   4.494   7.900 -0.5364 -2.2276 -0.7076
 8949SOL    HW238481   0.007   4.495   8.033 -2.6227 -2.1146 -0.1065
 8950SOL     OW38482   2.198   2.679   3.957  0.0670 -0.6913  0.4056
 8950SOL    HW138483   2.154   2.718   4.032 -0.8854 -0.1939 -0.4072
 8950SOL    HW238484   2.256   2.613   3.995  0.7830 -0.9581 -1.1351
 8951SOL     OW38485   2.093   1.993  14.577 -0.0948  0.1917  0.4524
 8951SOL    HW138486   2.148   1.934  14.525  1.3685  2.0564 -0.1408
 8951SOL    HW238487   2.151   2.059  14.616 -0.5946  0.3772  0.8819
 8952SOL     OW38488   0.126   1.883  12.074  0.4895  0.1702 -0.2396
 8952SOL    HW138489   0.145   1.835  11.993 -0.9378 -0.1428 -0.3731
 8952SOL    HW238490   0.101   1.814  12.135 -0.1067  1.8137  1.3402
 8953SOL     OW38491   4.173   1.213   5.226 -0.0273  0.5724 -0.1240
 8953SOL    HW138492   4.185   1.293   5.174  0.8860  0.4088 -0.1671
 8953SOL    HW238493   4.081   1.201   5.203 -0.0220 -0.4985  0.4112
 8954SOL     OW38494   4.681   0.337   0.806  0.4349  0.4513 -0.1445
 8954SOL    HW138495   4.690   0.430   0.828  1.8415 -0.1913  2.0265
 8954SOL    HW238496   4.656   0.344   0.714  1.1034 -1.2234 -0.4433
 8955SOL     OW38497   4.234   0.360  13.597 -0.2111 -0.0093 -0.3347
 8955SOL    HW138498   4.258   0.269  13.582 -1.0947 -0.1997 -0.6034
 8955SOL    HW238499   4.232   0.356  13.692  1.0171 -1.7100 -0.3940
 8956SOL     OW38500   1.775   2.934   2.254 -0.2307 -0.6293  0.2521
 8956SOL    HW138501   1.861   2.894   2.252  0.5194  0.9954  0.0328
 8956SOL    HW238502   1.722   2.874   2.306  1.5241 -3.3535 -1.1318
 8957SOL     OW38503   1.016   3.651   2.992  0.4223 -0.2049 -0.2308
 8957SOL    HW138504   0.981   3.658   2.903  1.6511 -0.6274 -0.7556
 8957SOL    HW238505   0.998   3.738   3.028  0.8741 -0.5527  0.8457
 8958SOL     OW38506   2.245   1.271   8.881  0.1648 -0.2748 -1.2449
 8958SOL    HW138507   2.296   1.191   8.892 -0.3274 -0.4309 -0.0707
 8958SOL    HW238508   2.306   1.330   8.837 -2.4110  2.7386 -0.7749
 8959SOL     OW38509   3.022   3.453  14.728 -0.0744  0.0024  0.3408
 8959SOL    HW138510   2.946   3.456  14.787  0.0667 -0.6303  0.5556
 8959SOL    HW238511   3.082   3.390  14.767  0.4497  0.5588  0.4268
 8960SOL     OW38512   3.516   4.224   2.192  0.0014 -0.1068 -0.8103
 8960SOL    HW138513   3.457   4.297   2.212  1.9320  1.2788 -0.0779
 8960SOL    HW238514   3.467   4.144   2.208  0.5183  0.2585  2.7907
 8961SOL     OW38515   0.967   3.205   5.921  0.0224  0.0608  0.3888
 8961SOL    HW138516   0.875   3.222   5.941  0.4822  2.0219  0.8209
 8961SOL    HW238517   0.965   3.110   5.916 -0.8371  0.0120  1.6539
 8962SOL     OW38518   4.247   4.417   5.460  0.4981 -0.0689  0.4843
 8962SOL    HW138519   4.326   4.410   5.406  0.1888 -0.3551  0.0678
 8962SOL    HW238520   4.242   4.325   5.485 -3.0480  0.8315  3.1761
 8963SOL     OW38521   0.751   3.015  17.677  0.5515 -0.4315 -0.8990
 8963SOL    HW138522   0.759   3.034  17.583  2.6403 -2.2877 -1.1139
 8963SOL    HW238523   0.658   2.993  17.673  0.0589  1.5731  0.1054
 8964SOL     OW38524   1.415   0.812   8.770  0.6645  0.1163  0.1481
 8964SOL    HW138525   1.374   0.884   8.721  0.0190 -0.6620 -0.4602
 8964SOL    HW238526   1.349   0.805   8.839 -1.3457  1.3157 -1.6760
 8965SOL     OW38527   0.475   1.820   7.052 -0.1776 -0.2998 -0.1111
 8965SOL    HW138528   0.456   1.733   7.018 -1.1767 -0.0619 -0.1610
 8965SOL    HW238529   0.570   1.831   7.042 -0.2364 -0.5798 -0.9819
 8966SOL     OW38530   3.340   0.286  15.096  0.5535  0.3596  0.7018
 8966SOL    HW138531   3.288   0.233  15.156 -1.0179  1.0423 -0.0308
 8966SOL    HW238532   3.430   0.263  15.116  0.1420  0.7836  3.0837
 8967SOL     OW38533   4.015   1.300   1.672  0.6491  0.0752  0.3129
 8967SOL    HW138534   4.008   1.381   1.722  0.6931  0.8397 -0.9187
 8967SOL    HW238535   4.013   1.239   1.746  0.6781 -2.1475 -1.5220
 8968SOL     OW38536   0.959   2.080   7.053 -0.0226  0.5067  0.2291
 8968SOL    HW138537   0.960   2.022   7.129  3.0522  1.1976  0.6922
 8968SOL    HW238538   0.887   2.140   7.074 -0.5740 -0.4201  0.9936
 8969SOL     OW38539   2.560   0.897   0.709  0.4504 -0.4767 -0.0271
 8969SOL    HW138540   2.584   0.898   0.617 -0.8211  0.2736 -0.3429
 8969SOL    HW238541   2.465   0.884   0.711  0.2631  1.2509  3.6490
 8970SOL     OW38542   3.508   1.809   5.605 -0.0794  0.1572 -0.1754
 8970SOL    HW138543   3.438   1.744   5.609  1.0547 -0.9635  1.0898
 8970SOL    HW238544   3.482   1.863   5.530  1.4892  1.4245  0.1875
 8971SOL     OW38545   0.333   3.992   7.035  0.7766 -0.2230  0.5265
 8971SOL    HW138546   0.312   4.076   6.996  1.0294 -0.0974  0.6606
 8971SOL    HW238547   0.267   3.984   7.104 -2.4066 -0.1724 -2.5029
 8972SOL     OW38548   3.390   0.072   5.491  0.4473  0.4915  0.4777
 8972SOL    HW138549   3.432   0.090   5.575 -2.6254 -2.1450  2.6482
 8972SOL    HW238550   3.338   4.733   5.524 -2.7396  1.9294 -1.2436
 8973SOL     OW38551   2.176   3.506   8.939  0.7288 -0.6742  0.0054
 8973SOL    HW138552   2.225   3.431   8.906 -0.2429 -1.3311  0.0657
 8973SOL    HW238553   2.247   3.536   8.996  0.1773 -2.0476  1.4178
 8974SOL     OW38554   1.830   3.001   6.708  0.0281  0.0910 -0.5778
 8974SOL    HW138555   1.908   3.035   6.751  0.1192  1.6273 -1.9558
 8974SOL    HW238556   1.865   2.920   6.670  0.8193  0.7019 -1.1585
 8975SOL     OW38557   0.385   1.967   6.843 -0.2575 -0.3628  0.3855
 8975SOL    HW138558   0.457   2.025   6.820 -0.9803  0.5798  0.5073
 8975SOL    HW238559   0.422   1.912   6.912  0.0447  0.0426  0.5473
 8976SOL     OW38560   1.874   0.809   8.990  0.0748 -0.4834  0.2475
 8976SOL    HW138561   1.956   0.859   8.988  0.3563 -0.9748 -0.4436
 8976SOL    HW238562   1.826   0.860   8.926 -1.6201 -1.1282  1.0009
 8977SOL     OW38563   4.260   0.208   1.222  0.3054  0.1762 -0.0317
 8977SOL    HW138564   4.339   0.261   1.213  1.2723 -1.4339 -0.8337
 8977SOL    HW238565   4.190   0.274   1.218  0.4944  0.2826 -1.5966
 8978SOL     OW38566   3.465   4.607   6.076  0.5401 -0.0706  0.1188
 8978SOL    HW138567   3.515   4.549   6.019 -0.5151 -0.5309 -0.3454
 8978SOL    HW238568   3.412   4.659   6.015  2.2765 -0.9607 -2.1280
 8979SOL     OW38569   2.933   2.702   5.956 -0.2971  0.2602  0.1913
 8979SOL    HW138570   2.963   2.669   6.041  0.4654 -1.4395 -0.7330
 8979SOL    HW238571   3.003   2.669   5.899  0.7171  3.5433 -0.4308
 8980SOL     OW38572   1.184   4.141   5.490  0.1216  0.2756 -0.1780
 8980SOL    HW138573   1.241   4.158   5.415 -0.3305 -0.2758 -0.6537
 8980SOL    HW238574   1.249   4.136   5.560  1.9063  1.7683 -1.7265
 8981SOL     OW38575   2.188   0.594   8.919  0.3227 -0.5601  0.7203
 8981SOL    HW138576   2.162   0.677   8.879  3.5847  0.9767  1.7640
 8981SOL    HW238577   2.269   0.572   8.872 -0.2184 -1.7393  0.3519
 8982SOL     OW38578   1.548   0.088   6.549 -0.9024  0.1455 -0.1871
 8982SOL    HW138579   1.582   0.108   6.636  0.4515 -1.0522 -0.4578
 8982SOL    HW238580   1.461   0.074   6.586 -0.5763 -1.7494 -0.1719
 8983SOL     OW38581   2.105   3.041   4.954 -0.1902  0.4301 -0.0065
 8983SOL    HW138582   2.031   2.996   4.995  0.0212 -0.8281 -0.9804
 8983SOL    HW238583   2.161   3.048   5.031 -0.2903 -1.0559  0.2095
 8984SOL     OW38584   3.984   4.091   8.528  0.0734  0.1230  0.6809
 8984SOL    HW138585   3.897   4.111   8.493 -0.0866  1.3305  1.7387
 8984SOL    HW238586   4.017   4.014   8.483 -2.3142  1.1680 -2.8057
 8985SOL     OW38587   3.637   0.278  12.263 -0.1571 -0.0180 -0.0056
 8985SOL    HW138588   3.720   0.312  12.229 -0.3134  0.1154 -0.2555
 8985SOL    HW238589   3.647   0.284  12.358  0.4550  0.1730 -0.0778
 8986SOL     OW38590   4.167   3.948   9.131 -0.0403 -0.0016  0.0789
 8986SOL    HW138591   4.094   3.968   9.073 -1.3059 -0.0131  1.6528
 8986SOL    HW238592   4.121   3.958   9.214  0.4539  0.7925  0.2627
 8987SOL     OW38593   3.415   1.352   7.139  0.3340 -0.1968 -0.0421
 8987SOL    HW138594   3.350   1.417   7.113  0.4789 -0.1158 -0.2020
 8987SOL    HW238595   3.361   1.303   7.201 -2.2517  0.0726 -2.0683
 8988SOL     OW38596   3.156   3.187   7.961 -0.2236 -0.2587 -0.0263
 8988SOL    HW138597   3.065   3.190   7.931  0.1175 -0.9188 -1.1533
 8988SOL    HW238598   3.192   3.267   7.922  0.0844 -0.0985  0.5881
 8989SOL     OW38599   3.466   1.986   8.018  0.1509  0.2066 -0.0658
 8989SOL    HW138600   3.405   2.050   7.982  0.5586  0.5647 -0.1194
 8989SOL    HW238601   3.402   1.936   8.068  0.2146 -0.9154 -1.0928
 8990SOL     OW38602   4.221   2.691  14.325 -0.0969 -0.2747 -0.5089
 8990SOL    HW138603   4.270   2.758  14.373  1.6336 -0.7931 -1.5635
 8990SOL    HW238604   4.251   2.711  14.236 -1.5014  1.6885 -0.5674
 8991SOL     OW38605   2.108   3.933  12.693  0.1918  0.2185  0.0725
 8991SOL    HW138606   2.185   3.988  12.701 -0.0895  0.7388 -0.7923
 8991SOL    HW238607   2.091   3.918  12.786  0.7505  2.2143  0.4948
 8992SOL     OW38608   2.398   1.549   2.829  0.0169 -0.4465  0.0889
 8992SOL    HW138609   2.332   1.618   2.825  0.9578  0.4454  0.0152
 8992SOL    HW238610   2.409   1.547   2.734 -0.4459  2.8037 -0.0282
 8993SOL     OW38611   2.114   4.114   3.177 -0.5389  0.8422  0.0874
 8993SOL    HW138612   2.138   4.027   3.145  0.2367  1.5923 -1.3627
 8993SOL    HW238613   2.103   4.167   3.098  1.5154  0.1819 -0.6222
 8994SOL     OW38614   4.546   0.433  15.824 -0.4438  0.2774  0.3556
 8994SOL    HW138615   4.569   0.450  15.915  0.9206 -1.1276  0.2715
 8994SOL    HW238616   4.602   0.357  15.808  0.2927  0.5607  1.5636
 8995SOL     OW38617   4.349   1.840   7.550  0.0384  0.6357  0.0928
 8995SOL    HW138618   4.294   1.764   7.532  0.2216  0.1274  1.6503
 8995SOL    HW238619   4.425   1.789   7.577  0.8275  2.9188  2.2669
 8996SOL     OW38620   4.095   1.817   1.557 -0.3705 -0.2240 -0.1200
 8996SOL    HW138621   4.124   1.903   1.528 -1.4401  0.3982  0.6113
 8996SOL    HW238622   4.066   1.774   1.477 -0.0605 -1.3876  0.3971
 8997SOL     OW38623   2.684   4.464   2.078  0.3062  0.5251  0.2943
 8997SOL    HW138624   2.694   4.462   2.173 -2.5170  1.4601  0.6119
 8997SOL    HW238625   2.710   4.374   2.058 -0.5410  0.1265  1.0260
 8998SOL     OW38626   3.878   0.285   3.937  0.0396  0.3141 -0.2334
 8998SOL    HW138627   3.874   0.302   3.843  1.1188 -0.8347 -0.4946
 8998SOL    HW238628   3.846   0.196   3.954  0.4701  0.5822  1.9230
 8999SOL     OW38629   2.575   1.737  11.296  0.1447 -0.3765 -0.0976
 8999SOL    HW138630   2.524   1.661  11.323 -2.5668  0.9993 -1.3210
 8999SOL    HW238631   2.511   1.806  11.313 -0.9572 -1.3308 -0.4132
 9000SOL     OW38632   0.614   3.854   2.976  0.2597  0.0290  0.3302
 9000SOL    HW138633   0.646   3.921   3.036 -0.1601  0.0248  0.5595
 9000SOL    HW238634   0.657   3.883   2.896 -0.5887  0.6629  0.1050
 9001SOL     OW38635   2.037   2.720   1.839  0.1394  0.2503 -0.1274
 9001SOL    HW138636   1.998   2.807   1.837  1.2313  0.7479  0.4327
 9001SOL    HW238637   2.120   2.727   1.791  1.4722  0.0862  2.1364
 9002SOL     OW38638   1.474   3.177  17.666  0.3931 -0.0537 -0.4116
 9002SOL    HW138639   1.436   3.260  17.696  0.9426 -0.2956  0.9624
 9002SOL    HW238640   1.462   3.190  17.572 -3.4942 -0.4483  0.0259
 9003SOL     OW38641   4.215   3.143  11.510  0.1648 -0.0286  0.0660
 9003SOL    HW138642   4.274   3.194  11.567  0.0391  1.5241 -1.1973
 9003SOL    HW238643   4.273   3.075  11.476  0.2634  0.1294 -0.0808
 9004SOL     OW38644   4.263   3.454   5.499  0.2334  0.6117 -0.0248
 9004SOL    HW138645   4.256   3.360   5.516  3.3666  0.2495 -0.6787
 9004SOL    HW238646   4.315   3.443   5.420 -0.1474  0.0804 -0.1957
 9005SOL     OW38647   1.262   2.170   3.657  0.0780  0.2870 -0.0333
 9005SOL    HW138648   1.237   2.081   3.630  0.3981 -0.2759  1.5363
 9005SOL    HW238649   1.350   2.180   3.620 -0.2552 -0.2168 -0.9623
 9006SOL     OW38650   3.316   4.368  12.312  0.2079  0.0033 -0.3127
 9006SOL    HW138651   3.248   4.398  12.373  0.0686 -0.1838 -0.3763
 9006SOL    HW238652   3.300   4.430  12.241  0.6107  1.5153  0.9318
 9007SOL     OW38653   3.539   2.113   3.173 -0.4772 -0.0540 -0.0735
 9007SOL    HW138654   3.502   2.193   3.134  1.7075  0.4952 -1.0050
 9007SOL    HW238655   3.596   2.092   3.100 -1.4438  0.2866 -0.9356
 9008SOL     OW38656   4.290   0.299   9.083  0.3967  0.1911 -0.3584
 9008SOL    HW138657   4.349   0.346   9.141  0.3923 -0.3176  0.0672
 9008SOL    HW238658   4.221   0.269   9.142 -0.1979 -2.3084 -2.3106
 9009SOL     OW38659   1.295   2.909  17.006  0.4292 -0.4089 -0.5138
 9009SOL    HW138660   1.299   2.906  17.102  2.3569  0.6106 -0.5724
 9009SOL    HW238661   1.216   2.963  17.002 -0.6784 -2.1428 -2.5755
 9010SOL     OW38662   2.987   2.948   3.533  0.8014 -0.0082  0.5544
 9010SOL    HW138663   3.062   2.891   3.514 -0.2723 -0.9570 -0.8775
 9010SOL    HW238664   2.950   2.955   3.445  1.7213  2.1524  0.3430
 9011SOL     OW38665   0.402   2.280   5.960  0.0645  0.1945 -0.2619
 9011SOL    HW138666   0.414   2.291   5.865 -1.4671 -1.4406 -0.6417
 9011SOL    HW238667   0.450   2.356   5.993 -0.0643  0.1380  0.0553
 9012SOL     OW38668   0.898   3.444   4.225  0.0830  0.5212 -0.1160
 9012SOL    HW138669   0.859   3.420   4.309  1.9543 -0.9659  0.3336
 9012SOL    HW238670   0.819   3.427   4.175  0.4574  3.0980 -1.6230
 9013SOL     OW38671   0.844   0.888  11.815  0.1990 -0.2536 -0.5148
 9013SOL    HW138672   0.885   0.884  11.902 -2.2415  0.7365  0.6690
 9013SOL    HW238673   0.925   0.872  11.766  0.3917  0.3027 -0.3816
 9014SOL     OW38674   0.197   1.751  11.853 -0.2168 -0.9213  0.3731
 9014SOL    HW138675   0.280   1.705  11.860 -0.1096 -0.8796 -0.5800
 9014SOL    HW238676   0.151   1.689  11.796  0.4992 -2.3395  1.3575
 9015SOL     OW38677   3.466   0.782   8.133  0.2156  0.1254  1.2284
 9015SOL    HW138678   3.377   0.818   8.132  0.0785 -0.2807 -1.2635
 9015SOL    HW238679   3.518   0.862   8.145 -0.7655  0.9058  0.2448
 9016SOL     OW38680   3.694   2.973   7.598  0.3146 -0.4953 -0.0410
 9016SOL    HW138681   3.673   2.949   7.688  1.2889 -1.3458 -0.0437
 9016SOL    HW238682   3.607   3.003   7.572  0.6373 -0.6824 -1.3374
 9017SOL     OW38683   3.094   2.044   9.107 -0.1844  0.0599  0.4683
 9017SOL    HW138684   3.047   1.987   9.169 -1.2302 -0.0250 -0.4048
 9017SOL    HW238685   3.070   2.001   9.025  2.3564 -1.0868  0.3223
 9018SOL     OW38686   4.022   0.503   4.039  0.3125  0.5824 -0.1652
 9018SOL    HW138687   4.115   0.476   4.041  0.1242  0.0102  0.8978
 9018SOL    HW238688   3.978   0.431   3.994  0.5125  0.6293 -0.4381
 9019SOL     OW38689   1.631   3.527   4.286  0.4487  0.7501 -0.4609
 9019SOL    HW138690   1.707   3.501   4.234  1.3378 -0.6682  1.5461
 9019SOL    HW238691   1.575   3.449   4.284  0.4215  0.7211  1.2578
 9020SOL     OW38692   4.675   1.985  10.808 -0.2168 -0.4592  0.1833
 9020SOL    HW138693   4.581   1.992  10.822  0.1392 -1.8574  3.2670
 9020SOL    HW238694   4.702   1.983  10.900  2.0793  1.9019 -0.4390
 9021SOL     OW38695   2.290   4.418   0.838  0.1409 -0.4048 -0.0325
 9021SOL    HW138696   2.319   4.340   0.791  0.8073 -1.3649  1.9889
 9021SOL    HW238697   2.200   4.420   0.804 -0.1062 -0.8459  0.5981
 9022SOL     OW38698   4.037   0.831  16.738 -0.0077  0.1533  0.3543
 9022SOL    HW138699   3.982   0.761  16.773 -0.0200 -0.0790 -0.1310
 9022SOL    HW238700   3.984   0.892  16.688 -2.1412 -0.2395  2.1621
 9023SOL     OW38701   1.325   2.682   6.888 -0.3364 -0.1558 -0.0593
 9023SOL    HW138702   1.304   2.710   6.977  1.8963  1.4888 -0.0707
 9023SOL    HW238703   1.305   2.588   6.894 -0.5920 -0.1485 -0.8484
 9024SOL     OW38704   1.352   1.415  11.665 -0.2088  0.1344 -0.4117
 9024SOL    HW138705   1.260   1.399  11.686  0.3385 -0.2988  1.6411
 9024SOL    HW238706   1.380   1.478  11.731 -1.0577 -0.2654  0.3248
 9025SOL     OW38707   1.410   0.630   5.110  0.7579  0.1504  0.3438
 9025SOL    HW138708   1.419   0.607   5.018 -0.3622  0.9637  0.0426
 9025SOL    HW238709   1.345   0.564   5.131  0.9737 -0.2362 -0.1995
 9026SOL     OW38710   1.578   4.266  12.085 -0.1902  0.4092  0.2015
 9026SOL    HW138711   1.608   4.214  12.010  0.5712  0.4906  0.4526
 9026SOL    HW238712   1.553   4.195  12.144  1.9210 -0.5863 -0.1092
 9027SOL     OW38713   0.545   0.652   3.557  0.5606  0.6937  0.6597
 9027SOL    HW138714   0.605   0.725   3.541  0.9616  0.6235  1.8381
 9027SOL    HW238715   0.522   0.630   3.467 -1.2405  1.2788  0.9814
 9028SOL     OW38716   2.015   2.513  10.618 -0.3913  0.1939  0.3612
 9028SOL    HW138717   2.060   2.493  10.700 -0.4666  1.5061  0.7266
 9028SOL    HW238718   2.082   2.473  10.563  0.9188  1.3882  1.0832
 9029SOL     OW38719   4.693   3.456   5.960  0.7451 -0.6549  0.1628
 9029SOL    HW138720   4.690   3.549   5.937 -0.6921 -0.7239  0.0709
 9029SOL    HW238721   4.677   3.412   5.877 -0.6060  1.2450 -0.6008
 9030SOL     OW38722   0.680   1.862  14.493  0.0465  0.4109  0.2522
 9030SOL    HW138723   0.768   1.894  14.474 -0.3367  1.5775  0.4308
 9030SOL    HW238724   0.676   1.880  14.587 -0.6858 -2.5647  0.7966
 9031SOL     OW38725   0.849   1.982   3.658  0.4704 -0.3143  0.1072
 9031SOL    HW138726   0.758   2.011   3.670  0.8902  1.1814 -0.2545
 9031SOL    HW238727   0.891   2.020   3.735 -0.4893  0.5338  0.2175
 9032SOL     OW38728   0.662   1.741   9.935 -0.4392  0.1361 -0.0880
 9032SOL    HW138729   0.593   1.752  10.000  0.9481  2.9800  0.9175
 9032SOL    HW238730   0.678   1.830   9.904  0.6346  0.5536  1.6171
 9033SOL     OW38731   1.219   2.474   7.035  1.1317  0.2656 -0.3763
 9033SOL    HW138732   1.246   2.514   7.118  0.4278 -1.9415  0.9361
 9033SOL    HW238733   1.261   2.388   7.035  0.4905 -0.0540 -3.4305
 9034SOL     OW38734   2.018   2.991   9.966  0.5855 -0.2797 -0.0475
 9034SOL    HW138735   1.971   3.070   9.993  0.2058 -1.0265  1.4365
 9034SOL    HW238736   1.991   2.999   9.874  0.7691 -2.5965 -0.2997
 9035SOL     OW38737   3.774   0.192   7.884 -0.2782  0.1715 -1.0705
 9035SOL    HW138738   3.793   0.119   7.824  0.6869 -0.2452 -0.2688
 9035SOL    HW238739   3.819   0.264   7.840 -1.9855  2.9635  1.7089
 9036SOL     OW38740   4.076   2.279   4.340 -0.8173  0.1310 -0.7796
 9036SOL    HW138741   4.037   2.192   4.339 -1.5984  0.4841 -0.6930
 9036SOL    HW238742   4.010   2.326   4.290 -0.5800  0.4193 -0.8226
 9037SOL     OW38743   4.431   2.906   7.267 -0.4594  0.3617 -0.2677
 9037SOL    HW138744   4.526   2.910   7.275 -0.5156  1.8991 -0.3981
 9037SOL    HW238745   4.417   2.839   7.335  2.5855 -1.2847 -1.2366
 9038SOL     OW38746   3.344   2.747  13.532 -0.0753  0.2508 -0.2097
 9038SOL    HW138747   3.313   2.837  13.525  1.0154  0.4716 -2.3034
 9038SOL    HW238748   3.332   2.726  13.439  0.9560 -0.4385 -0.1919
 9039SOL     OW38749   3.228   4.653   6.197  0.7402  0.2261  0.2459
 9039SOL    HW138750   3.305   4.621   6.150  1.6844  2.6347  0.1560
 9039SOL    HW238751   3.162   4.628   6.132  0.6982  0.5096  0.1809
 9040SOL     OW38752   1.797   4.043   5.701  0.1267  0.0883 -0.0643
 9040SOL    HW138753   1.839   4.006   5.779  1.5368  0.9764 -0.4143
 9040SOL    HW238754   1.715   3.994   5.690 -0.4013  1.0615 -0.4801
 9041SOL     OW38755   1.322   1.672   6.709 -0.1257 -0.1162 -0.0359
 9041SOL    HW138756   1.372   1.736   6.659 -0.6015 -1.0462 -1.7215
 9041SOL    HW238757   1.307   1.723   6.788  0.2470  1.7562 -1.1851
 9042SOL     OW38758   2.017   1.544   4.577 -0.4355 -0.3273  0.1778
 9042SOL    HW138759   2.057   1.511   4.657 -3.0018  1.1445  2.0912
 9042SOL    HW238760   2.096   1.524   4.528  0.1130 -0.6816  1.2181
 9043SOL     OW38761   0.762   4.264  11.241 -0.4079 -0.0899 -0.1975
 9043SOL    HW138762   0.710   4.186  11.256 -1.1724  0.5325  0.3996
 9043SOL    HW238763   0.771   4.258  11.146  0.5374  0.5589 -0.1579
 9044SOL     OW38764   3.510   1.063  11.727 -0.4889  0.1972 -0.3582
 9044SOL    HW138765   3.602   1.071  11.752 -0.4392 -1.1479 -0.1261
 9044SOL    HW238766   3.464   1.094  11.805 -1.9679 -1.5098 -0.5431
 9045SOL     OW38767   1.341   4.011   7.949  0.1768 -1.1300 -0.3039
 9045SOL    HW138768   1.349   4.086   8.007 -2.4650 -1.1649  0.0905
 9045SOL    HW238769   1.294   3.952   8.008  0.2195  0.0088  0.8510
 9046SOL     OW38770   3.895   0.143   0.545  0.1477  0.0343 -0.7798
 9046SOL    HW138771   3.825   0.116   0.603 -0.5243 -1.4759 -2.2754
 9046SOL    HW238772   3.846   0.166   0.466  2.1112  1.6323 -1.5350
 9047SOL     OW38773   0.816   1.547   4.960  0.3158 -0.8081  0.4946
 9047SOL    HW138774   0.859   1.633   4.964 -0.5042 -0.3637 -0.3742
 9047SOL    HW238775   0.885   1.493   4.998  1.8078  1.8368  1.5306
 9048SOL     OW38776   0.983   1.081   1.909  0.9271 -0.0310 -0.2365
 9048SOL    HW138777   0.951   1.076   1.819  0.3869 -0.0185 -0.0426
 9048SOL    HW238778   0.943   1.165   1.934 -0.9346 -0.6860 -1.0644
 9049SOL     OW38779   2.222   2.118   4.168  0.1351  0.4285 -0.7199
 9049SOL    HW138780   2.226   2.211   4.143 -0.2521  0.4123 -0.8470
 9049SOL    HW238781   2.283   2.124   4.242 -0.0855  0.4914 -0.5416
 9050SOL     OW38782   2.634   4.422   3.039  0.4402 -0.0922 -0.2963
 9050SOL    HW138783   2.648   4.354   3.105 -1.6722  0.5285  0.7909
 9050SOL    HW238784   2.580   4.381   2.972 -0.1320 -1.0246  0.7393
 9051SOL     OW38785   2.256   3.070   5.173  0.6575  0.4829  0.2896
 9051SOL    HW138786   2.342   3.104   5.200  1.3577 -0.7598 -0.3643
 9051SOL    HW238787   2.272   2.980   5.200 -0.3753 -0.1562 -1.2565
 9052SOL     OW38788   0.949   0.749   9.750 -0.2264 -0.2771 -0.1349
 9052SOL    HW138789   0.942   0.844   9.761  1.5808 -0.1445 -0.1170
 9052SOL    HW238790   0.908   0.717   9.831  1.2530 -0.9153  0.3807
 9053SOL     OW38791   3.283   2.878   9.278 -0.1218  0.4700  0.2915
 9053SOL    HW138792   3.228   2.894   9.202  1.1467 -2.8145 -1.3372
 9053SOL    HW238793   3.227   2.828   9.337  1.2180 -3.4172 -1.7070
 9054SOL     OW38794   0.907   1.476   7.641  0.0175 -0.1950 -0.0832
 9054SOL    HW138795   0.940   1.485   7.551 -0.6968 -0.8103 -0.4058
 9054SOL    HW238796   0.840   1.545   7.638 -0.8283 -1.0794 -1.5125
 9055SOL     OW38797   2.989   3.524   7.884  0.0209  0.1900  0.2481
 9055SOL    HW138798   3.043   3.481   7.818  0.6495 -0.5389  1.2347
 9055SOL    HW238799   3.046   3.597   7.911 -1.1624  1.2451 -0.1086
 9056SOL     OW38800   3.728   2.104   6.274  0.2011 -0.1048  0.0242
 9056SOL    HW138801   3.638   2.080   6.252  0.9558 -2.4936 -0.5056
 9056SOL    HW238802   3.724   2.183   6.221  1.9433  0.8756  1.3789
 9057SOL     OW38803   0.645   0.718   5.551  0.0241  0.4348 -0.9612
 9057SOL    HW138804   0.552   0.696   5.560  0.5185 -0.4492  2.2026
 9057SOL    HW238805   0.647   0.795   5.609 -1.0267  0.0187 -0.3800
 9058SOL     OW38806   0.648   0.660   2.344 -0.0041  0.0678 -0.0953
 9058SOL    HW138807   0.681   0.587   2.291 -1.1497 -1.4921  1.3139
 9058SOL    HW238808   0.717   0.662   2.411  0.9312 -1.4605 -1.0044
 9059SOL     OW38809   2.952   3.638   2.574  0.2008 -0.1914 -0.0700
 9059SOL    HW138810   2.923   3.708   2.516  0.9065  1.4157  1.5033
 9059SOL    HW238811   2.909   3.559   2.541 -0.6401  0.3979 -0.3859
 9060SOL     OW38812   2.974   3.978  13.242  0.0251  0.7396 -0.1220
 9060SOL    HW138813   2.906   3.976  13.309  0.5343  0.8007  0.3971
 9060SOL    HW238814   2.950   3.892  13.209  3.8247 -0.8194  1.1506
 9061SOL     OW38815   2.429   2.109   7.028  0.1902 -0.4918  0.4455
 9061SOL    HW138816   2.369   2.104   6.954 -1.0259  0.9933  1.3243
 9061SOL    HW238817   2.468   2.197   7.024 -0.5975 -0.2345 -1.7591
 9062SOL     OW38818   0.446   3.143  15.862 -1.0399  0.1265  0.2660
 9062SOL    HW138819   0.419   3.179  15.946 -0.0430 -0.3159  0.7671
 9062SOL    HW238820   0.395   3.199  15.802  1.9288  1.0983 -1.3604
 9063SOL     OW38821   1.179   3.938   6.676  0.3520  0.1732 -0.5189
 9063SOL    HW138822   1.262   3.903   6.710 -1.0637 -1.5976  1.0803
 9063SOL    HW238823   1.162   3.891   6.595  1.0332  0.0233 -0.5769
 9064SOL     OW38824   3.746   3.750   6.985  0.4435 -0.0729  0.2467
 9064SOL    HW138825   3.672   3.698   7.018  1.9663 -2.2835  0.1291
 9064SOL    HW238826   3.701   3.829   6.954  3.9288  1.4785 -0.9141
 9065SOL     OW38827   1.216   3.803   9.268 -0.3400 -0.7391  0.6351
 9065SOL    HW138828   1.183   3.763   9.188  0.6825 -0.8055  0.2505
 9065SOL    HW238829   1.132   3.811   9.314 -2.3019  0.9782 -3.2670
 9066SOL     OW38830   0.400   3.460  15.231 -0.0882  0.4099 -0.0514
 9066SOL    HW138831   0.434   3.387  15.178 -1.2560  0.5894 -1.0413
 9066SOL    HW238832   0.368   3.521  15.164 -0.6930 -0.9176 -0.9658
 9067SOL     OW38833   1.444   3.590  11.148 -0.1804  0.2916 -0.7999
 9067SOL    HW138834   1.375   3.539  11.106 -0.5563 -0.5062  0.7727
 9067SOL    HW238835   1.411   3.679  11.150 -2.0544 -0.4432  0.5758
 9068SOL     OW38836   3.523   0.812  16.871 -0.2011  0.4650 -0.2667
 9068SOL    HW138837   3.550   0.903  16.859  2.6174 -0.4453 -0.8737
 9068SOL    HW238838   3.539   0.794  16.963  1.6177  2.4570 -0.1949
 9069SOL     OW38839   4.552   2.556   3.717 -0.0405 -0.6418  0.1036
 9069SOL    HW138840   4.461   2.566   3.742 -0.4692 -0.4395 -1.5305
 9069SOL    HW238841   4.544   2.499   3.641  1.5532  0.3805 -0.8365
 9070SOL     OW38842   2.289   0.090   8.417  0.0198  0.5844  0.2382
 9070SOL    HW138843   2.254   0.144   8.488  1.3996  1.9324 -0.1067
 9070SOL    HW238844   2.334   0.151   8.358 -1.9703  1.1481 -0.6633
 9071SOL     OW38845   2.694   2.174   2.579  0.2031 -0.1319  0.0224
 9071SOL    HW138846   2.733   2.103   2.630 -1.7622  0.1937  1.9971
 9071SOL    HW238847   2.771   2.206   2.532 -0.3246 -2.4604 -2.3942
 9072SOL     OW38848   2.717   3.210   3.513  0.2674 -0.0693 -0.1359
 9072SOL    HW138849   2.779   3.238   3.446  1.4938 -0.0581  1.0122
 9072SOL    HW238850   2.777   3.213   3.588 -1.7939 -2.2855  1.6081
 9073SOL     OW38851   1.429   0.985   1.812  0.3644  0.1283 -0.1354
 9073SOL    HW138852   1.411   1.049   1.880  1.2741 -0.3573  0.5620
 9073SOL    HW238853   1.516   1.017   1.787 -0.4079  3.7021  1.7647
 9074SOL     OW38854   1.304   0.259  12.340 -1.0589 -0.2585 -0.3413
 9074SOL    HW138855   1.380   0.252  12.398 -0.2743 -0.8467 -1.4541
 9074SOL    HW238856   1.235   0.252  12.406 -0.7671  0.3542  0.0283
 9075SOL     OW38857   2.292   0.245   3.729 -0.7348  0.1024  0.3308
 9075SOL    HW138858   2.312   0.314   3.792 -0.3927  0.3520 -0.0461
 9075SOL    HW238859   2.374   0.197   3.719 -0.1763  1.3215 -0.9613
 9076SOL     OW38860   2.115   1.364  12.363  0.0527  0.4328 -0.0928
 9076SOL    HW138861   2.124   1.457  12.340 -0.4985  0.5823  0.2891
 9076SOL    HW238862   2.041   1.336  12.310 -0.1572  3.2958 -1.3364
 9077SOL     OW38863   4.612   0.334   7.434  0.2600 -0.0677  0.3283
 9077SOL    HW138864   4.519   0.327   7.455  0.4803 -0.0783  1.2895
 9077SOL    HW238865   4.639   0.244   7.417  0.3171  0.0336 -0.1242
 9078SOL     OW38866   1.660   1.797   4.211  0.4961  0.0724  0.3337
 9078SOL    HW138867   1.581   1.851   4.214  0.0315 -0.4374 -2.9177
 9078SOL    HW238868   1.648   1.750   4.129  1.8263  1.2234 -0.5149
 9079SOL     OW38869   1.981   4.569   2.091  0.5454 -0.4865  0.6759
 9079SOL    HW138870   2.021   4.624   2.023 -0.3328 -1.7447 -0.8512
 9079SOL    HW238871   1.973   4.639   2.155 -0.9804 -1.1167  1.1842
 9080SOL     OW38872   1.434   4.707  16.107  0.1430  0.2488 -0.1201
 9080SOL    HW138873   1.394   0.005  16.187  0.0870 -0.1315  0.0111
 9080SOL    HW238874   1.389   4.623  16.106  0.4291  0.0795  1.4023
 9081SOL     OW38875   3.873   1.057  16.657  0.5886 -0.1816 -0.3900
 9081SOL    HW138876   3.811   1.095  16.719 -1.1037 -0.4039 -1.9472
 9081SOL    HW238877   3.857   1.105  16.575  0.1490  0.7887  0.2548
 9082SOL     OW38878   2.166   1.772  14.822  0.4291 -0.4330  0.5102
 9082SOL    HW138879   2.250   1.803  14.855  0.7475 -0.2785 -0.4214
 9082SOL    HW238880   2.130   1.838  14.763  1.1082  0.0669  0.6597
 9083SOL     OW38881   0.439   0.414   3.100  0.9466  0.8928  0.3275
 9083SOL    HW138882   0.514   0.467   3.071  0.7770 -0.4589 -2.6056
 9083SOL    HW238883   0.416   0.357   3.027  1.5210  2.3257 -0.9855
 9084SOL     OW38884   2.476   2.673   9.420  0.3036  0.3502 -0.4410
 9084SOL    HW138885   2.429   2.605   9.372  2.9449 -1.9724  0.2225
 9084SOL    HW238886   2.412   2.730   9.461 -0.4606 -0.1739 -0.9142
 9085SOL     OW38887   2.704   1.004   7.357  0.0484 -0.4597 -0.4036
 9085SOL    HW138888   2.763   0.955   7.415  0.0993  0.9080  0.6925
 9085SOL    HW238889   2.679   1.080   7.410  2.4801  0.9986 -1.3449
 9086SOL     OW38890   0.976   1.155   5.692 -0.3357 -0.2279 -0.1502
 9086SOL    HW138891   0.910   1.214   5.654 -0.4861 -1.0429 -1.1489
 9086SOL    HW238892   0.920   1.087   5.728  0.6508 -0.9985 -0.0844
 9087SOL     OW38893   2.596   1.372  14.101 -0.2196  0.1771  0.6666
 9087SOL    HW138894   2.504   1.357  14.120 -0.3071 -3.4027 -2.3855
 9087SOL    HW238895   2.602   1.463  14.130 -1.9872  0.1070  1.2369
 9088SOL     OW38896   3.686   4.332   4.920 -0.3929 -0.0772 -0.2168
 9088SOL    HW138897   3.619   4.266   4.904  1.5515 -2.3377  1.1344
 9088SOL    HW238898   3.668   4.374   5.004  1.0485  1.0240 -0.4575
 9089SOL     OW38899   1.582   3.337   0.776  0.2150  0.2697 -0.3418
 9089SOL    HW138900   1.648   3.391   0.732  1.0969 -0.7450 -0.2661
 9089SOL    HW238901   1.502   3.363   0.730 -0.6295 -1.8056 -0.0591
 9090SOL     OW38902   1.335   0.288  15.473 -0.7038  0.4083 -0.4177
 9090SOL    HW138903   1.245   0.263  15.498 -0.0659 -3.0641 -1.6767
 9090SOL    HW238904   1.313   0.359  15.413 -0.0529  0.8511 -0.1309
 9091SOL     OW38905   1.200   3.821   2.228 -0.3156 -0.1641 -0.1806
 9091SOL    HW138906   1.295   3.816   2.219 -0.4698 -3.0574 -0.1653
 9091SOL    HW238907   1.176   3.739   2.269 -1.6633 -0.7835 -2.1818
 9092SOL     OW38908   3.355   0.891   1.556 -0.0684 -0.5777  0.0935
 9092SOL    HW138909   3.442   0.912   1.591 -0.5340  0.5185  0.6120
 9092SOL    HW238910   3.294   0.924   1.622  2.7180  3.2004  0.8473
 9093SOL     OW38911   0.336   3.960  17.187  0.2285  0.4797 -0.1988
 9093SOL    HW138912   0.307   3.890  17.128 -1.7634  1.7493 -0.7532
 9093SOL    HW238913   0.288   3.934  17.266 -2.3842 -0.7626 -2.1714
 9094SOL     OW38914   3.252   1.809  17.711 -0.5940 -0.2797  0.4352
 9094SOL    HW138915   3.163   1.839  17.694 -0.6087 -1.1692 -0.9723
 9094SOL    HW238916   3.246   1.732  17.654  0.7361 -0.5326  0.6391
 9095SOL     OW38917   3.337   2.328   3.883  0.2741  0.1932  0.1656
 9095SOL    HW138918   3.355   2.418   3.857  0.8603 -0.2762 -1.0871
 9095SOL    HW238919   3.391   2.281   3.819  0.0836 -0.3409  0.3947
 9096SOL     OW38920   2.168   3.480   1.928  0.1849 -0.2741 -0.0596
 9096SOL    HW138921   2.226   3.412   1.961 -0.3231 -0.1202  1.1640
 9096SOL    HW238922   2.092   3.426   1.906  1.0123 -1.5150  0.1032
 9097SOL     OW38923   2.612   1.561  16.031 -0.2658  0.1289 -0.0087
 9097SOL    HW138924   2.630   1.630  15.967 -0.5639  0.9346  0.7735
 9097SOL    HW238925   2.671   1.495  15.993 -1.5969 -0.5402 -0.9157
 9098SOL     OW38926   2.596   3.302   7.474 -0.2074  0.0725 -0.0242
 9098SOL    HW138927   2.582   3.288   7.568  1.4181 -0.0537  0.2072
 9098SOL    HW238928   2.558   3.220   7.442  0.2056 -0.3474  0.5643
 9099SOL     OW38929   4.656   1.531   6.767 -0.0108 -0.1977  0.0803
 9099SOL    HW138930   4.706   1.542   6.848  0.6614  1.6061 -0.5676
 9099SOL    HW238931   4.728   1.528   6.704 -0.7106  1.7585 -0.8472
 9100SOL     OW38932   1.496   0.506  12.989 -0.3536  0.5643 -0.9643
 9100SOL    HW138933   1.551   0.443  12.942 -1.4274 -0.9030 -0.2307
 9100SOL    HW238934   1.413   0.460  12.992  0.2189 -0.3887 -0.0313
 9101SOL     OW38935   4.235   2.038   9.109 -0.4752 -0.5567  0.2637
 9101SOL    HW138936   4.284   2.024   9.029 -0.7288 -1.5868  0.2964
 9101SOL    HW238937   4.152   1.997   9.087 -0.6473  0.5672 -1.1747
 9102SOL     OW38938   0.405   4.304   3.769  0.2303 -0.1273 -0.0086
 9102SOL    HW138939   0.432   4.304   3.677  1.1421  1.1509  0.2522
 9102SOL    HW238940   0.496   4.295   3.797  0.7137  0.3815 -1.4530
 9103SOL     OW38941   0.990   3.824   8.373  0.2470  0.2181 -0.1812
 9103SOL    HW138942   1.023   3.735   8.374 -1.6860 -0.5150 -0.6012
 9103SOL    HW238943   0.969   3.837   8.465 -1.2569  0.3145 -0.5239
 9104SOL     OW38944   1.729   4.599  17.654  0.5216 -0.3711  0.2178
 9104SOL    HW138945   1.815   4.641  17.656 -0.4626  1.6029  0.7027
 9104SOL    HW238946   1.719   4.594   0.009 -1.4291  0.2129  0.0437
 9105SOL     OW38947   4.291   0.453   2.072  0.4932 -0.2612 -0.3178
 9105SOL    HW138948   4.322   0.403   1.996  1.5775  0.4170 -0.3152
 9105SOL    HW238949   4.210   0.490   2.037  0.9461  0.7522 -0.2944
 9106SOL     OW38950   3.708   3.871   4.337  0.2695 -0.2924  0.1477
 9106SOL    HW138951   3.685   3.904   4.423  0.9122 -0.5313  0.4114
 9106SOL    HW238952   3.804   3.863   4.337  0.4544  1.8386 -0.8250
 9107SOL     OW38953   3.238   1.059   3.289 -0.1863  0.4160 -0.3595
 9107SOL    HW138954   3.203   1.099   3.209 -1.6691  0.1513  0.1660
 9107SOL    HW238955   3.277   1.135   3.333  0.2200 -0.6147  1.0619
 9108SOL     OW38956   2.202   1.957   4.452  0.4269  0.4924  0.0238
 9108SOL    HW138957   2.278   2.008   4.426 -0.5309  1.3128 -1.1352
 9108SOL    HW238958   2.210   1.882   4.393 -1.0395  1.8424 -1.8671
 9109SOL     OW38959   0.992   4.503   7.541 -0.6404  0.2892 -0.6535
 9109SOL    HW138960   1.069   4.452   7.565 -0.7120  0.2147 -0.5831
 9109SOL    HW238961   0.924   4.435   7.539 -0.8894  0.4595  2.8184
 9110SOL     OW38962   0.404   3.639   3.800  0.3546 -0.1615  0.1360
 9110SOL    HW138963   0.475   3.576   3.797 -0.6215 -1.3023  0.7019
 9110SOL    HW238964   0.406   3.679   3.714  2.0233  0.8286  0.6314
 9111SOL     OW38965   4.461   1.090   7.427  0.9283  0.0056 -0.0727
 9111SOL    HW138966   4.486   0.999   7.411 -2.4257 -0.5891 -1.7999
 9111SOL    HW238967   4.390   1.092   7.491 -0.6022 -1.8609 -1.7431
 9112SOL     OW38968   0.705   3.429   5.299  0.3260  0.1631 -0.0787
 9112SOL    HW138969   0.767   3.496   5.329 -0.5714  1.4146 -0.9923
 9112SOL    HW238970   0.739   3.422   5.210 -2.3069  0.4120 -1.1038
 9113SOL     OW38971   1.803   3.468   3.631 -0.0453  0.1547  0.4044
 9113SOL    HW138972   1.840   3.380   3.642 -0.7366 -0.0631  0.9707
 9113SOL    HW238973   1.793   3.468   3.536  2.3045  0.4649  0.1518
 9114SOL     OW38974   4.727   0.312  12.319 -0.1172 -0.1475 -0.0098
 9114SOL    HW138975   4.727   0.405  12.343  2.4562 -0.0792 -0.2066
 9114SOL    HW238976   4.655   0.304  12.257 -0.2737 -0.5394  0.2221
 9115SOL     OW38977   2.133   3.308   9.511  0.0549 -0.3064  0.3461
 9115SOL    HW138978   2.165   3.304   9.421 -0.2997  0.1934  0.1946
 9115SOL    HW238979   2.047   3.268   9.507 -0.5246  0.8032  1.4479
 9116SOL     OW38980   4.068   0.649   5.561 -0.5029 -0.3436  0.5225
 9116SOL    HW138981   4.079   0.609   5.647  0.7749  1.2758  1.0989
 9116SOL    HW238982   4.125   0.589   5.513  1.3680  1.2041  0.8386
 9117SOL     OW38983   0.270   3.526   3.993  0.5006  0.7764 -0.5381
 9117SOL    HW138984   0.316   3.569   3.921  1.1189  1.3568  0.2056
 9117SOL    HW238985   0.188   3.575   3.997 -0.8998 -1.3954 -2.5757
 9118SOL     OW38986   4.476   1.810  11.074 -0.2030  1.0371 -0.1594
 9118SOL    HW138987   4.458   1.776  10.987 -0.6553  2.1501 -0.5002
 9118SOL    HW238988   4.402   1.869  11.087 -0.4964  0.6740 -0.1838
 9119SOL     OW38989   3.201   1.467   8.709  0.4731 -0.4797  0.9860
 9119SOL    HW138990   3.261   1.503   8.644 -1.2699  0.0744 -0.3334
 9119SOL    HW238991   3.218   1.377   8.681  0.9967 -0.4880  1.3524
 9120SOL     OW38992   4.174   0.615   4.467 -0.3785  0.3185 -0.3742
 9120SOL    HW138993   4.163   0.525   4.498 -1.5476 -0.1557 -2.1805
 9120SOL    HW238994   4.090   0.660   4.460  0.1995  1.1724 -1.8566
 9121SOL     OW38995   2.886   1.331   6.964  0.5157  0.0069 -0.3399
 9121SOL    HW138996   2.845   1.281   6.893  1.3687 -0.1077 -0.7574
 9121SOL    HW238997   2.876   1.268   7.036 -0.2535  0.4250 -0.0898
 9122SOL     OW38998   4.389   2.155   5.512 -0.3939 -0.3245  0.3651
 9122SOL    HW138999   4.469   2.105   5.497 -1.0870 -1.5518  0.7915
 9122SOL    HW239000   4.348   2.112   5.587 -0.7722 -1.0263 -0.2538
 9123SOL     OW39001   3.639   0.389   2.473  0.2043  0.1859 -0.3892
 9123SOL    HW139002   3.663   0.481   2.479 -1.6549  0.5185  1.8166
 9123SOL    HW239003   3.637   0.370   2.379 -0.7811  0.6576 -0.4617
 9124SOL     OW39004   0.396   2.255   2.727  0.2191 -0.2876  0.0055
 9124SOL    HW139005   0.343   2.216   2.657  2.0620  0.9967 -2.1068
 9124SOL    HW239006   0.336   2.230   2.797 -1.8386 -0.3109 -1.7470
 9125SOL     OW39007   1.033   2.506   2.784  0.6888  0.1303  0.0229
 9125SOL    HW139008   0.938   2.520   2.781  0.8169  0.6203 -1.5194
 9125SOL    HW239009   1.037   2.419   2.822 -1.2364 -1.3564 -3.2259
 9126SOL     OW39010   0.712   2.264   1.822  0.0188 -1.0000  0.2454
 9126SOL    HW139011   0.802   2.266   1.792 -0.9971  2.2491 -2.6708
 9126SOL    HW239012   0.677   2.337   1.771  0.2043 -0.0542  1.4695
 9127SOL     OW39013   0.348   0.371   4.503  0.2151 -0.5658  0.0139
 9127SOL    HW139014   0.290   0.444   4.526  0.4122 -1.3315  2.9874
 9127SOL    HW239015   0.419   0.417   4.459 -1.2701 -1.1335 -2.9826
 9128SOL     OW39016   4.242   2.976  17.480  0.3150  0.4471 -0.0413
 9128SOL    HW139017   4.282   3.048  17.528  1.0705 -0.3147  0.4607
 9128SOL    HW239018   4.195   2.938  17.554  0.1858  0.2151 -0.2430
 9129SOL     OW39019   2.706   4.261   3.973  0.0588  0.1756 -0.3242
 9129SOL    HW139020   2.710   4.234   4.065  0.0753 -0.1470 -0.4194
 9129SOL    HW239021   2.799   4.277   3.956  0.2089 -0.6761 -0.2982
 9130SOL     OW39022   0.495   3.868   6.137 -0.3340  0.5562  0.1652
 9130SOL    HW139023   0.509   3.926   6.062 -2.9148  1.9258  0.7377
 9130SOL    HW239024   0.546   3.791   6.113 -3.6444 -0.8279 -2.5000
 9131SOL     OW39025   0.927   3.956   0.858 -0.1139  0.2411 -0.0099
 9131SOL    HW139026   0.995   3.997   0.804 -0.7593 -0.2861 -1.2413
 9131SOL    HW239027   0.965   3.960   0.945  3.8729 -2.4259 -1.6180
 9132SOL     OW39028   0.755   4.570   4.019  0.0885  0.4329  0.2246
 9132SOL    HW139029   0.827   4.561   4.081  0.1602  2.4914  0.4459
 9132SOL    HW239030   0.690   4.600   4.083 -0.4977 -0.9883  0.2982
 9133SOL     OW39031   3.228   1.611   3.870 -0.0356  0.4706 -0.3618
 9133SOL    HW139032   3.192   1.526   3.842 -1.5796  0.9945  0.0093
 9133SOL    HW239033   3.320   1.600   3.847 -0.3667  0.0542 -1.5136
 9134SOL     OW39034   3.395   3.792  12.239  0.3807  0.2721  0.6443
 9134SOL    HW139035   3.359   3.825  12.322 -3.2935 -0.1781 -0.7669
 9134SOL    HW239036   3.472   3.746  12.272  1.0789  0.2587 -1.0340
 9135SOL     OW39037   3.322   1.025   3.611  0.5635 -0.0428 -0.7327
 9135SOL    HW139038   3.384   1.014   3.684 -2.3411  0.7376  1.8431
 9135SOL    HW239039   3.239   1.033   3.657 -0.5670  0.5764 -2.9118
 9136SOL     OW39040   3.463   0.739  15.491 -0.5794 -0.5718 -0.1598
 9136SOL    HW139041   3.511   0.739  15.574  0.6809 -0.8587 -0.9044
 9136SOL    HW239042   3.493   0.654  15.461  1.8423 -0.5772  2.2627
 9137SOL     OW39043   1.057   4.519   5.788 -0.5935  0.1688 -0.2983
 9137SOL    HW139044   1.086   4.437   5.830  0.6092 -1.0204 -3.3960
 9137SOL    HW239045   0.969   4.487   5.770  0.1859 -1.8445 -0.5499
 9138SOL     OW39046   2.813   0.164   5.355 -0.8836 -0.0646 -0.2605
 9138SOL    HW139047   2.749   0.207   5.298 -2.2160 -0.3450  1.0216
 9138SOL    HW239048   2.886   0.150   5.295  0.2039 -0.2670  1.1295
 9139SOL     OW39049   1.891   3.646   5.692  0.2329 -0.3795 -0.5416
 9139SOL    HW139050   1.950   3.579   5.726 -0.3320 -0.6742 -0.1371
 9139SOL    HW239051   1.942   3.662   5.612  1.9418 -1.0299  0.4255
 9140SOL     OW39052   1.292   2.785   8.036  0.3371 -0.1009 -0.3866
 9140SOL    HW139053   1.354   2.801   7.965  0.3171 -1.6615 -0.7573
 9140SOL    HW239054   1.210   2.817   7.999  0.4286  2.1439  1.3137
 9141SOL     OW39055   4.492   3.202   6.218 -0.1696  0.6990 -0.3647
 9141SOL    HW139056   4.546   3.275   6.188  0.1993  0.6479  0.1932
 9141SOL    HW239057   4.444   3.241   6.291  0.3741  1.9134 -0.6617
 9142SOL     OW39058   1.222   3.379  16.703 -0.1980 -0.1251 -0.6496
 9142SOL    HW139059   1.143   3.362  16.653  0.0047 -0.9124 -0.6934
 9142SOL    HW239060   1.287   3.353  16.638  0.1506 -2.6367  0.7323
 9143SOL     OW39061   4.273   0.950   1.975  0.2520 -0.8022 -0.7879
 9143SOL    HW139062   4.327   1.023   2.006 -0.9825  0.1044 -0.7928
 9143SOL    HW239063   4.317   0.882   2.027 -0.9549  1.1148  2.7406
 9144SOL     OW39064   3.742   1.830  14.283  0.0613  0.0823  0.0944
 9144SOL    HW139065   3.683   1.905  14.291  0.2464  0.2971 -0.5061
 9144SOL    HW239066   3.814   1.844  14.345 -0.2031 -1.5933  0.7629
 9145SOL     OW39067   1.149   0.277   2.816  0.2749 -0.3652  0.3301
 9145SOL    HW139068   1.179   0.187   2.827  2.9972  0.2962 -1.7197
 9145SOL    HW239069   1.213   0.306   2.751  0.4903  1.9425  1.5781
 9146SOL     OW39070   2.278   3.366   8.097 -0.2283  0.3729  0.2023
 9146SOL    HW139071   2.210   3.319   8.048 -2.3740  0.9947  2.5825
 9146SOL    HW239072   2.233   3.450   8.100  1.4406  1.2689 -0.1361
 9147SOL     OW39073   1.003   1.027   8.075 -0.5242 -0.1955 -0.7180
 9147SOL    HW139074   1.007   1.122   8.073 -1.8191 -0.1257 -0.3327
 9147SOL    HW239075   1.066   1.007   8.145  0.7186 -0.6752 -1.9871
 9148SOL     OW39076   0.011   0.465   9.635  0.0422  0.7561 -0.1197
 9148SOL    HW139077   0.034   0.549   9.673  2.5369  0.0549 -0.0705
 9148SOL    HW239078   0.066   0.419   9.698  1.9167  0.2031 -2.1676
 9149SOL     OW39079   3.979   4.366   8.756 -0.0367  0.1757 -0.4316
 9149SOL    HW139080   4.027   4.380   8.675 -0.9086 -0.1090 -1.0092
 9149SOL    HW239081   3.893   4.334   8.727 -0.2049  1.6058 -1.5039
 9150SOL     OW39082   4.037   4.430   3.468  0.3911 -0.1076 -0.2572
 9150SOL    HW139083   4.011   4.502   3.410 -2.1929  0.0367  1.1123
 9150SOL    HW239084   4.127   4.460   3.482  0.8410 -1.8970  0.6221
 9151SOL     OW39085   1.626   2.455   4.711  0.1539  0.3261  0.1772
 9151SOL    HW139086   1.688   2.389   4.679  0.3928  0.5529  0.1708
 9151SOL    HW239087   1.612   2.504   4.630 -0.6020 -0.3588 -0.1124
 9152SOL     OW39088   0.398   4.060   1.808  0.4172 -0.1724  0.7662
 9152SOL    HW139089   0.399   4.062   1.712  1.4457  1.8104  0.8128
 9152SOL    HW239090   0.332   4.128   1.817 -0.2951 -1.0966  2.4570
 9153SOL     OW39091   2.737   0.635   6.750  0.3320 -0.2848  0.0602
 9153SOL    HW139092   2.761   0.577   6.822  0.6180 -0.3323 -0.0742
 9153SOL    HW239093   2.680   0.694   6.800  0.8533 -0.8027  1.2735
 9154SOL     OW39094   0.933   4.709   8.370  0.2485 -0.2870 -0.3200
 9154SOL    HW139095   0.896   4.658   8.442 -0.6480  0.0827 -0.5253
 9154SOL    HW239096   0.877   4.699   8.294 -0.8178 -1.3505  0.5982
 9155SOL     OW39097   0.530   0.494  13.235 -0.1912  0.2348 -0.0162
 9155SOL    HW139098   0.548   0.580  13.198  0.8055  0.2449  0.5039
 9155SOL    HW239099   0.618   0.457  13.243 -0.0574  0.8071  1.1708
 9156SOL     OW39100   3.137   3.124   1.130 -0.0437 -0.4354  0.1683
 9156SOL    HW139101   3.208   3.061   1.123  0.7598  0.3763  0.9545
 9156SOL    HW239102   3.086   3.116   1.049  0.3535  0.7610 -0.1957
 9157SOL     OW39103   3.162   1.208   8.601 -0.2095  0.1718 -0.1371
 9157SOL    HW139104   3.120   1.137   8.649  0.6119  0.4549  1.0158
 9157SOL    HW239105   3.129   1.200   8.512 -1.2224  0.7132  0.1905
 9158SOL     OW39106   3.518   3.227   5.007 -0.0803  0.7493 -0.0295
 9158SOL    HW139107   3.585   3.181   4.956 -0.8107 -0.2155 -0.1329
 9158SOL    HW239108   3.573   3.293   5.049 -0.8375 -0.2702  2.5915
 9159SOL     OW39109   1.733   3.919   2.713  0.1450 -0.2059 -0.2228
 9159SOL    HW139110   1.816   3.902   2.758  0.0005 -1.1159 -0.3055
 9159SOL    HW239111   1.755   3.999   2.665 -0.2899  1.0570  1.6791
 9160SOL     OW39112   0.773   0.723   9.279 -0.0674  0.1540 -0.0834
 9160SOL    HW139113   0.758   0.712   9.373 -1.2113 -0.3034 -0.3110
 9160SOL    HW239114   0.763   0.818   9.274 -0.9754  0.1271  1.2881
 9161SOL     OW39115   1.829   3.063   7.020  0.2079 -0.1863  0.0145
 9161SOL    HW139116   1.828   3.148   7.064  1.7828  0.8825 -1.9852
 9161SOL    HW239117   1.736   3.049   7.006  0.2781  0.1416 -0.7817
 9162SOL     OW39118   1.258   3.420  11.046 -0.2722  0.7234 -0.1035
 9162SOL    HW139119   1.296   3.337  11.016  0.5508  2.1105 -2.8637
 9162SOL    HW239120   1.220   3.440  10.961 -1.4350  1.0890  0.5040
 9163SOL     OW39121   0.391   3.206   8.707  0.2541  0.0556  0.3037
 9163SOL    HW139122   0.349   3.142   8.764  0.0295  0.1711  0.2684
 9163SOL    HW239123   0.385   3.151   8.629  1.3099 -0.6096  0.6862
 9164SOL     OW39124   3.183   1.198  16.804 -0.4218 -0.5073 -0.5052
 9164SOL    HW139125   3.233   1.263  16.754  1.1719  0.9428  2.9102
 9164SOL    HW239126   3.150   1.151  16.728  1.0824 -0.3485 -1.2585
 9165SOL     OW39127   2.155   0.609   8.304  0.5659 -0.4054 -0.1729
 9165SOL    HW139128   2.102   0.639   8.231  0.2105 -0.4208  0.0753
 9165SOL    HW239129   2.104   0.543   8.352 -0.6258  1.0298  0.5422
 9166SOL     OW39130   3.122   2.546   0.203 -0.3411  0.6882  0.2564
 9166SOL    HW139131   3.116   2.612   0.272  0.0327  2.7187 -1.6666
 9166SOL    HW239132   3.215   2.526   0.196 -0.4179 -0.1195  1.3534
 9167SOL     OW39133   1.907   2.313   7.934  0.2616 -0.8693 -0.2682
 9167SOL    HW139134   1.836   2.330   7.872  1.8137  1.5781 -1.3632
 9167SOL    HW239135   1.895   2.218   7.941  0.5077 -1.0281 -2.0167
 9168SOL     OW39136   0.024   1.677   6.358 -0.3827 -0.6550 -0.1924
 9168SOL    HW139137   0.047   1.600   6.411  2.0247 -0.6276 -1.2303
 9168SOL    HW239138   0.111   1.706   6.332 -0.9897  1.7422  0.5051
 9169SOL     OW39139   1.714   1.861   6.017  0.6068  0.2166 -0.0219
 9169SOL    HW139140   1.703   1.772   6.051 -0.3350  0.5091  0.4367
 9169SOL    HW239141   1.646   1.915   6.058  0.3884 -0.1712  0.1290
 9170SOL     OW39142   1.367   0.826   3.537 -0.5593 -0.1151 -0.2536
 9170SOL    HW139143   1.453   0.867   3.532  0.0998 -1.0332  3.3533
 9170SOL    HW239144   1.339   0.900   3.590  1.5731  1.7984 -1.7578
 9171SOL     OW39145   0.425   0.747  13.669  0.1960 -0.2736  0.2232
 9171SOL    HW139146   0.396   0.734  13.579  0.9162 -0.4425  0.0108
 9171SOL    HW239147   0.360   0.698  13.720  0.9034 -1.9623 -0.4738
 9172SOL     OW39148   1.972   2.915   7.336  0.6051  0.2262 -0.3219
 9172SOL    HW139149   1.997   2.864   7.413 -0.3709 -1.0995 -0.8882
 9172SOL    HW239150   1.877   2.910   7.343  0.7612  0.1643  1.6299
 9173SOL     OW39151   0.954   2.900   2.003 -0.4187  0.0661  0.4714
 9173SOL    HW139152   0.926   2.816   2.038  0.4225 -0.1809  0.5508
 9173SOL    HW239153   1.017   2.880   1.934 -0.4864 -2.7348  1.2500
 9174SOL     OW39154   2.070   3.302   6.354 -0.5440 -0.3799  0.5596
 9174SOL    HW139155   1.986   3.309   6.399 -0.7388  1.5197 -0.1099
 9174SOL    HW239156   2.128   3.305   6.430 -0.6582 -0.0533  0.6320
 9175SOL     OW39157   0.755   1.180  15.929 -0.6686 -0.3943 -0.2175
 9175SOL    HW139158   0.815   1.145  15.994  0.2126 -0.1290 -0.8968
 9175SOL    HW239159   0.704   1.102  15.903 -3.3131  2.0600 -2.4310
 9176SOL     OW39160   2.667   2.680  10.363  0.1614 -1.0760 -0.6218
 9176SOL    HW139161   2.734   2.615  10.339  0.3257 -0.5872 -1.4452
 9176SOL    HW239162   2.599   2.632  10.411 -0.4353  0.7606  0.3705
 9177SOL     OW39163   0.572   0.321   0.639  0.8671  0.4007  0.0980
 9177SOL    HW139164   0.477   0.316   0.626  1.0067 -2.3362  0.1549
 9177SOL    HW239165   0.582   0.412   0.669 -1.0479  0.0934  1.7208
 9178SOL     OW39166   3.359   2.261   1.899 -0.1932 -0.0472 -0.5316
 9178SOL    HW139167   3.292   2.286   1.835 -0.1967 -0.2204 -0.5956
 9178SOL    HW239168   3.403   2.344   1.920  1.9511 -1.2951 -0.1471
 9179SOL     OW39169   3.305   2.865   1.916  0.5026  0.6866 -0.4839
 9179SOL    HW139170   3.246   2.862   1.991  0.9581 -1.1004 -0.2023
 9179SOL    HW239171   3.349   2.783   1.936  0.4558  1.0528  1.1839
 9180SOL     OW39172   1.946   2.777   1.502  0.2482 -0.8650  0.1427
 9180SOL    HW139173   1.857   2.794   1.471  0.3334 -1.5375 -0.4661
 9180SOL    HW239174   1.976   2.867   1.505 -0.7977 -0.5828  2.1079
 9181SOL     OW39175   1.419   1.717   9.081  0.0520 -0.0667 -0.2551
 9181SOL    HW139176   1.373   1.715   8.997 -1.1214 -0.3720  0.3907
 9181SOL    HW239177   1.377   1.657   9.143 -0.7089 -2.0308 -2.6882
 9182SOL     OW39178   0.415   2.314   9.361  0.1359 -0.3065 -0.1618
 9182SOL    HW139179   0.358   2.388   9.381  0.4389  0.3113 -1.5923
 9182SOL    HW239180   0.343   2.260   9.329 -0.7989 -0.2870  1.9069
 9183SOL     OW39181   3.338   2.670   0.559 -0.3318 -0.2664  0.3248
 9183SOL    HW139182   3.331   2.750   0.507 -1.7908  0.4587  1.6409
 9183SOL    HW239183   3.250   2.659   0.594 -0.5821  1.7626  0.3160
 9184SOL     OW39184   1.568   1.671   8.734  0.4517  0.3621 -0.0999
 9184SOL    HW139185   1.601   1.759   8.748  0.8651 -0.1897  2.3415
 9184SOL    HW239186   1.604   1.625   8.809 -2.2007 -0.7993  0.4501
 9185SOL     OW39187   1.582   2.434  12.284  0.0576 -0.2759  0.1335
 9185SOL    HW139188   1.487   2.435  12.273  0.0248 -1.0782  0.3357
 9185SOL    HW239189   1.587   2.388  12.367  2.8423  0.4422  0.3726
 9186SOL     OW39190   2.684   0.341   8.539 -0.5017 -0.7843  0.2021
 9186SOL    HW139191   2.684   0.280   8.613  0.8077 -1.5549 -0.4333
 9186SOL    HW239192   2.679   0.425   8.585 -0.9992 -0.3098 -0.7362
 9187SOL     OW39193   2.476   4.600   8.509  0.2112  0.7084  0.2787
 9187SOL    HW139194   2.428   4.527   8.548  0.1417  0.5958 -0.0162
 9187SOL    HW239195   2.404   4.648   8.468 -1.2117 -0.9682  0.8107
 9188SOL     OW39196   1.881   2.306   3.336 -0.3527  0.4422 -0.1956
 9188SOL    HW139197   1.798   2.284   3.293 -0.0335 -1.7095  0.3103
 9188SOL    HW239198   1.883   2.400   3.320  0.9163  0.3013 -0.8267
 9189SOL     OW39199   0.135   4.712   1.539  0.6516  0.2708 -0.5902
 9189SOL    HW139200   0.176   4.713   1.453  1.1615  0.3416 -0.3487
 9189SOL    HW239201   0.170   4.630   1.574 -0.5396 -0.9987 -2.3826
 9190SOL     OW39202   3.979   2.160   1.754 -0.6025  0.1498  0.3109
 9190SOL    HW139203   4.034   2.168   1.831 -1.3245 -0.4664  0.8859
 9190SOL    HW239204   3.964   2.066   1.762  1.7438 -0.1839  0.6602
 9191SOL     OW39205   0.843   0.755   8.751 -0.0651 -0.0921 -0.0414
 9191SOL    HW139206   0.844   0.815   8.825 -0.5047  1.5897 -1.3812
 9191SOL    HW239207   0.756   0.718   8.761  0.4613 -1.1952  0.4849
 9192SOL     OW39208   2.917   3.868   3.945 -0.3248 -0.1683  0.1681
 9192SOL    HW139209   2.911   3.786   3.994  0.3929 -0.7769 -0.7595
 9192SOL    HW239210   2.940   3.823   3.864  1.4298  2.2635 -0.6873
 9193SOL     OW39211   0.776   3.677   1.569 -0.3713 -0.3499  0.0760
 9193SOL    HW139212   0.700   3.637   1.611 -1.1257  0.8078 -0.1753
 9193SOL    HW239213   0.799   3.603   1.513  0.2429 -0.0513 -0.0596
 9194SOL     OW39214   0.323   0.657   9.500  0.4131 -0.3707 -0.3653
 9194SOL    HW139215   0.260   0.613   9.556 -1.0066 -0.3587 -1.9395
 9194SOL    HW239216   0.273   0.664   9.418  0.0831  0.4788 -0.0879
 9195SOL     OW39217   3.930   3.465   2.688  0.4973  0.2581 -0.3959
 9195SOL    HW139218   3.936   3.559   2.705  1.5543 -0.1940  1.7025
 9195SOL    HW239219   3.924   3.464   2.593  1.9970  0.2576 -0.4838
 9196SOL     OW39220   2.965   1.806   2.553 -0.5026 -0.0029 -0.1598
 9196SOL    HW139221   3.012   1.877   2.509  0.6129 -0.3518  0.4469
 9196SOL    HW239222   3.032   1.756   2.600 -0.0616  0.6598 -0.0841
 9197SOL     OW39223   0.639   2.202  16.876 -0.1680 -0.3917  0.2457
 9197SOL    HW139224   0.715   2.229  16.824  0.1782 -0.4644  0.7124
 9197SOL    HW239225   0.654   2.250  16.957  1.0583 -1.1736  0.4934
 9198SOL     OW39226   4.254   1.731   6.060  0.3788  0.0742 -0.1053
 9198SOL    HW139227   4.328   1.679   6.092 -0.7268 -0.2832  1.8208
 9198SOL    HW239228   4.204   1.749   6.139 -0.3751  0.9919 -0.7949
 9199SOL     OW39229   3.135   3.023   5.708 -0.2774 -0.5064 -0.1618
 9199SOL    HW139230   3.165   2.935   5.685 -1.0482 -0.9510  0.5331
 9199SOL    HW239231   3.190   3.077   5.652 -0.7498  0.5541  0.3751
 9200SOL     OW39232   3.256   1.442   4.956  0.1045  0.7086 -0.1316
 9200SOL    HW139233   3.221   1.371   4.903  1.0711  0.8672 -0.9931
 9200SOL    HW239234   3.174   1.485   4.978 -0.6775  0.0141 -1.7131
 9201SOL     OW39235   2.751   4.566   8.455  0.2488 -0.3569 -0.3205
 9201SOL    HW139236   2.670   4.612   8.474  1.2313  1.5130 -0.7292
 9201SOL    HW239237   2.711   4.481   8.434  2.0355 -1.1027 -0.7501
 9202SOL     OW39238   0.881   1.202   9.024  0.2420 -0.2273  0.9041
 9202SOL    HW139239   0.871   1.197   9.119 -2.3255  2.0922  0.7742
 9202SOL    HW239240   0.875   1.298   9.018  1.5009 -0.2325 -0.5300
 9203SOL     OW39241   4.665   3.280  17.561 -0.1518  0.4719  0.1559
 9203SOL    HW139242   4.620   3.203  17.526 -1.2076  1.8314 -1.4538
 9203SOL    HW239243   4.604   3.299  17.632  0.2353 -0.0229  0.6192
 9204SOL     OW39244   3.281   2.472   7.368  0.2356  0.5270 -0.1915
 9204SOL    HW139245   3.273   2.493   7.275 -1.1794  0.2651 -0.1269
 9204SOL    HW239246   3.276   2.556   7.413  2.8700  1.2663 -1.2431
 9205SOL     OW39247   0.358   1.784  15.210 -0.0752 -0.0135  0.8894
 9205SOL    HW139248   0.432   1.750  15.159  0.9980  2.8864  0.5022
 9205SOL    HW239249   0.295   1.808  15.142  2.3543  2.6821 -0.4591
 9206SOL     OW39250   1.949   2.619   2.749 -0.2773  0.0746 -0.2314
 9206SOL    HW139251   1.882   2.686   2.735  1.3456  2.0768  1.5969
 9206SOL    HW239252   2.014   2.668   2.799 -0.5720  1.8196 -1.5735
 9207SOL     OW39253   4.696   0.990  14.074 -0.7114 -0.1423  0.3963
 9207SOL    HW139254   4.631   0.952  14.133 -1.6696  0.8569  0.0005
 9207SOL    HW239255   0.014   1.041  14.134 -0.4105 -1.8304  1.5761
 9208SOL     OW39256   2.826   2.898   7.949  0.7818 -0.4733 -0.0211
 9208SOL    HW139257   2.830   2.947   8.030  0.8446 -1.6663  0.6986
 9208SOL    HW239258   2.911   2.853   7.954  0.0710 -1.9480 -1.1479
 9209SOL     OW39259   3.015   0.929   6.884  0.1416  1.0039 -0.1584
 9209SOL    HW139260   2.994   0.851   6.936  1.8229  1.4706  1.2221
 9209SOL    HW239261   3.016   0.986   6.960 -1.4068  0.9044 -0.0559
 9210SOL     OW39262   1.844   3.252   6.509 -0.1420 -0.1829 -0.1937
 9210SOL    HW139263   1.761   3.253   6.461 -0.8380 -0.2357  1.0114
 9210SOL    HW239264   1.829   3.174   6.563  1.8090 -0.2790  0.2022
 9211SOL     OW39265   4.291   1.789   4.504 -0.3894 -0.3226 -0.1337
 9211SOL    HW139266   4.205   1.750   4.487  0.4846 -1.9404 -0.7388
 9211SOL    HW239267   4.286   1.868   4.559  1.1432  0.2827 -0.8781
 9212SOL     OW39268   2.142   0.988   3.337 -0.0064  0.2817  0.2322
 9212SOL    HW139269   2.216   0.990   3.276  0.1981  1.0358  0.5002
 9212SOL    HW239270   2.183   0.933   3.404 -2.0662 -0.1285  1.1544
 9213SOL     OW39271   3.271   3.710  12.019  0.0547  0.0181 -0.0948
 9213SOL    HW139272   3.301   3.732  12.107 -0.3123 -1.7138  0.4616
 9213SOL    HW239273   3.178   3.702  12.039  0.2685  0.1153  0.9587
 9214SOL     OW39274   0.803   1.129   3.349 -0.1166 -0.2003 -0.0083
 9214SOL    HW139275   0.866   1.174   3.404 -1.2877  0.9038  0.4181
 9214SOL    HW239276   0.803   1.182   3.269  1.7390 -1.0345 -0.5660
 9215SOL     OW39277   2.414   0.129   4.182 -0.0458 -0.3022 -0.3424
 9215SOL    HW139278   2.509   0.119   4.185 -0.1728 -1.2158  0.5775
 9215SOL    HW239279   2.389   0.080   4.104 -2.6590 -0.3278  0.5067
 9216SOL     OW39280   1.410   0.091   6.125  0.1642  0.0735  0.1284
 9216SOL    HW139281   1.447   0.132   6.046 -1.1367 -2.2921 -1.7293
 9216SOL    HW239282   1.467   0.014   6.130  1.8752  1.3779  0.7806
 9217SOL     OW39283   2.895   3.519  14.308  0.1079 -0.1001 -0.6208
 9217SOL    HW139284   2.856   3.493  14.225  0.4716  0.6244 -1.0187
 9217SOL    HW239285   2.831   3.579  14.345  1.2143 -0.0144  1.1413
 9218SOL     OW39286   3.303   3.056  13.500 -0.7938 -0.5736 -0.0945
 9218SOL    HW139287   3.291   3.102  13.417  2.1444  1.2611  0.4857
 9218SOL    HW239288   3.397   3.039  13.493 -0.1706  3.2608 -0.9597
 9219SOL     OW39289   2.829   1.326   6.208  0.1516 -0.0489 -0.6233
 9219SOL    HW139290   2.775   1.275   6.269  0.6250  1.3348  0.9660
 9219SOL    HW239291   2.909   1.331   6.261 -1.2237  2.2699  1.2906
 9220SOL     OW39292   2.095   2.544   1.414  0.6382  0.5371  0.0035
 9220SOL    HW139293   2.069   2.620   1.465  1.4650 -0.2097  1.5384
 9220SOL    HW239294   2.190   2.559   1.407  0.9188 -1.3687 -0.4857
 9221SOL     OW39295   1.480   0.747   8.034  0.1221 -0.4007  0.3382
 9221SOL    HW139296   1.532   0.685   8.084 -1.1540 -2.4236 -0.8116
 9221SOL    HW239297   1.545   0.811   8.005 -0.0158  0.1318  1.2008
 9222SOL     OW39298   0.501   2.116   1.943 -0.0889 -0.1146 -0.2479
 9222SOL    HW139299   0.498   2.145   2.035  0.3402 -2.1025  0.3928
 9222SOL    HW239300   0.561   2.181   1.908 -3.3952  4.0975  1.8922
 9223SOL     OW39301   2.837   2.500  10.287  0.1344 -0.3961 -0.1555
 9223SOL    HW139302   2.919   2.503  10.336  1.0200  2.8494 -1.7985
 9223SOL    HW239303   2.796   2.425  10.330  0.0182  0.4602  1.2096
 9224SOL     OW39304   3.503   4.101   4.831  0.0251 -0.2807 -0.1574
 9224SOL    HW139305   3.435   4.165   4.850 -1.7069 -1.8266 -1.0944
 9224SOL    HW239306   3.456   4.026   4.868  1.3666 -0.2945  1.5560
 9225SOL     OW39307   3.742   4.199  15.344 -0.0873 -0.8203  0.4133
 9225SOL    HW139308   3.824   4.186  15.297  0.2188  0.0871  0.6875
 9225SOL    HW239309   3.773   4.212  15.434  2.5720  0.6074 -0.7168
 9226SOL     OW39310   0.394   2.553  11.874  0.4071  0.3791  0.3797
 9226SOL    HW139311   0.303   2.554  11.844  0.0618 -0.6315  1.3742
 9226SOL    HW239312   0.440   2.584  11.796  1.0034 -0.7257  0.2868
 9227SOL     OW39313   1.580   0.716   6.017 -0.0671 -0.0594 -0.4448
 9227SOL    HW139314   1.651   0.768   6.055  0.0308 -1.5814  1.4858
 9227SOL    HW239315   1.507   0.778   6.017  1.7055  2.0254  0.0666
 9228SOL     OW39316   3.771   4.089   3.236 -0.0232 -0.4295 -0.0410
 9228SOL    HW139317   3.752   4.183   3.235 -0.0407 -0.4355 -0.5673
 9228SOL    HW239318   3.865   4.074   3.229  0.2257  2.2801 -2.6828
 9229SOL     OW39319   1.121   1.525   0.048 -0.2420  0.5385 -0.5435
 9229SOL    HW139320   1.106   1.511   0.141  0.2732 -1.3610 -0.7356
 9229SOL    HW239321   1.150   1.435   0.033 -0.6918  0.2181  0.5116
 9230SOL     OW39322   1.020   4.165   7.402 -0.1366  0.1766  0.7129
 9230SOL    HW139323   1.092   4.119   7.448 -0.6724 -1.3337  0.0535
 9230SOL    HW239324   1.064   4.241   7.366 -2.5248  1.0395 -0.3491
 9231SOL     OW39325   1.214   0.061  10.064  0.0965 -0.0664  0.9720
 9231SOL    HW139326   1.293   0.022  10.103  0.1108  0.5429  1.5665
 9231SOL    HW239327   1.189   4.732   9.998 -0.8409  1.9627 -0.6535
 9232SOL     OW39328   2.221   2.391   2.334  0.0315  0.1297 -0.1742
 9232SOL    HW139329   2.141   2.368   2.286 -1.0964  3.1781  0.2839
 9232SOL    HW239330   2.291   2.360   2.277  1.3469 -0.3528  1.6977
 9233SOL     OW39331   1.165   3.157  12.205  0.3399 -0.0793 -0.3053
 9233SOL    HW139332   1.161   3.062  12.214  1.6423 -0.2549 -1.5164
 9233SOL    HW239333   1.143   3.187  12.293  0.5081 -1.3419  0.1558
 9234SOL     OW39334   2.265   3.907   9.480  0.5820  0.2884  0.1488
 9234SOL    HW139335   2.199   3.863   9.426  0.8198  0.3989 -0.2291
 9234SOL    HW239336   2.227   3.893   9.567 -0.8480  1.4928 -0.2727
 9235SOL     OW39337   2.551   0.747   7.870 -0.7314 -0.4294 -0.3172
 9235SOL    HW139338   2.602   0.670   7.895 -1.1036 -0.0908  1.4378
 9235SOL    HW239339   2.464   0.710   7.884  0.0134 -1.0517  2.5504
 9236SOL     OW39340   1.375   3.883   9.496  0.0450 -0.5078 -0.5494
 9236SOL    HW139341   1.301   3.884   9.436 -0.2914 -0.3580 -0.1256
 9236SOL    HW239342   1.445   3.875   9.430  0.6363 -1.0828  0.1399
 9237SOL     OW39343   4.261   3.014   8.512 -0.6426 -0.7305 -0.3333
 9237SOL    HW139344   4.345   3.014   8.559 -0.5848  0.7130 -0.4572
 9237SOL    HW239345   4.246   3.106   8.493  2.2815 -0.7358 -2.6943
 9238SOL     OW39346   2.109   1.305   6.948 -0.1760  0.2254  0.2017
 9238SOL    HW139347   2.140   1.354   7.024  1.3187 -2.3207  1.2013
 9238SOL    HW239348   2.032   1.361   6.936  0.5829  0.9428 -1.4078
 9239SOL     OW39349   1.203   0.325  10.015  0.2084  0.2181 -0.3012
 9239SOL    HW139350   1.155   0.327   9.932 -0.2540  1.3539  0.0044
 9239SOL    HW239351   1.206   0.231  10.036  0.5283  0.2942 -0.0186
 9240SOL     OW39352   2.490   1.617   6.142 -0.1598  0.2540 -0.1869
 9240SOL    HW139353   2.507   1.552   6.074 -0.5451  0.4099 -0.4318
 9240SOL    HW239354   2.572   1.620   6.191  0.3885 -0.0324 -1.0904
 9241SOL     OW39355   1.577   4.176   1.521  0.7503 -0.3040 -0.6862
 9241SOL    HW139356   1.633   4.240   1.564 -0.3249  1.1913 -1.5122
 9241SOL    HW239357   1.556   4.113   1.590  1.9313  0.9423  0.7808
 9242SOL     OW39358   2.590   3.570  15.915  0.0577  0.4226  0.3835
 9242SOL    HW139359   2.614   3.488  15.872 -0.4855 -0.8623  2.5748
 9242SOL    HW239360   2.659   3.624  15.875  0.8412  0.8711  2.3316
 9243SOL     OW39361   1.391   4.423   8.661  0.4595 -0.3403  0.1800
 9243SOL    HW139362   1.361   4.498   8.712  0.2488 -0.3491  0.0668
 9243SOL    HW239363   1.439   4.375   8.729 -1.2893 -2.1490  0.1190
 9244SOL     OW39364   2.059   4.709   6.111  0.6059 -0.2653  0.2438
 9244SOL    HW139365   2.148   4.683   6.134  0.4972 -0.0148  0.9375
 9244SOL    HW239366   2.008   4.631   6.131 -0.4997  0.0152 -1.4675
 9245SOL     OW39367   3.672   4.513   4.678 -0.1837 -0.2170 -0.0471
 9245SOL    HW139368   3.592   4.561   4.698 -1.7541 -2.8513 -0.0078
 9245SOL    HW239369   3.678   4.473   4.765  1.2085  1.1876  0.4994
 9246SOL     OW39370   0.810   3.096  10.598 -0.1711 -0.0196 -0.9056
 9246SOL    HW139371   0.896   3.088  10.640 -0.0803 -1.6953 -1.3878
 9246SOL    HW239372   0.831   3.150  10.522  0.3350 -0.0466 -0.7869
 9247SOL     OW39373   2.221   4.474   6.254  0.1254  0.1474  0.3944
 9247SOL    HW139374   2.160   4.401   6.244  0.0015 -0.2599  4.1069
 9247SOL    HW239375   2.307   4.434   6.269 -0.5171 -1.3153  0.1680
 9248SOL     OW39376   4.086   0.943   9.019 -0.2539 -0.2934 -0.0448
 9248SOL    HW139377   4.080   0.921   9.112 -2.3227 -3.9940 -1.0822
 9248SOL    HW239378   4.149   0.877   8.992 -1.3741 -1.1797 -0.5007
 9249SOL     OW39379   0.605   3.294  12.576 -0.8420  0.0515  0.1427
 9249SOL    HW139380   0.630   3.239  12.503  1.4995 -0.0903  1.0459
 9249SOL    HW239381   0.644   3.379  12.556 -1.7237  1.1163  2.8323
 9250SOL     OW39382   2.707   2.154   5.002 -0.2242 -0.0137 -0.5259
 9250SOL    HW139383   2.626   2.103   5.013 -1.2722  1.8869  0.6727
 9250SOL    HW239384   2.737   2.142   5.092 -0.0013 -0.0190 -0.6003
 9251SOL     OW39385   3.870   1.209  16.430 -1.0140  1.1039 -0.0867
 9251SOL    HW139386   3.823   1.206  16.347 -1.2003  0.6034  0.0349
 9251SOL    HW239387   3.951   1.255  16.408 -1.1510  1.0236 -0.7642
 9252SOL     OW39388   0.777   0.337   9.559  0.2032  0.3432 -0.2816
 9252SOL    HW139389   0.750   0.384   9.638  0.2548  1.0433 -0.6756
 9252SOL    HW239390   0.704   0.283   9.530 -0.1883  1.5001 -1.4203
 9253SOL     OW39391   4.501   0.436   4.204 -0.3892 -0.3262 -0.6441
 9253SOL    HW139392   4.536   0.524   4.199 -3.0339  0.6261 -2.1202
 9253SOL    HW239393   4.543   0.403   4.284 -1.2765 -1.8591 -0.8053
 9254SOL     OW39394   3.818   4.592   7.066 -0.1350 -0.5827 -0.4293
 9254SOL    HW139395   3.775   4.512   7.094 -1.1733 -1.1983 -3.7697
 9254SOL    HW239396   3.751   4.659   7.078 -0.4898 -1.1593  0.7598
 9255SOL     OW39397   4.529   0.175   8.643 -0.2932 -0.1632  0.0697
 9255SOL    HW139398   4.522   0.269   8.630  2.0187 -0.0651 -0.4600
 9255SOL    HW239399   4.523   0.142   8.554 -1.3158  0.1980  0.0113
 9256SOL     OW39400   0.825   1.853   2.308  0.6054  0.5476 -0.2868
 9256SOL    HW139401   0.872   1.880   2.387 -2.0789  0.0469  1.4471
 9256SOL    HW239402   0.860   1.924   2.254  0.2524  1.2472  0.4035
 9257SOL     OW39403   3.875   2.629  11.561 -0.6488 -0.0417 -0.2413
 9257SOL    HW139404   3.863   2.720  11.590 -0.7840 -0.8976  2.4573
 9257SOL    HW239405   3.961   2.623  11.520 -0.1147  0.4163  0.7909
 9258SOL     OW39406   4.208   3.239   7.261 -0.3184 -0.2493 -0.1702
 9258SOL    HW139407   4.195   3.286   7.178 -1.1402 -0.7305 -0.3096
 9258SOL    HW239408   4.122   3.263   7.295 -0.3963 -2.1255  0.9551
 9259SOL     OW39409   0.397   2.524   6.592 -0.1333  0.2308  0.0648
 9259SOL    HW139410   0.307   2.552   6.607  0.0899 -0.3807  2.6008
 9259SOL    HW239411   0.405   2.485   6.505 -3.1514 -1.2372  0.4551
 9260SOL     OW39412   0.170   0.490  14.980 -0.9751 -0.1750  0.2201
 9260SOL    HW139413   0.185   0.540  15.060 -2.6301  0.7709 -0.0798
 9260SOL    HW239414   0.075   0.491  14.973 -1.0288  1.7863  1.1677
 9261SOL     OW39415   4.440   2.650   4.245  0.4420 -0.1965  0.6477
 9261SOL    HW139416   4.360   2.604   4.220 -0.9403  2.1537  0.8037
 9261SOL    HW239417   4.501   2.621   4.178  1.4384  2.4216  0.4163
 9262SOL     OW39418   2.097   2.947   0.350 -0.1155  0.4752 -0.3341
 9262SOL    HW139419   2.095   3.042   0.339 -0.2722  0.5262  0.1482
 9262SOL    HW239420   2.185   2.919   0.324 -0.6919 -2.8478  1.3162
 9263SOL     OW39421   1.793   0.048  15.217 -0.2178  0.3335  0.2867
 9263SOL    HW139422   1.839   0.127  15.246  0.2013  0.3618 -0.4617
 9263SOL    HW239423   1.713   0.052  15.269 -1.5381  0.1355 -1.7429
 9264SOL     OW39424   4.183   2.064   1.490 -0.2444  0.0372 -0.1260
 9264SOL    HW139425   4.204   2.094   1.578  0.7113  3.0275 -1.3931
 9264SOL    HW239426   4.239   2.115   1.431 -1.7572  1.6779 -0.1385
 9265SOL     OW39427   4.431   1.261   4.864 -0.0522  0.2584 -0.1968
 9265SOL    HW139428   4.361   1.244   4.801 -0.6763 -0.3913  0.6691
 9265SOL    HW239429   4.380   1.318   4.921  0.2871  0.5871 -0.2194
 9266SOL     OW39430   3.752   4.082   4.649  0.2786 -0.1470 -0.1138
 9266SOL    HW139431   3.711   4.000   4.624 -0.2205 -0.0250  0.3064
 9266SOL    HW239432   3.680   4.118   4.701 -1.5306  1.1345 -3.4846
 9267SOL     OW39433   4.045   3.330   1.880  0.1508 -0.1732 -0.0054
 9267SOL    HW139434   4.067   3.410   1.929 -0.4282 -1.5317  2.4754
 9267SOL    HW239435   4.048   3.357   1.788  1.1791  0.4409  0.1968
 9268SOL     OW39436   2.292   3.773  12.297 -0.5638  0.5663 -0.1074
 9268SOL    HW139437   2.314   3.684  12.323  1.1303  2.0688  3.5878
 9268SOL    HW239438   2.222   3.763  12.232  0.0060 -0.1591 -0.6024
 9269SOL     OW39439   1.655   1.519   7.401  0.5538  0.2674  0.3295
 9269SOL    HW139440   1.739   1.561   7.420 -0.0801  1.1712  1.1147
 9269SOL    HW239441   1.593   1.565   7.457  1.1414  2.5249 -0.8708
 9270SOL     OW39442   4.356   0.513   0.246 -0.8592  0.0599  0.3592
 9270SOL    HW139443   4.336   0.568   0.322 -0.8656 -0.3177  0.6329
 9270SOL    HW239444   4.295   0.560   0.190  0.6880 -0.4148 -1.7090
 9271SOL     OW39445   3.243   3.770   2.054 -0.3223  0.2908 -0.2369
 9271SOL    HW139446   3.277   3.684   2.076 -2.7364 -0.4633  0.6205
 9271SOL    HW239447   3.166   3.767   2.112 -0.2765  1.1992 -0.1306
 9272SOL     OW39448   2.673   1.924   6.704  0.1240 -0.6870 -0.5190
 9272SOL    HW139449   2.749   1.981   6.719 -0.3985 -0.1848  0.2376
 9272SOL    HW239450   2.673   1.939   6.609 -0.3570  0.4441 -0.3475
 9273SOL     OW39451   4.356   4.253  13.782 -0.2822 -0.4709  0.0196
 9273SOL    HW139452   4.302   4.270  13.705  1.5263 -0.0727 -1.1611
 9273SOL    HW239453   4.335   4.162  13.802 -3.0236  0.3838  1.1290
 9274SOL     OW39454   2.727   3.128   6.050  0.1483  0.3253 -0.1705
 9274SOL    HW139455   2.787   3.202   6.039  0.7216 -0.0933  0.1669
 9274SOL    HW239456   2.791   3.067   6.015  3.5359  2.2478  2.6608
 9275SOL     OW39457   1.239   2.499  13.183  0.3342 -0.3959  0.0460
 9275SOL    HW139458   1.296   2.454  13.245 -0.3095 -1.8180 -0.3707
 9275SOL    HW239459   1.303   2.555  13.138 -0.1068 -0.7636 -1.0451
 9276SOL     OW39460   1.151   1.651  17.236 -0.1008  0.4392 -0.1214
 9276SOL    HW139461   1.170   1.665  17.329  1.2607 -0.8540 -0.2102
 9276SOL    HW239462   1.057   1.633  17.232 -0.0393  0.0441  0.2135
 9277SOL     OW39463   4.599   3.231   2.296 -0.3746  0.0610  0.0504
 9277SOL    HW139464   4.618   3.140   2.319 -3.4278 -0.3803  0.7177
 9277SOL    HW239465   4.584   3.257   2.386 -0.9693 -1.2134  0.3120
 9278SOL     OW39466   3.603   1.572   2.388 -0.3328  0.8538 -0.3554
 9278SOL    HW139467   3.553   1.509   2.337  0.2176 -0.3584  0.5990
 9278SOL    HW239468   3.690   1.538   2.366 -0.0371  0.3704  1.5107
 9279SOL     OW39469   2.400   4.476   2.698 -0.0399 -0.2433  0.2910
 9279SOL    HW139470   2.417   4.385   2.676  2.9035 -0.0954  1.9224
 9279SOL    HW239471   2.343   4.505   2.627 -2.1102 -2.7234  0.9717
 9280SOL     OW39472   0.975   3.914   3.085 -0.0962  0.0698 -0.2646
 9280SOL    HW139473   1.017   3.959   3.158  2.3346 -3.2106  0.3517
 9280SOL    HW239474   1.005   3.965   3.009 -1.2383 -0.4003 -1.0402
 9281SOL     OW39475   1.050   2.743   3.332 -0.0387 -0.6394  0.3406
 9281SOL    HW139476   1.087   2.752   3.244  1.7498 -3.9069  0.7822
 9281SOL    HW239477   1.125   2.782   3.378  0.8943 -4.1918  1.8017
 9282SOL     OW39478   4.426   1.761   3.088 -0.4264  0.0788 -0.2400
 9282SOL    HW139479   4.456   1.701   3.020 -2.2013 -0.0554 -0.8889
 9282SOL    HW239480   4.498   1.824   3.090  2.2983 -3.0532  0.7080
 9283SOL     OW39481   3.414   4.648  14.058 -0.0453 -0.0982 -0.3427
 9283SOL    HW139482   3.392   4.730  14.013  1.0973  1.3020  1.6286
 9283SOL    HW239483   3.439   4.579  13.997  2.9383 -1.5943  2.5092
 9284SOL     OW39484   3.665   0.971  11.530  0.3255 -0.4591 -0.0644
 9284SOL    HW139485   3.643   1.050  11.481 -0.8757 -1.4465 -1.1167
 9284SOL    HW239486   3.599   0.975  11.600 -0.9174 -1.8267 -1.1415
 9285SOL     OW39487   0.596   2.326   8.794  0.1663 -0.2153 -0.2060
 9285SOL    HW139488   0.689   2.309   8.777 -0.2332 -1.8427 -0.8209
 9285SOL    HW239489   0.594   2.420   8.777  1.2074 -0.3697 -1.2107
 9286SOL     OW39490   3.643   1.342   1.770  0.0869  0.2187 -0.4485
 9286SOL    HW139491   3.608   1.272   1.714 -0.0184 -1.0028  1.1404
 9286SOL    HW239492   3.662   1.403   1.699  0.1354  0.0059 -0.6190
 9287SOL     OW39493   2.616   2.087   4.629 -0.1035 -0.1662  0.2262
 9287SOL    HW139494   2.649   2.149   4.563  0.4934 -1.0102 -0.2703
 9287SOL    HW239495   2.694   2.062   4.678  0.1318 -1.9162 -1.0284
 9288SOL     OW39496   4.078   1.160   3.723  0.1696 -0.2025  0.0202
 9288SOL    HW139497   4.009   1.209   3.677  0.2316 -1.6699 -1.6447
 9288SOL    HW239498   4.034   1.140   3.805  1.1753  2.4571  1.2092
 9289SOL     OW39499   0.393   2.281   5.115  0.1678  0.2057 -0.2504
 9289SOL    HW139500   0.445   2.227   5.055 -2.2946  0.3629 -2.5260
 9289SOL    HW239501   0.444   2.268   5.196  1.7722  0.1860 -1.2591
 9290SOL     OW39502   1.420   3.560   4.989 -0.7540  0.3700  0.1175
 9290SOL    HW139503   1.336   3.518   5.006 -0.5542 -0.2912 -0.5625
 9290SOL    HW239504   1.434   3.615   5.066  1.7414 -0.4770  0.2667
 9291SOL     OW39505   3.964   1.646  16.768  0.1831  0.2798  0.2160
 9291SOL    HW139506   4.029   1.630  16.836  1.3209  1.9007 -0.4906
 9291SOL    HW239507   3.992   1.582  16.702 -2.4497 -2.0547  1.3854
 9292SOL     OW39508   3.875   1.543   5.921 -0.1207  0.3519  0.2076
 9292SOL    HW139509   3.803   1.548   5.858  0.0504  0.2781  0.0084
 9292SOL    HW239510   3.937   1.603   5.879  1.2436 -0.5804  0.8913
 9293SOL     OW39511   1.743   4.665   5.495  0.1731 -0.4074 -0.4086
 9293SOL    HW139512   1.696   4.635   5.418  1.3172 -1.3087 -0.7590
 9293SOL    HW239513   1.674   4.667   5.562  0.1811  0.4852 -0.4351
 9294SOL     OW39514   1.110   0.246   6.598 -0.4213  0.0257 -0.3020
 9294SOL    HW139515   1.136   0.212   6.512  2.1359  1.9876 -0.3020
 9294SOL    HW239516   1.142   0.336   6.598  0.5616 -0.3260 -1.4537
 9295SOL     OW39517   0.993   3.321   5.601 -1.0793  0.3344  0.0078
 9295SOL    HW139518   0.960   3.238   5.567  1.8180 -0.2596 -1.3776
 9295SOL    HW239519   0.976   3.320   5.695  0.8080 -0.5148  0.3513
 9296SOL     OW39520   2.583   2.283   6.576  0.6323  0.2122 -0.1013
 9296SOL    HW139521   2.607   2.337   6.651 -2.8492 -1.9500  2.5815
 9296SOL    HW239522   2.551   2.208   6.625 -2.8827  1.1236 -1.0286
 9297SOL     OW39523   4.404   3.914   3.353  0.0788 -0.4550  0.4634
 9297SOL    HW139524   4.361   3.962   3.424 -2.8397 -0.3019 -1.4137
 9297SOL    HW239525   4.490   3.955   3.351  0.2938 -1.0101 -1.6042
 9298SOL     OW39526   3.702   0.929   3.182 -0.0412 -0.1583 -0.0531
 9298SOL    HW139527   3.657   0.862   3.130  0.8119 -0.2751 -0.6441
 9298SOL    HW239528   3.759   0.871   3.232  2.9895  0.6581 -2.5502
 9299SOL     OW39529   2.547   1.373   8.182  0.0590  0.1389 -0.6334
 9299SOL    HW139530   2.600   1.385   8.261  0.4928  1.8038 -1.1855
 9299SOL    HW239531   2.525   1.281   8.197 -0.3704  0.7688  2.6763
 9300SOL     OW39532   0.553   2.938  16.141 -0.3008 -0.2258  0.1853
 9300SOL    HW139533   0.648   2.942  16.133 -0.2619  2.8489  2.4135
 9300SOL    HW239534   0.545   2.884  16.220 -1.9243  0.0942  0.2491
 9301SOL     OW39535   1.216   0.250   3.408  0.0698  0.2066  0.3287
 9301SOL    HW139536   1.130   0.228   3.443 -0.0512 -0.4492 -0.3866
 9301SOL    HW239537   1.262   0.212   3.483  0.6205 -1.0387 -0.6264
 9302SOL     OW39538   0.698   1.670   2.853 -0.4956  0.3680 -0.4026
 9302SOL    HW139539   0.697   1.598   2.790  2.2921  0.1119 -0.1672
 9302SOL    HW239540   0.760   1.633   2.917 -0.6338  0.0329 -0.4591
 9303SOL     OW39541   4.416   1.059   1.709 -0.3552  0.7585  0.1693
 9303SOL    HW139542   4.414   1.053   1.613 -1.9702  0.7903  0.1949
 9303SOL    HW239543   4.507   1.078   1.731 -0.8036  1.1221  1.6974
 9304SOL     OW39544   0.669   2.887   9.208  0.2888  0.1818 -0.2932
 9304SOL    HW139545   0.634   2.973   9.182 -1.8252 -0.4739  0.3843
 9304SOL    HW239546   0.601   2.820   9.216 -0.9504  1.4497 -0.0237
 9305SOL     OW39547   2.157   4.450   3.923  0.0615 -0.0848 -0.0464
 9305SOL    HW139548   2.134   4.379   3.862 -1.1660  0.3809 -0.1138
 9305SOL    HW239549   2.248   4.469   3.900 -0.3989 -0.2114 -2.0170
 9306SOL     OW39550   3.305   4.592  10.524  0.0502  0.2615  0.3133
 9306SOL    HW139551   3.328   4.640  10.445 -2.2172 -2.0649 -1.7316
 9306SOL    HW239552   3.382   4.539  10.547  0.5225  1.6300  1.9542
 9307SOL     OW39553   2.549   4.571   5.987  0.0805  0.1069  0.4455
 9307SOL    HW139554   2.514   4.620   6.062  1.3851 -0.3507  1.3485
 9307SOL    HW239555   2.634   4.541   6.018  0.0031 -0.3914  0.1770
 9308SOL     OW39556   2.250   1.823   9.290  0.2678  0.4613  0.1258
 9308SOL    HW139557   2.241   1.766   9.366  2.0159  0.0249  0.0048
 9308SOL    HW239558   2.220   1.751   9.235  1.4539 -0.2273  0.3939
 9309SOL     OW39559   3.727   4.349   3.289  0.6244  0.4942 -0.4855
 9309SOL    HW139560   3.656   4.349   3.353  0.5746 -1.4397 -0.5487
 9309SOL    HW239561   3.789   4.409   3.330 -0.1162 -0.7974  2.4899
 9310SOL     OW39562   4.125   4.635   8.039  0.1785  0.3798  0.0187
 9310SOL    HW139563   4.042   4.605   8.001  0.7939 -0.7242 -0.4607
 9310SOL    HW239564   4.113   4.658   8.131 -0.2893 -1.0716  0.3181
 9311SOL     OW39565   3.183   4.413  14.225  0.0468 -0.2743  0.2284
 9311SOL    HW139566   3.129   4.367  14.161 -1.2578 -0.2801  1.3357
 9311SOL    HW239567   3.166   4.506  14.213 -0.9610 -0.3218  1.2880
 9312SOL     OW39568   4.656   1.459   8.492 -0.1734  0.0416  0.1182
 9312SOL    HW139569   4.693   1.529   8.545  1.6280 -2.0565  1.6140
 9312SOL    HW239570   4.734   1.404   8.485 -1.8313 -2.5239  1.6327
 9313SOL     OW39571   0.956   3.057  16.854 -0.3850 -0.1961 -0.9058
 9313SOL    HW139572   0.913   3.040  16.770 -1.0105  1.4250 -0.9049
 9313SOL    HW239573   0.957   3.152  16.848  0.8062 -0.2446 -1.3706
 9314SOL     OW39574   1.748   1.396   4.070 -0.3692 -0.0239  0.1389
 9314SOL    HW139575   1.671   1.415   4.017  0.5631  0.7181 -0.9435
 9314SOL    HW239576   1.708   1.390   4.157  2.0652 -0.3006  1.2525
 9315SOL     OW39577   4.672   3.678   5.425  0.5929 -0.0978  0.2321
 9315SOL    HW139578   4.655   3.743   5.357  3.2571 -0.0822 -0.3894
 9315SOL    HW239579   0.025   3.704   5.450  0.2744  1.7241 -0.5118
 9316SOL     OW39580   1.695   1.029   5.391  0.0094  0.5327 -0.1124
 9316SOL    HW139581   1.688   1.124   5.392 -0.5581  0.4840  0.7337
 9316SOL    HW239582   1.647   1.018   5.309 -0.4000  1.3795  0.0149
 9317SOL     OW39583   2.827   2.991   0.217 -0.4785  0.7273  0.0230
 9317SOL    HW139584   2.896   2.998   0.152 -2.1241 -0.3659 -1.8434
 9317SOL    HW239585   2.874   3.005   0.299 -0.1893  1.5215 -0.2760
 9318SOL     OW39586   1.563   3.897   5.599  0.4301 -0.2956 -0.3529
 9318SOL    HW139587   1.479   3.935   5.625 -0.4198 -0.4429 -2.8139
 9318SOL    HW239588   1.570   3.912   5.505  1.2184  0.4597 -0.1659
 9319SOL     OW39589   4.651   3.591   8.317 -0.1594 -0.2735 -0.3975
 9319SOL    HW139590   4.706   3.564   8.243  0.9591 -0.4351  0.4824
 9319SOL    HW239591   4.700   3.661   8.361  0.1492  0.3201 -1.6738
 9320SOL     OW39592   4.271   0.678   4.748 -0.5754  0.1531 -0.3551
 9320SOL    HW139593   4.309   0.712   4.829 -0.4334 -1.3410  0.2083
 9320SOL    HW239594   4.263   0.761   4.702  0.6655  2.0344  2.8878
 9321SOL     OW39595   0.676   1.335   1.291 -0.2711  0.7259 -0.9880
 9321SOL    HW139596   0.615   1.263   1.277 -0.4550  0.9560 -1.3615
 9321SOL    HW239597   0.753   1.309   1.240 -0.9625 -0.3472 -1.4678
 9322SOL     OW39598   4.359   3.269   6.707  0.3221 -0.6709  0.9844
 9322SOL    HW139599   4.327   3.344   6.756  1.4761  0.2240  0.3494
 9322SOL    HW239600   4.393   3.314   6.630 -2.4584 -0.4619 -0.1573
 9323SOL     OW39601   2.449   3.651  10.442  0.0268 -0.6753  0.0084
 9323SOL    HW139602   2.441   3.586  10.511  0.1782 -0.3687  0.3169
 9323SOL    HW239603   2.362   3.636  10.406 -0.3351  1.0474  0.1311
 9324SOL     OW39604   1.115   4.562   1.373  0.4021 -0.2102 -0.4798
 9324SOL    HW139605   1.047   4.495   1.364 -0.9258  0.7873  2.1500
 9324SOL    HW239606   1.179   4.523   1.433  0.2971 -0.0861 -0.2900
 9325SOL     OW39607   1.011   4.674  12.844 -0.4112  0.8705 -0.5437
 9325SOL    HW139608   1.081   4.627  12.890  0.3027  2.0434 -0.4293
 9325SOL    HW239609   1.040   4.680  12.753 -2.2992  3.5491 -0.9685
 9326SOL     OW39610   3.899   1.815   4.798  0.4531  0.2176 -0.3731
 9326SOL    HW139611   3.817   1.804   4.846 -0.7275  0.7114 -2.2592
 9326SOL    HW239612   3.862   1.826   4.710  1.3338  2.0640 -0.5236
 9327SOL     OW39613   1.776   0.973   7.216 -0.1325 -0.7226 -0.5264
 9327SOL    HW139614   1.686   1.003   7.220 -0.1371 -0.4430 -2.6901
 9327SOL    HW239615   1.782   0.917   7.294  0.6212  0.1304  0.0274
 9328SOL     OW39616   2.283   2.859  12.074 -0.7278 -1.1262  0.3312
 9328SOL    HW139617   2.229   2.797  12.123 -2.6327 -0.8005 -1.3174
 9328SOL    HW239618   2.243   2.947  12.070  1.3473 -0.2755 -1.8237
 9329SOL     OW39619   4.545   1.607   7.589  0.5683  0.2849  0.1663
 9329SOL    HW139620   4.511   1.554   7.660 -1.9646  2.7181  0.7967
 9329SOL    HW239621   4.633   1.570   7.579 -0.4558 -1.8978 -0.6342
 9330SOL     OW39622   2.055   3.503   8.197  0.7504  0.4497 -0.1683
 9330SOL    HW139623   1.964   3.531   8.210  0.5767  0.5221 -1.5172
 9330SOL    HW239624   2.039   3.422   8.148  0.5314  0.8463 -0.7458
 9331SOL     OW39625   3.872   3.401   8.476  0.5844  0.1893  0.2861
 9331SOL    HW139626   3.898   3.347   8.550  1.1702 -1.5213 -1.1750
 9331SOL    HW239627   3.907   3.482   8.512 -0.3841  0.2672  1.0642
 9332SOL     OW39628   3.631   2.482   7.452  0.2347 -0.2972 -0.4950
 9332SOL    HW139629   3.599   2.571   7.468  1.4336 -0.1094  0.7926
 9332SOL    HW239630   3.697   2.499   7.385 -0.8447 -0.1728 -1.5390
 9333SOL     OW39631   1.933   2.400   6.763 -0.0078 -0.0272  0.0048
 9333SOL    HW139632   1.913   2.447   6.844 -0.9515 -1.0771  0.3698
 9333SOL    HW239633   1.929   2.306   6.776 -3.7414  0.0621 -0.2376
 9334SOL     OW39634   2.906   1.907   5.193 -0.5061  0.2956  0.3681
 9334SOL    HW139635   2.820   1.878   5.164 -0.8059  1.0731  0.4823
 9334SOL    HW239636   2.882   1.996   5.218  1.4417  0.6121  1.1531
 9335SOL     OW39637   0.571   2.608  14.204 -0.2536 -0.0533  0.0340
 9335SOL    HW139638   0.507   2.678  14.218 -2.2695 -1.9319  0.3372
 9335SOL    HW239639   0.511   2.534  14.213 -1.1093  0.5845 -0.3155
 9336SOL     OW39640   0.123   1.301   2.305 -0.2059  0.1384  0.5230
 9336SOL    HW139641   0.143   1.252   2.384  0.4295 -1.2499 -0.5097
 9336SOL    HW239642   0.191   1.268   2.247  1.7093  2.5537  1.3971
 9337SOL     OW39643   3.914   1.907   8.036  0.4683 -0.0103 -0.3888
 9337SOL    HW139644   3.977   1.976   8.057  1.6862 -1.3867  0.5223
 9337SOL    HW239645   3.851   1.917   8.108 -0.6095  1.2201 -1.5090
 9338SOL     OW39646   2.957   0.951  13.969  0.2526 -0.3418  0.1901
 9338SOL    HW139647   3.052   0.961  13.968  0.4649 -2.3370  0.1338
 9338SOL    HW239648   2.934   1.010  14.040 -3.1579 -1.0133 -0.3191
 9339SOL     OW39649   0.166   2.303   2.173 -0.6591 -0.2719 -0.0606
 9339SOL    HW139650   0.178   2.278   2.082 -0.7220  2.1393 -0.7237
 9339SOL    HW239651   0.222   2.245   2.224  2.4922  2.7836 -0.0448
 9340SOL     OW39652   2.469   2.601  11.852  0.3044 -0.2694 -0.6333
 9340SOL    HW139653   2.515   2.663  11.794  1.4733  1.0756  1.7150
 9340SOL    HW239654   2.390   2.581  11.802  0.2178  0.1964 -0.6892
 9341SOL     OW39655   0.405   2.262  11.831 -0.5541 -0.2012 -0.1374
 9341SOL    HW139656   0.441   2.288  11.746  0.7261  1.5296  0.9346
 9341SOL    HW239657   0.439   2.173  11.840  0.3695  0.1557 -0.0833
 9342SOL     OW39658   1.251   3.829   0.372  0.1668 -0.3332  0.3980
 9342SOL    HW139659   1.307   3.906   0.375  2.4270 -1.9085 -1.4551
 9342SOL    HW239660   1.191   3.839   0.446  0.5423 -1.3037  0.8364
 9343SOL     OW39661   0.346   2.613   9.338  0.2908 -0.3142  0.3508
 9343SOL    HW139662   0.290   2.610   9.261 -0.3206 -0.5781  0.8081
 9343SOL    HW239663   0.308   2.688   9.385  0.9354 -0.7155  1.5139
 9344SOL     OW39664   1.595   1.226   0.357  0.4844 -0.5590 -0.2096
 9344SOL    HW139665   1.513   1.181   0.337  0.6047 -1.8770  2.2583
 9344SOL    HW239666   1.574   1.293   0.422  1.0296  0.1057 -0.7197
 9345SOL     OW39667   1.971   2.733   7.139 -0.4178 -0.6087  0.2892
 9345SOL    HW139668   2.059   2.695   7.145 -0.4683 -0.7530  0.1010
 9345SOL    HW239669   1.983   2.808   7.197  1.0321  2.0571 -3.4714
 9346SOL     OW39670   0.626   0.639   8.854 -0.0611 -0.0694 -0.2598
 9346SOL    HW139671   0.669   0.569   8.904 -0.1651 -0.7307 -1.0972
 9346SOL    HW239672   0.560   0.665   8.919 -0.1191 -0.3177 -0.2179
 9347SOL     OW39673   1.736   4.255   9.412  0.4160  0.4338 -0.4566
 9347SOL    HW139674   1.683   4.298   9.345  1.4603  0.2890 -1.3724
 9347SOL    HW239675   1.667   4.236   9.476  1.0911 -0.0060  0.1432
 9348SOL     OW39676   3.421   0.047  10.050  0.0606  0.3592 -0.7709
 9348SOL    HW139677   3.404   0.119   9.988  0.2087 -0.2713 -1.5439
 9348SOL    HW239678   3.515   0.034  10.033  0.0394  0.2090 -0.7639
 9349SOL     OW39679   3.450   0.667  14.565 -0.0487 -0.2046  0.3657
 9349SOL    HW139680   3.415   0.735  14.622  0.9913 -1.7580  2.8514
 9349SOL    HW239681   3.409   0.592  14.608  1.2010 -1.9673 -1.5357
 9350SOL     OW39682   3.017   2.266   4.664 -0.0542 -0.1189  1.7648
 9350SOL    HW139683   3.043   2.190   4.716  0.8368  0.0578  1.5857
 9350SOL    HW239684   3.108   2.294   4.652 -0.3462  0.3239  0.5781
 9351SOL     OW39685   3.351   1.164   9.007 -0.3199  0.3773 -0.0083
 9351SOL    HW139686   3.387   1.251   9.021  1.1889 -0.5415  1.7386
 9351SOL    HW239687   3.434   1.125   8.979 -0.3792  1.4724 -1.7276
 9352SOL     OW39688   0.081   3.490  16.198 -0.0810  0.5222 -0.1586
 9352SOL    HW139689   0.061   3.468  16.289  0.4932 -0.7771 -0.3513
 9352SOL    HW239690   0.176   3.498  16.200 -0.0936  0.4644  0.5680
 9353SOL     OW39691   4.180   2.629   8.882  0.1762  0.1396  0.0166
 9353SOL    HW139692   4.260   2.645   8.832  0.2883  2.1506  0.8389
 9353SOL    HW239693   4.157   2.721   8.896  3.4740  1.0216 -0.3054
 9354SOL     OW39694   1.762   3.302  14.241  0.1628 -0.2070  0.0599
 9354SOL    HW139695   1.796   3.247  14.311  0.0957 -0.3104  0.0105
 9354SOL    HW239696   1.671   3.275  14.251 -0.0085  0.1660 -0.4488
 9355SOL     OW39697   3.562   3.612  12.361  0.0368  0.1579  0.3026
 9355SOL    HW139698   3.656   3.628  12.351 -0.3033  1.9639 -0.0973
 9355SOL    HW239699   3.551   3.520  12.338  0.2569  0.0270  0.7275
 9356SOL     OW39700   2.369   1.640   7.259  0.2711 -0.0393 -0.3220
 9356SOL    HW139701   2.455   1.609   7.231 -0.1992  0.0949 -1.9657
 9356SOL    HW239702   2.392   1.730   7.284 -1.1789  0.9991 -2.6588
 9357SOL     OW39703   0.092   0.388   3.031  0.0469 -0.0167  0.6834
 9357SOL    HW139704   0.062   0.309   2.986  0.9554 -0.6382  1.1577
 9357SOL    HW239705   0.166   0.406   2.971 -0.4000 -0.1369  0.0960
 9358SOL     OW39706   3.903   3.983   5.886  0.2227 -0.3140 -0.2310
 9358SOL    HW139707   3.861   4.017   5.807  0.5790  0.3149 -0.1485
 9358SOL    HW239708   3.854   3.903   5.903  0.9825 -0.8792 -0.6890
 9359SOL     OW39709   2.067   2.716   9.514  0.2321 -0.6030 -0.0054
 9359SOL    HW139710   2.118   2.754   9.442  0.6925 -1.7587 -0.2905
 9359SOL    HW239711   2.039   2.636   9.469 -0.8513  1.3507 -2.8463
 9360SOL     OW39712   1.410   3.078   5.541 -0.0436  0.8569 -0.5203
 9360SOL    HW139713   1.361   3.112   5.467 -1.8925  1.1659  0.8248
 9360SOL    HW239714   1.468   3.151   5.560 -0.8650  1.4909 -0.4689
 9361SOL     OW39715   1.618   3.072  10.198  0.4400 -0.3744 -0.3986
 9361SOL    HW139716   1.634   3.015  10.123  0.4620 -1.3576  0.3569
 9361SOL    HW239717   1.538   3.026  10.226 -1.2091  2.3566 -0.6363
 9362SOL     OW39718   1.538   3.061   9.222 -0.5187 -0.2924 -0.2887
 9362SOL    HW139719   1.565   3.119   9.293  0.2348 -0.6822 -0.2631
 9362SOL    HW239720   1.520   3.125   9.152  0.1840 -0.0531 -0.2560
 9363SOL     OW39721   1.578   0.140   4.689  0.3417  0.2336  0.4359
 9363SOL    HW139722   1.668   0.132   4.658  0.2001 -2.1977  0.6083
 9363SOL    HW239723   1.538   0.146   4.602  1.0301  1.6320  0.2180
 9364SOL     OW39724   0.948   1.121   9.279  0.2664 -0.1573 -0.0445
 9364SOL    HW139725   1.015   1.057   9.252 -0.5017 -0.2950 -1.5917
 9364SOL    HW239726   0.888   1.065   9.328 -0.4896  2.2722  1.7427
 9365SOL     OW39727   3.793   1.507   0.541 -0.2731 -0.3723  0.2572
 9365SOL    HW139728   3.867   1.518   0.481 -1.0259  1.3071 -0.3916
 9365SOL    HW239729   3.722   1.549   0.492 -0.7272 -1.4037  0.0484
 9366SOL     OW39730   0.964   4.490   1.115  0.0982 -0.3429 -0.0278
 9366SOL    HW139731   1.046   4.532   1.140  0.2043 -0.3512 -0.3626
 9366SOL    HW239732   0.922   4.566   1.075 -2.0944 -1.3658  0.3344
 9367SOL     OW39733   0.988   1.279   7.047  0.0219 -0.0350 -0.4718
 9367SOL    HW139734   1.061   1.230   7.085 -0.6399 -0.3112  0.4538
 9367SOL    HW239735   0.929   1.245   7.115 -0.7629  3.0394  0.4148
 9368SOL     OW39736   0.199   4.489   6.688 -0.1232 -0.1082  0.2269
 9368SOL    HW139737   0.294   4.478   6.686 -0.1030  0.5071 -1.5898
 9368SOL    HW239738   0.167   4.461   6.603 -0.8221  1.4555 -0.0305
 9369SOL     OW39739   1.487   3.640   7.030  0.0952 -0.4122 -0.2018
 9369SOL    HW139740   1.517   3.588   6.956  0.6504 -0.4992  0.0834
 9369SOL    HW239741   1.402   3.675   7.004 -1.4482 -2.3559  2.2544
 9370SOL     OW39742   3.060   1.061   1.961 -0.7480 -0.6660 -0.1587
 9370SOL    HW139743   3.136   1.074   2.017 -0.1831  0.3843 -1.1833
 9370SOL    HW239744   2.992   1.065   2.029  0.6026 -2.6806  1.3024
 9371SOL     OW39745   1.535   1.043   4.005 -0.7533 -0.2212  0.6379
 9371SOL    HW139746   1.496   1.100   4.072 -2.6951  2.3498 -2.6818
 9371SOL    HW239747   1.594   0.987   4.055  1.6511  0.8364 -1.0731
 9372SOL     OW39748   1.040   4.492   2.617  0.7643 -0.0175  0.5634
 9372SOL    HW139749   1.052   4.554   2.545 -0.7567  1.5037  1.6258
 9372SOL    HW239750   1.060   4.408   2.576 -0.0502  0.4278 -0.7513
 9373SOL     OW39751   3.116   0.650   9.872 -0.3943  0.4423  0.4842
 9373SOL    HW139752   3.153   0.739   9.867 -2.5384  1.4511  2.4920
 9373SOL    HW239753   3.163   0.614   9.946  0.8252  0.9935 -0.0259
 9374SOL     OW39754   2.709   0.332   6.293  0.2567 -0.3557 -0.0515
 9374SOL    HW139755   2.733   0.394   6.362  0.8220  0.9713 -1.4395
 9374SOL    HW239756   2.767   0.263   6.323 -0.2337 -0.6723  0.1648
 9375SOL     OW39757   2.385   2.918   0.330  0.3332  0.5918  0.7681
 9375SOL    HW139758   2.357   2.828   0.314  0.0902  0.8516 -0.2897
 9375SOL    HW239759   2.448   2.923   0.259 -0.1890  2.5603  0.4404
 9376SOL     OW39760   2.225   0.103   3.373 -0.2936  0.6123  0.0578
 9376SOL    HW139761   2.209   0.043   3.447  0.3424 -0.8755 -1.0196
 9376SOL    HW239762   2.321   0.098   3.374 -0.3277  0.1319  0.9741
 9377SOL     OW39763   3.552   3.569   2.354  0.5650 -0.3130  0.2417
 9377SOL    HW139764   3.543   3.652   2.400  2.1531 -0.3645  0.6276
 9377SOL    HW239765   3.505   3.504   2.407  0.0633  1.3742  1.8450
 9378SOL     OW39766   3.114   3.686   7.317  0.2623 -0.2082 -0.2205
 9378SOL    HW139767   3.052   3.625   7.276 -0.9452  0.3253  0.8446
 9378SOL    HW239768   3.150   3.733   7.242 -1.4410  0.2215 -0.7727
 9379SOL     OW39769   4.232   1.295   3.314  0.5893  1.0658 -0.1974
 9379SOL    HW139770   4.207   1.209   3.280  1.0052  0.5421  0.8251
 9379SOL    HW239771   4.210   1.350   3.239  0.1811 -0.3661 -1.1426
 9380SOL     OW39772   3.845   1.173  15.830 -0.5685 -0.1235 -0.0043
 9380SOL    HW139773   3.821   1.266  15.836  1.0588  0.1789  1.6697
 9380SOL    HW239774   3.916   1.167  15.894  0.2258  0.3625 -0.8536
 9381SOL     OW39775   3.634   2.610   9.220  0.1820  0.1874  0.4563
 9381SOL    HW139776   3.544   2.612   9.187  1.0073  2.7308 -1.6510
 9381SOL    HW239777   3.677   2.546   9.162 -1.2030  1.4154 -1.9149
 9382SOL     OW39778   1.147   1.748  11.585 -0.2814 -0.1701 -0.0454
 9382SOL    HW139779   1.124   1.683  11.652 -1.6507 -0.0886 -0.4286
 9382SOL    HW239780   1.239   1.739  11.560  0.3306  1.3872  1.6393
 9383SOL     OW39781   4.540   1.325   5.601 -0.3813 -0.1391 -0.4076
 9383SOL    HW139782   4.475   1.305   5.668 -0.6246  0.2906 -0.5175
 9383SOL    HW239783   4.575   1.242   5.571 -0.0897  0.2130 -1.0486
 9384SOL     OW39784   3.933   2.836   8.965 -0.6815 -0.1541  0.3285
 9384SOL    HW139785   3.861   2.831   9.028  0.5710  0.4749  1.8120
 9384SOL    HW239786   3.981   2.903   9.015  1.4146 -2.1207  0.9416
 9385SOL     OW39787   2.558   3.809  11.463 -0.2504  0.2716  0.3543
 9385SOL    HW139788   2.545   3.891  11.416  1.2740 -0.4660 -1.3611
 9385SOL    HW239789   2.603   3.837  11.543  3.0547 -0.8001 -1.1217
 9386SOL     OW39790   3.866   3.006   4.660 -0.0813  0.3859 -0.0315
 9386SOL    HW139791   3.866   2.911   4.655  0.0122  0.3027  1.6950
 9386SOL    HW239792   3.957   3.035   4.673 -0.2534  0.8135  0.2186
 9387SOL     OW39793   2.052   1.194   5.494  0.5071  0.3714 -0.2043
 9387SOL    HW139794   2.057   1.136   5.569  0.5407 -0.1683 -0.6276
 9387SOL    HW239795   2.144   1.211   5.477  0.5643 -1.2812 -1.4538
 9388SOL     OW39796   3.948   4.612   6.109  0.2913 -0.1237  0.0862
 9388SOL    HW139797   4.027   4.628   6.161 -1.2085  0.5515  2.0945
 9388SOL    HW239798   3.891   4.686   6.129 -1.8159 -1.4648 -0.9645
 9389SOL     OW39799   3.967   0.795   1.994  0.7190 -0.1837 -0.3151
 9389SOL    HW139800   3.938   0.870   2.045  1.3793 -0.8216  1.0201
 9389SOL    HW239801   3.988   0.733   2.064 -2.0874  1.9096  2.3626
 9390SOL     OW39802   3.900   3.170   5.777 -0.0437  0.0674 -0.5968
 9390SOL    HW139803   3.946   3.127   5.849  1.9833 -0.4380 -2.2186
 9390SOL    HW239804   3.900   3.258   5.813 -2.2722 -0.4568  0.7577
 9391SOL     OW39805   2.244   0.668   2.550 -0.3679  0.1721  0.2720
 9391SOL    HW139806   2.309   0.658   2.620  0.4920  0.3359 -0.5001
 9391SOL    HW239807   2.181   0.602   2.578 -0.5186  0.2059  0.0048
 9392SOL     OW39808   4.026   2.975   8.602  0.8351  0.6366 -0.0937
 9392SOL    HW139809   4.103   2.983   8.547  1.2606  0.6750  0.5176
 9392SOL    HW239810   3.960   2.962   8.533  1.0425  0.1152 -0.1955
 9393SOL     OW39811   2.752   0.768   0.898  0.1881 -0.2683  0.2388
 9393SOL    HW139812   2.680   0.829   0.913  0.8215  0.5241  0.0826
 9393SOL    HW239813   2.795   0.747   0.981  0.7160  1.2068  0.3270
 9394SOL     OW39814   3.079   3.008   2.803 -0.4151 -0.3252 -0.0718
 9394SOL    HW139815   3.060   3.091   2.759  1.2963 -0.0107 -0.2332
 9394SOL    HW239816   3.129   3.031   2.882 -1.7848 -1.5429  1.1337
 9395SOL     OW39817   3.742   3.867  13.135  0.3211 -0.1553  0.0429
 9395SOL    HW139818   3.728   3.962  13.134  1.7379  0.0640  0.3171
 9395SOL    HW239819   3.833   3.862  13.105  0.6065 -1.6398  1.1860
 9396SOL     OW39820   0.180   0.335   6.695  0.3240 -0.4954 -0.3319
 9396SOL    HW139821   0.203   0.243   6.699  0.2829 -0.5656 -1.5080
 9396SOL    HW239822   0.137   0.342   6.609  1.1108  0.5970 -0.6443
 9397SOL     OW39823   0.793   2.206  11.472 -0.2931  0.0638 -0.3687
 9397SOL    HW139824   0.742   2.239  11.399 -2.2356 -0.4190  0.7807
 9397SOL    HW239825   0.737   2.146  11.522 -0.1655 -0.9912 -1.4672
 9398SOL     OW39826   3.968   4.535  15.233  0.5488  0.6321 -0.7330
 9398SOL    HW139827   3.952   4.615  15.283 -1.8027  0.1760 -0.7290
 9398SOL    HW239828   3.960   4.569  15.144  0.3588 -1.5770 -1.5606
 9399SOL     OW39829   2.802   3.145   4.678  0.5430 -0.3169  0.0983
 9399SOL    HW139830   2.769   3.092   4.750  0.6486 -1.1748 -0.4894
 9399SOL    HW239831   2.824   3.074   4.618  1.8942  0.3077 -0.1531
 9400SOL     OW39832   0.933   3.753  17.538 -0.0971  0.1831  0.6770
 9400SOL    HW139833   0.927   3.760  17.443 -1.1335 -2.0040  0.5924
 9400SOL    HW239834   0.894   3.838  17.561  0.0507  1.2252 -2.9183
 9401SOL     OW39835   4.573   4.189   8.037 -0.4672 -0.2697  0.0937
 9401SOL    HW139836   4.602   4.256   8.099 -0.9898 -0.5870  0.6756
 9401SOL    HW239837   4.594   4.224   7.950 -1.3957  0.5405  0.1939
 9402SOL     OW39838   0.339   2.843   2.241 -0.1834  0.1199 -0.5207
 9402SOL    HW139839   0.303   2.931   2.251  0.9369  0.6964 -1.5269
 9402SOL    HW239840   0.264   2.803   2.197  0.2361 -0.1329 -1.0062
 9403SOL     OW39841   2.323   0.505   4.945 -0.7852  0.5036  0.1917
 9403SOL    HW139842   2.326   0.557   4.865  1.8132 -0.7147 -0.5066
 9403SOL    HW239843   2.233   0.472   4.943  0.5577 -3.0335 -1.9951
 9404SOL     OW39844   0.945   3.743   9.339 -0.1467  0.4416  0.5789
 9404SOL    HW139845   0.975   3.657   9.368  0.0851  0.0133 -0.9013
 9404SOL    HW239846   0.853   3.716   9.334  0.1781 -0.4499 -0.5442
 9405SOL     OW39847   2.363   2.604   1.942 -0.1388  0.0241 -0.1788
 9405SOL    HW139848   2.423   2.604   2.017 -0.2769  2.4913 -0.0717
 9405SOL    HW239849   2.340   2.695   1.924  0.3692  0.0593 -0.6287
 9406SOL     OW39850   2.452   2.092   3.453 -0.4392  0.5421 -0.3676
 9406SOL    HW139851   2.384   2.042   3.497  0.1286 -0.4149 -0.5909
 9406SOL    HW239852   2.533   2.043   3.470  0.2395  1.6920 -0.2434
 9407SOL     OW39853   0.025   4.225   2.559 -0.5863  0.4863  0.1631
 9407SOL    HW139854   0.066   4.233   2.474  0.1589  0.9875  0.5729
 9407SOL    HW239855   0.094   4.265   2.612 -0.3991  1.2206 -0.6451
 9408SOL     OW39856   3.246   2.215   7.100  0.0633  0.1615  0.1168
 9408SOL    HW139857   3.205   2.196   7.184  1.6744 -1.0688  0.6398
 9408SOL    HW239858   3.326   2.257   7.132 -1.4671  1.9394  1.5557
 9409SOL     OW39859   2.692   3.221   2.154 -0.1907 -0.2870  0.5271
 9409SOL    HW139860   2.781   3.185   2.161 -0.4885 -1.5482 -2.1619
 9409SOL    HW239861   2.689   3.241   2.061 -3.6179  0.9352  0.9007
 9410SOL     OW39862   2.531   1.125   8.331 -0.2860  0.6515 -0.6694
 9410SOL    HW139863   2.593   1.163   8.394  1.3087  0.7285 -2.3043
 9410SOL    HW239864   2.585   1.093   8.259  1.0918  2.8073 -0.5873
 9411SOL     OW39865   4.096   2.977   1.641  0.1894  0.4657  0.4360
 9411SOL    HW139866   4.186   3.004   1.656 -0.2373  0.4969  2.9130
 9411SOL    HW239867   4.052   3.060   1.625  2.9027  1.8240  0.1823
 9412SOL     OW39868   0.518   3.846   8.373  0.1809  0.4767  0.2295
 9412SOL    HW139869   0.451   3.787   8.338  1.2452 -0.0395 -0.9280
 9412SOL    HW239870   0.577   3.854   8.298  0.3800 -0.8142  0.2448
 9413SOL     OW39871   1.295   1.920   4.555  0.4476 -0.0700 -0.5017
 9413SOL    HW139872   1.232   1.983   4.519  0.9450  0.0444 -1.1769
 9413SOL    HW239873   1.240   1.843   4.553 -0.1885  0.3987 -1.3713
 9414SOL     OW39874   2.122   2.997   8.813  0.5392  0.0502 -0.2831
 9414SOL    HW139875   2.164   2.999   8.727  2.6106  2.2476  0.8004
 9414SOL    HW239876   2.126   3.088   8.841  1.2517 -0.4110  1.0774
 9415SOL     OW39877   4.106   3.949  15.091 -0.3635  0.3460  0.3337
 9415SOL    HW139878   4.127   3.898  15.013  0.9906  0.5635  0.5503
 9415SOL    HW239879   4.111   4.036  15.051 -0.2006 -0.5050 -1.5034
 9416SOL     OW39880   1.825   2.980   9.328  0.1066 -0.0956 -0.3037
 9416SOL    HW139881   1.908   3.007   9.290  0.0996 -0.2167 -0.4067
 9416SOL    HW239882   1.767   3.023   9.266  0.7269 -0.3107 -1.0268
 9417SOL     OW39883   0.979   3.598   4.856  0.0446  0.5781 -0.3603
 9417SOL    HW139884   0.981   3.693   4.870  0.2557  0.2574  1.8481
 9417SOL    HW239885   1.034   3.600   4.778  1.6466 -0.8073  0.7505
 9418SOL     OW39886   4.102   4.026   7.863 -0.5109  0.3962 -0.4842
 9418SOL    HW139887   4.142   4.054   7.945 -5.1988 -0.2549  2.0651
 9418SOL    HW239888   4.182   4.042   7.813 -0.5213 -0.6024 -0.8172
 9419SOL     OW39889   0.895   3.209  12.507  0.7077  0.8167  0.1856
 9419SOL    HW139890   0.864   3.295  12.533 -2.1481 -0.9513  2.5873
 9419SOL    HW239891   0.853   3.140  12.558 -1.4371 -0.7326 -3.6744
 9420SOL     OW39892   3.848   0.561   1.213 -0.2218 -0.1296  0.6954
 9420SOL    HW139893   3.793   0.640   1.213 -0.2275 -0.1371  1.5864
 9420SOL    HW239894   3.806   0.500   1.153  1.5591  0.4920 -1.2073
 9421SOL     OW39895   3.705   2.267   2.224 -0.0144  0.3130 -0.5720
 9421SOL    HW139896   3.729   2.339   2.166 -0.1590 -0.5703 -1.7236
 9421SOL    HW239897   3.789   2.224   2.207  0.5081  1.5829 -1.1664
 9422SOL     OW39898   4.522   0.927   0.343  0.2927  0.0986  0.1799
 9422SOL    HW139899   4.554   0.871   0.415 -0.3713 -0.0580  0.3543
 9422SOL    HW239900   4.437   0.883   0.343 -0.3186  1.2603  1.6813
 9423SOL     OW39901   3.877   1.868   3.769 -0.7319 -0.6062 -0.7958
 9423SOL    HW139902   3.792   1.914   3.769  0.0698  0.8778  0.7979
 9423SOL    HW239903   3.868   1.821   3.686 -0.8330  0.6654 -1.5058
 9424SOL     OW39904   1.373   2.210   1.784  0.4397 -0.0043 -0.4121
 9424SOL    HW139905   1.388   2.185   1.875  1.4842 -0.7354 -0.7826
 9424SOL    HW239906   1.386   2.304   1.791 -1.4369  0.1882  0.5991
 9425SOL     OW39907   1.760   0.318   6.110  0.5441 -0.6481  0.2081
 9425SOL    HW139908   1.767   0.326   6.205  1.6523  1.0077 -0.0151
 9425SOL    HW239909   1.784   0.226   6.094  0.2336 -0.8399  0.8378
 9426SOL     OW39910   0.991   2.232   1.955  0.3155 -0.0885  0.8040
 9426SOL    HW139911   1.012   2.303   1.895  1.3942  0.5957  1.9777
 9426SOL    HW239912   0.964   2.158   1.901 -3.3965  1.1337  1.0111
 9427SOL     OW39913   0.202   4.109   7.302 -0.4739  0.4361 -0.1828
 9427SOL    HW139914   0.191   4.158   7.383 -2.0376 -2.2131  1.2081
 9427SOL    HW239915   0.122   4.134   7.256 -0.0222 -1.4180 -1.9744
 9428SOL     OW39916   3.071   3.300  16.640 -0.2779  0.3281  0.3680
 9428SOL    HW139917   3.066   3.387  16.680 -1.5803  0.7110 -0.6326
 9428SOL    HW239918   3.054   3.304  16.546  0.1682 -2.6018  0.1515
 9429SOL     OW39919   4.294   3.483   3.335 -0.8409  0.4169  0.0516
 9429SOL    HW139920   4.374   3.534   3.320 -0.3857  1.0742  4.8038
 9429SOL    HW239921   4.258   3.541   3.402 -0.2104  1.8736 -0.8577
 9430SOL     OW39922   3.967   3.466  15.377  0.1227  0.0181 -0.0936
 9430SOL    HW139923   3.925   3.385  15.347 -1.1547  0.8448 -0.5099
 9430SOL    HW239924   3.997   3.504  15.294 -0.9521 -0.6237 -0.7834
 9431SOL     OW39925   3.969   1.009   8.389 -0.2264  0.0738  0.0060
 9431SOL    HW139926   3.923   1.083   8.349  0.2618  0.4403  0.1173
 9431SOL    HW239927   4.022   1.044   8.460 -0.2577  0.2314 -0.0479
 9432SOL     OW39928   0.254   2.212  16.216 -0.1415 -0.1890 -0.3177
 9432SOL    HW139929   0.297   2.293  16.188  1.5815 -0.8147  0.5775
 9432SOL    HW239930   0.236   2.171  16.131  1.2022 -0.1550 -0.6173
 9433SOL     OW39931   2.898   2.805   2.803 -0.1260  0.0861 -0.4832
 9433SOL    HW139932   2.823   2.864   2.811  0.7981  1.2045 -0.0296
 9433SOL    HW239933   2.964   2.874   2.802  0.9712 -0.9279  0.8573
 9434SOL     OW39934   1.626   4.453   1.811 -0.0195  0.5208  0.1680
 9434SOL    HW139935   1.652   4.424   1.898  1.3699 -1.1415 -0.8031
 9434SOL    HW239936   1.705   4.420   1.769 -1.3768 -1.4908 -0.7997
 9435SOL     OW39937   1.870   1.366  17.177 -0.1770  0.2840 -0.0566
 9435SOL    HW139938   1.946   1.392  17.230  0.2460  4.2521 -2.5685
 9435SOL    HW239939   1.851   1.450  17.134  1.2717  0.1437 -0.9976
 9436SOL     OW39940   4.286   3.915   2.612  0.5767  0.0365  0.2050
 9436SOL    HW139941   4.337   3.920   2.693  0.2641  7.2607 -0.0772
 9436SOL    HW239942   4.296   4.005   2.582  0.4076 -0.0588 -0.1338
 9437SOL     OW39943   0.926   3.918  10.052 -0.0575  0.4034  0.0318
 9437SOL    HW139944   0.844   3.963  10.031 -0.5727 -0.7414 -0.4433
 9437SOL    HW239945   0.987   3.942   9.983  1.0679 -0.1100  0.8433
 9438SOL     OW39946   0.646   3.055   2.744  0.5519 -0.4898 -0.0908
 9438SOL    HW139947   0.669   2.962   2.747  0.4334 -0.4678  1.6518
 9438SOL    HW239948   0.735   3.092   2.741  0.7196 -0.8472  0.5108
 9439SOL     OW39949   3.265   2.507   8.857  0.4731  0.4793 -0.3854
 9439SOL    HW139950   3.330   2.516   8.788  0.6225  0.0497 -0.2979
 9439SOL    HW239951   3.262   2.414   8.877  0.6143  0.3775 -0.8521
 9440SOL     OW39952   4.126   0.443   8.925 -0.1227 -0.8256 -0.3670
 9440SOL    HW139953   4.084   0.381   8.865  0.2045 -2.4730  1.1265
 9440SOL    HW239954   4.190   0.380   8.957  1.0133  1.0379  1.0227
 9441SOL     OW39955   2.549   4.524  12.536 -0.1459  0.4901  0.1173
 9441SOL    HW139956   2.628   4.524  12.482  0.8627 -3.9925  1.6013
 9441SOL    HW239957   2.556   4.610  12.577  1.3195  0.6283 -0.4333
 9442SOL     OW39958   3.349   1.133   0.252  0.3531  0.1029  0.3032
 9442SOL    HW139959   3.422   1.084   0.290  0.9257  0.6855 -0.0189
 9442SOL    HW239960   3.385   1.140   0.163  1.2748 -1.3180  0.5649
 9443SOL     OW39961   0.626   2.839   2.327  0.3775 -0.7697 -0.0185
 9443SOL    HW139962   0.533   2.857   2.312  0.2831  1.0369  2.6283
 9443SOL    HW239963   0.623   2.749   2.357 -0.9928 -0.2627  1.3716
 9444SOL     OW39964   1.168   4.341   7.665  0.2387 -0.4633 -0.1954
 9444SOL    HW139965   1.128   4.255   7.671 -0.2382 -0.1228  1.2686
 9444SOL    HW239966   1.212   4.341   7.750 -1.2652 -0.7632  0.5763
 9445SOL     OW39967   2.401   2.693  12.570  0.0355 -0.0939 -0.4643
 9445SOL    HW139968   2.496   2.705  12.580 -0.1270  0.8402 -0.0923
 9445SOL    HW239969   2.399   2.644  12.488 -0.5250 -0.8905  0.0304
 9446SOL     OW39970   1.775   3.110   4.773  0.1036  0.5605 -0.0343
 9446SOL    HW139971   1.776   3.052   4.697 -0.9117 -2.0758  1.9695
 9446SOL    HW239972   1.819   3.186   4.735  1.1431 -0.0411 -0.0194
 9447SOL     OW39973   3.399   2.232  14.004  0.4329  0.0990  0.7258
 9447SOL    HW139974   3.470   2.294  14.022 -0.1938  1.8656 -2.6708
 9447SOL    HW239975   3.451   2.154  13.988  2.3040  1.9119 -2.1787
 9448SOL     OW39976   3.751   0.024   2.340 -0.1911 -0.5965  0.2238
 9448SOL    HW139977   3.732   0.111   2.306 -4.7576 -1.7808 -0.3223
 9448SOL    HW239978   3.813   0.043   2.410 -0.1303 -1.1280  0.3133
 9449SOL     OW39979   0.785   0.426   8.140 -0.5559  0.5294 -0.1078
 9449SOL    HW139980   0.818   0.419   8.051 -0.7748 -2.0133  0.0260
 9449SOL    HW239981   0.800   0.345   8.189  0.5558  0.7226 -0.1316
 9450SOL     OW39982   3.921   3.048  10.901 -0.3016 -0.0143  0.1577
 9450SOL    HW139983   3.929   3.063  10.995 -2.3986 -0.1388  0.3488
 9450SOL    HW239984   3.959   2.960  10.898  0.8730  0.5233 -1.1534
 9451SOL     OW39985   1.375   3.138   0.507 -0.7470 -0.5360  0.5338
 9451SOL    HW139986   1.322   3.099   0.437  0.6336  1.7956 -1.8283
 9451SOL    HW239987   1.438   3.174   0.445 -0.2277  0.2914  1.5639
 9452SOL     OW39988   0.682   4.049  15.993  0.2688  0.4156  0.9958
 9452SOL    HW139989   0.662   4.018  15.905 -0.3007  0.9655  0.9336
 9452SOL    HW239990   0.625   4.125  16.003 -0.0701  0.1874  0.7834
 9453SOL     OW39991   0.228   0.571   2.380 -0.1651  0.0739 -0.2823
 9453SOL    HW139992   0.259   0.530   2.299 -0.3723 -2.8627  1.1107
 9453SOL    HW239993   0.283   0.545   2.453 -0.8410  1.6395  0.7727
 9454SOL     OW39994   3.785   1.599   2.995  0.0400  0.2153  0.3215
 9454SOL    HW139995   3.818   1.530   2.937 -0.9948 -1.7948  2.0953
 9454SOL    HW239996   3.691   1.580   3.002  0.1425 -0.3815  0.0830
 9455SOL     OW39997   4.244   2.284   6.914  0.0587  0.0395  0.1010
 9455SOL    HW139998   4.227   2.211   6.855 -0.7545 -1.5459  2.2957
 9455SOL    HW239999   4.262   2.243   6.999  1.7385 -0.9991 -0.7684
 9456SOL     OW40000   2.566   4.450   6.891 -0.3996 -0.2635  0.4583
 9456SOL    HW140001   2.528   4.523   6.941 -0.0210  0.7914 -0.7876
 9456SOL    HW240002   2.652   4.491   6.878 -0.5053  0.4749  2.0747
 9457SOL     OW40003   4.298   3.827   7.120 -0.0789  0.5369  0.0911
 9457SOL    HW140004   4.276   3.918   7.139 -0.8774  0.7460 -1.7950
 9457SOL    HW240005   4.389   3.830   7.089 -0.1632  1.6155 -0.0396
 9458SOL     OW40006   1.324   2.215  13.546  0.5737  0.4694 -0.9238
 9458SOL    HW140007   1.252   2.232  13.607  1.6329  1.0403  0.1600
 9458SOL    HW240008   1.390   2.183  13.608  0.7964  2.1147 -0.3192
 9459SOL     OW40009   2.687   2.321   0.523 -0.0541 -0.3173 -0.1364
 9459SOL    HW140010   2.632   2.327   0.601  0.8014 -0.1900  0.4670
 9459SOL    HW240011   2.634   2.375   0.465  1.4035 -0.1692 -1.3368
 9460SOL     OW40012   3.686   4.481  14.505  0.4738 -0.6670 -0.0461
 9460SOL    HW140013   3.695   4.412  14.571  0.8157 -1.1937 -0.6309
 9460SOL    HW240014   3.613   4.458  14.448  1.7612 -2.8823 -0.8256
 9461SOL     OW40015   3.025   0.728   8.670 -0.2546  0.0320 -0.6332
 9461SOL    HW140016   3.079   0.667   8.721 -0.4530  0.6681  0.3287
 9461SOL    HW240017   3.035   0.673   8.591  1.2779 -1.0659  0.3237
 9462SOL     OW40018   4.688   3.786   9.986 -0.0644  0.3970  0.3388
 9462SOL    HW140019   4.662   3.718   9.924  1.3027  0.0723  0.1157
 9462SOL    HW240020   0.033   3.748  10.022  0.9528  1.3718 -0.9138
 9463SOL     OW40021   4.493   3.653   3.334 -0.1026  0.1419  0.1997
 9463SOL    HW140022   4.467   3.744   3.349  2.9713  1.5075 -2.7713
 9463SOL    HW240023   4.549   3.662   3.257 -0.4260  0.4233  0.0012
 9464SOL     OW40024   3.871   4.492   7.976 -0.2959  0.6819  0.3469
 9464SOL    HW140025   3.863   4.453   7.889 -0.1778 -0.3367  0.7938
 9464SOL    HW240026   3.872   4.416   8.034 -0.0322 -0.3632 -1.0096
 9465SOL     OW40027   1.633   2.270   8.525 -0.4839 -0.1602  0.2929
 9465SOL    HW140028   1.637   2.210   8.599 -0.3986  1.7493  1.8454
 9465SOL    HW240029   1.714   2.250   8.478 -1.1707  2.6175 -2.0696
 9466SOL     OW40030   2.464   2.274   2.838  0.0799  0.4166 -0.7335
 9466SOL    HW140031   2.396   2.235   2.783 -1.6944  0.8986  1.0729
 9466SOL    HW240032   2.525   2.200   2.831 -1.3576 -0.8108 -0.4948
 9467SOL     OW40033   3.751   2.219   6.621  0.2406  0.6125  0.7052
 9467SOL    HW140034   3.751   2.212   6.716  4.9032  2.1816  0.8030
 9467SOL    HW240035   3.836   2.259   6.603 -0.5604  1.5781 -0.9352
 9468SOL     OW40036   2.564   1.101   2.809 -0.1281  0.0288  0.6208
 9468SOL    HW140037   2.472   1.074   2.808 -0.6199  1.6796  0.5741
 9468SOL    HW240038   2.546   1.181   2.859 -0.7854 -0.2356  0.8109
 9469SOL     OW40039   3.618   3.831   4.616 -0.2733  0.2703  0.2897
 9469SOL    HW140040   3.611   3.803   4.707  2.7873  1.1531  0.7862
 9469SOL    HW240041   3.525   3.850   4.601 -0.5065  0.3707  1.8216
 9470SOL     OW40042   2.975   3.732   1.842 -0.0235  0.1661 -0.0332
 9470SOL    HW140043   2.929   3.664   1.793 -1.5528  0.9847  0.2611
 9470SOL    HW240044   2.982   3.691   1.929 -0.1321  3.8347  1.6932
 9471SOL     OW40045   3.260   2.241   8.821 -0.3602  0.3765  0.2884
 9471SOL    HW140046   3.255   2.153   8.784 -0.4855  0.4003  0.2467
 9471SOL    HW240047   3.355   2.254   8.821 -0.3753  0.5644 -1.0308
 9472SOL     OW40048   4.397   4.666   3.244 -0.4433  0.0111  0.2238
 9472SOL    HW140049   4.403   0.017   3.285 -3.4111  0.1456  0.3781
 9472SOL    HW240050   4.469   4.620   3.288  0.4634  0.3699 -0.8673
 9473SOL     OW40051   1.810   4.110   6.113 -0.2224 -0.8508 -0.0860
 9473SOL    HW140052   1.770   4.117   6.200 -2.4735  0.1287 -1.1973
 9473SOL    HW240053   1.752   4.044   6.076  1.7808 -2.1353 -0.8788
 9474SOL     OW40054   2.390   4.366  17.228  0.7984 -0.1117  0.2131
 9474SOL    HW140055   2.482   4.358  17.255  0.5981 -0.9751  0.6288
 9474SOL    HW240056   2.365   4.449  17.269 -0.7085 -0.8736  0.8379
 9475SOL     OW40057   3.026   2.334   1.209  0.2264  0.6427 -0.5383
 9475SOL    HW140058   3.031   2.244   1.176 -0.7178  0.4218 -0.0985
 9475SOL    HW240059   2.981   2.380   1.137  0.7012  0.1075 -1.1735
 9476SOL     OW40060   0.815   3.002  12.664  0.0316 -0.7571  0.0922
 9476SOL    HW140061   0.803   2.994  12.759  0.4377 -2.3085  0.0017
 9476SOL    HW240062   0.829   2.910  12.641  0.6016 -0.7620  0.4541
 9477SOL     OW40063   2.598   1.643   4.200 -0.2396  0.2832 -0.2043
 9477SOL    HW140064   2.660   1.713   4.223  1.5462 -0.9227 -1.3368
 9477SOL    HW240065   2.664   1.585   4.162  0.2645  0.0686  0.9693
 9478SOL     OW40066   3.520   1.274   4.889  0.5932 -0.4714  0.5810
 9478SOL    HW140067   3.527   1.256   4.982  2.8959 -1.7698  0.1633
 9478SOL    HW240068   3.464   1.349   4.912 -1.5766 -2.3605  1.4129
 9479SOL     OW40069   2.359   4.036   1.274  1.0939 -0.7483  0.3289
 9479SOL    HW140070   2.277   4.059   1.230  0.1375 -0.6666  2.1462
 9479SOL    HW240071   2.379   3.952   1.233 -1.0503 -1.0920  0.0001
 9480SOL     OW40072   3.415   0.229  12.099 -0.1924 -0.0330 -0.1508
 9480SOL    HW140073   3.341   0.275  12.140 -0.3094  1.0256 -1.5518
 9480SOL    HW240074   3.486   0.243  12.161  0.1786  1.5699 -0.9396
 9481SOL     OW40075   2.614   2.879   1.360 -0.3991  0.3236  0.0888
 9481SOL    HW140076   2.525   2.907   1.337 -0.1587  0.3008 -0.8397
 9481SOL    HW240077   2.664   2.961   1.364 -0.6062  0.3674  2.0388
 9482SOL     OW40078   0.764   1.760   5.471 -0.4524  0.6246  0.0938
 9482SOL    HW140079   0.798   1.708   5.399 -0.0849 -0.9974  1.4301
 9482SOL    HW240080   0.805   1.845   5.456 -2.4825  1.6740  0.4568
 9483SOL     OW40081   3.100   4.147   2.890 -0.1436 -0.0345 -0.2959
 9483SOL    HW140082   3.141   4.233   2.883  0.9618 -0.5258  0.2593
 9483SOL    HW240083   3.160   4.105   2.951 -0.0371  1.0786  0.3648
 9484SOL     OW40084   1.331   1.217   2.685 -0.1714 -0.1105  0.4772
 9484SOL    HW140085   1.270   1.148   2.661 -1.9345  1.8502 -0.7363
 9484SOL    HW240086   1.262   1.266   2.731 -0.4818 -0.2241  0.1273
 9485SOL     OW40087   1.763   3.834   7.370 -0.3847 -0.4791 -0.9948
 9485SOL    HW140088   1.767   3.740   7.388  0.6105 -0.1037  0.7377
 9485SOL    HW240089   1.811   3.861   7.449 -0.0525  0.0360 -1.3704
 9486SOL     OW40090   3.002   3.665   9.472 -0.3988  0.4218 -0.1095
 9486SOL    HW140091   2.948   3.687   9.397 -0.1707  0.2719 -0.3164
 9486SOL    HW240092   3.077   3.725   9.471 -0.8133  0.9302 -0.7658
 9487SOL     OW40093   2.693   1.600  17.480  0.6398 -0.4371  0.1573
 9487SOL    HW140094   2.763   1.663  17.498 -1.5939  2.5694 -1.7390
 9487SOL    HW240095   2.729   1.527  17.531  0.4437  0.5694  1.7197
 9488SOL     OW40096   3.342   2.841   7.087  0.3046  0.3472 -0.3507
 9488SOL    HW140097   3.317   2.749   7.086 -0.8149  0.6562 -0.7283
 9488SOL    HW240098   3.368   2.851   6.996  0.3645  1.8212 -0.1718
 9489SOL     OW40099   4.558   3.228   2.588 -0.5134 -0.0727  0.6699
 9489SOL    HW140100   4.475   3.257   2.625 -0.5018  0.8990 -0.0785
 9489SOL    HW240101   4.597   3.199   2.671  0.8907 -1.8474 -0.6076
 9490SOL     OW40102   1.127   2.369  10.929  0.4771 -0.0576 -0.3372
 9490SOL    HW140103   1.065   2.437  10.904 -0.1497 -1.3020 -2.2300
 9490SOL    HW240104   1.169   2.402  11.008 -2.3563  2.9868 -0.1335
 9491SOL     OW40105   0.107   0.292   3.680  0.1330  0.6383 -0.0444
 9491SOL    HW140106   0.143   0.260   3.763  2.6369  1.3866 -0.8415
 9491SOL    HW240107   0.087   0.213   3.630  2.0672 -0.5601  1.0686
 9492SOL     OW40108   3.935   4.039   8.143  0.3765  0.0620 -0.3378
 9492SOL    HW140109   3.970   3.951   8.158 -0.2716 -0.2663 -0.7497
 9492SOL    HW240110   4.020   4.084   8.144  0.8845 -0.9425  1.3864
 9493SOL     OW40111   2.569   0.262   6.950 -0.5020  0.1683 -0.5690
 9493SOL    HW140112   2.600   0.221   7.030  0.5565 -0.3712 -1.2452
 9493SOL    HW240113   2.475   0.275   6.963 -0.3362 -0.1846  0.9248
 9494SOL     OW40114   4.505   2.194   3.125  0.0661 -0.1161 -0.1162
 9494SOL    HW140115   4.475   2.233   3.207  0.6746 -1.9054  0.9452
 9494SOL    HW240116   4.534   2.279   3.090  0.9534 -0.5592 -0.4485
 9495SOL     OW40117   4.124   2.311   0.906  0.6230  0.2213  0.0229
 9495SOL    HW140118   4.186   2.374   0.868  1.2301 -1.4782 -1.7725
 9495SOL    HW240119   4.041   2.345   0.873 -1.4435 -2.7088  2.1521
 9496SOL     OW40120   2.365   2.366   1.817  0.1265  0.4713 -0.2498
 9496SOL    HW140121   2.426   2.410   1.757  0.6544  0.3662  0.2039
 9496SOL    HW240122   2.358   2.440   1.877 -0.8434  0.2806 -0.1412
 9497SOL     OW40123   2.881   4.267   8.279 -0.3774 -0.1238  0.1679
 9497SOL    HW140124   2.843   4.323   8.347 -1.2880 -0.6858  0.1225
 9497SOL    HW240125   2.807   4.213   8.249  0.5307 -1.4407  0.3198
 9498SOL     OW40126   1.275   1.978   3.095  0.4712  0.2700  0.2578
 9498SOL    HW140127   1.254   1.933   3.177 -1.3654 -0.7848 -0.7813
 9498SOL    HW240128   1.211   1.932   3.041  1.3505  0.4011 -0.8875
 9499SOL     OW40129   2.798   2.803  10.142  0.1306  0.1724 -0.0989
 9499SOL    HW140130   2.804   2.894  10.170  0.7841 -0.4148  1.5983
 9499SOL    HW240131   2.779   2.751  10.219 -1.7035  1.5665  0.3927
 9500SOL     OW40132   3.150   1.790   4.305  0.2202 -0.1219  0.5910
 9500SOL    HW140133   3.070   1.795   4.252  1.0569  2.0839 -0.4777
 9500SOL    HW240134   3.182   1.708   4.266  1.2703  0.9463 -0.7969
 9501SOL     OW40135   2.891   1.231   5.955  0.2549 -0.6990  0.6172
 9501SOL    HW140136   2.879   1.280   6.036  3.5373 -0.6619  1.1032
 9501SOL    HW240137   2.809   1.183   5.950  0.1516 -0.4660  0.0169
 9502SOL     OW40138   1.160   0.776   8.876  0.0515 -0.0256  0.7492
 9502SOL    HW140139   1.139   0.758   8.784  0.1386  2.0209  0.3198
 9502SOL    HW240140   1.101   0.717   8.922 -0.1868  0.3388  0.9124
 9503SOL     OW40141   4.611   0.903  16.083 -0.1054 -0.5553 -0.6941
 9503SOL    HW140142   4.693   0.909  16.034  0.6551 -4.0372  0.1795
 9503SOL    HW240143   4.554   0.915  16.008 -1.4793 -0.6163  0.3350
 9504SOL     OW40144   3.176   3.125   4.961  0.5134 -0.0627  0.1966
 9504SOL    HW140145   3.128   3.155   5.039  0.5828 -3.1159  1.4129
 9504SOL    HW240146   3.262   3.099   4.994 -0.0382 -2.1188 -0.0104
 9505SOL     OW40147   1.149   3.079   6.429 -0.4038 -0.2579  0.2645
 9505SOL    HW140148   1.080   3.048   6.370  0.9629 -1.1395 -0.8523
 9505SOL    HW240149   1.108   3.132   6.498 -1.2498  0.5535 -0.8691
 9506SOL     OW40150   2.682   3.784   8.641 -0.5308 -0.3469  0.1792
 9506SOL    HW140151   2.700   3.767   8.733  0.3990  1.1089  0.2796
 9506SOL    HW240152   2.591   3.756   8.637 -0.7859  0.3293  1.3356
 9507SOL     OW40153   1.545   1.608   5.798 -0.3654  0.7046  0.1594
 9507SOL    HW140154   1.492   1.579   5.872 -0.2995 -0.5971 -0.3084
 9507SOL    HW240155   1.531   1.549   5.724  0.7740  1.2707 -0.5148
 9508SOL     OW40156   3.170   1.142  16.289  0.2862  0.3035  0.2602
 9508SOL    HW140157   3.080   1.138  16.259  0.2983 -0.5757  0.3683
 9508SOL    HW240158   3.188   1.235  16.274  0.7993  0.1489 -0.0993
 9509SOL     OW40159   0.531   1.496  17.426  0.2356  0.0596  0.2232
 9509SOL    HW140160   0.450   1.524  17.382 -0.7587 -2.4279  0.4873
 9509SOL    HW240161   0.600   1.526  17.368 -0.0479  1.9270  0.8460
 9510SOL     OW40162   0.871   0.905   7.107 -0.1160  0.1220  0.6051
 9510SOL    HW140163   0.878   0.811   7.090  0.9586  0.5563 -1.3277
 9510SOL    HW240164   0.809   0.932   7.039  0.6071  1.6933  0.5808
 9511SOL     OW40165   0.520   3.775   9.201 -0.1430  0.2909 -0.3233
 9511SOL    HW140166   0.450   3.838   9.216 -0.7700 -0.7413  1.0699
 9511SOL    HW240167   0.539   3.787   9.107 -0.0423 -0.8460 -0.4502
 9512SOL     OW40168   1.537   3.733   1.309  0.5624 -0.1397 -0.0808
 9512SOL    HW140169   1.608   3.736   1.373 -0.4074 -1.5348  1.0629
 9512SOL    HW240170   1.592   3.746   1.231 -1.6154 -0.8301 -1.7520
 9513SOL     OW40171   3.461   0.746  13.948 -0.0636 -0.1043  0.0729
 9513SOL    HW140172   3.494   0.819  14.000 -1.3517  0.6989 -0.2357
 9513SOL    HW240173   3.532   0.744  13.883 -1.3336 -1.5197 -1.2355
 9514SOL     OW40174   4.574   1.974   2.795  0.2081  0.2491 -0.5615
 9514SOL    HW140175   4.485   1.968   2.761  0.5055  1.2892 -1.5221
 9514SOL    HW240176   4.605   2.030   2.723  1.3590 -1.9001 -1.7599
 9515SOL     OW40177   4.279   1.202   0.278 -0.4689  0.6861 -0.2587
 9515SOL    HW140178   4.206   1.258   0.253  0.4542  1.4622 -1.2319
 9515SOL    HW240179   4.288   1.137   0.208 -1.8841  0.8238 -0.5666
 9516SOL     OW40180   1.659   1.934  11.608 -0.1464  0.1202  0.0187
 9516SOL    HW140181   1.704   1.892  11.681 -0.4034  3.4770  2.1121
 9516SOL    HW240182   1.638   2.021  11.641  1.9684  1.1606 -1.3552
 9517SOL     OW40183   1.406   0.450  17.390  0.1646 -0.5203  0.0851
 9517SOL    HW140184   1.379   0.358  17.380  2.9005 -0.9323 -3.2816
 9517SOL    HW240185   1.427   0.470  17.299 -0.2434  2.3319  0.6371
 9518SOL     OW40186   0.872   0.045   2.568 -0.2248  0.3568  0.4196
 9518SOL    HW140187   0.870   0.118   2.506 -1.3780 -1.2624 -1.4552
 9518SOL    HW240188   0.817   4.722   2.516  2.3685 -0.8077 -0.9903
 9519SOL     OW40189   0.750   2.939   1.723 -0.0658 -0.1721  0.2670
 9519SOL    HW140190   0.825   2.905   1.771 -1.3567 -0.7482  1.8777
 9519SOL    HW240191   0.777   2.910   1.636 -0.8095  2.6190 -0.8957
 9520SOL     OW40192   3.276   0.016   3.433 -0.0918  0.2402 -0.1801
 9520SOL    HW140193   3.336   0.021   3.359 -0.4751  1.4108 -0.4106
 9520SOL    HW240194   3.186   0.022   3.400 -1.6163 -1.8708  3.5062
 9521SOL     OW40195   0.289   2.819   8.462 -0.2963 -0.7385 -0.1579
 9521SOL    HW140196   0.194   2.810   8.470 -0.3409  0.6752  0.8512
 9521SOL    HW240197   0.319   2.901   8.501  1.7361 -1.5025 -0.1422
 9522SOL     OW40198   3.012   4.157   4.365 -0.1730  0.1394 -0.2164
 9522SOL    HW140199   2.986   4.067   4.384 -0.9817  0.0269 -1.9298
 9522SOL    HW240200   3.016   4.148   4.270  1.2708  0.9725 -0.2324
 9523SOL     OW40201   2.208   4.186  10.482  0.2604 -0.5075 -0.2447
 9523SOL    HW140202   2.120   4.149  10.487 -0.0158 -0.1257 -2.0687
 9523SOL    HW240203   2.232   4.205  10.573 -2.2885  1.5398 -0.0170
 9524SOL     OW40204   3.233   1.515   7.065  0.2880  0.8754  1.1147
 9524SOL    HW140205   3.144   1.508   7.101 -0.1248 -1.3708 -0.3668
 9524SOL    HW240206   3.213   1.543   6.976 -2.1611 -0.4953  1.2190
 9525SOL     OW40207   0.164   2.155  11.972 -0.5717  0.1172  0.1499
 9525SOL    HW140208   0.226   2.139  11.901 -1.2166  3.8086 -1.2103
 9525SOL    HW240209   0.143   2.064  11.995 -0.0655  0.7647  3.2149
 9526SOL     OW40210   4.045   0.710   6.056  0.4431  0.0538 -0.0480
 9526SOL    HW140211   4.130   0.734   6.093  0.3046  0.6494 -0.1213
 9526SOL    HW240212   3.991   0.730   6.132 -0.2799  1.6661 -0.9851
 9527SOL     OW40213   4.199   1.896   8.865  0.6392 -0.0188  0.0116
 9527SOL    HW140214   4.250   1.817   8.848  1.0396 -0.3024  2.6844
 9527SOL    HW240215   4.115   1.855   8.885  1.2032 -1.3220 -0.3350
 9528SOL     OW40216   2.335   4.199   6.519  0.2588 -0.0186  0.5171
 9528SOL    HW140217   2.356   4.225   6.609 -1.3255 -0.7754  1.1044
 9528SOL    HW240218   2.355   4.282   6.476 -1.6580 -0.7562 -1.7476
 9529SOL     OW40219   2.219   4.094   6.218 -0.2065 -0.5950  0.4857
 9529SOL    HW140220   2.247   4.005   6.196  0.4126 -0.5382  1.0143
 9529SOL    HW240221   2.277   4.156   6.174 -2.5304  0.9461 -0.4169
 9530SOL     OW40222   0.980   2.365   3.508 -0.4177 -0.1203  0.5164
 9530SOL    HW140223   0.940   2.362   3.595  1.2245  0.2962  1.2839
 9530SOL    HW240224   0.916   2.317   3.454 -0.4994 -1.2269  1.5881
 9531SOL     OW40225   3.893   3.363  10.562 -0.5653 -0.4477  0.3616
 9531SOL    HW140226   3.891   3.458  10.551 -4.1123 -0.2933  2.4472
 9531SOL    HW240227   3.948   3.336  10.488 -0.5202 -0.1771  0.2956
 9532SOL     OW40228   2.659   0.106   2.072  0.0018 -0.3142  0.6775
 9532SOL    HW140229   2.734   0.047   2.069  1.1753  1.2339 -0.4193
 9532SOL    HW240230   2.669   0.134   2.163 -2.2346 -0.3639  0.9455
 9533SOL     OW40231   1.813   1.101   2.144  0.1892 -0.5803 -0.2993
 9533SOL    HW140232   1.891   1.068   2.099  1.1326  2.4336 -0.9214
 9533SOL    HW240233   1.843   1.131   2.231 -0.4341  1.1876 -0.6875
 9534SOL     OW40234   0.931   3.056  13.390 -0.2082  0.2507  0.5522
 9534SOL    HW140235   0.968   2.978  13.432 -0.0075  0.4040  0.6582
 9534SOL    HW240236   0.885   3.011  13.319  0.4006  0.3127  0.1186
 9535SOL     OW40237   1.667   3.596   2.238  0.3756 -0.2429 -0.1167
 9535SOL    HW140238   1.653   3.608   2.332  0.8063 -0.0518 -0.0765
 9535SOL    HW240239   1.603   3.533   2.205  0.5682 -1.5572  1.9984
 9536SOL     OW40240   0.695   4.086   4.476 -0.3371  0.2592  0.2042
 9536SOL    HW140241   0.685   3.993   4.493 -1.0706  0.6200  1.7575
 9536SOL    HW240242   0.660   4.130   4.553 -0.5661  0.1548  0.1588
 9537SOL     OW40243   1.999   0.194   8.853  0.2918 -0.0005 -0.1754
 9537SOL    HW140244   1.909   0.174   8.826 -0.0704 -0.4703  1.3717
 9537SOL    HW240245   2.030   0.115   8.897  1.0702  0.3784 -0.0546
 9538SOL     OW40246   0.969   4.679   0.487 -0.1198 -0.9267 -0.3069
 9538SOL    HW140247   0.880   4.711   0.503  0.3255  0.7381 -1.1520
 9538SOL    HW240248   0.949   4.600   0.435  1.9287 -0.9530 -1.0280
 9539SOL     OW40249   4.653   1.437  13.135 -0.1674  0.3973 -0.8813
 9539SOL    HW140250   4.560   1.445  13.115 -0.3070 -2.3769 -1.2635
 9539SOL    HW240251   4.649   1.345  13.161  2.9677  0.4505 -0.1449
 9540SOL     OW40252   2.237   3.036   8.056 -0.4387 -0.3016  0.4185
 9540SOL    HW140253   2.243   2.957   8.110  2.5369 -0.6696 -0.4656
 9540SOL    HW240254   2.156   3.020   8.007 -0.8405  1.8390  0.3793
 9541SOL     OW40255   0.827   2.298   7.882 -0.7862 -0.1696 -0.1210
 9541SOL    HW140256   0.739   2.298   7.921 -0.6460 -1.5738  0.1921
 9541SOL    HW240257   0.833   2.391   7.861  0.3491 -0.0028  0.9447
 9542SOL     OW40258   0.861   3.263   3.543 -0.3338 -0.1909  0.1236
 9542SOL    HW140259   0.869   3.314   3.624  0.8006 -0.8101  0.4052
 9542SOL    HW240260   0.947   3.222   3.543  0.2955  1.1105 -1.0332
 9543SOL     OW40261   4.207   3.226   5.181 -0.0242 -0.5955 -0.2491
 9543SOL    HW140262   4.163   3.309   5.198  0.6051 -0.1004 -1.0299
 9543SOL    HW240263   4.293   3.254   5.149 -0.7508  0.1888 -1.5402
 9544SOL     OW40264   2.728   0.823   1.633 -0.8947 -0.1005 -0.2759
 9544SOL    HW140265   2.647   0.870   1.613 -0.0847  1.1336 -0.6545
 9544SOL    HW240266   2.733   0.822   1.729 -3.0066 -2.0055 -0.1887
 9545SOL     OW40267   1.451   4.654   8.847  0.2366  0.1292 -0.3465
 9545SOL    HW140268   1.373   4.642   8.902 -0.4764  1.5130 -1.0444
 9545SOL    HW240269   1.505   4.726   8.883 -0.4240  0.3634  0.1750
 9546SOL     OW40270   4.418   3.809   1.843  0.3488 -0.2883 -0.8038
 9546SOL    HW140271   4.391   3.754   1.916 -1.7986  1.4340 -0.2841
 9546SOL    HW240272   4.351   3.878   1.843  1.6682  0.9901 -1.6568
 9547SOL     OW40273   2.327   1.235   9.999 -0.3910  0.2874  0.5240
 9547SOL    HW140274   2.238   1.245   9.965  0.0416  0.4568 -0.5748
 9547SOL    HW240275   2.340   1.140   9.990  1.4314  0.4896  0.8940
 9548SOL     OW40276   3.255   0.791  16.844  0.4079 -0.1039  0.3853
 9548SOL    HW140277   3.350   0.798  16.846  0.5335 -1.5984 -0.3813
 9548SOL    HW240278   3.244   0.696  16.845  0.4787 -0.1051  0.7977
 9549SOL     OW40279   2.638   0.840   2.085 -0.1057  0.4192  0.2466
 9549SOL    HW140280   2.673   0.863   2.170 -0.4494 -0.0567  0.5168
 9549SOL    HW240281   2.591   0.762   2.113  1.1258 -1.2716 -2.3828
 9550SOL     OW40282   2.133   2.028   7.179 -0.3007 -0.4621 -0.0604
 9550SOL    HW140283   2.113   1.945   7.134 -1.1421 -0.0977 -0.3548
 9550SOL    HW240284   2.158   2.080   7.102  0.1453  0.5397  0.7731
 9551SOL     OW40285   0.524   4.608   1.346  0.7124  0.0147  0.3482
 9551SOL    HW140286   0.465   4.570   1.281 -0.7686  1.3765  0.9109
 9551SOL    HW240287   0.511   4.549   1.420  1.8347 -0.4912  0.1497
 9552SOL     OW40288   3.101   2.347   3.998  0.1673  0.0735 -0.0492
 9552SOL    HW140289   3.191   2.339   3.966  0.5165  0.9142  0.7184
 9552SOL    HW240290   3.059   2.408   3.937  1.2093  0.9771  0.1295
 9553SOL     OW40291   2.983   0.443   3.023 -0.5874  0.1532 -0.3803
 9553SOL    HW140292   2.941   0.438   2.937  1.0264 -1.8548 -1.0468
 9553SOL    HW240293   2.908   0.435   3.082  1.7049 -0.6043  2.4560
 9554SOL     OW40294   1.177   2.423  10.205 -0.1871  0.0766  0.0050
 9554SOL    HW140295   1.183   2.436  10.300 -1.0741  0.2296  0.0458
 9554SOL    HW240296   1.239   2.350  10.199  0.6704  0.7483  0.6735
 9555SOL     OW40297   0.729   2.919   7.145 -0.6644  0.2294 -0.4210
 9555SOL    HW140298   0.652   2.915   7.202 -0.6794  0.9691 -0.3904
 9555SOL    HW240299   0.793   2.965   7.199  1.4194  0.0811 -2.7795
 9556SOL     OW40300   3.881   4.318  11.021 -0.6477 -0.1786 -0.6714
 9556SOL    HW140301   3.920   4.277  11.099  1.2974  2.9661  0.0521
 9556SOL    HW240302   3.848   4.249  10.965 -0.5286 -1.1524  0.4588
 9557SOL     OW40303   1.384   1.014   7.605 -0.4089 -0.2293 -0.0091
 9557SOL    HW140304   1.422   1.101   7.602 -0.5597 -0.1645 -0.0621
 9557SOL    HW240305   1.333   1.004   7.524 -0.0863 -3.6967  0.2087
 9558SOL     OW40306   4.432   0.030   9.341  0.4271 -0.3524  0.5626
 9558SOL    HW140307   4.379   0.078   9.405  0.6493 -0.0648  0.5317
 9558SOL    HW240308   4.356   0.003   9.290 -0.4093 -0.5152  1.8943
 9559SOL     OW40309   4.555   1.558  11.979 -0.1989  0.3804 -0.4036
 9559SOL    HW140310   4.647   1.538  12.000 -0.2753  0.2621 -0.1775
 9559SOL    HW240311   4.517   1.470  11.979  1.3961 -0.3143 -1.0592
 9560SOL     OW40312   2.161   2.690  12.276 -0.0054  0.5359  0.2853
 9560SOL    HW140313   2.098   2.624  12.306 -0.6266  1.2120  0.4819
 9560SOL    HW240314   2.141   2.762  12.336  0.4000  0.0829  0.9648
 9561SOL     OW40315   2.658   0.152  17.009 -0.1444 -0.5063 -0.0286
 9561SOL    HW140316   2.602   0.170  16.933 -1.2412  1.7935  1.3024
 9561SOL    HW240317   2.628   0.226  17.062  1.0747 -1.8977  2.5903
 9562SOL     OW40318   3.973   2.605  13.111  0.0515 -0.1855  0.1635
 9562SOL    HW140319   4.055   2.628  13.153 -0.6498 -0.7053  1.8285
 9562SOL    HW240320   3.969   2.666  13.038  0.5674 -0.3976 -0.0380
 9563SOL     OW40321   1.373   4.454   5.382 -0.2605  0.3552  0.3949
 9563SOL    HW140322   1.414   4.407   5.454 -0.9550  0.3910  0.8201
 9563SOL    HW240323   1.309   4.508   5.428 -0.2998  1.0914 -0.5335
 9564SOL     OW40324   1.162   2.039  16.177 -0.2231 -0.0633  0.5507
 9564SOL    HW140325   1.207   1.975  16.232  0.1771 -0.1475  0.1203
 9564SOL    HW240326   1.165   1.983  16.099 -1.7051  1.0484 -0.3127
 9565SOL     OW40327   4.673   1.864   7.704 -0.5746  0.1526 -0.8505
 9565SOL    HW140328   0.007   1.835   7.764  1.0993  1.1820 -2.2824
 9565SOL    HW240329   4.626   1.782   7.689  0.7709 -0.9061  0.6844
 9566SOL     OW40330   0.957   3.904   8.876  0.5278 -0.2843  0.2348
 9566SOL    HW140331   0.947   3.943   8.789 -0.7404 -0.0528  0.4967
 9566SOL    HW240332   0.941   3.810   8.864  0.1293 -0.0189 -1.2874
 9567SOL     OW40333   3.192   3.174   8.333 -0.2576 -0.6335 -0.3721
 9567SOL    HW140334   3.108   3.219   8.341  0.7903  1.4360 -1.0046
 9567SOL    HW240335   3.192   3.122   8.414 -1.6704  1.7809  1.1705
 9568SOL     OW40336   2.031   3.721   4.912  0.0945 -0.4653  0.0182
 9568SOL    HW140337   2.120   3.752   4.899  0.1966 -1.6556 -2.2084
 9568SOL    HW240338   2.012   3.702   4.820 -2.3613 -0.4586  0.5000
 9569SOL     OW40339   0.032   1.230   0.347 -0.5292  0.0365 -0.3636
 9569SOL    HW140340   0.096   1.179   0.396 -1.7408 -0.1365  1.0283
 9569SOL    HW240341   0.047   1.306   0.404 -3.5567  1.0822 -0.9551
 9570SOL     OW40342   2.046   0.991   2.071 -0.3968  0.3499  0.2389
 9570SOL    HW140343   2.109   0.934   2.114 -1.3489 -1.1321 -0.3517
 9570SOL    HW240344   2.095   1.074   2.073 -0.2594  0.2864 -0.5531
 9571SOL     OW40345   2.302   3.826   6.171 -1.0221 -0.0206  0.1520
 9571SOL    HW140346   2.255   3.773   6.107 -1.5472 -0.5270  0.9678
 9571SOL    HW240347   2.388   3.784   6.163 -0.8138  0.4399 -0.0619
   4.73532   4.73532  17.74007
