Membrane in water
40347
    1TMC1    C1    1   3.354   0.676  10.958 -0.0375 -0.2005 -0.6295
    1TMC1    C2    2   3.458   0.744  11.011 -0.4634  0.3259  0.2695
    1TMC1    C3    3   3.497   0.851  10.942 -0.1290 -0.8499 -0.0146
    1TMC1    C4    4   3.281   0.715  10.849  0.3381 -0.0190 -0.5350
    1TMC1    C5    5   3.318   0.834  10.799  0.4513 -0.5429 -0.8545
    1TMC1    C6    6   3.432   0.907  10.838 -0.3609 -0.8583  0.2795
    1TMC1     C    7   3.294   0.571  11.030 -0.3594  0.2456  0.2669
    1TMC1     O    8   3.328   0.565  11.148 -0.0350 -0.1662  0.4133
    1TMC1     H    9   3.500   0.702  11.102  0.5209  1.0769  0.1565
    1TMC1    H1   10   3.179   0.680  10.839 -0.4814  1.2328  3.3603
    1TMC1    H2   11   3.472   1.000  10.800 -1.6938 -0.2462  0.3926
    1TMC1    C7   12   3.210   0.909  10.730 -0.4046  0.2444  0.8753
    1TMC1    C8   13   3.621   0.920  10.977  0.2191 -0.0595 -0.3485
    1TMC1    O1   14   3.130   0.856  10.648  0.4026  0.1627 -0.0520
    1TMC1    O2   15   3.675   1.000  10.907 -0.4508 -0.4351  0.1630
    1TMC1    O3   16   3.183   1.018  10.798 -0.0781 -0.3014  0.2003
    1TMC1    H3   17   3.254   1.055  10.856 -0.1673  0.7873 -0.3902
    1TMC1    O5   18   3.643   0.904  11.109 -0.3231 -0.0666 -0.0877
    1TMC1    H5   19   3.583   0.840  11.153  0.8987 -1.3560 -0.2827
    2MPD2     C   20   3.097   0.110  11.091  0.2832  0.3562  0.6552
    2MPD2    C1   21   3.133   0.202  11.184 -0.2054  0.2299 -0.5944
    2MPD2    C2   22   3.177   0.325  11.139  0.6037  0.0183  0.3318
    2MPD2    C3   23   3.166   0.363  11.004 -0.8087  0.2034 -0.0131
    2MPD2    C4   24   3.113   0.269  10.918  0.5240  0.2158 -0.1793
    2MPD2    C5   25   3.089   0.146  10.962  0.5147 -0.0933  0.2827
    2MPD2     H   26   3.204   0.399  11.214  0.2044  1.8751 -1.3585
    2MPD2    H1   27   3.088   0.292  10.815 -0.0263 -0.0350 -0.1023
    2MPD2    H2   28   3.077   0.006  11.115  1.3367  0.1624  0.7218
    2MPD2    H3   29   3.048   0.073  10.893 -0.7745 -0.8509  1.8447
    2MPD2     N   30   3.218   0.482  10.957  0.1640  0.6069  0.9082
    2MPD2    H5   31   3.213   0.493  10.857  1.3543  1.1218  0.9026
    2MPD2    N1   32   3.138   0.189  11.326 -0.1542  0.3929 -0.2723
    2MPD2    H7   33   3.180   0.263  11.382 -0.7217  0.8922 -0.5085
    3TMC1    C1   34   2.538   2.476  10.319 -0.0882  0.3371  0.0386
    3TMC1    C2   35   2.575   2.468  10.184  0.6085  0.1496  0.6694
    3TMC1    C3   36   2.664   2.560  10.139  0.1913  0.4435 -0.2163
    3TMC1    C4   37   2.597   2.561  10.410  0.4976 -0.4720 -0.2359
    3TMC1    C5   38   2.692   2.649  10.360 -0.0455 -0.0699 -0.0241
    3TMC1    C6   39   2.722   2.651  10.222 -0.1817  0.7630  0.2460
    3TMC1     C   40   2.431   2.388  10.366 -0.0732  0.2529 -0.2830
    3TMC1     O   41   2.400   2.299  10.289 -0.0935  0.0160  0.0862
    3TMC1     H   42   2.518   2.416  10.108 -1.0043  2.2046  0.4738
    3TMC1    H1   43   2.543   2.591  10.499  0.3190 -1.8380  0.1194
    3TMC1    H2   44   2.800   2.714  10.181 -0.7152 -0.0506 -2.0207
    3TMC1    C7   45   2.781   2.718  10.452 -0.0975 -0.5749  0.0730
    3TMC1    C8   46   2.687   2.567   9.999 -0.8717  0.5954  0.0718
    3TMC1    O1   47   2.863   2.799  10.423  0.6750 -0.3467  0.2219
    3TMC1    O2   48   2.726   2.476   9.931 -0.4452 -0.7320  0.0301
    3TMC1    O3   49   2.794   2.626  10.552 -0.0812 -0.6535  0.0113
    3TMC1    H3   50   2.738   2.549  10.529 -1.2277  0.2265 -0.1423
    3TMC1    O5   51   2.710   2.697   9.970  0.2433  0.0064  0.4790
    3TMC1    H5   52   2.642   2.749  10.016  1.3113  1.6379  0.1899
    4MPD2     C   53   2.200   2.131  10.750  0.4721 -0.4669 -0.2781
    4MPD2    C1   54   2.241   2.251  10.796 -0.4019 -0.2590 -0.7458
    4MPD2    C2   55   2.311   2.340  10.715 -0.0923 -0.2716 -0.7032
    4MPD2    C3   56   2.323   2.307  10.585 -0.4281  0.4620 -1.0612
    4MPD2    C4   57   2.283   2.186  10.541 -0.2947 -1.1132  0.4702
    4MPD2    C5   58   2.221   2.095  10.619  0.3154  0.7436  0.1814
    4MPD2     H   59   2.361   2.426  10.757 -1.2918 -0.5973  1.3998
    4MPD2    H1   60   2.316   2.159  10.441 -1.1469 -1.4866  0.2892
    4MPD2    H2   61   2.153   2.056  10.813 -0.9319 -0.9070 -1.8551
    4MPD2    H3   62   2.198   1.997  10.580  1.7374 -0.0315  1.3164
    4MPD2     N   63   2.395   2.401  10.501 -0.1810  0.0526  0.3710
    4MPD2    H5   64   2.439   2.473  10.558 -0.2853 -1.5046  2.4246
    4MPD2    N1   65   2.212   2.297  10.927 -0.0449 -0.4863  0.4855
    4MPD2    H7   66   2.241   2.391  10.950 -2.2599  0.1146  0.8594
    5TCq1    O1   67   3.447   4.273  12.249  0.3126  0.5627  0.3711
    5TCq1    C1   68   3.525   4.172  12.197 -0.6114  0.4582 -0.4429
    5TCq1    O2   69   3.611   4.192  12.110 -0.0967 -0.5899 -0.0585
    5TCq1    C2   70   3.441   4.051  12.189 -0.5352  0.6909  0.3082
    5TCq1    C3   71   3.352   4.021  12.289 -0.5768  0.1340  0.4183
    5TCq1    C4   72   3.243   3.940  12.263  0.1322 -0.7056  0.4970
    5TCq1    C5   73   3.231   3.889  12.138 -0.4554  0.5019  0.4565
    5TCq1    C6   74   3.324   3.908  12.039 -0.0302  0.0757 -0.2660
    5TCq1    C7   75   3.431   3.992  12.060  0.2716  0.2947  0.2980
    5TCq1    C8   76   3.294   3.879  11.902  0.2038 -0.5016  0.1199
    5TCq1    O4   77   3.382   3.866  11.823  0.1266  0.3786  0.3073
    5TCq1    C9   78   3.146   3.922  12.370  0.3982 -0.6571  0.3108
    5TCq1    O5   79   3.158   3.998  12.467  0.0761  0.1367  0.0340
    5TCq1    O6   80   3.035   3.880  12.327 -0.5874 -0.2010  0.6976
    5TCq1    H1   81   3.363   4.231  12.276  0.3538  1.5251  2.0297
    5TCq1    H2   82   3.379   4.054  12.388  1.9125 -0.6749  0.0340
    5TCq1    H3   83   3.144   3.827  12.117  0.6996 -1.3890  1.2450
    5TCq1    H4   84   3.494   4.018  11.976 -0.0109  0.3603  0.1076
    6MPD2     C   85   2.967   3.909  11.750  0.4401 -0.2759  0.6698
    6MPD2    C1   86   3.098   3.863  11.761 -0.5420  0.3548  0.9087
    6MPD2    C2   87   3.160   3.809  11.649  0.2356 -0.1777 -0.2113
    6MPD2    C3   88   3.100   3.804  11.524  0.4250 -0.2378  0.1787
    6MPD2    C4   89   2.974   3.857  11.523 -0.1516 -0.0543 -0.1010
    6MPD2    C5   90   2.915   3.915  11.626 -0.3468  0.6319  0.3193
    6MPD2     H   91   3.256   3.760  11.661  0.8584  1.4540  1.4697
    6MPD2    H1   92   2.921   3.858  11.428 -1.9693  1.9955  0.9441
    6MPD2    H2   93   2.914   3.956  11.832  0.6337  0.3490  0.4344
    6MPD2    H3   94   2.810   3.939  11.613 -0.3602  0.2541 -0.2795
    6MPD2     N   95   3.153   3.738  11.419 -0.3390 -0.2269 -0.6510
    6MPD2    H5   96   3.240   3.692  11.441 -0.3562  1.0717  2.2308
    6MPD2    N1   97   3.158   3.876  11.892 -0.0140 -0.0483 -0.0358
    6MPD2    H7   98   3.107   3.913  11.971 -1.0168 -2.0779  0.2592
    7TCq1    O1   99   0.435   3.433  12.801 -0.3216 -0.3753 -0.5581
    7TCq1    C1  100   0.429   3.402  12.670 -0.1166 -0.3219 -0.2579
    7TCq1    O2  101   0.471   3.463  12.573  0.2027 -0.1507  0.1180
    7TCq1    C2  102   0.407   3.261  12.662  0.0786 -0.3216 -0.5152
    7TCq1    C3  103   0.351   3.209  12.543  0.3066  0.4865 -0.7586
    7TCq1    C4  104   0.349   3.069  12.514  0.0951  0.5299  0.0087
    7TCq1    C5  105   0.419   2.978  12.601 -0.3025  0.2568 -0.3690
    7TCq1    C6  106   0.472   3.049  12.714 -0.4193  0.3271  0.4677
    7TCq1    C7  107   0.457   3.180  12.753  0.1527  0.0759  0.2138
    7TCq1    C8  108   0.539   2.964  12.809  0.6247  0.2280  0.1963
    7TCq1    O4  109   0.493   2.855  12.828  0.3008 -0.2367  0.6064
    7TCq1    C9  110   0.270   3.022  12.400  0.1852 -0.5981 -0.2713
    7TCq1    O5  111   0.222   2.908  12.401 -0.0615 -0.0523 -0.5236
    7TCq1    O6  112   0.241   3.111  12.316  0.1313  0.0958  0.5136
    7TCq1    H1  113   0.383   3.368  12.853  0.2011 -0.2956  0.0657
    7TCq1    H2  114   0.305   3.285  12.480 -0.3736  0.5250 -0.2138
    7TCq1    H3  115   0.422   2.871  12.586  2.1668  0.5745 -2.1486
    7TCq1    H4  116   0.508   3.220  12.840  0.0519 -0.4405  0.5085
    8MPD2     C  117   0.893   2.815  13.144 -0.4178  0.2309  0.2841
    8MPD2    C1  118   0.795   2.743  13.088 -0.0489  0.3310 -1.0519
    8MPD2    C2  119   0.713   2.805  12.997  0.7419  0.1158 -0.4445
    8MPD2    C3  120   0.724   2.943  12.961  0.0235  0.0281  0.1517
    8MPD2    C4  121   0.823   3.016  13.022 -0.5205 -0.5523 -0.5115
    8MPD2    C5  122   0.908   2.950  13.112  0.6901  0.7511  0.6299
    8MPD2     H  123   0.650   2.741  12.937  1.1129  0.3118 -1.0464
    8MPD2    H1  124   0.838   3.121  13.002 -0.3644 -0.4949 -0.0827
    8MPD2    H2  125   0.956   2.778  13.224  0.1841  0.6893  0.0243
    8MPD2    H3  126   0.984   2.999  13.171  0.4673  1.6545  0.1692
    8MPD2     N  127   0.644   3.012  12.869  0.0513  0.0049  0.3889
    8MPD2    H5  128   0.676   3.108  12.859  0.4004  0.0988  2.3892
    8MPD2    N1  129   0.778   2.602  13.129 -0.4384 -0.0663 -0.1932
    8MPD2    H7  130   0.826   2.569  13.212  2.6056  0.5536 -1.7092
    9TMC1    C1  131   4.038   1.565  11.336 -0.1887  0.3495 -0.4569
    9TMC1    C2  132   3.917   1.637  11.335 -0.3482 -1.1902  0.2092
    9TMC1    C3  133   3.937   1.770  11.299 -0.1483  0.2278  0.2615
    9TMC1    C4  134   4.157   1.619  11.307 -0.8635 -0.0164 -0.2778
    9TMC1    C5  135   4.166   1.752  11.278 -0.3344 -0.0919 -0.2412
    9TMC1    C6  136   4.055   1.836  11.277 -0.7169 -0.0903 -0.3580
    9TMC1     C  137   4.035   1.428  11.368  0.2744 -0.0022  0.6940
    9TMC1     O  138   4.127   1.356  11.330 -0.2548  0.4464 -0.5318
    9TMC1     H  139   3.818   1.597  11.350 -0.9575  0.2737  0.0076
    9TMC1    H1  140   4.251   1.566  11.317 -1.2689 -0.8360 -0.7250
    9TMC1    H2  141   4.056   1.942  11.255 -0.4928 -0.5797 -2.6901
    9TMC1    C7  142   4.302   1.799  11.247  0.5339  0.1841 -0.3716
    9TMC1    C8  143   3.834   1.852  11.349 -0.2365 -0.1962 -0.1716
    9TMC1    O1  144   4.396   1.752  11.310 -0.2357  0.3776 -0.2408
    9TMC1    O2  145   3.856   1.955  11.409  0.4983  0.0763  0.7930
    9TMC1    O3  146   4.291   1.919  11.193  0.1758  0.5478  1.0801
    9TMC1    H3  147   4.202   1.917  11.150  0.9860  3.4153 -0.7318
    9TMC1    O5  148   3.725   1.821  11.280 -0.1313 -0.1885 -0.3336
    9TMC1    H5  149   3.734   1.734  11.236 -1.3188 -0.5103  0.0768
   10MPD2     C  150   3.902   1.150  11.385 -0.5765 -0.3809 -0.0907
   10MPD2    C1  151   3.862   1.269  11.443 -0.3732 -0.3574 -0.0191
   10MPD2    C2  152   3.751   1.265  11.527  0.6144  0.2478 -0.0902
   10MPD2    C3  153   3.685   1.145  11.551 -0.0909  0.5923 -1.1996
   10MPD2    C4  154   3.722   1.030  11.484 -0.2701 -0.1840 -0.6665
   10MPD2    C5  155   3.832   1.032  11.403 -0.2374  0.5242 -0.2592
   10MPD2     H  156   3.713   1.357  11.571 -1.7482 -0.7178 -0.1001
   10MPD2    H1  157   3.664   0.939  11.491 -2.7106  1.2593 -1.7606
   10MPD2    H2  158   3.994   1.146  11.328 -0.1611  3.3741  0.2995
   10MPD2    H3  159   3.869   0.935  11.372 -0.1385  0.2149  0.8149
   10MPD2     N  160   3.570   1.133  11.637  0.3701 -0.3832  0.3007
   10MPD2    H5  161   3.519   1.045  11.634 -0.1284 -0.1342  1.6596
   10MPD2    N1  162   3.920   1.393  11.427  0.3366  0.3215 -0.6496
   10MPD2    H7  163   3.871   1.473  11.465  0.6629 -0.3311  1.1618
   11TCq1    O1  164   3.752   2.165  13.914  0.6201 -0.5194 -0.1447
   11TCq1    C1  165   3.765   2.085  13.801 -0.2379  0.1764 -0.6112
   11TCq1    O2  166   3.818   2.119  13.697  0.0820  0.1910 -0.0112
   11TCq1    C2  167   3.764   1.948  13.852 -0.2260  0.9615 -0.4286
   11TCq1    C3  168   3.667   1.898  13.933  0.5728  0.4421  0.1205
   11TCq1    C4  169   3.682   1.768  13.970 -0.0440  0.1643 -0.4553
   11TCq1    C5  170   3.791   1.691  13.928  0.5655  0.3906  0.0379
   11TCq1    C6  171   3.872   1.739  13.836  0.6278  0.4557  0.1879
   11TCq1    C7  172   3.854   1.863  13.793  0.2448 -0.0521 -0.7755
   11TCq1    C8  173   3.970   1.654  13.771 -0.3067  0.5171 -0.2351
   11TCq1    O4  174   4.050   1.710  13.699  0.1585 -0.0672  0.4355
   11TCq1    C9  175   3.594   1.716  14.066 -0.6888 -0.0599  0.1941
   11TCq1    O5  176   3.509   1.794  14.113  0.3939 -0.3450 -0.2239
   11TCq1    O6  177   3.625   1.609  14.126  0.0295 -0.3157 -0.4235
   11TCq1    H1  178   3.749   2.122  14.002 -0.1392  2.3691  1.2460
   11TCq1    H2  179   3.581   1.961  13.952  1.5222  2.2833 -1.7325
   11TCq1    H3  180   3.796   1.589  13.962  3.0890  0.4676 -0.1418
   11TCq1    H4  181   3.930   1.898  13.723  1.0892 -0.1416  0.0942
   12MPD2     C  182   4.119   1.408  13.662  0.1392 -1.1027  0.8411
   12MPD2    C1  183   4.003   1.403  13.739  0.3651  0.3223  0.5494
   12MPD2    C2  184   3.950   1.273  13.770 -0.4899 -0.4700 -0.0746
   12MPD2    C3  185   4.012   1.158  13.729 -0.6453  0.7759  0.0150
   12MPD2    C4  186   4.126   1.167  13.651  0.6782 -0.1033  0.2643
   12MPD2    C5  187   4.178   1.292  13.616  0.4384 -0.6309 -0.6405
   12MPD2     H  188   3.869   1.271  13.843 -1.3773 -1.1044 -1.0735
   12MPD2    H1  189   4.186   1.080  13.626  0.5580  0.6437 -2.6335
   12MPD2    H2  190   4.170   1.502  13.645  0.8953 -1.5946  0.3829
   12MPD2    H3  191   4.264   1.296  13.550 -0.0401 -1.4114 -1.2992
   12MPD2     N  192   3.968   1.026  13.759 -0.2537 -0.0301  0.6449
   12MPD2    H5  193   4.031   0.947  13.751 -0.8264 -0.4153 -0.1277
   12MPD2    N1  194   3.935   1.519  13.789  0.4903  0.1999  0.0904
   12MPD2    H7  195   3.862   1.505  13.858  1.8512 -1.5252  1.1688
   13TCq1    O1  196   3.090   2.423  10.275 -0.0156 -0.6759 -0.0705
   13TCq1    C1  197   3.055   2.454  10.148 -0.2116  0.1222 -0.4429
   13TCq1    O2  198   3.036   2.566  10.104  0.0221  0.5304  0.2062
   13TCq1    C2  199   2.986   2.339  10.096  0.2744  0.0733 -0.6513
   13TCq1    C3  200   2.974   2.319   9.961  0.1198 -0.4504 -0.3134
   13TCq1    C4  201   2.893   2.213   9.921 -0.2825 -1.1935 -0.2140
   13TCq1    C5  202   2.817   2.144  10.013 -0.0543 -0.0604 -0.5769
   13TCq1    C6  203   2.818   2.182  10.138  0.2643 -0.6533 -0.8644
   13TCq1    C7  204   2.901   2.281  10.184  0.0504  0.4022 -0.1471
   13TCq1    C8  205   2.735   2.127  10.242 -0.5507  0.2516 -0.7699
   13TCq1    O4  206   2.778   2.147  10.354 -0.3755 -0.1548 -0.4557
   13TCq1    C9  207   2.896   2.167   9.780  0.3423 -0.1986  0.5426
   13TCq1    O5  208   2.950   2.255   9.712  0.4550 -0.0285 -0.0434
   13TCq1    O6  209   2.835   2.064   9.740  0.3548  0.3082  0.2044
   13TCq1    H1  210   3.087   2.325  10.288  1.8162 -0.3303  2.9130
   13TCq1    H2  211   3.037   2.383   9.900 -0.0783  0.3835  0.3404
   13TCq1    H3  212   2.755   2.062   9.977  0.3661 -1.2416  1.3826
   13TCq1    H4  213   2.906   2.318  10.286  1.6774  0.3487 -0.2042
   14MPD2     C  214   2.442   1.912  10.210 -0.5292 -0.0933 -0.0613
   14MPD2    C1  215   2.547   1.976  10.277 -0.5533 -0.5589 -0.2144
   14MPD2    C2  216   2.562   1.960  10.411 -0.1548 -0.4112 -0.8499
   14MPD2    C3  217   2.476   1.876  10.481 -0.4782 -0.3066  0.0298
   14MPD2    C4  218   2.383   1.808  10.411  0.0419  0.2878  0.5096
   14MPD2    C5  219   2.364   1.822  10.280 -0.5945 -0.1227 -0.0398
   14MPD2     H  220   2.640   2.015  10.463 -1.0759 -0.4073  0.5182
   14MPD2    H1  221   2.312   1.739  10.455  0.8497 -1.4140 -0.8123
   14MPD2    H2  222   2.421   1.917  10.104  2.9975  1.0601 -0.6963
   14MPD2    H3  223   2.283   1.765  10.237 -0.1585 -0.7879  0.0181
   14MPD2     N  224   2.483   1.856  10.618 -0.7535 -0.6116 -0.7319
   14MPD2    H5  225   2.543   1.918  10.672 -1.0557 -0.5349 -0.4793
   14MPD2    N1  226   2.631   2.056  10.198 -0.3248 -0.2996 -0.5278
   14MPD2    H7  227   2.605   2.066  10.100  0.3326  1.5872 -0.5047
   15TCq1    O1  228   0.014   4.626   2.417 -0.6580 -0.4029  0.3100
   15TCq1    C1  229   0.066   4.679   2.308 -0.0294 -0.2961 -0.6254
   15TCq1    O2  230   0.185   4.680   2.279 -0.2575 -0.0510 -0.0151
   15TCq1    C2  231   4.693   0.001   2.228 -0.1152 -0.1988  0.3391
   15TCq1    C3  232   4.566   0.041   2.265  0.8550 -0.2740  0.2358
   15TCq1    C4  233   4.488   0.094   2.169  0.9860  0.4149  0.6619
   15TCq1    C5  234   4.533   0.126   2.041  0.1735 -0.0784 -0.6584
   15TCq1    C6  235   4.665   0.077   2.004  0.0932 -0.1708 -0.0455
   15TCq1    C7  236   0.011   0.019   2.103  0.8022  0.0905  0.1084
   15TCq1    C8  237   4.715   0.090   1.865  0.1990 -0.0368  0.0362
   15TCq1    O4  238   0.097   0.056   1.843 -0.1119 -0.5643 -0.0662
   15TCq1    C9  239   4.353   0.132   2.209 -0.6860 -0.1806  0.4664
   15TCq1    O5  240   4.283   0.190   2.117  0.6526 -0.1345  0.2745
   15TCq1    O6  241   4.324   0.122   2.334  0.2037  0.3031  0.2149
   15TCq1    H1  242   4.652   4.605   2.416 -1.1925  1.9976  2.1384
   15TCq1    H2  243   4.519   0.021   2.360  0.0033 -0.5717 -0.2429
   15TCq1    H3  244   4.470   0.183   1.973 -0.5632 -1.3489 -1.0285
   15TCq1    H4  245   0.113   4.722   2.080  1.4389  2.1914  0.1243
   16MPD2     C  246   4.497   0.183   1.581  0.0907  0.1524  0.4395
   16MPD2    C1  247   4.605   0.119   1.644 -0.3434 -0.5310 -0.1432
   16MPD2    C2  248   4.685   0.041   1.563 -0.2807  0.0636 -0.1845
   16MPD2    C3  249   4.670   0.044   1.425  0.3275  0.6446 -0.2506
   16MPD2    C4  250   4.565   0.104   1.360 -0.3833  0.2447 -0.1125
   16MPD2    C5  251   4.477   0.169   1.439 -0.9259 -0.7299 -0.0264
   16MPD2     H  252   0.020   4.702   1.604 -0.3302 -0.8839 -1.7921
   16MPD2    H1  253   4.550   0.103   1.252 -1.0181 -0.2915 -0.0190
   16MPD2    H2  254   4.423   0.237   1.639  0.1657  0.4712  0.2387
   16MPD2    H3  255   4.403   0.230   1.388 -0.1948  0.7806  0.7362
   16MPD2     N  256   0.033   4.694   1.362 -0.0428  0.7549 -0.4691
   16MPD2    H5  257   0.113   4.680   1.422  1.5853 -0.6983 -2.9685
   16MPD2    N1  258   4.609   0.128   1.784  0.0908  0.6065 -0.3863
   16MPD2    H7  259   4.528   0.175   1.823  0.2645 -0.0502  0.7696
   17TMC1    C1  260   2.903   0.573  10.550  0.1647 -0.3763  0.1817
   17TMC1    C2  261   2.942   0.562  10.682 -0.1620 -0.6286  0.4643
   17TMC1    C3  262   2.861   0.526  10.778  0.6077  0.3412  0.4115
   17TMC1    C4  263   2.773   0.558  10.527 -0.3829  0.4443 -0.8020
   17TMC1    C5  264   2.687   0.514  10.626 -0.4307  0.5472 -0.1840
   17TMC1    C6  265   2.731   0.499  10.752  0.0424  0.4312 -0.6833
   17TMC1     C  266   2.986   0.637  10.447  0.8592 -0.0710  0.9080
   17TMC1     O  267   2.928   0.670  10.344 -0.0137  0.1925  0.1864
   17TMC1     H  268   3.042   0.600  10.698  0.1062 -1.1616  0.0595
   17TMC1    H1  269   2.737   0.573  10.426  0.1665  2.4840 -0.6896
   17TMC1    H2  270   2.662   0.473  10.832 -0.9422  3.1348 -0.6601
   17TMC1    C7  271   2.569   0.440  10.591  0.6520  0.7661 -0.2262
   17TMC1    C8  272   2.895   0.577  10.909  0.1252 -0.0888 -0.1433
   17TMC1    O1  273   2.552   0.327  10.645 -0.6288  0.4968  0.3545
   17TMC1    O2  274   2.971   0.673  10.916 -0.3625  0.3539 -0.0385
   17TMC1    O3  275   2.515   0.482  10.472  0.7569 -0.2096 -0.3357
   17TMC1    H3  276   2.551   0.567  10.438 -0.7459 -0.3902 -2.3744
   17TMC1    O5  277   2.807   0.541  11.006  0.0399  0.5232  0.1675
   17TMC1    H5  278   2.751   0.462  10.994  0.5220  0.3627 -1.0050
   18MPD2     C  279   3.206   0.732  10.261 -0.7544 -0.0810  0.2655
   18MPD2    C1  280   3.230   0.671  10.381 -0.3916 -0.2903 -0.3753
   18MPD2    C2  281   3.353   0.679  10.436  0.5311 -0.1129 -0.2033
   18MPD2    C3  282   3.453   0.750  10.377  0.1641 -0.2774  0.1667
   18MPD2    C4  283   3.429   0.819  10.257 -0.2556  0.3091  0.3742
   18MPD2    C5  284   3.305   0.798  10.199 -0.1516 -0.4597  0.4772
   18MPD2     H  285   3.368   0.628  10.531 -0.2238 -2.0861 -1.1305
   18MPD2    H1  286   3.500   0.871  10.194  0.4448 -0.9912  0.0715
   18MPD2    H2  287   3.110   0.724  10.212 -0.9055 -5.0434  1.4076
   18MPD2    H3  288   3.292   0.853  10.107 -0.9767 -2.1892 -0.4328
   18MPD2     N  289   3.577   0.776  10.438 -0.2213  0.0938  0.7523
   18MPD2    H5  290   3.629   0.848  10.390  1.4909 -2.5515 -1.4059
   18MPD2    N1  291   3.122   0.619  10.464 -0.1830  0.2269 -0.5028
   18MPD2    H7  292   3.154   0.563  10.542  0.5824  0.6295 -0.5220
   19TMC2    C1  293   0.192   1.018  13.767 -0.2050 -0.1772 -0.0675
   19TMC2    C2  294   0.112   1.088  13.680  0.2752 -0.8148  0.3170
   19TMC2    C3  295   4.717   1.096  13.719  0.1399  0.4610  0.1563
   19TMC2    C4  296   0.149   0.980  13.893  0.2332  0.0972 -0.8046
   19TMC2    C5  297   0.021   1.013  13.938  0.6898  0.5392  0.0926
   19TMC2    C6  298   4.667   1.065  13.841 -0.0753 -0.6712  0.4223
   19TMC2     C  299   0.305   0.938  13.714  1.0517 -0.1586  0.0592
   19TMC2     O  300   0.325   0.936  13.592 -0.1242 -0.7943  0.0884
   19TMC2     H  301   0.141   1.101  13.577  0.2414  0.6271  0.4932
   19TMC2    H1  302   0.205   0.918  13.961 -0.7114 -0.2412 -0.3396
   19TMC2    H2  303   4.559   1.068  13.852 -0.0816  0.2582  0.1168
   19TMC2    C7  304   4.703   0.925  14.045  0.5585 -0.4489  0.5017
   19TMC2    C8  305   4.623   1.173  13.639  0.1010  0.3091 -0.7583
   19TMC2    O1  306   0.029   0.823  14.071  0.0864 -0.0265  0.4135
   19TMC2    O2  307   4.503   1.142  13.625 -0.0426 -0.3717 -0.4603
   19TMC2    O5  308   4.682   1.296  13.615 -0.0534 -0.0084  1.0701
   19TMC2    H5  309   0.031   1.306  13.666 -1.0455  1.0502  2.4762
   20MPD2     C  310   0.595   0.839  13.689  0.2460 -0.4362  0.3109
   20MPD2    C1  311   0.530   0.875  13.806  0.2133  0.4828  0.2609
   20MPD2    C2  312   0.601   0.864  13.920  0.4614 -0.6685  0.4920
   20MPD2    C3  313   0.733   0.820  13.921  0.0969 -0.2796  0.3770
   20MPD2    C4  314   0.803   0.800  13.800  0.7912  0.3014 -0.0311
   20MPD2    C5  315   0.726   0.804  13.687 -0.3799  0.1929  0.6609
   20MPD2     H  316   0.556   0.893  14.014 -1.8146  0.1350 -0.8304
   20MPD2    H1  317   0.908   0.773  13.797  0.8471  0.5408 -0.2731
   20MPD2    H2  318   0.537   0.835  13.597  1.3270  3.0599 -0.5177
   20MPD2    H3  319   0.770   0.781  13.590 -0.9008  2.2812 -0.0842
   20MPD2     N  320   0.798   0.787  14.043  0.1234 -0.4729 -0.4098
   20MPD2    H5  321   0.896   0.759  14.035  0.3601  0.0924  0.4521
   20MPD2    N1  322   0.400   0.923  13.815  0.4966 -0.9743  0.7390
   20MPD2    H7  323   0.371   0.938  13.911  0.2184  2.3799  0.1363
   21TMC2    C1  324   2.127   1.503  14.755  1.0746 -0.2788  0.3023
   21TMC2    C2  325   2.137   1.418  14.858  0.4957  0.0529  0.4866
   21TMC2    C3  326   2.093   1.467  14.976  0.4520 -0.2145  0.3602
   21TMC2    C4  327   2.080   1.632  14.771 -0.9063  0.8471  0.2933
   21TMC2    C5  328   2.044   1.681  14.895  0.0064 -0.0936  1.0176
   21TMC2    C6  329   2.040   1.593  15.000 -0.7123 -0.2770  0.2147
   21TMC2     C  330   2.244   1.489  14.669  0.3479 -0.1457  0.2123
   21TMC2     O  331   2.304   1.384  14.670  0.3724 -0.1284 -0.8768
   21TMC2     H  332   2.170   1.315  14.855 -0.0778 -0.1023 -0.4425
   21TMC2    H1  333   2.073   1.699  14.686  3.6859 -0.2708 -0.9417
   21TMC2    H2  334   2.032   1.625  15.103  1.1030  0.6809  0.0592
   21TMC2    C7  335   1.978   1.808  14.915 -0.1735  0.3821 -0.6612
   21TMC2    C8  336   2.129   1.397  15.100  0.1394  0.0988  0.1158
   21TMC2    O1  337   1.939   1.825  15.028 -0.3745 -0.0354 -0.4329
   21TMC2    O2  338   2.063   1.408  15.201 -0.1244 -0.3883 -0.6193
   21TMC2    O5  339   2.264   1.377  15.091  0.2297 -0.7844 -0.9686
   21TMC2    H5  340   2.303   1.437  15.024 -2.0238  0.5016 -1.1466
   22MPD2     C  341   2.702   1.725  14.613 -0.0393 -1.3026  0.2977
   22MPD2    C1  342   2.673   1.593  14.661 -0.0808 -0.3172  0.1669
   22MPD2    C2  343   2.543   1.552  14.663  0.3377  0.0289  0.2912
   22MPD2    C3  344   2.442   1.634  14.605  0.3409  0.5930 -0.7560
   22MPD2    C4  345   2.476   1.757  14.556  0.2726  0.3951 -0.2892
   22MPD2    C5  346   2.601   1.799  14.555 -0.0203 -0.4523  0.1550
   22MPD2     H  347   2.517   1.460  14.715  0.0111 -1.1721 -2.0308
   22MPD2    H1  348   2.406   1.818  14.501  0.5778 -0.1230 -1.2642
   22MPD2    H2  349   2.799   1.774  14.609 -0.4888 -0.5751 -1.8134
   22MPD2    H3  350   2.615   1.900  14.519 -0.9652 -0.5155 -0.4099
   22MPD2     N  351   2.298   1.608  14.615 -0.0440  0.4481 -0.0693
   22MPD2    H5  352   2.238   1.684  14.584 -1.1649 -0.9568 -1.3166
   22MPD2    N1  353   2.773   1.512  14.729  0.3530 -0.2167  0.2069
   22MPD2    H7  354   2.747   1.419  14.761 -1.4286  1.2380  2.9280
   23TMC2    C1  355   3.489   2.725  14.615  0.7896  0.2410 -0.3157
   23TMC2    C2  356   3.468   2.855  14.590 -0.3282  0.2151 -0.3070
   23TMC2    C3  357   3.350   2.889  14.541  0.1485  0.9489 -0.0646
   23TMC2    C4  358   3.396   2.627  14.583 -0.1734 -0.3764 -0.1614
   23TMC2    C5  359   3.286   2.668  14.519  0.5413  0.1158 -0.0058
   23TMC2    C6  360   3.256   2.804  14.502  0.2692 -0.4570  0.0697
   23TMC2     C  361   3.597   2.685  14.698 -0.6826  0.0636  0.0112
   23TMC2     O  362   3.587   2.582  14.766 -0.5540  0.0033  0.6086
   23TMC2     H  363   3.530   2.935  14.627  0.0950 -1.5430  2.8650
   23TMC2    H1  364   3.417   2.520  14.587 -0.6802 -0.4205  1.4533
   23TMC2    H2  365   3.172   2.838  14.442  0.6516 -0.7286 -0.6250
   23TMC2    C7  366   3.167   2.577  14.510  0.2717  0.0547 -0.9430
   23TMC2    C8  367   3.337   3.032  14.503 -0.0282 -0.0063 -0.4082
   23TMC2    O1  368   3.168   2.467  14.568 -0.4312 -0.5438  0.0256
   23TMC2    O2  369   3.431   3.104  14.484 -0.5069 -0.0416 -0.1328
   23TMC2    O5  370   3.207   3.073  14.529  0.8202  0.5127  0.5600
   23TMC2    H5  371   3.143   3.001  14.547  1.8538 -0.3446  0.7577
   24MPD2     C  372   4.097   2.729  14.834  0.4368 -0.1555  0.3851
   24MPD2    C1  373   3.998   2.647  14.887  0.0038  0.2223 -0.2688
   24MPD2    C2  374   3.861   2.666  14.844  0.0938 -0.3625  0.3850
   24MPD2    C3  375   3.836   2.748  14.737  0.0776  0.3124  0.2327
   24MPD2    C4  376   3.937   2.827  14.688  0.7133 -0.3566  0.0044
   24MPD2    C5  377   4.063   2.813  14.729 -0.1537 -0.7706  0.1505
   24MPD2     H  378   3.778   2.627  14.902 -0.0386 -2.0999 -0.9680
   24MPD2    H1  379   3.926   2.903  14.612 -0.2877  0.1523  0.6521
   24MPD2    H2  380   4.199   2.731  14.871  0.7738  1.9195 -0.6233
   24MPD2    H3  381   4.135   2.880  14.684  0.7868 -0.6909  1.7598
   24MPD2     N  382   3.709   2.762  14.680 -0.3244 -0.3917 -0.0466
   24MPD2    H5  383   3.717   2.823  14.599  0.3035 -1.1413 -0.5411
   24MPD2    N1  384   4.022   2.563  14.998  0.3275 -0.4438 -0.4529
   24MPD2    H7  385   3.937   2.529  15.041  0.6474 -0.6380  0.0278
   25TMC2    C1  386   2.713   1.169  11.775  0.3878 -0.4132  0.0197
   25TMC2    C2  387   2.759   1.289  11.805  0.4105 -0.4450  0.5859
   25TMC2    C3  388   2.771   1.311  11.942  0.2756 -0.1768  0.1101
   25TMC2    C4  389   2.660   1.082  11.867 -0.1476  0.0122 -0.1528
   25TMC2    C5  390   2.673   1.112  12.000  0.5340  0.3544  0.2276
   25TMC2    C6  391   2.734   1.224  12.038 -0.0461 -0.2678 -0.7633
   25TMC2     C  392   2.708   1.137  11.634  0.2441  0.3859  0.3773
   25TMC2     O  393   2.736   1.226  11.556 -0.0655  0.2574  0.4464
   25TMC2     H  394   2.805   1.357  11.735  1.0968 -1.1627  0.3456
   25TMC2    H1  395   2.594   1.000  11.841 -0.3151  0.0453  0.1622
   25TMC2    H2  396   2.762   1.228  12.143 -1.6054 -3.1710 -0.2191
   25TMC2    C7  397   2.621   1.018  12.090 -0.6928 -0.8089 -0.1741
   25TMC2    C8  398   2.835   1.430  11.980 -0.6379 -0.2819  0.2826
   25TMC2    O1  399   2.610   0.902  12.053  0.0860  0.3408  0.8754
   25TMC2    O2  400   2.892   1.498  11.894  0.2979 -0.5595  0.2773
   25TMC2    O5  401   2.760   1.480  12.081 -0.1729 -0.7312 -0.3934
   25TMC2    H5  402   2.686   1.425  12.116 -1.3877  0.1594 -1.5818
   26MPD2     C  403   2.679   0.819  11.239 -0.0934 -0.0226  0.3989
   26MPD2    C1  404   2.689   0.741  11.352  0.0514  0.2107 -0.0620
   26MPD2    C2  405   2.701   0.802  11.479  0.3464  0.5815  0.1580
   26MPD2    C3  406   2.698   0.941  11.493  0.7012  0.1515  0.0743
   26MPD2    C4  407   2.666   1.014  11.378  0.1844 -0.8986  0.3382
   26MPD2    C5  408   2.659   0.952  11.251 -0.2991  0.2389 -0.3663
   26MPD2     H  409   2.727   0.737  11.562 -0.8933  0.2133  0.2602
   26MPD2    H1  410   2.628   1.115  11.389 -0.4260 -0.8676 -1.9760
   26MPD2    H2  411   2.683   0.774  11.140  1.0735 -0.9467  0.8804
   26MPD2    H3  412   2.649   1.023  11.170 -1.6771  0.4332 -0.0318
   26MPD2     N  413   2.712   1.000  11.617 -0.0610  0.1341 -0.4683
   26MPD2    H5  414   2.728   0.949  11.703 -2.2409  0.9378  0.4342
   26MPD2    N1  415   2.686   0.603  11.328 -0.5992  0.0393 -0.3167
   26MPD2    H7  416   2.683   0.570  11.232  3.7620 -0.0503 -0.4361
   27TMC2    C1  417   1.565   2.274  12.089 -0.4380  0.4281  0.5328
   27TMC2    C2  418   1.489   2.348  12.000  0.2079  0.0889  0.1666
   27TMC2    C3  419   1.533   2.466  11.958 -0.3428 -0.2546 -0.0830
   27TMC2    C4  420   1.681   2.322  12.134  0.1250 -0.2255  0.4974
   27TMC2    C5  421   1.726   2.447  12.101  0.2849  0.0894  0.0535
   27TMC2    C6  422   1.649   2.521  12.014 -0.4773  0.7602  0.5016
   27TMC2     C  423   1.498   2.208  12.200  0.3538 -0.0636 -0.4496
   27TMC2     O  424   1.570   2.121  12.252  0.7739  0.2655 -0.1389
   27TMC2     H  425   1.388   2.316  11.977 -0.7046  2.7712  0.4564
   27TMC2    H1  426   1.737   2.263  12.206  0.8719  0.9161  0.8335
   27TMC2    H2  427   1.685   2.614  11.970 -2.1226 -0.2737 -2.9897
   27TMC2    C7  428   1.788   2.516  12.213  0.0337  0.5771 -0.2913
   27TMC2    C8  429   1.470   2.542  11.847 -0.4077 -0.2208  0.5762
   27TMC2    O1  430   1.869   2.455  12.280 -0.9188 -0.3286 -0.2984
   27TMC2    O2  431   1.497   2.662  11.843 -0.6854 -0.0468 -0.2223
   27TMC2    O5  432   1.458   2.463  11.732 -0.3719  0.0809 -0.1708
   27TMC2    H5  433   1.456   2.366  11.741 -0.2003  0.0713 -0.2343
   28MPD2     C  434   1.153   2.186  12.582 -0.0557 -0.9790  0.5079
   28MPD2    C1  435   1.167   2.316  12.539 -0.5985 -0.0406  0.1185
   28MPD2    C2  436   1.252   2.342  12.430 -0.2784  0.3471 -0.2433
   28MPD2    C3  437   1.321   2.247  12.369 -0.6700 -0.5295  0.2310
   28MPD2    C4  438   1.303   2.120  12.417  0.0348 -0.2701 -0.2507
   28MPD2    C5  439   1.216   2.089  12.516  0.2160  0.2563  0.3673
   28MPD2     H  440   1.275   2.441  12.392 -0.4758  0.1262 -0.9210
   28MPD2    H1  441   1.357   2.043  12.364 -0.7130 -1.4851  0.7538
   28MPD2    H2  442   1.086   2.154  12.661  0.4520 -2.1301  0.4698
   28MPD2    H3  443   1.208   1.982  12.532 -2.6166  0.7187  1.9120
   28MPD2     N  444   1.392   2.284  12.255  0.1764 -0.6155 -0.4157
   28MPD2    H5  445   1.377   2.376  12.216  3.8022 -1.0741 -2.9473
   28MPD2    N1  446   1.092   2.417  12.602  0.3268 -0.2325  0.2366
   28MPD2    H7  447   1.039   2.389  12.684  2.1317 -2.4043  0.6679
   29TMC2    C1  448   1.537   0.007  14.301  0.3466  0.1822 -0.6447
   29TMC2    C2  449   1.472   0.021  14.420 -0.1236  0.8501  0.2501
   29TMC2    C3  450   1.433   0.143  14.467 -0.2810 -0.2282 -0.6215
   29TMC2    C4  451   1.537   0.115  14.217  0.2410 -0.5604 -0.1186
   29TMC2    C5  452   1.494   0.235  14.266 -0.0981  0.3628  0.1774
   29TMC2    C6  453   1.446   0.253  14.389  0.1843 -0.1826 -0.8137
   29TMC2     C  454   1.524   4.599  14.249  1.0759  0.3600 -0.1447
   29TMC2     O  455   1.519   4.512  14.335 -0.6905  0.3295  0.3725
   29TMC2     H  456   1.440   4.666  14.473  0.3201  0.0394 -0.8424
   29TMC2    H1  457   1.578   0.109  14.117 -1.1103 -1.6051 -0.6025
   29TMC2    H2  458   1.400   0.349  14.410 -0.1583 -0.5296  0.0092
   29TMC2    C7  459   1.552   0.349  14.197 -0.2304  0.5578 -0.1107
   29TMC2    C8  460   1.314   0.136  14.556  0.1614  0.5137  0.1531
   29TMC2    O1  461   1.555   0.362  14.074 -0.2737 -0.4347  0.1337
   29TMC2    O2  462   1.240   0.043  14.535  0.1232  0.8756  0.5872
   29TMC2    O5  463   1.276   0.257  14.583 -0.4745  0.4990 -0.1607
   29TMC2    H5  464   1.352   0.319  14.577  0.9677 -1.1227  1.2957
   30MPD2     C  465   1.284   4.270  13.925 -1.2286 -0.2515 -0.2444
   30MPD2    C1  466   1.328   4.255  14.056 -0.3424 -0.4570 -0.1058
   30MPD2    C2  467   1.409   4.353  14.108 -0.8267  0.7481 -0.0228
   30MPD2    C3  468   1.424   4.482  14.051  0.1988 -0.3594 -0.1747
   30MPD2    C4  469   1.369   4.495  13.922 -0.3971 -0.1022 -0.5316
   30MPD2    C5  470   1.299   4.392  13.861 -0.0075  0.4105 -0.3660
   30MPD2     H  471   1.454   4.339  14.205  0.9050  1.7128 -0.6866
   30MPD2    H1  472   1.389   4.589  13.871  0.4880  0.0787  0.1302
   30MPD2    H2  473   1.218   4.195  13.882  0.2870 -2.4029  1.2627
   30MPD2    H3  474   1.268   4.398  13.757 -0.6134 -1.9397 -0.3314
   30MPD2     N  475   1.497   4.596  14.111  0.2974 -0.2806 -0.0094
   30MPD2    H5  476   1.494   4.681  14.056  1.0382 -0.4193 -0.2561
   30MPD2    N1  477   1.316   4.140  14.138 -0.7241 -0.0253  0.5568
   30MPD2    H7  478   1.369   4.137  14.224 -0.8653  0.1993  0.6524
   31TMC2    C1  479   3.696   2.857  15.257 -0.0301  0.5053  0.3532
   31TMC2    C2  480   3.568   2.839  15.218  0.3419 -0.1411 -0.0204
   31TMC2    C3  481   3.492   2.776  15.305 -0.1601  0.3809 -0.2289
   31TMC2    C4  482   3.750   2.798  15.368  0.0791 -0.1842  0.5199
   31TMC2    C5  483   3.673   2.715  15.440  0.5366  0.3355  0.8106
   31TMC2    C6  484   3.540   2.703  15.408  0.2503  0.2569 -0.7843
   31TMC2     C  485   3.785   2.932  15.173  0.0997  0.2910  1.0389
   31TMC2     O  486   3.739   2.975  15.065 -0.0659 -0.1222 -0.4292
   31TMC2     H  487   3.526   2.891  15.133  1.7520  1.7857  0.4577
   31TMC2    H1  488   3.852   2.815  15.400 -0.0395  1.0913  0.2210
   31TMC2    H2  489   3.470   2.655  15.474  1.2038  1.3423  1.0319
   31TMC2    C7  490   3.703   2.688  15.576  0.5888 -0.1205 -0.2837
   31TMC2    C8  491   3.349   2.776  15.284  1.0431  0.5146  0.1904
   31TMC2    O1  492   3.656   2.586  15.630 -0.0392  0.0870  0.2025
   31TMC2    O2  493   3.287   2.699  15.354  0.3785  0.3935  0.5874
   31TMC2    O5  494   3.320   2.905  15.278  0.0388 -0.0285 -0.3342
   31TMC2    H5  495   3.387   2.969  15.244 -0.6849  0.3468 -1.0349
   32MPD2     C  496   4.229   3.101  14.988  0.0302  0.7066 -0.5429
   32MPD2    C1  497   4.102   3.147  14.965  0.2728 -0.1810 -0.8919
   32MPD2    C2  498   4.002   3.093  15.038 -0.2853 -0.1871  0.0902
   32MPD2    C3  499   4.026   2.989  15.132  0.3366 -0.5603 -0.6217
   32MPD2    C4  500   4.159   2.954  15.152 -0.1571  1.0515 -0.2727
   32MPD2    C5  501   4.251   2.999  15.071  0.3486  0.1636  0.3206
   32MPD2     H  502   3.898   3.121  15.036 -0.4055 -0.6830 -0.6006
   32MPD2    H1  503   4.189   2.876  15.220  0.6877 -0.1363 -1.9857
   32MPD2    H2  504   4.316   3.124  14.929  0.2852 -1.8701 -1.1412
   32MPD2    H3  505   4.352   2.961  15.078  0.8352  1.1640 -1.2582
   32MPD2     N  506   3.921   2.920  15.202 -0.0589  0.0367  0.1777
   32MPD2    H5  507   3.953   2.874  15.287 -1.1319 -1.3017 -0.1370
   32MPD2    N1  508   4.081   3.262  14.887 -0.5451 -0.0193 -0.2194
   32MPD2    H7  509   4.161   3.320  14.863  0.3962 -0.7473  1.2136
   33TMC2    C1  510   3.751   1.739  10.395  0.1204  0.0779 -0.8416
   33TMC2    C2  511   3.618   1.746  10.367 -0.5945 -0.4622  0.0945
   33TMC2    C3  512   3.571   1.847  10.295 -0.1655  0.3800 -0.7547
   33TMC2    C4  513   3.837   1.828  10.349 -0.9893  0.2064 -0.0114
   33TMC2    C5  514   3.783   1.928  10.266  0.6373  0.5070 -0.3042
   33TMC2    C6  515   3.648   1.947  10.244 -0.0366  0.1618  0.7272
   33TMC2     C  516   3.785   1.633  10.485 -0.2231 -0.7347 -0.5078
   33TMC2     O  517   3.702   1.556  10.533 -0.0298 -0.3460  0.1207
   33TMC2     H  518   3.548   1.672  10.404 -1.5910  0.5324  0.1936
   33TMC2    H1  519   3.944   1.811  10.353 -0.5646  2.6619 -1.6965
   33TMC2    H2  520   3.593   2.027  10.195  1.2603  0.5098 -0.1516
   33TMC2    C7  521   3.875   2.012  10.192 -0.2321  0.4474 -0.8851
   33TMC2    C8  522   3.427   1.850  10.280  0.2988 -0.6257  0.0764
   33TMC2    O1  523   3.991   2.016  10.223 -0.0725 -0.2758 -0.2899
   33TMC2    O2  524   3.365   1.807  10.374 -0.1570  0.1736 -0.1420
   33TMC2    O5  525   3.401   1.828  10.149  0.7520  0.1230  0.5358
   33TMC2    H5  526   3.470   1.870  10.092  1.0725 -2.8579 -1.2843
   34MPD2     C  527   4.144   1.362  10.712  0.1715  0.1413  0.5541
   34MPD2    C1  528   4.023   1.315  10.654  0.2483 -0.1688 -0.7204
   34MPD2    C2  529   3.943   1.410  10.591 -0.0562  0.6844  0.4625
   34MPD2    C3  530   3.981   1.543  10.589  0.0267 -1.1613  0.5468
   34MPD2    C4  531   4.107   1.576  10.633  0.1775  0.1673 -0.6487
   34MPD2    C5  532   4.185   1.487  10.692  0.2699  0.3696  0.7706
   34MPD2     H  533   3.857   1.381  10.532 -0.5448  1.2060  0.9232
   34MPD2    H1  534   4.134   1.681  10.629 -1.5751  0.6565  0.2668
   34MPD2    H2  535   4.215   1.293  10.755 -1.1357 -2.3466 -1.2593
   34MPD2    H3  536   4.278   1.515  10.740  1.2358 -1.8190  0.1565
   34MPD2     N  537   3.910   1.645  10.526  0.2559 -0.6131  0.6764
   34MPD2    H5  538   3.950   1.735  10.500  2.5660 -1.8737 -0.1111
   34MPD2    N1  539   3.991   1.174  10.658  0.2431  0.0346 -0.4190
   34MPD2    H7  540   4.057   1.112  10.705  0.8309 -0.0066 -1.2895
   35TMC2    C1  541   4.443   2.694  11.278  0.3445  0.1950  0.2267
   35TMC2    C2  542   4.371   2.683  11.165  0.4688 -0.7657  0.5954
   35TMC2    C3  543   4.243   2.647  11.171 -1.0805 -0.3763 -0.1485
   35TMC2    C4  544   4.378   2.680  11.398  0.3340 -0.9396  0.1230
   35TMC2    C5  545   4.249   2.646  11.401 -0.5597 -0.1920 -0.1028
   35TMC2    C6  546   4.177   2.627  11.283 -0.6285  0.8876 -0.1097
   35TMC2     C  547   4.573   2.750  11.272  0.2077  0.6129 -0.7101
   35TMC2     O  548   4.606   2.790  11.159 -0.5618 -0.6218  0.0092
   35TMC2     H  549   4.409   2.718  11.069 -0.2964 -1.9393 -0.1381
   35TMC2    H1  550   4.425   2.704  11.493  1.0717 -2.2399  0.0871
   35TMC2    H2  551   4.092   2.560  11.274  0.8787 -0.9818 -0.3018
   35TMC2    C7  552   4.202   2.580  11.525 -0.3209 -0.2782 -0.0714
   35TMC2    C8  553   4.175   2.598  11.055 -0.6895  0.0336 -0.2079
   35TMC2    O1  554   4.290   2.557  11.607  0.4630  0.3021  0.3452
   35TMC2    O2  555   4.054   2.604  11.042  0.1765 -0.2485 -0.1427
   35TMC2    O5  556   4.263   2.548  10.973 -0.0683 -0.2104  0.3912
   35TMC2    H5  557   4.357   2.540  10.999 -0.0089  2.1080  0.8383
   36MPD2     C  558   0.303   2.858  11.454 -0.5492 -0.3068  0.3110
   36MPD2    C1  559   0.248   2.757  11.531 -0.0360  0.3173  0.4113
   36MPD2    C2  560   0.118   2.714  11.503  0.1081  0.0401 -0.4199
   36MPD2    C3  561   0.044   2.772  11.402 -0.3209  0.0107  0.1844
   36MPD2    C4  562   0.104   2.867  11.322 -0.3189  0.5233  0.4803
   36MPD2    C5  563   0.236   2.894  11.341 -0.2691 -0.4435 -0.1563
   36MPD2     H  564   0.083   2.619  11.540  2.0878  0.2212  1.9937
   36MPD2    H1  565   0.057   2.904  11.232  2.2950  2.1536 -0.2017
   36MPD2    H2  566   0.403   2.897  11.472 -0.4143 -0.6975  0.4224
   36MPD2    H3  567   0.285   2.963  11.273 -0.1314 -2.1780 -1.8192
   36MPD2     N  568   4.650   2.728  11.383 -0.4523  0.1351  0.4894
   36MPD2    H5  569   4.607   2.665  11.451 -1.5245 -1.4723 -1.6453
   36MPD2    N1  570   0.341   2.703  11.631  0.5209 -0.0041  0.4708
   36MPD2    H7  571   0.425   2.756  11.651  2.2964 -1.7781 -2.1692
   37TMC2    C1  572   2.441   2.926  11.778  0.5604  0.4884 -0.5516
   37TMC2    C2  573   2.417   2.911  11.646 -0.1063 -0.2648 -0.2681
   37TMC2    C3  574   2.513   2.927  11.552 -0.5270  0.1279 -0.0328
   37TMC2    C4  575   2.569   2.949  11.821  0.5616  0.3599 -0.7606
   37TMC2    C5  576   2.668   2.956  11.727  0.9263 -0.2520 -0.5483
   37TMC2    C6  577   2.637   2.953  11.589  0.0089  0.4634 -0.1646
   37TMC2     C  578   2.333   2.928  11.867  0.1252 -0.3834  0.1634
   37TMC2     O  579   2.224   2.940  11.821  0.2192  0.1526  0.2850
   37TMC2     H  580   2.316   2.904  11.608  0.2235 -0.2165 -1.1573
   37TMC2    H1  581   2.603   2.958  11.924  1.5848  0.5072 -1.1144
   37TMC2    H2  582   2.711   2.969  11.510  0.0157  0.5401 -0.1429
   37TMC2    C7  583   2.801   2.994  11.774 -0.4813  0.6458 -0.0141
   37TMC2    C8  584   2.481   2.865  11.423  0.0914  0.0894  0.0403
   37TMC2    O1  585   2.812   3.036  11.886 -0.6212 -0.4683  0.5798
   37TMC2    O2  586   2.365   2.836  11.395 -0.0345 -0.0966  0.0612
   37TMC2    O5  587   2.578   2.772  11.407 -1.1540  0.0858  0.0396
   37TMC2    H5  588   2.666   2.797  11.442 -1.3453  1.2954 -0.3224
   38MPD2     C  589   2.085   2.807  12.303  0.3922 -0.2436  0.5799
   38MPD2    C1  590   2.217   2.816  12.333  0.6855  0.1894  0.2346
   38MPD2    C2  591   2.308   2.847  12.232 -0.1365  0.7212 -0.1342
   38MPD2    C3  592   2.268   2.868  12.101 -0.4398 -0.2885  0.4803
   38MPD2    C4  593   2.129   2.864  12.081  0.2997  0.2952 -0.5412
   38MPD2    C5  594   2.040   2.835  12.182 -0.0598  0.2619 -0.0015
   38MPD2     H  595   2.414   2.853  12.251 -0.2437 -0.0793  0.7097
   38MPD2    H1  596   2.086   2.903  11.989 -2.6519 -0.5420  0.4773
   38MPD2    H2  597   2.008   2.793  12.377 -0.2875  2.0926  0.3018
   38MPD2    H3  598   1.933   2.829  12.162  0.1580  0.7600 -1.3309
   38MPD2     N  599   2.368   2.901  11.999 -0.2057  0.3553  0.0608
   38MPD2    H5  600   2.466   2.889  12.021 -0.9721 -1.5668  2.4651
   38MPD2    N1  601   2.274   2.792  12.459  0.1988  0.4104  0.0274
   38MPD2    H7  602   2.372   2.817  12.473 -0.1203  0.3172  2.4251
   39TMC2    C1  603   0.950   4.177   1.858 -0.0056  0.1254 -0.4393
   39TMC2    C2  604   0.899   4.269   1.945 -0.2748  0.4327  0.4294
   39TMC2    C3  605   0.989   4.344   2.016  0.7754 -0.4088 -0.4736
   39TMC2    C4  606   1.084   4.172   1.832  0.8240 -0.0450 -0.4005
   39TMC2    C5  607   1.166   4.250   1.905 -0.2581  0.8016  0.0475
   39TMC2    C6  608   1.120   4.347   1.994  0.5082 -0.1548  0.1812
   39TMC2     C  609   0.852   4.129   1.761 -0.2224 -0.3237  0.1607
   39TMC2     O  610   0.731   4.140   1.785 -0.3322 -0.7962 -0.4030
   39TMC2     H  611   0.793   4.266   1.969 -0.0554 -0.2267  1.3210
   39TMC2    H1  612   1.124   4.099   1.763 -0.5633  0.9286 -2.2333
   39TMC2    H2  613   1.178   4.404   2.066  2.3850  0.8476 -2.0980
   39TMC2    C7  614   1.313   4.215   1.906 -0.9021 -0.1717 -0.3176
   39TMC2    C8  615   0.934   4.428   2.116 -0.0090 -0.0343  0.4209
   39TMC2    O1  616   1.353   4.101   1.888  0.0640  0.4440  0.1292
   39TMC2    O2  617   0.997   4.521   2.162  0.3654  0.1139 -0.0481
   39TMC2    O5  618   0.877   4.337   2.199 -0.8872 -0.1348  0.2527
   39TMC2    H5  619   0.836   4.261   2.153  0.8884  0.5095 -2.4073
   40MPD2     C  620   0.943   3.999   1.425  0.3764 -0.4758 -0.0979
   40MPD2    C1  621   0.853   4.044   1.519  0.0960 -0.7666 -0.5216
   40MPD2    C2  622   0.718   4.058   1.495 -0.6260 -0.0775  0.0596
   40MPD2    C3  623   0.678   4.040   1.361  0.3995 -1.0129  0.2586
   40MPD2    C4  624   0.764   4.006   1.258  0.2481 -0.2510  0.1801
   40MPD2    C5  625   0.887   3.962   1.301  0.3025  0.0689 -0.2667
   40MPD2     H  626   0.648   4.078   1.575 -0.8903  1.0916 -0.4694
   40MPD2    H1  627   0.734   3.976   1.159  1.0867 -1.0407  0.1589
   40MPD2    H2  628   1.046   3.986   1.456 -0.0651  0.3942  1.7593
   40MPD2    H3  629   0.949   3.908   1.230  0.2256 -0.2513 -0.0918
   40MPD2     N  630   0.540   4.057   1.329  0.2881  0.0587 -0.1366
   40MPD2    H5  631   0.517   4.047   1.231  0.3064  0.8083 -0.2141
   40MPD2    N1  632   0.910   4.079   1.646  0.3453  0.3892  0.4420
   40MPD2    H7  633   1.011   4.088   1.641  0.4843 -0.7961  1.2760
   41TMC2    C1  634   4.537   2.572  13.485  0.2696  0.0574  0.4178
   41TMC2    C2  635   4.504   2.451  13.433  0.0944 -1.0921  0.3583
   41TMC2    C3  636   4.555   2.426  13.309  1.2096 -0.6438 -0.1363
   41TMC2    C4  637   4.609   2.670  13.421  0.6840 -0.6724  0.5503
   41TMC2    C5  638   4.663   2.641  13.301 -0.6112  0.1964 -0.2651
   41TMC2    C6  639   4.643   2.513  13.242 -0.0112  0.0607 -0.4474
   41TMC2     C  640   4.440   2.625  13.579 -0.3886 -0.1840 -0.3108
   41TMC2     O  641   4.321   2.619  13.543 -0.0474 -0.3944 -0.7362
   41TMC2     H  642   4.449   2.375  13.487 -3.4262 -0.1759 -1.9747
   41TMC2    H1  643   4.615   2.765  13.472  1.3061 -0.4404  0.0431
   41TMC2    H2  644   4.671   2.488  13.141 -1.0656 -1.2272 -0.4162
   41TMC2    C7  645   4.697   2.748  13.211 -0.3140 -1.0395 -0.2675
   41TMC2    C8  646   4.508   2.314  13.234  0.3095 -0.7105 -1.3248
   41TMC2    O1  647   4.664   2.859  13.245  0.6025 -0.6416  0.0531
   41TMC2    O2  648   4.499   2.311  13.113  0.0249 -0.0442  0.1396
   41TMC2    O5  649   4.517   2.204  13.310 -0.3319 -0.1180 -0.1154
   41TMC2    H5  650   4.564   2.215  13.395  0.6313  0.2232 -0.6882
   42MPD2     C  651   4.280   2.599  13.824 -0.3335  0.4991  0.0748
   42MPD2    C1  652   4.414   2.627  13.826  0.3312 -0.7569 -0.1061
   42MPD2    C2  653   4.484   2.617  13.945  0.2256 -0.1260  0.0469
   42MPD2    C3  654   4.419   2.601  14.067 -0.4489 -0.4626 -0.4071
   42MPD2    C4  655   4.284   2.566  14.060  0.1927  0.2475  0.7134
   42MPD2    C5  656   4.218   2.561  13.944  0.3382  0.0039  0.0401
   42MPD2     H  657   4.591   2.623  13.936 -0.1019  2.8232 -1.7742
   42MPD2    H1  658   4.230   2.543  14.151 -1.1581  0.7472  0.0469
   42MPD2    H2  659   4.224   2.579  13.734 -0.9679 -1.0968  0.8141
   42MPD2    H3  660   4.114   2.531  13.932  0.6921 -1.3175  0.2853
   42MPD2     N  661   4.475   2.621  14.191 -0.1208  0.4379 -0.2931
   42MPD2    H5  662   4.417   2.610  14.274 -0.2906  1.1725 -0.3149
   42MPD2    N1  663   4.491   2.642  13.705  0.0588  0.0721 -0.0729
   42MPD2    H7  664   4.591   2.637  13.723 -0.4151 -2.5859  1.7428
   43TMC2    C1  665   0.589   0.375   1.118  0.3911  0.0266  0.8091
   43TMC2    C2  666   0.478   0.454   1.149  0.1011  0.1177 -0.7058
   43TMC2    C3  667   0.470   0.489   1.285  0.2252  0.3899  0.2571
   43TMC2    C4  668   0.675   0.328   1.217  0.1115  0.0641 -0.5072
   43TMC2    C5  669   0.653   0.360   1.349 -0.3752 -0.3822  0.0569
   43TMC2    C6  670   0.549   0.451   1.387  0.1204 -0.1137  0.3772
   43TMC2     C  671   0.605   0.326   0.978  0.1145 -0.5956  0.0748
   43TMC2     O  672   0.703   0.259   0.955  0.0085 -0.1519  0.3399
   43TMC2     H  673   0.402   0.482   1.078  1.0237  3.2513 -0.5031
   43TMC2    H1  674   0.763   0.265   1.205  1.6949  2.4729 -1.7016
   43TMC2    H2  675   0.538   0.502   1.482 -0.3908  0.5015 -0.0095
   43TMC2    C7  676   0.689   0.257   1.446 -0.5336  0.7153  0.5370
   43TMC2    C8  677   0.373   0.591   1.316 -0.1018 -0.6598  0.0304
   43TMC2    O1  678   0.751   0.155   1.417 -0.1892  0.4444 -0.7179
   43TMC2    O2  679   0.259   0.603   1.266  0.0971  0.1014  0.0707
   43TMC2    O5  680   0.446   0.699   1.361 -0.4245  0.1215  0.2848
   43TMC2    H5  681   0.537   0.678   1.392 -0.2735 -0.5148 -0.5773
   44MPD2     C  682   0.482   0.267   0.483 -0.3802 -1.1372 -0.2666
   44MPD2    C1  683   0.600   0.236   0.550 -0.4231  1.5592  0.1902
   44MPD2    C2  684   0.602   0.267   0.685 -0.3024 -0.0676  0.0282
   44MPD2    C3  685   0.497   0.327   0.750  0.5515  1.0096 -0.0897
   44MPD2    C4  686   0.377   0.354   0.680  0.4396 -1.0547  0.3326
   44MPD2    C5  687   0.379   0.325   0.551  0.0348 -0.6826 -0.3582
   44MPD2     H  688   0.694   0.241   0.736 -0.9384 -2.4093 -0.0173
   44MPD2    H1  689   0.285   0.394   0.719 -0.3337 -0.8450 -1.6741
   44MPD2    H2  690   0.466   0.244   0.379 -1.1562 -4.0333  0.4907
   44MPD2    H3  691   0.281   0.339   0.506  1.3095  0.6917 -2.7092
   44MPD2     N  692   0.502   0.358   0.889 -0.0034  0.1462 -0.4844
   44MPD2    H5  693   0.422   0.406   0.929 -0.8479 -0.7246 -1.1399
   44MPD2    N1  694   0.717   0.188   0.491  0.1712 -0.4700 -0.3469
   44MPD2    H7  695   0.795   0.161   0.551  1.6117  2.0871 -1.0318
   45TMC2    C1  696   2.220   4.452   9.715 -0.5932  0.1249  0.0723
   45TMC2    C2  697   2.313   4.541   9.662  0.0378  0.1970  1.1499
   45TMC2    C3  698   2.438   4.550   9.715  0.0532  0.2414  0.2295
   45TMC2    C4  699   2.260   4.376   9.824 -0.8673 -0.2180 -0.4738
   45TMC2    C5  700   2.387   4.384   9.867 -0.2696 -0.4260 -0.8127
   45TMC2    C6  701   2.479   4.465   9.819  0.2112 -0.1618 -0.3940
   45TMC2     C  702   2.109   4.416   9.626 -0.6604 -0.3333  0.0546
   45TMC2     O  703   2.115   4.484   9.521 -0.2031 -0.3789  0.5174
   45TMC2     H  704   2.291   4.614   9.585 -2.1490  0.0480  1.6431
   45TMC2    H1  705   2.189   4.306   9.867 -0.5252  0.3599  1.0268
   45TMC2    H2  706   2.581   4.469   9.855  0.4297  0.1995 -1.0398
   45TMC2    C7  707   2.433   4.296   9.974 -0.0139 -0.5198 -0.1792
   45TMC2    C8  708   2.536   4.575   9.623 -0.5328 -0.3948  0.5003
   45TMC2    O1  709   2.534   4.326  10.033 -1.1338 -0.1280  0.1935
   45TMC2    O2  710   2.536   4.545   9.502 -0.0168 -0.0131 -0.5629
   45TMC2    O5  711   2.620   4.672   9.666 -0.2647 -0.8392  0.0817
   45TMC2    H5  712   2.611   4.682   9.763 -1.9452 -0.1054 -0.1480
   46MPD2     C  713   1.900   4.299   9.468  0.5688  0.8175 -0.1505
   46MPD2    C1  714   1.907   4.281   9.603 -0.3143 -0.1115  0.4549
   46MPD2    C2  715   1.815   4.203   9.665  0.9321 -0.3810  0.7371
   46MPD2    C3  716   1.720   4.135   9.596 -0.4994 -0.0703 -0.0521
   46MPD2    C4  717   1.712   4.161   9.462  0.6466  0.1802  0.0589
   46MPD2    C5  718   1.801   4.240   9.401  0.2546 -0.1480  0.5508
   46MPD2     H  719   1.827   4.185   9.772  1.7005  1.5200  0.9637
   46MPD2    H1  720   1.647   4.103   9.397 -1.3696  0.7202  1.6093
   46MPD2    H2  721   1.964   4.369   9.416 -0.6864  0.5573 -2.0584
   46MPD2    H3  722   1.804   4.258   9.294 -1.2574  2.3543  0.9537
   46MPD2     N  723   1.630   4.041   9.666 -0.6775  0.3056 -0.2470
   46MPD2    H5  724   1.637   4.041   9.767  2.7500 -3.3609 -0.4919
   46MPD2    N1  725   2.013   4.331   9.676 -1.0179  0.1422  0.3109
   46MPD2    H7  726   2.013   4.314   9.776  0.8350  0.9581  0.4402
   47TMC2    C1  727   4.096   4.105   9.348  0.0903 -0.1064  0.5050
   47TMC2    C2  728   4.107   4.028   9.230  0.0613  0.5010  0.5854
   47TMC2    C3  729   3.994   4.017   9.153  0.5348 -0.4385  0.1463
   47TMC2    C4  730   3.982   4.157   9.397  0.0601  0.0517 -0.5400
   47TMC2    C5  731   3.878   4.145   9.316 -0.1778  0.7421  0.0914
   47TMC2    C6  732   3.877   4.074   9.192  0.1603 -0.4575  0.4327
   47TMC2     C  733   4.217   4.128   9.419 -0.1618  0.8357  0.1046
   47TMC2     O  734   4.215   4.231   9.485 -0.0023  0.4427 -0.1213
   47TMC2     H  735   4.199   4.008   9.175 -0.6308  0.0637 -0.4113
   47TMC2    H1  736   3.986   4.238   9.469 -3.8214  0.8611 -1.2494
   47TMC2    H2  737   3.794   4.079   9.122 -0.0631  1.7737  0.8730
   47TMC2    C7  738   3.758   4.183   9.377 -0.0088 -0.1119 -0.3705
   47TMC2    C8  739   3.994   3.956   9.021 -1.0994 -0.2859  0.4036
   47TMC2    O1  740   3.763   4.206   9.492  0.4592  0.1996 -0.1696
   47TMC2    O2  741   3.893   3.948   8.949 -0.4258  0.0067  0.0474
   47TMC2    O5  742   4.096   3.869   9.012 -0.5728 -0.5717  0.0169
   47TMC2    H5  743   4.172   3.874   9.074  0.8273  0.4525 -1.7836
   48MPD2     C  744   4.465   4.105   9.566 -0.3813  0.2384  0.3504
   48MPD2    C1  745   4.432   4.017   9.475 -0.5851  0.1353 -0.6188
   48MPD2    C2  746   4.514   3.907   9.447 -0.1363  0.4461 -0.4108
   48MPD2    C3  747   4.637   3.895   9.502  0.1911  0.4409 -0.1071
   48MPD2    C4  748   4.671   3.981   9.604 -0.0554  0.0071 -0.2738
   48MPD2    C5  749   4.589   4.089   9.632 -0.2148  0.0424  0.3192
   48MPD2     H  750   4.489   3.836   9.369  3.3139 -1.7375  0.4740
   48MPD2    H1  751   0.022   3.971   9.670 -0.3387  0.4362  0.1579
   48MPD2    H2  752   4.403   4.193   9.584  0.9432  1.5249 -1.4654
   48MPD2    H3  753   4.622   4.150   9.715 -0.9917  1.3360 -0.3402
   48MPD2     N  754   4.706   3.777   9.472 -0.0117 -0.3984  0.0451
   48MPD2    H5  755   4.652   3.704   9.427 -3.4100  1.4063  1.1952
   48MPD2    N1  756   4.309   4.031   9.402  0.2108  0.4216 -0.1731
   48MPD2    H7  757   4.291   3.954   9.339 -1.2651 -0.3752  1.2512
   49TMC2    C1  758   2.847   1.717  10.124 -1.2517 -0.7076  0.8673
   49TMC2    C2  759   2.813   1.690   9.998  0.1608 -0.2481 -0.0594
   49TMC2    C3  760   2.888   1.744   9.895  0.2588 -0.3909  0.1243
   49TMC2    C4  761   2.953   1.806  10.150  0.0521 -0.5679  0.4282
   49TMC2    C5  762   3.016   1.860  10.040 -0.3265  0.9099  1.0610
   49TMC2    C6  763   2.984   1.836   9.909  0.3380 -0.1386 -0.1259
   49TMC2     C  764   2.773   1.663  10.231  0.4808  0.0474 -0.3106
   49TMC2     O  765   2.831   1.653  10.337  0.5250 -0.1940  0.5407
   49TMC2     H  766   2.755   1.606   9.962  1.4093 -0.7153 -1.0104
   49TMC2    H1  767   2.992   1.815  10.251  0.1905  2.0825  0.1187
   49TMC2    H2  768   3.034   1.887   9.827 -0.7374  0.4806 -0.3979
   49TMC2    C7  769   3.112   1.954  10.080 -0.4650 -0.3372  0.6012
   49TMC2    C8  770   2.838   1.707   9.768 -0.5045  0.0442  0.5662
   49TMC2    O1  771   3.100   1.996  10.191  0.2007 -0.1469  0.4034
   49TMC2    O2  772   2.783   1.598   9.741 -0.6661 -0.2479 -0.8476
   49TMC2    O5  773   2.823   1.822   9.691  0.3453  0.6691  0.3386
   49TMC2    H5  774   2.841   1.910   9.732  0.2198  0.3789  1.0080
   50MPD2     C  775   2.670   1.434  10.385 -0.0016 -0.6226  0.6630
   50MPD2    C1  776   2.601   1.499  10.281  0.5653  0.2870  0.5543
   50MPD2    C2  777   2.463   1.473  10.266  0.5780  0.1354 -0.5421
   50MPD2    C3  778   2.395   1.395  10.357  0.8714 -0.4624  0.5206
   50MPD2    C4  779   2.464   1.343  10.470  0.2292  0.2372 -0.0494
   50MPD2    C5  780   2.597   1.360  10.475 -0.1985  0.0095 -1.1992
   50MPD2     H  781   2.414   1.516  10.180 -1.1570  0.9190  0.8459
   50MPD2    H1  782   2.413   1.291  10.550 -0.5055 -0.8239 -1.2092
   50MPD2    H2  783   2.778   1.432  10.381 -0.0288  1.3748 -1.0771
   50MPD2    H3  784   2.651   1.312  10.555 -0.2238  0.9027 -0.6531
   50MPD2     N  785   2.255   1.372  10.350 -0.3462 -0.4668  0.7833
   50MPD2    H5  786   2.208   1.319  10.423 -0.3480  0.4010  1.4109
   50MPD2    N1  787   2.665   1.593  10.193 -0.3785 -0.2996 -0.1160
   50MPD2    H7  788   2.610   1.621  10.112  0.9991 -1.9571 -1.6434
   51TMC2    C1  789   1.842   4.370   1.571 -0.3512  0.8231 -0.7312
   51TMC2    C2  790   1.757   4.473   1.591  0.3279  0.0389  0.2660
   51TMC2    C3  791   1.811   4.597   1.601 -0.3585  0.1126 -0.4419
   51TMC2    C4  792   1.984   4.394   1.576  0.0978 -0.0225 -0.8234
   51TMC2    C5  793   2.028   4.520   1.578 -0.0237  0.2646  0.0939
   51TMC2    C6  794   1.944   4.622   1.597  0.6462 -0.0817 -0.3576
   51TMC2     C  795   1.799   4.234   1.558  0.0976  0.0598 -0.0192
   51TMC2     O  796   1.892   4.158   1.580 -0.1526  0.6740 -0.2155
   51TMC2     H  797   1.650   4.463   1.578  0.7905 -0.9697 -2.5646
   51TMC2    H1  798   2.054   4.312   1.567 -0.2337 -0.4106  0.2305
   51TMC2    H2  799   1.981   4.724   1.605  0.7931  0.1004 -3.5556
   51TMC2    C7  800   2.174   4.541   1.557 -0.3652  0.0101  0.5814
   51TMC2    C8  801   1.715   4.702   1.647  0.4400 -0.4522  0.1014
   51TMC2    O1  802   2.244   4.450   1.508  0.1976  0.3247 -0.2386
   51TMC2    O2  803   1.620   4.669   1.713  0.3632 -0.4982 -0.3580
   51TMC2    O5  804   1.770   0.088   1.637 -0.0699 -1.1695 -0.4180
   51TMC2    H5  805   1.812   0.098   1.549 -2.5074 -0.2419 -1.4691
   52MPD2     C  806   1.470   3.858   1.490  0.6286 -0.1186 -0.1478
   52MPD2    C1  807   1.609   3.859   1.490  0.7458  0.0798 -0.2485
   52MPD2    C2  808   1.676   3.978   1.505  0.6428  0.9474 -0.6199
   52MPD2    C3  809   1.599   4.090   1.534  0.0007  0.0748 -0.4060
   52MPD2    C4  810   1.466   4.092   1.536  0.0232  0.2173  0.0893
   52MPD2    C5  811   1.400   3.971   1.520 -0.5529  0.5195 -0.6609
   52MPD2     H  812   1.784   3.986   1.498  0.7761 -0.3134 -0.1375
   52MPD2    H1  813   1.414   4.185   1.554  0.4170  0.2073  1.2588
   52MPD2    H2  814   1.417   3.764   1.495 -2.1708  1.3918 -1.1815
   52MPD2    H3  815   1.291   3.967   1.521 -0.5532  0.1583 -1.9945
   52MPD2     N  816   1.663   4.213   1.550  0.7909 -0.0058  0.2028
   52MPD2    H5  817   1.599   4.292   1.556  0.6848 -0.1791  1.3713
   52MPD2    N1  818   1.685   3.743   1.456  0.0787 -0.3221 -0.1538
   52MPD2    H7  819   1.779   3.763   1.425  0.4905 -0.5492  0.9576
   53TMC2    C1  820   3.473   3.214  12.029  0.4252  0.3345  0.0522
   53TMC2    C2  821   3.600   3.176  12.067 -0.4857  0.3943 -0.1269
   53TMC2    C3  822   3.626   3.180  12.203  0.0993  0.2174 -0.0562
   53TMC2    C4  823   3.379   3.255  12.124 -0.5224 -1.1369  0.3712
   53TMC2    C5  824   3.410   3.265  12.258 -0.6342 -0.4308  0.3480
   53TMC2    C6  825   3.538   3.222  12.303  0.1916  0.3036 -0.3156
   53TMC2     C  826   3.435   3.188  11.889  0.2468  0.0608 -0.2928
   53TMC2     O  827   3.523   3.176  11.802  0.5280  0.6492  0.0120
   53TMC2     H  828   3.681   3.163  11.997 -0.6905  0.4702 -0.3784
   53TMC2    H1  829   3.283   3.299  12.098 -0.1957  0.7491  2.3350
   53TMC2    H2  830   3.559   3.210  12.408  2.2232  0.3551 -0.7126
   53TMC2    C7  831   3.290   3.261  12.346  0.7565  0.1816  0.9526
   53TMC2    C8  832   3.757   3.130  12.255  0.1624 -0.1263  0.2198
   53TMC2    O1  833   3.184   3.262  12.285  0.2902 -0.2527  0.3236
   53TMC2    O2  834   3.807   3.175  12.358  0.8877 -0.2259  1.0267
   53TMC2    O5  835   3.785   3.006  12.197  0.1989 -0.1882  0.1158
   53TMC2    H5  836   3.705   2.973  12.151  1.1428  0.0826 -1.7222
   54MPD2     C  837   3.299   3.081  11.648 -0.1018 -0.4055 -0.2956
   54MPD2    C1  838   3.234   3.116  11.759 -0.0906  0.6317  0.7110
   54MPD2    C2  839   3.097   3.096  11.771 -0.6757 -0.2526 -0.4299
   54MPD2    C3  840   3.025   3.029  11.668  0.7995 -0.5859 -0.1143
   54MPD2    C4  841   3.089   3.008  11.553  0.0345 -0.4673 -0.5592
   54MPD2    C5  842   3.229   3.035  11.540  0.3070 -0.2048 -0.3316
   54MPD2     H  843   3.052   3.110  11.869  0.9877 -1.2773  0.4857
   54MPD2    H1  844   3.028   2.979  11.469 -1.5094  0.5165  0.2301
   54MPD2    H2  845   3.406   3.089  11.637  0.0498  0.5846  1.8539
   54MPD2    H3  846   3.288   3.015  11.452  3.1922 -0.1053  1.5971
   54MPD2     N  847   2.892   2.985  11.668 -0.0772  0.2640 -0.2782
   54MPD2    H5  848   2.863   2.938  11.583  0.9676  0.7104 -0.8776
   54MPD2    N1  849   3.301   3.169  11.876  0.4624  0.1573  0.1944
   54MPD2    H7  850   3.236   3.164  11.954 -0.1706 -1.9928 -0.4735
   55TMC2    C1  851   4.217   0.311   0.364 -0.2652  1.2374  0.0007
   55TMC2    C2  852   4.205   0.234   0.256  0.1308 -0.6109  0.9097
   55TMC2    C3  853   4.233   0.101   0.273 -0.4837 -0.0838 -0.2658
   55TMC2    C4  854   4.228   0.260   0.487  0.0059  0.3715  0.0537
   55TMC2    C5  855   4.241   0.128   0.497  0.0395  0.0249  0.1033
   55TMC2    C6  856   4.249   0.044   0.392 -0.5171  0.7063 -0.6471
   55TMC2     C  857   4.226   0.460   0.355  0.4669  0.0217  0.6823
   55TMC2     O  858   4.191   0.519   0.454  0.6814 -0.1204  0.9785
   55TMC2     H  859   4.184   0.288   0.164  0.5591  2.0761  2.3924
   55TMC2    H1  860   4.239   0.318   0.578 -0.9652 -1.0268  1.0577
   55TMC2    H2  861   4.250   4.671   0.409  0.7240  0.7988 -0.1076
   55TMC2    C7  862   4.209   0.068   0.625  0.5315 -0.8017 -0.3415
   55TMC2    C8  863   4.218   0.003   0.161  0.0670  0.2126 -0.9046
   55TMC2    O1  864   4.231   4.681   0.626  0.0026 -0.6175 -0.3425
   55TMC2    O2  865   4.164   0.037   0.055 -0.0548  0.1276 -0.0851
   55TMC2    O5  866   4.337   4.669   0.169 -0.4693  0.4712 -0.0300
   55TMC2    H5  867   4.376   4.647   0.256  2.7963  0.1747 -1.5662
   56MPD2     C  868   4.349   0.693   0.090  0.0849 -0.1468 -0.2606
   56MPD2    C1  869   4.282   0.650   0.203 -0.0635 -0.5239  0.3425
   56MPD2    C2  870   4.221   0.746   0.284  0.4516 -0.1388  0.5504
   56MPD2    C3  871   4.220   0.877   0.247 -0.1715  0.0304  0.0635
   56MPD2    C4  872   4.285   0.921   0.131  0.9931 -0.2022  0.3328
   56MPD2    C5  873   4.346   0.827   0.054  0.4792  0.1277  0.4035
   56MPD2     H  874   4.157   0.720   0.367 -0.3680 -0.8853 -0.3209
   56MPD2    H1  875   4.279   1.019   0.083 -0.1439  1.2281  3.4190
   56MPD2    H2  876   4.404   0.624   0.027 -3.6769 -1.3723 -2.1538
   56MPD2    H3  877   4.388   0.853  17.693  0.5463  1.5788  0.8239
   56MPD2     N  878   4.143   0.967   0.328  0.3472  0.2849 -0.3103
   56MPD2    H5  879   4.096   0.922   0.406  0.1757  0.9418 -0.0389
   56MPD2    N1  880   4.283   0.511   0.237 -0.1475 -0.3444  0.0970
   56MPD2    H7  881   4.320   0.455   0.161 -1.3083 -0.5136 -0.3469
   57TMC2    C1  882   3.097   1.504  13.798  0.2066  0.2703  0.1790
   57TMC2    C2  883   3.108   1.381  13.861 -0.5314  0.8577 -0.6278
   57TMC2    C3  884   3.155   1.276  13.787  0.0760  0.2629 -0.1109
   57TMC2    C4  885   3.121   1.518  13.664 -0.4007  0.1544 -1.3986
   57TMC2    C5  886   3.155   1.408  13.583 -0.1825 -0.0650  0.6938
   57TMC2    C6  887   3.164   1.284  13.654 -0.5634 -0.2859 -0.0375
   57TMC2     C  888   3.051   1.617  13.881 -0.0431  0.1675 -0.2908
   57TMC2     O  889   3.071   1.729  13.828  0.4183 -0.1167  0.3710
   57TMC2     H  890   3.102   1.363  13.968  1.9312  0.7030 -0.5279
   57TMC2    H1  891   3.122   1.610  13.607  0.9319 -0.8569 -3.0528
   57TMC2    H2  892   3.207   1.197  13.606  2.2030  0.6847  0.6929
   57TMC2    C7  893   3.246   1.431  13.474 -0.1735 -1.1562 -0.4203
   57TMC2    C8  894   3.186   1.148  13.853 -0.0762 -1.0414 -0.4365
   57TMC2    O1  895   3.278   1.544  13.447 -0.1287 -0.2531  0.4632
   57TMC2    O2  896   3.243   1.059  13.793 -0.3217  0.1075 -0.1384
   57TMC2    O5  897   3.118   1.125  13.971 -0.1781 -0.2246  0.0743
   57TMC2    H5  898   3.085   1.203  14.021  1.1582  0.8701 -0.7392
   58MPD2     C  899   2.891   1.809  14.320 -0.2029  0.3463  0.1398
   58MPD2    C1  900   2.926   1.871  14.202 -0.1749  0.4301 -0.0475
   58MPD2    C2  901   2.966   1.800  14.099 -0.2691 -0.4745  0.4972
   58MPD2    C3  902   2.956   1.662  14.111 -0.0838 -0.1853 -0.1914
   58MPD2    C4  903   2.920   1.596  14.221  0.2225  0.3857  0.0466
   58MPD2    C5  904   2.895   1.675  14.335 -0.4550  0.0522 -0.2477
   58MPD2     H  905   2.994   1.854  14.010 -1.7200 -1.7195 -0.7037
   58MPD2    H1  906   2.907   1.489  14.231  0.4023  0.4102  0.5483
   58MPD2    H2  907   2.857   1.864  14.406  1.3935  0.6706  0.5562
   58MPD2    H3  908   2.860   1.628  14.426 -1.7241  2.0704  0.3119
   58MPD2     N  909   2.989   1.575  14.000 -0.2504  0.4250  0.1499
   58MPD2    H5  910   2.979   1.477  14.023  0.4550  0.7130  1.6673
   58MPD2    N1  911   2.924   2.011  14.187 -0.2281  0.1533  0.5465
   58MPD2    H7  912   2.946   2.053  14.097 -0.1016 -0.6644  0.1926
   59TMC2    C1  913   0.784   1.800  12.766  0.5693 -0.3170  0.5889
   59TMC2    C2  914   0.820   1.926  12.803  0.4539  0.0793  0.2061
   59TMC2    C3  915   0.744   2.029  12.752  0.1996 -0.4242 -0.1711
   59TMC2    C4  916   0.679   1.779  12.681  0.1146 -0.2018  0.0072
   59TMC2    C5  917   0.623   1.886  12.621  0.5541  0.2581  0.2709
   59TMC2    C6  918   0.655   2.018  12.649 -0.4088 -1.1870 -0.1583
   59TMC2     C  919   0.864   1.688  12.809 -0.0953 -0.9238  0.6349
   59TMC2     O  920   0.854   1.594  12.731  0.5831  0.0617  0.5227
   59TMC2     H  921   0.894   1.952  12.878 -0.4548  1.0295  0.7728
   59TMC2    H1  922   0.651   1.680  12.645 -1.3369 -0.8311  2.8323
   59TMC2    H2  923   0.602   2.103  12.607  1.4706 -0.3815 -0.9115
   59TMC2    C7  924   0.552   1.865  12.497 -1.0221 -0.5545  0.3198
   59TMC2    C8  925   0.769   2.171  12.788  0.1939  0.0383 -0.3670
   59TMC2    O1  926   0.510   1.754  12.479 -0.2532  0.1346  0.1933
   59TMC2    O2  927   0.835   2.208  12.884 -0.3219  0.2466  0.1137
   59TMC2    O5  928   0.778   2.240  12.675  0.3190 -0.1361 -0.3273
   59TMC2    H5  929   0.770   2.209  12.582 -0.2464 -0.1410 -0.2778
   60MPD2     C  930   1.101   1.513  12.879 -0.3711  0.0417  0.3811
   60MPD2    C1  931   1.077   1.641  12.931  0.1212  0.6244 -0.1087
   60MPD2    C2  932   1.166   1.684  13.032  0.3726  0.0893  0.6537
   60MPD2    C3  933   1.285   1.608  13.058  0.2167 -0.5995  0.1514
   60MPD2    C4  934   1.300   1.482  13.007  0.2782 -0.0398  0.0615
   60MPD2    C5  935   1.210   1.434  12.917  0.5814 -0.7111  0.9453
   60MPD2     H  936   1.168   1.786  13.067 -1.6835 -0.1812  1.5804
   60MPD2    H1  937   1.383   1.421  13.040 -0.6701 -2.0213 -1.2219
   60MPD2    H2  938   1.040   1.470  12.801  0.3532 -1.5644  0.6919
   60MPD2    H3  939   1.226   1.333  12.883 -1.5608 -0.6575 -0.2009
   60MPD2     N  940   1.391   1.657  13.132  0.4316  0.0922  0.1249
   60MPD2    H5  941   1.472   1.597  13.133  0.7391  0.5517  2.4069
   60MPD2    N1  942   0.964   1.721  12.899 -0.1847  0.5284  0.1801
   60MPD2    H7  943   0.955   1.809  12.949 -2.3683  1.3633 -1.6868
   61TMC2    C1  944   0.415   3.358  15.907 -0.5823 -0.2431 -0.3465
   61TMC2    C2  945   0.435   3.355  16.042 -0.2643  0.3184  0.2931
   61TMC2    C3  946   0.409   3.475  16.113 -0.2955 -0.7810  0.8032
   61TMC2    C4  947   0.369   3.465  15.848 -0.5216  0.2299 -0.1813
   61TMC2    C5  948   0.343   3.574  15.916  0.0168  0.0958 -0.7235
   61TMC2    C6  949   0.351   3.580  16.054  0.4475 -0.3024  0.5142
   61TMC2     C  950   0.457   3.246  15.823  0.6091  0.0445 -0.1004
   61TMC2     O  951   0.478   3.137  15.876  0.2065  0.2250 -0.6718
   61TMC2     H  952   0.475   3.267  16.090 -0.5126  0.9497  1.6535
   61TMC2    H1  953   0.364   3.468  15.740  0.6531 -1.9984 -0.2869
   61TMC2    H2  954   0.348   3.680  16.096  0.6989 -0.1573  0.1879
   61TMC2    C7  955   0.315   3.697  15.847 -0.1520 -0.4234  0.8745
   61TMC2    C8  956   0.442   3.476  16.253  0.0888 -0.3528 -0.0267
   61TMC2    O1  957   0.351   3.807  15.888 -0.4198  0.7354  0.6265
   61TMC2    O2  958   0.486   3.378  16.309 -0.1520 -0.0035  0.0624
   61TMC2    O5  959   0.362   3.569  16.316  0.3250  0.0030  0.1632
   61TMC2    H5  960   0.291   3.603  16.258 -0.3330 -0.8605  0.4567
   62MPD2     C  961   0.505   3.054  15.594  0.3966  0.1950  0.2071
   62MPD2    C1  962   0.504   3.189  15.582 -0.6112  0.5348 -0.3705
   62MPD2    C2  963   0.542   3.237  15.458 -0.1983 -0.3006 -0.4438
   62MPD2    C3  964   0.605   3.169  15.359  0.2361  0.2971  0.3216
   62MPD2    C4  965   0.615   3.032  15.373 -0.5360  1.0329  0.5615
   62MPD2    C5  966   0.569   2.974  15.494  0.0460  0.2263 -0.3005
   62MPD2     H  967   0.541   3.345  15.446 -3.7686 -0.2977 -0.2822
   62MPD2    H1  968   0.665   2.974  15.296  1.7134 -1.2613  3.7698
   62MPD2    H2  969   0.463   3.001  15.678  1.6445 -3.0708 -1.1916
   62MPD2    H3  970   0.574   2.867  15.509  0.8270  0.5935  2.1318
   62MPD2     N  971   0.649   3.230  15.234  0.4917  0.1593  0.1616
   62MPD2    H5  972   0.690   3.170  15.163  1.3959 -0.5481  1.2679
   62MPD2    N1  973   0.473   3.280  15.690 -0.0792 -0.1484 -0.1117
   62MPD2    H7  974   0.486   3.379  15.671  1.9359 -0.1123  1.5035
   63TMC2    C1  975   0.197   3.314  11.199 -0.5782  0.1392 -0.2277
   63TMC2    C2  976   0.302   3.334  11.281  0.1099  0.0512 -0.0824
   63TMC2    C3  977   0.405   3.411  11.239 -0.8649  0.7130  0.5879
   63TMC2    C4  978   0.189   3.362  11.071  0.0882 -0.0247  0.1496
   63TMC2    C5  979   0.301   3.431  11.031  0.2950  0.3772 -0.1809
   63TMC2    C6  980   0.404   3.464  11.110  0.2574 -0.7508 -0.1840
   63TMC2     C  981   0.085   3.243  11.262 -0.4124  0.2484 -0.0752
   63TMC2     O  982   0.078   3.212  11.381  0.4334 -0.4897 -0.0310
   63TMC2     H  983   0.295   3.298  11.383 -1.3659 -0.4579 -0.3622
   63TMC2    H1  984   0.105   3.344  11.006 -0.8279 -0.6259  1.4971
   63TMC2    H2  985   0.479   3.533  11.074  0.8071 -1.5333 -0.5309
   63TMC2    C7  986   0.281   3.498  10.900  0.1855  1.4393  0.1970
   63TMC2    C8  987   0.504   3.440  11.336 -0.1025 -0.1210  0.3571
   63TMC2    O1  988   0.163   3.501  10.856 -0.1113 -0.3541  0.9076
   63TMC2    O2  989   0.514   3.391  11.446 -0.5234 -0.6174 -0.0852
   63TMC2    O5  990   0.543   3.559  11.294 -0.1677  0.1709 -0.0042
   63TMC2    H5  991   0.483   3.593  11.225  2.1325  4.9572  0.3497
   64MPD2     C  992   4.362   3.030  11.147  0.8279  0.0749 -0.3423
   64MPD2    C1  993   4.431   3.044  11.030 -0.1824 -0.2204  0.1336
   64MPD2    C2  994   4.548   3.114  11.040  0.0615 -0.4280  0.0449
   64MPD2    C3  995   4.599   3.160  11.160 -0.2512  0.1920  0.2828
   64MPD2    C4  996   4.521   3.154  11.275 -0.0858  0.7605 -0.1468
   64MPD2    C5  997   4.403   3.085  11.267 -0.1670 -0.3040  0.6547
   64MPD2     H  998   4.608   3.140  10.954  0.1540  1.9575  0.8468
   64MPD2    H1  999   4.557   3.187  11.372  0.5424 -0.8016  0.1529
   64MPD2    H2 1000   4.270   2.973  11.148  0.0834  1.2712  0.2869
   64MPD2    H3 1001   4.348   3.060  11.357 -0.8429 -0.8276  0.0983
   64MPD2     N 1002   4.728   3.211  11.162  0.3270  0.5039  0.2105
   64MPD2    H5 1003   0.029   3.216  11.067  1.5249 -1.2842  0.5440
   64MPD2    N1 1004   4.401   2.983  10.907  0.4021 -0.0273 -0.3065
   64MPD2    H7 1005   4.473   2.991  10.836 -0.9522  1.7782 -1.4644
   65TMC2    C1 1006   0.940   3.039  15.792  0.2789 -0.4693  0.3072
   65TMC2    C2 1007   1.071   3.038  15.784  0.3357  0.4840  0.3234
   65TMC2    C3 1008   1.133   3.121  15.698  0.0592  0.3440  0.4025
   65TMC2    C4 1009   0.865   3.129  15.731 -0.5698  0.2305  0.9298
   65TMC2    C5 1010   0.924   3.219  15.642  0.4658  0.0994  0.3779
   65TMC2    C6 1011   1.064   3.217  15.628  0.2191 -0.6179 -0.6857
   65TMC2     C 1012   0.881   2.918  15.839 -0.0649  0.2976 -0.5921
   65TMC2     O 1013   0.957   2.847  15.900 -0.4443 -0.1627 -0.2064
   65TMC2     H 1014   1.135   2.968  15.837  0.6354 -0.5016 -1.3326
   65TMC2    H1 1015   0.756   3.123  15.733 -0.5043 -1.8633 -2.0900
   65TMC2    H2 1016   1.106   3.288  15.559  2.2680  0.8517  2.0766
   65TMC2    C7 1017   0.857   3.347  15.624  0.7014 -0.0386 -0.4368
   65TMC2    C8 1018   1.275   3.137  15.717  0.9808 -0.1699 -0.1508
   65TMC2    O1 1019   0.887   3.414  15.528 -0.1987 -0.1787 -0.3545
   65TMC2    O2 1020   1.309   3.151  15.833  0.1199  0.2976 -0.3451
   65TMC2    O5 1021   1.327   3.201  15.611 -0.4742  0.4116 -0.7985
   65TMC2    H5 1022   1.279   3.193  15.526 -1.1657 -0.6403 -0.3078
   66MPD2     C 1023   0.714   2.693  15.939 -0.7592 -0.0679  0.5029
   66MPD2    C1 1024   0.675   2.774  15.837  0.3914  0.8956  0.4135
   66MPD2    C2 1025   0.561   2.744  15.762  0.3099 -0.2015  0.7923
   66MPD2    C3 1026   0.495   2.624  15.779 -0.0970  0.1827 -0.4668
   66MPD2    C4 1027   0.536   2.547  15.887  0.5689 -1.0724  0.0316
   66MPD2    C5 1028   0.639   2.587  15.969  0.0749  0.0621  0.0864
   66MPD2     H 1029   0.510   2.813  15.696  2.3270  1.9486  1.4620
   66MPD2    H1 1030   0.492   2.451  15.914  0.9528 -1.0976  0.5753
   66MPD2    H2 1031   0.808   2.714  15.989  0.8925 -0.8935 -2.2684
   66MPD2    H3 1032   0.662   2.525  16.055 -3.4783  0.3899  1.2802
   66MPD2     N 1033   0.379   2.586  15.710 -0.2620  0.5324  0.1924
   66MPD2    H5 1034   0.339   2.496  15.735 -0.0851 -0.0066 -1.4562
   66MPD2    N1 1035   0.753   2.890  15.795  0.2246  0.5427  0.3584
   66MPD2    H7 1036   0.719   2.953  15.723 -0.5248  1.0244  1.1301
   67TMC2    C1 1037   1.532   2.053  14.161  0.1806 -0.1460 -0.0013
   67TMC2    C2 1038   1.459   2.155  14.113 -0.2870 -0.2676  0.4021
   67TMC2    C3 1039   1.412   2.236  14.214  1.0747  0.3067 -0.0814
   67TMC2    C4 1040   1.548   2.026  14.294  0.3450  0.2617 -0.2857
   67TMC2    C5 1041   1.497   2.114  14.382 -0.0803  0.2131 -0.0802
   67TMC2    C6 1042   1.410   2.206  14.349  0.1519 -0.7802  0.4546
   67TMC2     C 1043   1.569   1.954  14.060  0.3939  0.7857  0.4368
   67TMC2     O 1044   1.678   1.901  14.074 -0.4626  0.1839  0.0241
   67TMC2     H 1045   1.453   2.188  14.010 -1.2367  1.1418  0.8984
   67TMC2    H1 1046   1.628   1.955  14.314  1.9349  1.5512 -1.9921
   67TMC2    H2 1047   1.398   2.286  14.421 -3.6757 -2.0601  1.2323
   67TMC2    C7 1048   1.495   2.060  14.519  0.4072  0.6509  0.0295
   67TMC2    C8 1049   1.318   2.341  14.173  0.0415  0.7174  0.8963
   67TMC2    O1 1050   1.581   1.977  14.545  0.1287 -0.4186 -0.0787
   67TMC2    O2 1051   1.320   2.380  14.056 -0.0218 -0.2765  0.1737
   67TMC2    O5 1052   1.215   2.336  14.261  0.0702  0.5287 -0.0808
   67TMC2    H5 1053   1.230   2.307  14.354 -0.1126  0.7382  0.0133
   68MPD2     C 1054   1.589   1.794  13.816 -0.0530  0.3336 -0.3803
   68MPD2    C1 1055   1.468   1.845  13.864 -0.4313  0.2600 -0.5771
   68MPD2    C2 1056   1.352   1.813  13.803  0.3396  0.2642 -0.6482
   68MPD2    C3 1057   1.353   1.747  13.686 -0.4114 -0.0593 -0.2711
   68MPD2    C4 1058   1.468   1.693  13.642  0.0369  0.9233  0.0072
   68MPD2    C5 1059   1.584   1.727  13.703  0.0061 -0.3178  0.3996
   68MPD2     H 1060   1.262   1.866  13.833  0.2955  0.1072 -0.5051
   68MPD2    H1 1061   1.480   1.641  13.547 -0.3318 -0.9753  0.9924
   68MPD2    H2 1062   1.684   1.812  13.865  0.2367  1.0976 -1.2112
   68MPD2    H3 1063   1.676   1.683  13.666 -0.7016 -1.0455 -0.4875
   68MPD2     N 1064   1.236   1.718  13.613 -0.0637 -0.1716  0.1634
   68MPD2    H5 1065   1.249   1.662  13.530 -1.1640  1.5603 -1.1694
   68MPD2    N1 1066   1.464   1.922  13.981 -0.0082  0.1505  0.1773
   68MPD2    H7 1067   1.369   1.939  14.015 -0.8362 -1.1781 -1.4824
   69TMC2    C1 1068   2.963   3.565  12.633 -0.8500 -0.1428 -0.1820
   69TMC2    C2 1069   2.853   3.640  12.607 -0.1300 -0.0100 -0.1937
   69TMC2    C3 1070   2.820   3.666  12.480  0.6698  0.1018 -0.5666
   69TMC2    C4 1071   3.050   3.522  12.538 -0.5950 -0.5587 -0.1596
   69TMC2    C5 1072   3.011   3.541  12.409 -0.1306  1.2022  0.4678
   69TMC2    C6 1073   2.894   3.609  12.383  0.0134  0.6386 -0.1469
   69TMC2     C 1074   2.984   3.509  12.764  0.2365 -0.8792  0.2967
   69TMC2     O 1075   2.879   3.465  12.814 -0.5686 -0.0356  0.3750
   69TMC2     H 1076   2.777   3.656  12.682  0.2408  0.3654  0.0998
   69TMC2    H1 1077   3.136   3.462  12.564 -1.0637 -0.0975  2.5169
   69TMC2    H2 1078   2.878   3.628  12.277  2.5983  1.0595 -0.4594
   69TMC2    C7 1079   3.123   3.562  12.324  0.0195 -0.6881  0.1731
   69TMC2    C8 1080   2.728   3.773  12.467 -0.4494 -0.9447  0.5072
   69TMC2    O1 1081   3.235   3.555  12.376  0.0190  0.2367 -0.5913
   69TMC2    O2 1082   2.661   3.799  12.569  0.3065  0.2824 -0.4004
   69TMC2    O5 1083   2.772   3.863  12.378 -0.5400 -0.5277  0.4723
   69TMC2    H5 1084   2.868   3.850  12.362 -0.4112  0.0637  0.7572
   70MPD2     C 1085   3.290   3.494  12.959 -0.1563 -0.8398  0.3258
   70MPD2    C1 1086   3.161   3.464  12.921  0.3486  0.5042  0.0139
   70MPD2    C2 1087   3.086   3.375  12.998 -0.0624 -1.4949  0.4566
   70MPD2    C3 1088   3.125   3.326  13.118  0.5555  1.0235 -0.2791
   70MPD2    C4 1089   3.256   3.364  13.155 -0.8076  0.4850 -0.5825
   70MPD2    C5 1090   3.336   3.444  13.076 -0.3015  0.1085 -0.6823
   70MPD2     H 1091   2.985   3.354  12.965 -0.3409  0.6290 -0.0298
   70MPD2    H1 1092   3.298   3.344  13.253 -2.4908  0.6557  0.1711
   70MPD2    H2 1093   3.354   3.553  12.895  0.4273  0.5745  2.2113
   70MPD2    H3 1094   3.439   3.458  13.105 -0.8762  2.3997  0.2241
   70MPD2     N 1095   3.055   3.250  13.208  0.1315  0.3208  0.1704
   70MPD2    H5 1096   3.094   3.217  13.296 -1.0606  0.0575  0.5974
   70MPD2    N1 1097   3.115   3.520  12.809 -0.7150  0.3982 -0.1754
   70MPD2    H7 1098   3.173   3.588  12.760 -0.4772  0.7347  0.5734
   71TMC2    C1 1099   4.705   3.516   1.501 -0.5582 -1.0804  0.6026
   71TMC2    C2 1100   0.048   3.570   1.596  0.1173 -0.1021 -0.9747
   71TMC2    C3 1101   4.729   3.624   1.702 -0.0059  0.2683  0.2144
   71TMC2    C4 1102   4.565   3.514   1.506  0.0042 -0.6772  0.5056
   71TMC2    C5 1103   4.522   3.592   1.614  0.9505  0.7212 -0.1070
   71TMC2    C6 1104   4.594   3.645   1.710  0.5535 -0.9104 -0.2582
   71TMC2     C 1105   0.051   3.462   1.391  0.2700  0.0828 -0.1506
   71TMC2     O 1106   0.153   3.516   1.358  0.4119  0.3371 -0.6923
   71TMC2     H 1107   0.155   3.560   1.581 -0.2341 -1.6574 -2.4186
   71TMC2    H1 1108   4.499   3.491   1.424  0.4898 -1.6766  0.3922
   71TMC2    H2 1109   4.567   3.706   1.795  2.5603 -1.3167  0.6585
   71TMC2    C7 1110   4.380   3.636   1.613 -0.3867  0.0639 -0.0224
   71TMC2    C8 1111   0.072   3.665   1.819  0.2333 -0.0815  0.5284
   71TMC2    O1 1112   4.321   3.585   1.518  0.3309  0.4280 -0.4035
   71TMC2    O2 1113   0.044   3.758   1.896  0.3477 -0.7583 -0.1214
   71TMC2    O5 1114   0.193   3.609   1.819 -0.1116  0.1822 -0.1112
   71TMC2    H5 1115   0.211   3.529   1.765 -2.1490 -0.9035  0.8120
   72MPD2     C 1116   0.077   3.169   0.984 -0.4939 -0.4857 -0.2177
   72MPD2    C1 1117   0.133   3.289   1.014  0.5341 -0.2369 -0.1843
   72MPD2    C2 1118   0.103   3.354   1.130 -0.2793 -0.1565 -0.0268
   72MPD2    C3 1119   0.018   3.292   1.220  0.1555 -0.2136  1.1169
   72MPD2    C4 1120   4.699   3.173   1.195 -0.3174 -0.4176  0.3928
   72MPD2    C5 1121   4.732   3.115   1.075  0.1214 -0.2738  1.1124
   72MPD2     H 1122   0.140   3.455   1.146 -1.6167  0.3869 -0.3683
   72MPD2    H1 1123   4.637   3.128   1.272 -1.6014 -0.5990 -0.7491
   72MPD2    H2 1124   0.103   3.109   0.898 -1.9223 -0.0112 -0.9724
   72MPD2    H3 1125   4.688   3.016   1.062 -0.5704  0.3588 -1.4301
   72MPD2     N 1126   4.716   3.360   1.336 -0.2874 -0.5445 -0.6468
   72MPD2    H5 1127   4.656   3.304   1.395  0.0480  0.3462  0.5527
   72MPD2    N1 1128   0.219   3.361   0.925 -0.1699 -0.2239  0.1451
   72MPD2    H7 1129   0.233   3.459   0.945 -3.0717  0.6855 -2.3450
   73TMC2    C1 1130   0.227   0.443  14.091  0.2110 -0.2158  0.6374
   73TMC2    C2 1131   0.218   0.555  14.164  0.6774  0.2627 -0.4222
   73TMC2    C3 1132   0.284   0.554  14.287  0.1551  0.4644 -0.3901
   73TMC2    C4 1133   0.304   0.338  14.133  0.0107 -0.5995 -0.0319
   73TMC2    C5 1134   0.387   0.351  14.235 -0.2350  0.1795  1.0649
   73TMC2    C6 1135   0.374   0.458  14.317  0.2832 -0.6919 -0.5256
   73TMC2     C 1136   0.217   0.454  13.949 -0.5347 -0.0103 -0.5855
   73TMC2     O 1137   0.286   0.372  13.886  0.5482 -0.3802 -0.3749
   73TMC2     H 1138   0.151   0.637  14.142 -0.2356  0.2420  2.2744
   73TMC2    H1 1139   0.298   0.247  14.075  3.3605 -0.6091 -0.3436
   73TMC2    H2 1140   0.440   0.471  14.402  1.7383 -1.2764 -1.5666
   73TMC2    C7 1141   0.524   0.333  14.190 -0.0927  0.0385  0.5816
   73TMC2    C8 1142   0.291   0.675  14.365  0.5182 -0.4827  0.2682
   73TMC2    O1 1143   0.611   0.334  14.273 -0.3406 -0.0057 -0.2325
   73TMC2    O2 1144   0.399   0.697  14.409 -0.7280 -0.6330 -0.2965
   73TMC2    O5 1145   0.186   0.754  14.353  0.1553 -0.2470 -0.0088
   73TMC2    H5 1146   0.111   0.696  14.329 -0.1656 -0.2237  0.9295
   74MPD2     C 1147   0.082   0.680  13.502 -0.3283 -0.0162  0.2923
   74MPD2    C1 1148   0.199   0.609  13.537  0.5697 -0.2767  0.3402
   74MPD2    C2 1149   0.214   0.566  13.669 -0.1717  0.3464 -0.1864
   74MPD2    C3 1150   0.123   0.596  13.772 -0.0843  0.1115 -0.5136
   74MPD2    C4 1151   0.013   0.673  13.734  0.1402 -0.2043 -0.1216
   74MPD2    C5 1152   4.729   0.705  13.605 -0.0330 -0.1859 -0.8848
   74MPD2     H 1153   0.309   0.521  13.693  0.7595  2.4315  0.0374
   74MPD2    H1 1154   4.662   0.684  13.799  0.1946  1.0212 -0.2590
   74MPD2    H2 1155   0.069   0.728  13.405 -0.7215 -0.1754  0.2645
   74MPD2    H3 1156   4.643   0.764  13.575 -0.8234 -0.0077  1.7854
   74MPD2     N 1157   0.138   0.560  13.906 -0.1613 -0.3260 -0.7813
   74MPD2    H5 1158   0.074   0.600  13.973 -1.1986 -0.1083 -1.9101
   74MPD2    N1 1159   0.303   0.598  13.446 -0.3204 -0.6123 -0.1867
   74MPD2    H7 1160   0.291   0.647  13.358 -0.5185 -0.6938 -0.2059
   75TMC2    C1 1161   1.020   1.712  13.528  0.5766 -0.1413 -0.2088
   75TMC2    C2 1162   1.060   1.634  13.423 -0.2062  0.3021 -1.1339
   75TMC2    C3 1163   0.967   1.580  13.341  0.4292 -0.5220 -0.4373
   75TMC2    C4 1164   0.891   1.731  13.555 -0.8331  0.3624 -0.2869
   75TMC2    C5 1165   0.795   1.680  13.471  0.2681 -0.6205 -0.0943
   75TMC2    C6 1166   0.832   1.601  13.362 -0.3690 -0.2722 -0.6640
   75TMC2     C 1167   1.110   1.762  13.636  0.4883  0.0322  0.2417
   75TMC2     O 1168   1.060   1.834  13.721 -0.1879  0.4334  0.4783
   75TMC2     H 1169   1.164   1.605  13.418  0.1225  1.1544  0.6668
   75TMC2    H1 1170   0.870   1.790  13.643  1.2597 -2.8219  2.3712
   75TMC2    H2 1171   0.759   1.549  13.302 -0.6731 -0.0582 -0.4754
   75TMC2    C7 1172   0.660   1.734  13.454 -0.1004 -0.2329  0.5489
   75TMC2    C8 1173   0.999   1.489  13.225 -0.1937  0.0295 -0.5391
   75TMC2    O1 1174   0.590   1.677  13.373  0.4381  0.0215  0.0251
   75TMC2    O2 1175   0.910   1.452  13.151  0.0720 -0.7765 -0.6119
   75TMC2    O5 1176   1.087   1.414  13.286 -0.2288 -0.2487  0.1442
   75TMC2    H5 1177   1.152   1.456  13.346  0.6417  0.1974 -1.1002
   76TMC2    C1 1178   3.828   2.654  11.885 -0.6067  0.7784  0.1774
   76TMC2    C2 1179   3.698   2.635  11.870  0.2442  0.2917 -0.4169
   76TMC2    C3 1180   3.644   2.531  11.934  0.3942  0.3089 -0.3815
   76TMC2    C4 1181   3.911   2.566  11.953 -0.0930  0.3626 -1.0812
   76TMC2    C5 1182   3.848   2.458  12.009  0.3593  0.0605  0.1323
   76TMC2    C6 1183   3.714   2.440  12.001  0.2379  0.0142 -0.3405
   76TMC2     C 1184   3.858   2.799  11.876 -0.7305  0.4403  0.5067
   76TMC2     O 1185   3.766   2.878  11.864 -0.0084  0.0684  0.2176
   76TMC2     H 1186   3.634   2.711  11.825  0.8207  0.2608 -1.2783
   76TMC2    H1 1187   4.019   2.575  11.961  0.0468 -1.2730 -0.9997
   76TMC2    H2 1188   3.668   2.358  12.056  1.8338 -0.6470  0.0215
   76TMC2    C7 1189   3.913   2.354  12.092 -0.1231 -0.4260 -0.2856
   76TMC2    C8 1190   3.502   2.532  11.953 -0.2489 -0.2322 -0.0211
   76TMC2    O1 1191   3.846   2.257  12.121 -0.1738 -0.4848 -0.0539
   76TMC2    O2 1192   3.443   2.640  11.973 -0.2157  0.2388 -0.1815
   76TMC2    O5 1193   3.463   2.418  12.003 -0.4855  0.0056  0.0963
   76TMC2    H5 1194   3.511   2.351  11.950 -1.2609  1.5443 -2.5697
   77MPD2     C 1195   4.156   3.171  12.042 -0.0583  0.3582  0.4135
   77MPD2    C1 1196   4.040   3.175  11.976 -0.5312 -0.8287  0.0059
   77MPD2    C2 1197   3.979   3.061  11.926  0.0688 -0.1823 -0.1334
   77MPD2    C3 1198   4.049   2.937  11.937  0.1126  0.1835 -0.7183
   77MPD2    C4 1199   4.176   2.935  11.986 -0.1686  0.0955  0.0722
   77MPD2    C5 1200   4.220   3.047  12.048  0.1958  0.0845  0.1679
   77MPD2     H 1201   3.881   3.068  11.880  0.5541  0.8089 -1.0099
   77MPD2    H1 1202   4.232   2.842  11.988 -1.3645 -0.6667 -1.9323
   77MPD2    H2 1203   4.207   3.253  12.092  0.4486  0.3833 -0.1377
   77MPD2    H3 1204   4.310   3.045  12.108 -0.9418 -1.1683  1.8351
   77MPD2     N 1205   3.993   2.815  11.897  0.2019  0.1072  0.2022
   77MPD2    H5 1206   4.052   2.733  11.897  1.6975  1.1691 -0.3625
   77MPD2    N1 1207   3.978   3.300  11.960  0.2790  0.0034  0.4933
   77MPD2    H7 1208   3.910   3.311  11.886 -0.2044 -1.2653  0.7567
   78TMC2    C1 1209   0.218   3.988   1.780 -0.0281 -0.2271 -0.1617
   78TMC2    C2 1210   0.212   4.048   1.911 -0.5045  0.9552  0.3798
   78TMC2    C3 1211   0.330   4.042   1.979 -0.4204  0.7936 -0.0728
   78TMC2    C4 1212   0.333   3.919   1.738  0.1492  0.2316  0.2927
   78TMC2    C5 1213   0.446   3.925   1.813  0.2767  0.2661  0.1728
   78TMC2    C6 1214   0.449   3.992   1.930  0.5385  0.5378 -0.5487
   78TMC2     C 1215   0.104   4.006   1.698  0.3126 -0.6759  0.4916
   78TMC2     O 1216   0.014   4.068   1.754  1.0588 -0.2295 -0.2030
   78TMC2     H 1217   0.120   4.088   1.952 -0.5844 -0.0340  1.1754
   78TMC2    H1 1218   0.337   3.861   1.646 -1.8364  2.0646 -0.9580
   78TMC2    H2 1219   0.534   4.023   1.990  1.6545 -0.8587 -1.4006
   78TMC2    C7 1220   0.564   3.847   1.782 -0.3660 -1.1351 -0.1877
   78TMC2    C8 1221   0.342   4.128   2.089 -0.8703  0.8819  0.5698
   78TMC2    O1 1222   0.567   3.794   1.670  0.1444  0.0357  0.3471
   78TMC2    O2 1223   0.269   4.225   2.112  0.0328  0.3011 -0.5505
   78TMC2    O5 1224   0.373   4.046   2.190  0.6182 -0.2591 -0.2729
   78TMC2    H5 1225   0.422   3.964   2.165  1.3813 -0.3442  1.4964
   79MPD1     C 1226   4.530   3.879   1.300 -0.1455  0.2449  0.1076
   79MPD1    C1 1227   4.497   3.951   1.416 -0.6909 -0.3634 -0.2359
   79MPD1    C2 1228   4.608   3.978   1.500  0.5822 -0.0482  0.7167
   79MPD1    C3 1229   4.729   3.918   1.488 -0.9192 -0.1993  0.5497
   79MPD1    C4 1230   0.019   3.840   1.373 -0.2606 -0.1193  0.4986
   79MPD1    C5 1231   4.656   3.839   1.280  0.0187  0.0021 -0.6564
   79MPD1     H 1232   4.592   4.046   1.584 -2.1559  0.6179 -0.3315
   79MPD1    H1 1233   0.109   3.783   1.352 -0.1168  0.7735 -1.3598
   79MPD1    H2 1234   4.450   3.868   1.227  0.0386 -0.7221  0.0495
   79MPD1    H3 1235   4.680   3.791   1.186  3.0510  0.3068 -0.0396
   79MPD1     N 1236   0.105   3.929   1.579 -0.5373 -0.6233  0.6985
   79MPD1    H5 1237   0.185   3.874   1.549  0.8903  1.5285  0.5272
   79MPD1    N1 1238   4.373   4.017   1.440 -0.0998 -0.0598  0.0356
   79MPD1    H6 1239   4.296   3.966   1.398 -0.3247  0.3367 -0.0264
   79MPD1    H7 1240   4.359   4.018   1.541 -2.9246  0.7358 -0.3602
   80TMC2    C1 1241   3.085   2.521  12.173  0.7083  0.0650  0.4194
   80TMC2    C2 1242   3.109   2.580  12.054 -0.3046  0.2081 -0.6234
   80TMC2    C3 1243   3.083   2.503  11.952 -0.1216  0.4832  0.1793
   80TMC2    C4 1244   3.046   2.388  12.194 -0.2480 -0.5139  0.0519
   80TMC2    C5 1245   3.026   2.315  12.084 -0.8487  0.1444  0.2206
   80TMC2    C6 1246   3.041   2.372  11.956  0.0381 -0.0809 -0.1995
   80TMC2     C 1247   3.119   2.592  12.297  0.2747  0.4787 -0.4509
   80TMC2     O 1248   3.205   2.681  12.285  0.0939 -0.0619  0.2660
   80TMC2     H 1249   3.149   2.681  12.053  2.1527 -0.7884 -1.7685
   80TMC2    H1 1250   3.041   2.343  12.292 -1.0025 -0.6672 -0.0568
   80TMC2    H2 1251   3.026   2.318  11.863 -0.6797 -0.3751  0.0860
   80TMC2    C7 1252   2.977   2.178  12.084  1.2621  0.4876 -0.5899
   80TMC2    C8 1253   3.114   2.552  11.821 -0.5948  0.2276 -0.1139
   80TMC2    O1 1254   2.968   2.127  11.974 -0.3493  0.1831 -0.1709
   80TMC2    O2 1255   3.143   2.481  11.724 -0.4008  0.1310 -0.3546
   80TMC2    O5 1256   3.106   2.687  11.819 -0.9516 -0.1736 -0.4540
   80TMC2    H5 1257   3.067   2.718  11.903 -1.4912 -0.0589 -0.7439
   81MPD2     C 1258   3.141   2.690  12.567  0.4768 -0.0710 -0.2677
   81MPD2    C1 1259   3.028   2.635  12.512 -0.2671  0.5766 -0.0776
   81MPD2    C2 1260   2.910   2.663  12.567  0.1155  0.1344  0.5377
   81MPD2    C3 1261   2.895   2.741  12.683  0.1821 -0.6802  0.2325
   81MPD2    C4 1262   3.012   2.786  12.748 -0.7450 -0.3206 -0.3783
   81MPD2    C5 1263   3.136   2.759  12.688  0.5041  0.0474  0.3649
   81MPD2     H 1264   2.827   2.619  12.513  0.8498 -1.3594  0.6293
   81MPD2    H1 1265   3.009   2.840  12.842 -0.2893 -1.2098  0.1429
   81MPD2    H2 1266   3.241   2.666  12.533  1.1157 -0.4604  1.8890
   81MPD2    H3 1267   3.228   2.800  12.727  0.2510  1.5226 -0.5866
   81MPD2     N 1268   2.766   2.759  12.741  0.0441  0.0696 -0.3330
   81MPD2    H5 1269   2.767   2.794  12.836  0.5730  1.3403 -0.8000
   81MPD2    N1 1270   3.028   2.559  12.391  0.0738  0.1199  0.0395
   81MPD2    H7 1271   2.948   2.500  12.368 -0.5726 -0.0270  2.6861
   82TMC2    C1 1272   1.299   1.809  11.434 -0.1671 -1.2339  0.2876
   82TMC2    C2 1273   1.315   1.855  11.560 -0.0129  0.5732 -0.3092
   82TMC2    C3 1274   1.326   1.774  11.668  0.2106  0.5775 -0.1052
   82TMC2    C4 1275   1.268   1.673  11.407  0.0131 -0.1215  0.7832
   82TMC2    C5 1276   1.290   1.600  11.520 -0.3359 -0.2019  0.0026
   82TMC2    C6 1277   1.310   1.638  11.650 -0.2457 -0.1124  0.7687
   82TMC2     C 1278   1.293   1.907  11.322  0.4535  0.3272 -0.4617
   82TMC2     O 1279   1.267   2.023  11.351  0.1008 -0.4621 -0.1475
   82TMC2     H 1280   1.317   1.963  11.568 -0.3359  0.5800 -0.3355
   82TMC2    H1 1281   1.217   1.640  11.317  0.2818  0.8045  0.2843
   82TMC2    H2 1282   1.304   1.572  11.735  2.0507  0.8384  1.6766
   82TMC2    C7 1283   1.255   1.461  11.516 -0.3104  1.2694 -0.2724
   82TMC2    C8 1284   1.356   1.830  11.795 -0.6330 -0.4999 -0.4002
   82TMC2    O1 1285   1.230   1.404  11.625  0.0553 -0.5738 -0.2279
   82TMC2    O2 1286   1.384   1.950  11.807  0.2948 -0.4629  0.0034
   82TMC2    O5 1287   1.286   1.759  11.890 -0.4920 -0.3457  0.0096
   82TMC2    H5 1288   1.229   1.687  11.856 -0.9294  0.0376 -0.0668
   83MPD2     C 1289   1.321   2.030  10.835 -0.0113 -0.3169 -0.3180
   83MPD2    C1 1290   1.253   2.085  10.937  0.1247  1.1333  0.0413
   83MPD2    C2 1291   1.259   2.033  11.062 -0.5588  0.7886 -0.3694
   83MPD2    C3 1292   1.321   1.907  11.081 -0.1497  0.2010  0.6323
   83MPD2    C4 1293   1.387   1.851  10.969  0.0275 -0.1401  0.6439
   83MPD2    C5 1294   1.388   1.914  10.848 -0.0271  0.1269  0.1559
   83MPD2     H 1295   1.205   2.079  11.144  0.4834  0.5623  0.4440
   83MPD2    H1 1296   1.440   1.756  10.972 -2.3471 -1.5163 -0.5690
   83MPD2    H2 1297   1.323   2.070  10.734  0.0125 -1.0539 -0.6106
   83MPD2    H3 1298   1.438   1.864  10.766  2.1081  1.7437  0.4474
   83MPD2     N 1299   1.335   1.844  11.208 -0.4410 -0.0312 -0.5269
   83MPD2    H5 1300   1.384   1.755  11.217 -3.7871 -1.8216 -0.2182
   83MPD2    N1 1301   1.179   2.203  10.905  0.4017 -0.6578 -0.1629
   83MPD2    H7 1302   1.180   2.226  10.806 -1.7969 -0.1327 -0.0623
   84TMC2    C1 1303   1.852   1.418  10.439  0.2374  0.9682  0.3272
   84TMC2    C2 1304   1.763   1.389  10.336  0.2907  0.2280 -0.8526
   84TMC2    C3 1305   1.821   1.358  10.214 -0.6626 -0.2197  0.0476
   84TMC2    C4 1306   1.991   1.418  10.418  0.6749 -0.5411 -0.3162
   84TMC2    C5 1307   2.035   1.382  10.296 -0.5556  0.6900  0.4912
   84TMC2    C6 1308   1.953   1.355  10.190  0.7001 -0.1698  0.5269
   84TMC2     C 1309   1.812   1.468  10.572  0.1515  0.3482 -0.1862
   84TMC2     O 1310   1.908   1.518  10.633  0.0767 -0.0071 -0.0710
   84TMC2     H 1311   1.655   1.396  10.342  0.1715 -0.5979 -2.0332
   84TMC2    H1 1312   2.064   1.443  10.494  0.1092 -1.0114  0.3839
   84TMC2    H2 1313   1.985   1.331  10.089  1.0438  0.2778  0.5279
   84TMC2    C7 1314   2.171   1.412  10.252  0.7249  0.5287 -0.1258
   84TMC2    C8 1315   1.735   1.301  10.106  0.0731  0.5040  0.2526
   84TMC2    O1 1316   2.183   1.475  10.149 -0.3108  0.4584  0.1347
   84TMC2    O2 1317   1.771   1.292   9.990  0.3221 -0.0302 -0.2970
   84TMC2    O5 1318   1.673   1.198  10.173  0.5941  0.1361  0.4832
   84TMC2    H5 1319   1.682   1.197  10.270  0.2783 -0.9715  0.4993
   85TMC2    C1 1320   3.101   3.738  16.001  0.0602  0.5146 -0.0598
   85TMC2    C2 1321   2.995   3.743  15.914  0.6498 -0.6025  0.4311
   85TMC2    C3 1322   3.021   3.815  15.806 -0.2211  0.1606  0.2486
   85TMC2    C4 1323   3.218   3.804  15.977 -0.6584 -0.3250 -0.0867
   85TMC2    C5 1324   3.241   3.870  15.861 -0.5581 -0.2625 -0.5564
   85TMC2    C6 1325   3.141   3.878  15.771  0.4705  0.2389 -0.2975
   85TMC2     C 1326   3.099   3.661  16.123  0.5577 -0.2245 -0.3283
   85TMC2     O 1327   3.183   3.684  16.209  0.1210 -0.0947 -0.3381
   85TMC2     H 1328   2.894   3.709  15.938 -0.1963  0.3491 -1.8214
   85TMC2    H1 1329   3.284   3.819  16.061  1.2035 -1.3973 -1.3455
   85TMC2    H2 1330   3.154   3.927  15.675 -0.4771  1.3570  0.1408
   85TMC2    C7 1331   3.371   3.863  15.807  0.6569 -0.4086  0.5207
   85TMC2    C8 1332   2.911   3.832  15.714 -0.1055  0.7014  0.7861
   85TMC2    O1 1333   3.460   3.849  15.890  0.3830  0.5809  0.1769
   85TMC2    O2 1334   2.836   3.737  15.700  0.4763  0.4710  0.2070
   85TMC2    O5 1335   2.873   3.959  15.708 -0.1150  0.3872 -0.7005
   85TMC2    H5 1336   2.946   4.024  15.720  0.3517  0.2192 -2.7043
   86MPD2     C 1337   2.976   3.247  16.402 -0.0308  0.5364  0.2915
   86MPD2    C1 1338   2.912   3.245  16.278 -0.3785 -0.7542  0.2818
   86MPD2    C2 1339   2.934   3.341  16.189 -0.0377  0.5891 -0.3269
   86MPD2    C3 1340   3.020   3.446  16.208  0.8258  0.5303 -0.4975
   86MPD2    C4 1341   3.094   3.446  16.322 -0.4171  0.0914 -0.5425
   86MPD2    C5 1342   3.061   3.352  16.422 -0.4865 -0.2833 -0.0434
   86MPD2     H 1343   2.879   3.345  16.095 -0.7029  2.9076  0.1584
   86MPD2    H1 1344   3.160   3.525  16.355 -1.8262  1.8017 -1.8889
   86MPD2    H2 1345   2.961   3.169  16.476  1.2614 -2.0006 -2.1051
   86MPD2    H3 1346   3.118   3.363  16.514  1.6464 -2.6175 -1.0724
   86MPD2     N 1347   3.026   3.545  16.111  0.2338  0.0321 -0.0060
   86MPD2    H5 1348   2.973   3.528  16.026 -0.2183  2.7483 -0.2763
   86MPD2    N1 1349   2.814   3.150  16.254  0.5337  1.0095  0.0551
   86MPD2    H7 1350   2.768   3.151  16.164 -1.6555 -1.8791  1.1643
   87TMC2    C1 1351   4.538   2.412   0.532 -0.0840 -0.2851 -0.4300
   87TMC2    C2 1352   4.473   2.395   0.651 -0.9315  0.1681  0.2399
   87TMC2    C3 1353   4.343   2.441   0.661  0.1200 -0.3120  0.0844
   87TMC2    C4 1354   4.471   2.466   0.423  0.2598 -0.3346 -0.6160
   87TMC2    C5 1355   4.336   2.495   0.437 -0.1650 -0.1349  0.5217
   87TMC2    C6 1356   4.269   2.480   0.560  0.2275  0.0862  0.7169
   87TMC2     C 1357   4.673   2.350   0.516 -0.1560  0.5026 -0.2324
   87TMC2     O 1358   4.705   2.320   0.400  0.1715  0.2818  0.0778
   87TMC2     H 1359   4.516   2.325   0.721 -0.3228  0.3081  0.0114
   87TMC2    H1 1360   4.529   2.481   0.333 -0.5886  4.0366 -0.4444
   87TMC2    H2 1361   4.163   2.491   0.579  0.4877 -0.5381  2.5188
   87TMC2    C7 1362   4.281   2.575   0.320  0.3926  0.2476  0.1412
   87TMC2    C8 1363   4.276   2.403   0.777  0.0660  0.5819 -0.2852
   87TMC2    O1 1364   4.357   2.614   0.234 -0.3959  0.5909 -0.1340
   87TMC2    O2 1365   4.317   2.320   0.858  0.2805 -0.2071  0.1154
   87TMC2    O5 1366   4.199   2.510   0.808 -0.6617  0.6628  0.0012
   87TMC2    H5 1367   4.206   2.577   0.736  0.7328 -0.0761 -0.5442
   88MPD2     C 1368   3.943   2.612   0.203 -0.6275  0.7426  0.7604
   88MPD2    C1 1369   4.068   2.655   0.226  0.3655 -0.5429 -0.0066
   88MPD2    C2 1370   4.120   2.763   0.154 -0.5555 -0.2270 -0.0840
   88MPD2    C3 1371   4.039   2.821   0.056  0.3119 -0.5850 -1.0983
   88MPD2    C4 1372   3.921   2.760   0.026  0.2515  0.2652 -0.4437
   88MPD2    C5 1373   3.875   2.662   0.102  0.5633  0.6762  0.2986
   88MPD2     H 1374   4.216   2.797   0.191 -1.8126  1.4703  1.6062
   88MPD2    H1 1375   3.855   2.801  17.685  0.9153  2.5733  0.2261
   88MPD2    H2 1376   3.901   2.524   0.248 -0.5986  0.5236  0.3575
   88MPD2    H3 1377   3.781   2.614   0.078  0.9531  0.4429 -0.7556
   88MPD2     N 1378   4.096   2.933  17.722  0.9507  0.0816 -0.9531
   88MPD2    H5 1379   4.062   2.960  17.630 -1.1747 -0.4342 -0.3300
   88MPD2    N1 1380   4.145   2.587   0.322  0.1969  0.2119 -0.1248
   88MPD2    H7 1381   4.091   2.541   0.395  2.1906  0.4183  1.4888
   89TMC2    C1 1382   1.993   0.018   1.958  0.5000  0.6194 -0.5318
   89TMC2    C2 1383   2.126   0.036   1.985 -0.1514 -0.5436 -0.0239
   89TMC2    C3 1384   2.170   0.163   2.020 -0.0897 -0.2824  0.0794
   89TMC2    C4 1385   1.906   0.129   1.951  0.1795  0.2551  0.8433
   89TMC2    C5 1386   1.959   0.253   1.966  1.3700  0.4512  0.1225
   89TMC2    C6 1387   2.086   0.275   2.005 -0.3655 -0.0805 -0.1999
   89TMC2     C 1388   1.944   4.617   1.956  1.0663  0.7683  0.5272
   89TMC2     O 1389   2.031   4.534   1.927 -0.0331  0.0743 -0.0236
   89TMC2     H 1390   2.190   4.683   1.991 -0.9652 -1.0793  0.8350
   89TMC2    H1 1391   1.811   0.113   1.901 -0.0036 -0.4787  1.4330
   89TMC2    H2 1392   2.114   0.375   2.037 -0.2801  0.4956 -2.1242
   89TMC2    C7 1393   1.869   0.360   1.939  0.0327  0.2626  0.2748
   89TMC2    C8 1394   2.290   0.181   2.094 -0.4328  0.5049 -0.3466
   89TMC2    O1 1395   1.746   0.345   1.956 -0.4192 -0.2278  0.1627
   89TMC2    O2 1396   2.392   0.118   2.071  0.0593 -0.0057  0.3873
   89TMC2    O5 1397   2.251   0.225   2.218  0.2695  0.0877  0.2966
   89TMC2    H5 1398   2.161   0.264   2.219  0.4321  0.4497  0.7890
   90MPD2     C 1399   1.618   4.217   1.902 -0.2728  0.6049  0.2568
   90MPD2    C1 1400   1.542   4.326   1.924  0.2413  1.0312 -0.2401
   90MPD2    C2 1401   1.601   4.452   1.940  0.3642 -0.0427 -0.1984
   90MPD2    C3 1402   1.743   4.466   1.942 -0.5449  0.4554 -0.7282
   90MPD2    C4 1403   1.814   4.351   1.916 -0.0800  0.2348  0.3378
   90MPD2    C5 1404   1.753   4.227   1.905 -0.7591 -0.5735 -0.0920
   90MPD2     H 1405   1.545   4.543   1.956 -1.2862 -0.6586 -2.4749
   90MPD2    H1 1406   1.921   4.330   1.916 -0.5248 -2.0095 -3.3864
   90MPD2    H2 1407   1.579   4.119   1.874  1.0541  0.0006  0.5080
   90MPD2    H3 1408   1.812   4.142   1.873 -0.5235 -0.5061  0.1593
   90MPD2     N 1409   1.808   4.593   1.973  0.5820 -0.3407  0.5950
   90MPD2    H5 1410   1.753   4.670   2.010  0.8976  0.1957 -0.0401
   90MPD2    N1 1411   1.398   4.320   1.929 -0.1157  1.0794  0.1449
   90MPD2    H7 1412   1.359   4.413   1.938 -1.8019  0.1364  2.4382
   91TMC2    C1 1413   2.837   4.396  16.541 -0.3696 -0.3795  0.0487
   91TMC2    C2 1414   2.896   4.390  16.660 -0.1573 -0.2346  0.9557
   91TMC2    C3 1415   2.828   4.315  16.750 -0.0684  0.0793 -0.0089
   91TMC2    C4 1416   2.724   4.324  16.503  0.6960 -0.1012  0.1366
   91TMC2    C5 1417   2.671   4.244  16.595 -0.2529  0.0657  0.6902
   91TMC2    C6 1418   2.724   4.236  16.716 -0.0497  0.0198 -0.9760
   91TMC2     C 1419   2.897   4.455  16.424 -0.2768 -0.2407  0.1624
   91TMC2     O 1420   2.823   4.478  16.331 -0.3899 -0.0089 -0.2424
   91TMC2     H 1421   2.983   4.452  16.680  0.3208  0.1222 -2.2000
   91TMC2    H1 1422   2.683   4.333  16.404 -2.2667 -0.7405  1.3202
   91TMC2    H2 1423   2.679   4.164  16.784 -0.4305  1.3928  0.2281
   91TMC2    C7 1424   2.556   4.159  16.555  0.0694 -0.1404 -0.4697
   91TMC2    C8 1425   2.887   4.324  16.882 -0.5666 -0.2876  0.6474
   91TMC2    O1 1426   2.533   4.064  16.628 -0.1287  0.5586 -0.7980
   91TMC2    O2 1427   3.008   4.326  16.903  0.1509 -0.0271 -0.4714
   91TMC2    O5 1428   2.785   4.317  16.973  0.3359  0.3709 -0.2458
   91TMC2    H5 1429   2.696   4.323  16.934  0.1569 -1.7393 -0.1710
   92MPD2     C 1430   3.084   4.490  16.192 -0.1558 -0.5294  0.5452
   92MPD2    C1 1431   3.128   4.470  16.324 -0.3060 -0.6636  0.2108
   92MPD2    C2 1432   3.265   4.452  16.343  0.0265 -0.2153  0.2335
   92MPD2    C3 1433   3.362   4.453  16.245  0.1240 -0.4414 -0.0165
   92MPD2    C4 1434   3.313   4.481  16.120 -0.5805  0.1495 -0.5418
   92MPD2    C5 1435   3.184   4.512  16.094 -0.1275  0.6692 -0.6228
   92MPD2     H 1436   3.293   4.425  16.444 -1.2569  1.2359  0.9799
   92MPD2    H1 1437   3.377   4.479  16.032 -0.6431 -0.9032 -0.5603
   92MPD2    H2 1438   2.985   4.521  16.161 -1.3475 -2.2778  2.6117
   92MPD2    H3 1439   3.143   4.548  16.000  1.8511  1.3660 -1.2148
   92MPD2     N 1440   3.495   4.417  16.279  0.4112  0.1259  0.4022
   92MPD2    H5 1441   3.513   4.386  16.374  0.9738  1.6526  0.7966
   92MPD2    N1 1442   3.038   4.460  16.432 -0.0863  0.8909 -0.1589
   92MPD2    H7 1443   3.087   4.436  16.517 -2.0338  0.2005  0.7634
   93TMC2    C1 1444   0.864   4.733  13.774  0.0308 -0.5341  0.0215
   93TMC2    C2 1445   0.815   4.719  13.652  0.4508  0.6801 -0.5930
   93TMC2    C3 1446   0.876   0.046  13.547 -0.5733 -0.0409  0.7604
   93TMC2    C4 1447   0.985   0.057  13.798 -0.2099 -0.5326  0.5072
   93TMC2    C5 1448   1.042   0.114  13.689  0.0002  0.7981 -0.2863
   93TMC2    C6 1449   0.990   0.113  13.564  0.0026 -0.7684 -0.0713
   93TMC2     C 1450   0.795   4.705  13.895 -0.4478 -0.5546 -0.0359
   93TMC2     O 1451   0.862   4.692  13.995  0.8274 -0.7543 -0.4025
   93TMC2     H 1452   0.730   4.654  13.636 -0.8316  2.4038 -0.8753
   93TMC2    H1 1453   1.028   0.079  13.896  2.0424 -0.5866 -0.4789
   93TMC2    H2 1454   1.045   0.156  13.482  3.0301 -0.0996  2.2820
   93TMC2    C7 1455   1.164   0.187  13.726 -0.2549 -0.1923  0.5357
   93TMC2    C8 1456   0.839   0.016  13.409  0.6033 -1.1451  0.7310
   93TMC2    O1 1457   1.231   0.150  13.824  0.0074  0.3215 -0.7455
   93TMC2    O2 1458   0.916   0.032  13.317 -0.3154  0.4085  0.0901
   93TMC2    O5 1459   0.703   0.014  13.388  0.4548 -0.2943 -0.5825
   93TMC2    H5 1460   0.660   0.023  13.476  0.0144 -1.9095 -0.6250
   94MPD2     C 1461   0.593   4.723  14.123 -0.3460 -0.4808 -0.1866
   94MPD2    C1 1462   0.561   4.704  13.986 -0.7898 -0.5556  0.1941
   94MPD2    C2 1463   0.429   4.704  13.955 -0.1615 -0.0779  1.0118
   94MPD2    C3 1464   0.336   4.698  14.060  0.0241  0.5353  0.5530
   94MPD2    C4 1465   0.368   4.711  14.198  0.1437  0.5922 -0.7071
   94MPD2    C5 1466   0.505   0.001  14.225  0.2634  0.0555  0.7386
   94MPD2     H 1467   0.395   4.677  13.855  0.2501 -1.8316  1.3516
   94MPD2    H1 1468   0.299   4.713  14.281 -0.7608 -1.0607 -1.4238
   94MPD2    H2 1469   0.697   0.004  14.146 -0.6442 -0.6530  1.2602
   94MPD2    H3 1470   0.539   0.014  14.327  0.2809 -1.2139  0.9048
   94MPD2     N 1471   0.198   4.689  14.037 -0.0516  1.2588 -0.4091
   94MPD2    H5 1472   0.148   4.709  14.123  1.6509 -0.6065  1.0132
   94MPD2    N1 1473   0.661   4.707  13.881  0.8847 -0.1419 -0.2158
   94MPD2    H7 1474   0.619   4.707  13.789  0.0032 -0.1286  0.1918
   95TMC2    C1 1475   0.216   2.029  16.358 -0.2235 -0.1447 -0.7599
   95TMC2    C2 1476   0.293   1.926  16.395  0.3081 -1.1941  0.2456
   95TMC2    C3 1477   0.349   1.939  16.519  0.0066  0.1021  0.8742
   95TMC2    C4 1478   0.185   2.134  16.433 -0.5926 -0.5139 -0.2008
   95TMC2    C5 1479   0.235   2.137  16.561 -0.8511  0.0602 -0.2532
   95TMC2    C6 1480   0.325   2.039  16.601 -0.4186  0.3358 -0.6767
   95TMC2     C 1481   0.190   2.054  16.221  1.6047  0.2958  0.1315
   95TMC2     O 1482   0.156   2.166  16.188 -0.6775  0.5026  0.6635
   95TMC2     H 1483   0.319   1.846  16.327  0.1017 -1.5340  0.5658
   95TMC2    H1 1484   0.118   2.204  16.385  0.5142 -0.2100 -1.2808
   95TMC2    H2 1485   0.382   2.060  16.691 -0.7223  0.3660 -0.4888
   95TMC2    C7 1486   0.227   2.256  16.653 -0.0777  1.1166  0.4486
   95TMC2    C8 1487   0.428   1.833  16.570 -0.4521  0.0621 -0.1697
   95TMC2    O1 1488   0.261   2.239  16.771  0.4712  0.2264 -0.4754
   95TMC2    O2 1489   0.549   1.839  16.572 -0.1457  0.1232  0.0552
   95TMC2    O5 1490   0.350   1.719  16.545  0.0917  0.0648 -0.3895
   95TMC2    H5 1491   0.261   1.748  16.572  0.3174  1.9157 -1.6541
   96MPD2     C 1492   0.062   1.905  15.746 -0.0406 -1.0755  0.2625
   96MPD2    C1 1493   0.085   2.030  15.796  0.9591  0.2533  0.2771
   96MPD2    C2 1494   0.129   2.034  15.925  0.3403  0.5424  0.3078
   96MPD2    C3 1495   0.141   1.923  16.008  0.6890  0.0910  0.0677
   96MPD2    C4 1496   0.098   1.805  15.956 -0.1406 -0.1172 -0.0128
   96MPD2    C5 1497   0.067   1.795  15.826 -0.4494 -0.2981  0.2743
   96MPD2     H 1498   0.132   2.135  15.963  0.7348  0.4915  0.4126
   96MPD2    H1 1499   0.087   1.711  16.008  2.7031  0.3542  1.4617
   96MPD2    H2 1500   0.044   1.880  15.642  2.2473 -0.7344 -0.2234
   96MPD2    H3 1501   0.043   1.695  15.792 -2.7429  0.3733 -0.0412
   96MPD2     N 1502   0.173   1.936  16.145 -0.5068  0.0360  0.4974
   96MPD2    H5 1503   0.173   1.848  16.197 -1.5914  1.1147  2.3067
   96MPD2    N1 1504   0.074   2.133  15.707  0.3744  0.3107 -0.6649
   96MPD2    H7 1505   0.025   2.116  15.619 -1.4183 -1.0644  0.6202
   97TMC2    C1 1506   2.707   4.195   0.116 -0.3358  0.8895  0.0948
   97TMC2    C2 1507   2.593   4.177   0.042  0.0469  0.0745  1.0904
   97TMC2    C3 1508   2.574   4.259  17.668 -0.6834 -0.0388  0.2057
   97TMC2    C4 1509   2.796   4.297   0.099  0.5058  0.6011  0.5487
   97TMC2    C5 1510   2.770   4.379  17.727  0.5202  0.0744  0.1584
   97TMC2    C6 1511   2.664   4.359  17.646 -0.1657 -1.0301 -0.2838
   97TMC2     C 1512   2.694   4.148   0.259  0.3466  0.0866  0.7804
   97TMC2     O 1513   2.606   4.062   0.272 -0.1724 -0.3514 -0.0891
   97TMC2     H 1514   2.513   4.108   0.067 -0.4688  0.2679 -0.0021
   97TMC2    H1 1515   2.881   4.310   0.165 -0.5525  0.2451  1.9654
   97TMC2    H2 1516   2.638   4.431  17.569 -1.3431 -1.1354  0.0179
   97TMC2    C7 1517   2.867   4.475  17.707 -1.2246  0.1995 -0.1571
   97TMC2    C8 1518   2.449   4.274  17.606  0.5846  0.4756  0.6135
   97TMC2    O1 1519   2.947   4.498   0.067  0.1597 -0.4267 -0.1228
   97TMC2    O2 1520   2.432   4.374  17.538  0.2309  0.7166  0.0295
   97TMC2    O5 1521   2.437   4.147  17.547 -0.0319  0.3721 -0.0622
   97TMC2    H5 1522   2.465   4.068  17.598  2.4407  1.6082  0.5002
   98MPD2     C 1523   2.694   4.245   0.773  0.3309 -0.0264  0.0603
   98MPD2    C1 1524   2.638   4.144   0.698  0.4865  0.4462  0.3906
   98MPD2    C2 1525   2.660   4.141   0.560 -0.2714  0.0702  0.1959
   98MPD2    C3 1526   2.753   4.212   0.492 -1.0229  0.1621  0.1980
   98MPD2    C4 1527   2.825   4.297   0.575  0.6087  0.0515 -1.0246
   98MPD2    C5 1528   2.795   4.316   0.706  0.2934 -0.2842 -0.7936
   98MPD2     H 1529   2.597   4.067   0.512 -1.4982  2.3244 -1.6418
   98MPD2    H1 1530   2.911   4.350   0.537  0.1049  1.7220  0.1601
   98MPD2    H2 1531   2.663   4.257   0.876 -0.5002  0.9066 -0.2948
   98MPD2    H3 1532   2.840   4.390   0.771 -0.9843 -0.6233  0.4935
   98MPD2     N 1533   2.770   4.212   0.354 -0.4355 -0.4919 -0.4252
   98MPD2    H5 1534   2.839   4.277   0.316  0.4394 -0.2013  1.6485
   98MPD2    N1 1535   2.543   4.069   0.765  0.5486  0.1193 -0.1517
   98MPD2    H7 1536   2.517   4.098   0.858 -0.2653  0.4356 -0.4758
   99TMC2    C1 1537   0.414   0.212   2.248 -0.1309  0.1246 -0.0472
   99TMC2    C2 1538   0.449   0.186   2.378  0.2462  0.1481  0.1106
   99TMC2    C3 1539   0.363   0.229   2.476  0.3226 -0.4255  0.1664
   99TMC2    C4 1540   0.301   0.263   2.211 -1.2592  0.2445  0.1086
   99TMC2    C5 1541   0.213   0.298   2.310  0.4933 -0.3891 -0.1089
   99TMC2    C6 1542   0.244   0.295   2.441  0.1250  0.0955 -0.1698
   99TMC2     C 1543   0.490   0.135   2.150 -0.0423  0.0843  0.0180
   99TMC2     O 1544   0.537   0.029   2.186 -0.0106 -0.0609  0.6101
   99TMC2     H 1545   0.541   0.136   2.407 -0.3677 -1.0491 -0.0064
   99TMC2    H1 1546   0.269   0.249   2.108 -0.0118 -3.5264  0.2152
   99TMC2    H2 1547   0.192   0.356   2.514  1.9281 -0.5745  1.7161
   99TMC2    C7 1548   0.080   0.344   2.282 -0.4996 -0.9740 -0.5323
   99TMC2    C8 1549   0.412   0.222   2.605 -0.5029 -0.1239 -0.9212
   99TMC2    O1 1550   0.008   0.314   2.381  0.3768 -0.0693  0.5200
   99TMC2    O2 1551   0.528   0.256   2.623  0.5132 -0.5888 -0.3798
   99TMC2    O5 1552   0.313   0.248   2.687  0.1032  0.1394 -0.1995
   99TMC2    H5 1553   0.233   0.197   2.661  0.6398 -0.1063 -1.3735
  100MPD2     C 1554   0.645   0.043   1.914 -0.0132  0.3345 -0.0479
  100MPD2    C1 1555   0.564   0.156   1.909 -0.2422 -0.1712  0.8153
  100MPD2    C2 1556   0.562   0.243   1.797 -0.7621  0.8402 -0.8300
  100MPD2    C3 1557   0.634   0.204   1.689 -0.1959 -0.0311  0.5546
  100MPD2    C4 1558   0.708   0.091   1.695 -0.2302 -0.9077  0.5885
  100MPD2    C5 1559   0.712   0.009   1.803  0.0493 -0.3511 -0.6216
  100MPD2     H 1560   0.503   0.334   1.805 -1.8332  0.2457 -2.1762
  100MPD2    H1 1561   0.763   0.061   1.607 -1.2061  0.8517 -0.6065
  100MPD2    H2 1562   0.651   4.701   1.992  2.3626 -1.2012 -1.7286
  100MPD2    H3 1563   0.759   4.648   1.783  0.8115 -0.2510  0.6810
  100MPD2     N 1564   0.632   0.286   1.570  0.6972 -0.1523  0.4967
  100MPD2    H5 1565   0.598   0.381   1.578  2.3668  0.8110 -4.0110
  100MPD2    N1 1566   0.494   0.199   2.028  0.3695 -0.2936  0.3117
  100MPD2    H7 1567   0.439   0.284   2.021 -1.0800 -1.4259 -1.9090
  101TMC2    C1 1568   1.643   2.709  12.993 -0.6800 -0.2516  0.1377
  101TMC2    C2 1569   1.540   2.770  13.061  0.0488 -0.0723  0.2167
  101TMC2    C3 1570   1.532   2.905  13.055  0.3277  0.1418 -0.4012
  101TMC2    C4 1571   1.742   2.778  12.931 -0.0753 -0.2919  0.0072
  101TMC2    C5 1572   1.734   2.908  12.939 -0.0276 -0.0864  0.2845
  101TMC2    C6 1573   1.629   2.982  12.992  0.5767  0.1730  0.3534
  101TMC2     C 1574   1.657   2.567  13.010  0.7083  0.0802  0.6664
  101TMC2     O 1575   1.592   2.518  13.098  0.3460 -0.3492  0.1798
  101TMC2     H 1576   1.462   2.712  13.107  0.7917  0.1229  1.7111
  101TMC2    H1 1577   1.829   2.732  12.885  0.1448 -2.6671  2.8388
  101TMC2    H2 1578   1.641   3.089  13.002 -2.2590  0.4447  0.6694
  101TMC2    C7 1579   1.845   2.974  12.866 -0.7791 -0.0998 -0.0235
  101TMC2    C8 1580   1.432   2.973  13.139 -0.4066 -0.1976  0.0501
  101TMC2    O1 1581   1.901   3.071  12.919 -0.7075  0.7679  0.0969
  101TMC2    O2 1582   1.448   3.086  13.176  0.5779 -0.2758  0.0048
  101TMC2    O5 1583   1.320   2.900  13.160 -0.0716 -0.3688  0.5279
  101TMC2    H5 1584   1.307   2.842  13.082 -2.2716  0.6876  0.1133
  102MPD2     C 1585   1.851   2.333  12.806 -0.2008 -0.3587 -0.0767
  102MPD2    C1 1586   1.771   2.371  12.913  0.3900 -0.2175 -0.0894
  102MPD2    C2 1587   1.739   2.283  13.010 -0.1100 -0.2256 -0.1832
  102MPD2    C3 1588   1.777   2.146  13.002  0.0757  0.7816 -0.1784
  102MPD2    C4 1589   1.849   2.109  12.886  1.0276 -0.4508 -0.3326
  102MPD2    C5 1590   1.879   2.197  12.787 -0.3681  0.1983  0.7183
  102MPD2     H 1591   1.689   2.321  13.098 -2.2594  2.2888 -2.5168
  102MPD2    H1 1592   1.876   2.006  12.866  0.5601 -0.8368  1.0219
  102MPD2    H2 1593   1.872   2.405  12.728  0.4192 -3.3017 -2.6353
  102MPD2    H3 1594   1.930   2.164  12.698  1.5456  0.9025  1.5549
  102MPD2     N 1595   1.751   2.059  13.106  0.5789 -0.2339 -0.1333
  102MPD2    H5 1596   1.707   2.101  13.187 -0.9494  0.6970 -1.4604
  102MPD2    N1 1597   1.733   2.506  12.910  0.1688 -0.0278 -0.3484
  102MPD2    H7 1598   1.761   2.561  12.829  2.4053  0.4060  0.7269
  103TMC2    C1 1599   4.698   2.476  12.288  0.1047 -0.3541  0.5652
  103TMC2    C2 1600   0.049   2.534  12.192  0.2834  0.0988 -0.2273
  103TMC2    C3 1601   0.154   2.613  12.240  0.7131  0.4996  0.5454
  103TMC2    C4 1602   4.711   2.507  12.422 -0.3303  0.5790  0.8476
  103TMC2    C5 1603   0.084   2.590  12.465  0.3755 -0.2063  0.3888
  103TMC2    C6 1604   0.180   2.634  12.373  0.5303 -0.5581  0.5084
  103TMC2     C 1605   4.560   2.446  12.237  0.3617  0.2416  0.1965
  103TMC2     O 1606   4.526   2.499  12.130 -0.9723 -0.4175 -0.4113
  103TMC2     H 1607   0.024   2.525  12.087 -0.4428  2.5061 -0.2757
  103TMC2    H1 1608   4.656   2.458  12.502  2.3474  2.5228  3.8598
  103TMC2    H2 1609   0.270   2.686  12.404 -1.5472  2.3503  1.6381
  103TMC2    C7 1610   0.103   2.611  12.606 -0.6164  0.5742 -0.2074
  103TMC2    C8 1611   0.216   2.693  12.138  0.1799  0.5923 -0.3607
  103TMC2    O1 1612   0.038   2.535  12.678  0.5131 -0.4240  0.3023
  103TMC2    O2 1613   0.220   2.659  12.019 -0.4220  0.2658  0.0380
  103TMC2    O5 1614   0.300   2.778  12.188 -0.2999  0.4345  0.1911
  103TMC2    H5 1615   0.269   2.806  12.276  0.4474 -0.6339  0.7859
  104MPD2     C 1616   4.316   2.186  12.353 -0.1845  0.5097 -0.2676
  104MPD2    C1 1617   4.363   2.302  12.289  0.4556 -0.4676  0.7434
  104MPD2    C2 1618   4.270   2.372  12.209  0.2550  0.6308 -0.5330
  104MPD2    C3 1619   4.142   2.318  12.194 -0.6737 -0.1786 -0.2358
  104MPD2    C4 1620   4.106   2.206  12.262 -0.4509 -0.2900 -0.0471
  104MPD2    C5 1621   4.194   2.141  12.341 -0.4966 -0.1509 -0.3855
  104MPD2     H 1622   4.282   2.468  12.161 -0.5014  0.3393 -1.3259
  104MPD2    H1 1623   4.008   2.159  12.258 -0.7322  0.2170  0.9763
  104MPD2    H2 1624   4.388   2.135  12.416 -1.2749 -0.9134 -0.1734
  104MPD2    H3 1625   4.161   2.043  12.377  0.5602 -0.7746 -1.1329
  104MPD2     N 1626   4.044   2.390  12.112 -0.0913 -0.0139  0.0500
  104MPD2    H5 1627   4.085   2.475  12.075 -0.4776  0.7441  1.3707
  104MPD2    N1 1628   4.492   2.355  12.312 -0.2891  0.4790 -0.4501
  104MPD2    H7 1629   4.552   2.311  12.381  1.5173  2.3546 -0.8470
  105TMC2    C1 1630   0.825   2.095   0.224 -0.4486 -0.3139  0.7337
  105TMC2    C2 1631   0.786   2.166   0.110 -0.2340  0.0301  0.1228
  105TMC2    C3 1632   0.654   2.213   0.112  0.0270 -0.5531  0.1865
  105TMC2    C4 1633   0.744   2.075   0.331  0.0559  0.6798 -0.0250
  105TMC2    C5 1634   0.622   2.140   0.327 -0.1536  0.0167 -0.0072
  105TMC2    C6 1635   0.571   2.210   0.222  1.2819  0.8480  0.3169
  105TMC2     C 1636   0.947   2.024   0.230 -0.1150 -0.1773  0.7009
  105TMC2     O 1637   0.945   1.947   0.325 -0.2711 -0.2136 -0.1236
  105TMC2     H 1638   0.837   2.166   0.015  0.1097 -2.8558  0.2978
  105TMC2    H1 1639   0.769   2.018   0.420  1.1165  0.8817 -0.1966
  105TMC2    H2 1640   0.475   2.260   0.223  0.9153  0.1522 -0.2766
  105TMC2    C7 1641   0.573   2.176   0.456 -0.2369 -0.1347  0.3431
  105TMC2    C8 1642   0.603   2.282   0.002  0.4836  0.3466 -0.3754
  105TMC2    O1 1643   0.654   2.202   0.542 -0.0626  0.5708  0.4964
  105TMC2    O2 1644   0.480   2.287  17.717 -0.0087 -0.2346 -0.0332
  105TMC2    O5 1645   0.706   2.334  17.664  0.0114 -0.4091 -0.1772
  105TMC2    H5 1646   0.790   2.331  17.715  1.0576  0.5658 -1.8536
  106MPD2     C 1647   1.404   1.881   0.078 -0.7995 -0.0165  0.1242
  106MPD2    C1 1648   1.359   1.969  17.718 -0.4735 -0.1039  0.2846
  106MPD2    C2 1649   1.236   2.025   0.004  0.8545  0.2713  0.2790
  106MPD2    C3 1650   1.169   2.013   0.119  0.0107 -0.4156 -0.1565
  106MPD2    C4 1651   1.222   1.940   0.220 -0.2020  0.7768  0.3257
  106MPD2    C5 1652   1.344   1.880   0.198  0.0067  0.0422 -0.3258
  106MPD2     H 1653   1.192   2.066  17.649 -0.6275 -0.0567  0.8638
  106MPD2    H1 1654   1.179   1.937   0.319  1.5284  1.6794  1.0994
  106MPD2    H2 1655   1.509   1.853   0.082 -0.5989  0.8679  1.0923
  106MPD2    H3 1656   1.393   1.834   0.283 -0.3784 -0.8064 -0.5597
  106MPD2     N 1657   1.037   2.062   0.132 -0.7026 -0.6378 -0.4315
  106MPD2    H5 1658   1.004   2.136   0.071  1.0157  1.3866  1.1062
  106MPD2    N1 1659   1.420   2.000  17.596  0.1453 -0.1973  0.2916
  106MPD2    H7 1660   1.366   2.041  17.520  1.2781  0.7301 -0.0158
  107TMC2    C1 1661   1.721   1.741  11.497 -0.2238  0.1589 -0.4177
  107TMC2    C2 1662   1.814   1.830  11.452  0.3345  0.0065 -0.2295
  107TMC2    C3 1663   1.838   1.835  11.320 -0.4703  0.0983 -0.0245
  107TMC2    C4 1664   1.659   1.656  11.411  0.1897 -0.4960 -0.2001
  107TMC2    C5 1665   1.692   1.656  11.280  0.2975 -0.1463  0.5414
  107TMC2    C6 1666   1.781   1.744  11.235  0.1020 -0.0009  0.0263
  107TMC2     C 1667   1.699   1.725  11.639 -0.3448  0.5358 -0.2766
  107TMC2     O 1668   1.643   1.619  11.670 -0.1357 -0.2194  0.3534
  107TMC2     H 1669   1.862   1.900  11.520 -1.9795  2.5276 -1.1648
  107TMC2    H1 1670   1.581   1.585  11.435 -0.3278  0.2248  0.2342
  107TMC2    H2 1671   1.805   1.738  11.130  0.2173 -0.6003  0.0813
  107TMC2    C7 1672   1.596   1.592  11.186  0.3934 -0.7016 -0.4488
  107TMC2    C8 1673   1.936   1.931  11.278 -0.6257  0.1936  0.2851
  107TMC2    O1 1674   1.486   1.572  11.235 -0.0535 -0.2615 -0.8570
  107TMC2    O2 1675   2.017   1.980  11.355  0.2322 -0.5259  0.7573
  107TMC2    O5 1676   1.874   1.996  11.175  0.2219 -0.3335 -0.1327
  107TMC2    H5 1677   1.800   1.946  11.135 -0.6216 -2.2297  3.8123
  108MPD2     C 1678   1.757   1.979  11.895  0.2248 -0.2053 -0.1616
  108MPD2    C1 1679   1.727   1.853  11.846 -0.1839 -0.1030 -0.2076
  108MPD2    C2 1680   1.691   1.747  11.929  0.0580 -0.5352  0.2502
  108MPD2    C3 1681   1.675   1.766  12.065 -0.5264 -0.3540 -0.1218
  108MPD2    C4 1682   1.710   1.891  12.117 -0.6842  0.0611 -0.1681
  108MPD2    C5 1683   1.747   1.995  12.034 -0.4439  0.0609 -0.3650
  108MPD2     H 1684   1.674   1.647  11.891 -2.3093 -0.0168 -0.0629
  108MPD2    H1 1685   1.690   1.910  12.222  3.1303 -0.0762  0.6110
  108MPD2    H2 1686   1.773   2.062  11.827  0.9346 -0.9999 -0.9621
  108MPD2    H3 1687   1.763   2.096  12.069 -0.0285 -1.5066  3.9063
  108MPD2     N 1688   1.606   1.673  12.149  0.2637  0.0749 -0.1018
  108MPD2    H5 1689   1.607   1.692  12.249  0.7054  0.3939 -0.1682
  108MPD2    N1 1690   1.724   1.841  11.712 -0.5779 -0.0193 -0.1937
  108MPD2    H7 1691   1.733   1.927  11.660 -0.2105 -1.2535 -2.1508
  109TMC2    C1 1692   1.430   3.566   0.413  0.7032 -0.1170 -0.3566
  109TMC2    C2 1693   1.426   3.526   0.278  0.3623 -0.0318  0.3767
  109TMC2    C3 1694   1.547   3.525   0.206  0.8780 -0.0391 -0.3064
  109TMC2    C4 1695   1.551   3.564   0.482  0.4887  0.4965  0.0797
  109TMC2    C5 1696   1.668   3.551   0.404  0.0435  0.2714 -0.2769
  109TMC2    C6 1697   1.667   3.533   0.268  0.5679 -0.4880 -0.2329
  109TMC2     C 1698   1.310   3.608   0.471  0.5093 -0.3693  0.0318
  109TMC2     O 1699   1.223   3.649   0.392  0.5500  0.3087  0.0474
  109TMC2     H 1700   1.333   3.523   0.223  0.2496  1.8708  0.4559
  109TMC2    H1 1701   1.560   3.597   0.585 -0.2472  2.5462 -0.4966
  109TMC2    H2 1702   1.755   3.534   0.206 -0.0177 -1.5407 -1.0839
  109TMC2    C7 1703   1.785   3.513   0.477  0.0649  0.7409  0.2775
  109TMC2    C8 1704   1.535   3.538   0.065  0.4197 -1.2157 -0.7551
  109TMC2    O1 1705   1.894   3.550   0.432 -0.1813  0.3347 -0.4251
  109TMC2    O2 1706   1.421   3.565   0.012  0.4006  0.2090  0.1499
  109TMC2    O5 1707   1.636   3.471   0.004 -0.5649  0.7139  0.2127
  109TMC2    H5 1708   1.694   3.422   0.066 -0.1507  0.8629 -0.0575
  110MPD2     C 1709   1.022   3.761   0.865 -0.2806  0.2302  0.3070
  110MPD2    C1 1710   1.111   3.671   0.913 -0.4144 -0.1728  0.6275
  110MPD2    C2 1711   1.207   3.626   0.821  0.5145  0.5039  0.4051
  110MPD2    C3 1712   1.213   3.667   0.690  0.1140  0.7692  0.4838
  110MPD2    C4 1713   1.116   3.765   0.645 -0.5101 -0.7100 -0.5719
  110MPD2    C5 1714   1.026   3.805   0.736 -0.0249 -0.0518  0.2060
  110MPD2     H 1715   1.296   3.578   0.859 -0.2846 -0.0768  1.5351
  110MPD2    H1 1716   1.097   3.804   0.545  1.8933  4.0664  0.8613
  110MPD2    H2 1717   0.939   3.781   0.933  0.0514 -1.6322  1.2626
  110MPD2    H3 1718   0.952   3.879   0.708  0.8917  0.8053  0.0537
  110MPD2     N 1719   1.312   3.619   0.603  0.6221 -0.0223  0.5641
  110MPD2    H5 1720   1.382   3.560   0.647 -0.1646 -0.1733  1.6309
  110MPD2    N1 1721   1.104   3.629   1.050 -0.1811  0.0748  0.0102
  110MPD2    H7 1722   1.026   3.657   1.109 -1.2640  0.8992 -1.8242
  111TMC2    C1 1723   2.532   3.754  11.532  0.2153  0.5943  0.5285
  111TMC2    C2 1724   2.597   3.676  11.448 -0.1988 -0.4275  0.2532
  111TMC2    C3 1725   2.698   3.589  11.496 -0.7373 -0.7003 -0.0645
  111TMC2    C4 1726   2.552   3.755  11.667  0.5373  0.5947  0.1027
  111TMC2    C5 1727   2.649   3.665  11.713 -0.1286 -0.3401  0.1413
  111TMC2    C6 1728   2.725   3.583  11.634  0.9450 -0.1811  0.3958
  111TMC2     C 1729   2.407   3.808  11.485  0.0771  0.0025  0.3024
  111TMC2     O 1730   2.394   3.845  11.371  0.5300  0.0768  0.2152
  111TMC2     H 1731   2.569   3.674  11.344  1.6791  1.1376 -0.2865
  111TMC2    H1 1732   2.483   3.813  11.727  0.0128 -0.0752  0.1432
  111TMC2    H2 1733   2.812   3.524  11.660 -0.6371 -1.9020  1.7288
  111TMC2    C7 1734   2.665   3.653  11.860  0.3281 -0.5651  0.8219
  111TMC2    C8 1735   2.761   3.486  11.416 -0.1760 -0.9856  0.0370
  111TMC2    O1 1736   2.702   3.547  11.905 -0.3949  0.4825 -0.2898
  111TMC2    O2 1737   2.785   3.383  11.480 -0.6599  0.2517 -0.0259
  111TMC2    O5 1738   2.716   3.501  11.292 -0.1195  0.0192  0.1301
  111TMC2    H5 1739   2.705   3.589  11.250 -0.5885  1.0499  2.4228
  112MPD2     C 1740   1.897   3.837  11.523  0.5745  0.4743 -0.3011
  112MPD2    C1 1741   1.983   3.916  11.459 -0.1814  0.4480  0.5249
  112MPD2    C2 1742   2.120   3.893  11.468  0.7169 -0.5032  0.1421
  112MPD2    C3 1743   2.169   3.795  11.548  0.1392 -0.5335  0.3693
  112MPD2    C4 1744   2.076   3.726  11.627 -0.5617  0.2017  0.1931
  112MPD2    C5 1745   1.940   3.752  11.621 -0.3857 -0.3396 -0.3552
  112MPD2     H 1746   2.185   3.953  11.406  0.0118  0.7862  0.6497
  112MPD2    H1 1747   2.109   3.654  11.701  0.0780  0.5319  0.2276
  112MPD2    H2 1748   1.791   3.851  11.508  0.9265  1.2696 -2.0710
  112MPD2    H3 1749   1.865   3.704  11.682 -0.8574  0.7610 -0.0615
  112MPD2     N 1750   2.306   3.776  11.568  0.7601  0.1748  0.4918
  112MPD2    H5 1751   2.322   3.708  11.642 -0.1620  0.7952  1.2614
  112MPD2    N1 1752   1.949   4.019  11.373 -0.7178  0.1972 -0.0649
  112MPD2    H7 1753   2.033   4.069  11.344 -0.9451 -0.5651 -2.0200
  113TMC2    C1 1754   4.121   0.992   0.974 -0.1498 -0.2228 -0.9149
  113TMC2    C2 1755   3.994   0.992   1.037 -0.2181  0.2723  0.4373
  113TMC2    C3 1756   3.947   0.876   1.084  0.5909  0.1015  0.9568
  113TMC2    C4 1757   4.199   0.880   0.968  1.0148  0.2238  0.7006
  113TMC2    C5 1758   4.136   0.766   1.009  0.7041  0.1208  1.0147
  113TMC2    C6 1759   4.018   0.760   1.072  0.7297 -0.4713  0.0887
  113TMC2     C 1760   4.162   1.108   0.895  0.6005  0.2256  0.8736
  113TMC2     O 1761   4.108   1.214   0.924  0.1218  0.0324 -0.0610
  113TMC2     H 1762   3.923   1.072   1.023 -0.7487  0.1160  2.3246
  113TMC2    H1 1763   4.301   0.884   0.932  0.3647  2.1016 -0.9549
  113TMC2    H2 1764   3.973   0.666   1.100 -3.5992  1.9176  1.1601
  113TMC2    C7 1765   4.202   0.643   0.964 -0.7119 -0.1853 -0.7090
  113TMC2    C8 1766   3.843   0.869   1.187  0.1214 -0.1529 -0.7724
  113TMC2    O1 1767   4.271   0.653   0.860  0.1757  0.0730 -0.2119
  113TMC2    O2 1768   3.790   0.764   1.225 -0.0370 -0.0692  0.1016
  113TMC2    O5 1769   3.825   0.991   1.234  0.4225 -0.1515 -0.3302
  113TMC2    H5 1770   3.877   1.068   1.203 -2.6762  2.2464  0.4226
  114MPD2     C 1771   4.408   1.342   0.511  0.0983 -0.4359  0.0315
  114MPD2    C1 1772   4.352   1.399   0.630 -1.0229  0.3493 -0.0405
  114MPD2    C2 1773   4.298   1.309   0.726  0.2128 -0.1578  0.2245
  114MPD2    C3 1774   4.292   1.171   0.698  0.1711 -1.0300 -0.2837
  114MPD2    C4 1775   4.343   1.127   0.582 -0.8090 -0.4252  0.5746
  114MPD2    C5 1776   4.406   1.207   0.487 -0.0163  0.2738 -0.2942
  114MPD2     H 1777   4.260   1.347   0.820 -1.2343  0.6277 -0.6717
  114MPD2    H1 1778   4.329   1.022   0.556 -0.0672 -0.2186 -0.6759
  114MPD2    H2 1779   4.445   1.403   0.430 -0.7299 -0.5757 -0.4599
  114MPD2    H3 1780   4.437   1.159   0.395 -0.4568  1.6392 -1.1648
  114MPD2     N 1781   4.230   1.071   0.782 -0.8249 -0.4702 -0.4341
  114MPD2    H5 1782   4.246   0.976   0.749  1.1847 -0.7330  1.3058
  114MPD2    N1 1783   4.350   1.537   0.670 -0.0919  0.2236  0.5066
  114MPD2    H7 1784   4.295   1.556   0.754 -0.4250 -0.3683  0.4285
  115TMC2    C1 1785   0.778   4.010   0.331 -0.4673  0.2878  0.5679
  115TMC2    C2 1786   0.872   4.034   0.428 -0.0987 -1.1475  0.6812
  115TMC2    C3 1787   0.925   4.163   0.441 -0.1500  0.7125 -0.0260
  115TMC2    C4 1788   0.748   4.111   0.245 -0.0981 -0.6244 -0.4242
  115TMC2    C5 1789   0.815   4.233   0.255  0.4096  0.2543  0.1022
  115TMC2    C6 1790   0.907   4.264   0.349 -0.2411 -0.7582  0.2057
  115TMC2     C 1791   0.729   3.876   0.300  0.4857  0.7334  1.2003
  115TMC2     O 1792   0.666   3.856   0.194  0.1176  0.2437  0.3076
  115TMC2     H 1793   0.899   3.950   0.490  3.8585  0.4943  1.1403
  115TMC2    H1 1794   0.677   4.093   0.165 -0.3589 -0.0198 -0.3324
  115TMC2    H2 1795   0.941   4.365   0.366 -0.4658 -0.7017  0.3271
  115TMC2    C7 1796   0.791   4.332   0.152  0.0847  0.4531  0.1298
  115TMC2    C8 1797   1.013   4.177   0.556  0.4114 -0.6468  0.1451
  115TMC2    O1 1798   0.695   4.318   0.079  0.5612  0.0212  0.0301
  115TMC2    O2 1799   1.007   4.100   0.653  0.6360 -0.2996  0.1020
  115TMC2    O5 1800   1.110   4.270   0.532  0.0687  0.2051  0.0590
  115TMC2    H5 1801   1.101   4.297   0.438 -1.7869 -2.1273 -0.4320
  116MPD2     C 1802   0.593   3.383   0.383  0.6484 -0.3729 -0.1337
  116MPD2    C1 1803   0.615   3.457   0.270 -0.3230 -0.1997 -0.2666
  116MPD2    C2 1804   0.655   3.587   0.278  0.4025  0.3354 -0.1483
  116MPD2    C3 1805   0.683   3.649   0.396 -0.2570 -0.6107  0.0274
  116MPD2    C4 1806   0.659   3.571   0.512 -0.1610 -0.2309 -0.1779
  116MPD2    C5 1807   0.621   3.442   0.501 -0.5280 -0.0069 -0.2945
  116MPD2     H 1808   0.684   3.633   0.184  1.8568 -1.2839 -0.5088
  116MPD2    H1 1809   0.669   3.610   0.613 -1.0557 -2.2161  0.6827
  116MPD2    H2 1810   0.556   3.281   0.388  1.9070 -0.7335  1.8986
  116MPD2    H3 1811   0.604   3.386   0.593  2.5654 -0.3352  0.0581
  116MPD2     N 1812   0.726   3.786   0.408 -0.3119  0.6725  0.0255
  116MPD2    H5 1813   0.749   3.828   0.497 -1.1669  0.9622  0.1104
  116MPD2    N1 1814   0.612   3.409   0.142 -0.1480  0.4962  0.1862
  116MPD2    H7 1815   0.610   3.481   0.070  1.1297  0.4437  0.0981
  117TMC2    C1 1816   4.454   0.232  14.358  0.3952  0.1704 -0.0198
  117TMC2    C2 1817   4.566   0.154  14.360  0.6262 -0.3797 -0.5331
  117TMC2    C3 1818   4.684   0.209  14.401 -0.1849  0.5873 -0.7771
  117TMC2    C4 1819   4.460   0.360  14.408 -0.4913  0.6619 -0.1966
  117TMC2    C5 1820   4.582   0.418  14.440  0.0915 -0.3137  0.4629
  117TMC2    C6 1821   4.696   0.342  14.436  0.5763 -0.6135 -0.4055
  117TMC2     C 1822   4.332   0.166  14.320 -0.2746 -0.0636 -0.0278
  117TMC2     O 1823   4.318   0.046  14.306 -0.3888 -0.1504  0.1182
  117TMC2     H 1824   4.558   0.054  14.319 -0.8609 -0.7875  0.7478
  117TMC2    H1 1825   4.370   0.420  14.401 -1.2751 -0.6805 -1.7180
  117TMC2    H2 1826   0.055   0.396  14.450  0.0577  0.3372 -0.6247
  117TMC2    C7 1827   4.599   0.557  14.407  0.8817  0.4049 -0.0866
  117TMC2    C8 1828   0.062   0.124  14.373  0.4096  0.6729  0.2480
  117TMC2    O1 1829   4.712   0.586  14.372 -0.5548 -0.1052  0.4569
  117TMC2    O2 1830   0.066   0.049  14.277 -0.4353 -0.2976  0.2792
  117TMC2    O5 1831   0.171   0.170  14.438 -0.1496 -0.5572  0.2294
  117TMC2    H5 1832   0.153   0.226  14.516 -1.3552 -0.4997 -0.1003
  118MPD2     C 1833   4.368   0.842  14.423  0.4668 -0.2323 -0.4752
  118MPD2    C1 1834   4.478   0.770  14.384  0.5748 -0.5303  0.4081
  118MPD2    C2 1835   4.550   0.819  14.280 -0.0683 -0.3680 -0.4298
  118MPD2    C3 1836   4.526   0.943  14.222  0.4981  0.0157 -0.1029
  118MPD2    C4 1837   4.419   1.016  14.272  0.5744 -0.2416  0.3739
  118MPD2    C5 1838   4.338   0.964  14.374 -0.1534 -0.4353  0.1837
  118MPD2     H 1839   4.636   0.761  14.253 -0.4743 -0.3528 -1.7466
  118MPD2    H1 1840   4.395   1.117  14.239  1.1152 -0.8690 -1.9223
  118MPD2    H2 1841   4.306   0.804  14.503 -0.9369 -0.7909 -1.8066
  118MPD2    H3 1842   4.261   1.026  14.418  0.0648  0.0215 -0.0771
  118MPD2     N 1843   4.603   0.985  14.116 -0.6942  0.0278 -0.3216
  118MPD2    H5 1844   4.586   1.078  14.079 -0.0402 -0.6852 -2.4198
  118MPD2    N1 1845   4.495   0.638  14.435 -0.0566 -0.1079 -0.0463
  118MPD2    H7 1846   4.420   0.601  14.492  0.5087  0.4499  1.0457
  119TMC2    C1 1847   2.990   1.984  13.409  0.4458  0.6601 -0.3978
  119TMC2    C2 1848   3.028   1.987  13.278 -0.7737  0.2264 -0.1935
  119TMC2    C3 1849   3.025   1.872  13.201  0.3497 -0.0795 -0.7237
  119TMC2    C4 1850   2.943   1.868  13.463 -0.1630 -0.0040 -0.1205
  119TMC2    C5 1851   2.942   1.756  13.385 -0.1990  0.1544 -0.8184
  119TMC2    C6 1852   2.992   1.751  13.257  0.0264  0.9258 -0.4651
  119TMC2     C 1853   2.996   2.092  13.499 -0.0572 -0.5712 -0.1144
  119TMC2     O 1854   2.995   2.051  13.614  0.2796  0.2140  0.1595
  119TMC2     H 1855   3.050   2.084  13.235  0.8089 -0.0984 -0.1061
  119TMC2    H1 1856   2.912   1.864  13.567  0.6579  1.7302  0.1864
  119TMC2    H2 1857   2.970   1.666  13.193 -1.1176  1.4130 -0.7222
  119TMC2    C7 1858   2.888   1.636  13.442 -0.9844  0.4606  0.2977
  119TMC2    C8 1859   3.048   1.887  13.056 -0.5382 -0.0313  0.2172
  119TMC2    O1 1860   2.884   1.533  13.376  0.3132 -0.0467  0.2988
  119TMC2    O2 1861   3.040   1.991  12.995  0.0889  0.2846 -0.0048
  119TMC2    O5 1862   3.115   1.777  13.026  0.7633 -0.1888 -0.5803
  119TMC2    H5 1863   3.110   1.698  13.083 -0.4358  2.5551  3.1101
  120MPD2     C 1864   3.105   2.561  13.669 -0.4920 -0.1626 -0.3138
  120MPD2    C1 1865   3.076   2.446  13.737 -0.3234 -0.7105 -0.1976
  120MPD2    C2 1866   3.047   2.329  13.668  0.9513 -0.0313  0.4026
  120MPD2    C3 1867   3.058   2.326  13.534  0.4379  0.3691 -0.1142
  120MPD2    C4 1868   3.090   2.443  13.466  0.6478  0.4524 -0.4555
  120MPD2    C5 1869   3.112   2.556  13.531  0.2249 -0.2269 -0.2315
  120MPD2     H 1870   3.025   2.241  13.727  1.5460  0.0917  0.8080
  120MPD2    H1 1871   3.102   2.440  13.358  0.8585 -0.3489 -0.4135
  120MPD2    H2 1872   3.118   2.656  13.719 -0.4829  0.0381 -0.6974
  120MPD2    H3 1873   3.126   2.649  13.477 -2.0196  0.9670  1.2711
  120MPD2     N 1874   3.023   2.215  13.448  0.3972  0.1132 -0.4048
  120MPD2    H5 1875   3.033   2.235  13.349  0.5638  1.9952 -0.0164
  120MPD2    N1 1876   3.087   2.455  13.880  0.6390 -0.6169 -0.1493
  120MPD2    H7 1877   3.067   2.547  13.918 -0.5728  0.4909 -3.4340
  121TMC2    C1 1878   4.200   3.637  14.214  0.1734 -0.0538 -0.1169
  121TMC2    C2 1879   4.125   3.741  14.163 -0.1636  0.3257  0.0910
  121TMC2    C3 1880   3.993   3.708  14.131 -0.0426  0.4909 -0.3597
  121TMC2    C4 1881   4.152   3.513  14.240  0.1994  0.6263 -0.1399
  121TMC2    C5 1882   4.012   3.497  14.227  0.1338 -0.0137  0.7299
  121TMC2    C6 1883   3.933   3.587  14.163 -0.2397 -0.4980 -0.0077
  121TMC2     C 1884   4.342   3.644  14.201  0.7907 -0.0915  0.1952
  121TMC2     O 1885   4.406   3.566  14.269  0.0851 -0.1717 -0.1433
  121TMC2     H 1886   4.161   3.838  14.132 -0.3804  0.7461  1.1583
  121TMC2    H1 1887   4.213   3.430  14.274  0.9190 -0.1814 -3.4375
  121TMC2    H2 1888   3.828   3.572  14.140  0.1062 -0.2987 -1.7177
  121TMC2    C7 1889   3.958   3.363  14.227  0.4621  0.0356 -0.3745
  121TMC2    C8 1890   3.920   3.818  14.054  0.1860  0.4542 -0.0746
  121TMC2    O1 1891   4.040   3.272  14.216  0.6471 -0.0179 -0.2554
  121TMC2    O2 1892   3.931   3.933  14.088  0.4852 -0.3085  0.2878
  121TMC2    O5 1893   3.826   3.777  13.972 -0.4137  0.1339  0.2128
  121TMC2    H5 1894   3.854   3.685  13.955 -1.0249  0.6127 -3.4316
  122MPD2     C 1895   4.589   3.616  14.035 -0.5378  0.0280 -0.3670
  122MPD2    C1 1896   4.490   3.703  14.006  0.5105  0.1587 -0.5433
  122MPD2    C2 1897   4.490   3.767  13.890  0.3774 -0.3078 -0.5580
  122MPD2    C3 1898   4.581   3.738  13.785 -0.1665 -0.7962  0.5777
  122MPD2    C4 1899   4.681   3.653  13.819  0.0547  0.5993 -0.2872
  122MPD2    C5 1900   4.682   3.589  13.941 -0.4517 -0.9594 -0.1145
  122MPD2     H 1901   4.405   3.831  13.873 -0.2127 -0.9807 -0.1609
  122MPD2    H1 1902   0.009   3.603  13.746 -0.9454  1.5584 -1.7723
  122MPD2    H2 1903   4.599   3.580  14.137 -0.1587  0.5195 -0.2285
  122MPD2    H3 1904   0.027   3.516  13.959 -0.9235 -1.0153  1.6732
  122MPD2     N 1905   4.571   3.781  13.650  0.0631  0.1175  0.1654
  122MPD2    H5 1906   4.652   3.753  13.596  0.1265  0.2062  0.2135
  122MPD2    N1 1907   4.380   3.723  14.093 -0.3818  0.0249  0.0851
  122MPD2    H7 1908   4.319   3.797  14.060 -0.8643 -0.3025  0.2585
  123TMC2    C1 1909   2.526   3.297  10.464 -0.1419  0.7599 -0.5702
  123TMC2    C2 1910   2.594   3.401  10.517  0.4686 -0.1166  0.1590
  123TMC2    C3 1911   2.637   3.498  10.434  0.9994  0.3562  0.4188
  123TMC2    C4 1912   2.487   3.298  10.331 -0.1896  0.7549  1.1167
  123TMC2    C5 1913   2.523   3.409  10.255 -0.8873  0.1507 -0.5166
  123TMC2    C6 1914   2.596   3.508  10.308  0.4819  0.7350  0.4377
  123TMC2     C 1915   2.497   3.189  10.557 -0.7437  0.2723 -0.3715
  123TMC2     O 1916   2.490   3.208  10.679 -0.5705 -0.5088 -1.2219
  123TMC2     H 1917   2.601   3.405  10.625 -1.8949 -1.4526  0.3477
  123TMC2    H1 1918   2.416   3.221  10.304  0.5409  1.4639 -2.8269
  123TMC2    H2 1919   2.626   3.596  10.251  0.2908  0.2582 -0.4054
  123TMC2    C7 1920   2.491   3.399  10.114 -0.0778 -0.0573  0.2516
  123TMC2    C8 1921   2.740   3.589  10.486 -0.2123  0.6200  0.0589
  123TMC2    O1 1922   2.427   3.299  10.084 -0.6685 -0.1283 -0.0456
  123TMC2    O2 1923   2.756   3.613  10.605 -0.5406  0.1216 -0.3241
  123TMC2    O5 1924   2.822   3.626  10.384  0.1685  0.3658  0.2210
  123TMC2    H5 1925   2.805   3.567  10.307  1.6522 -0.1674  0.2909
  124MPD2     C 1926   2.264   2.732  10.618  0.5554 -0.1259 -0.2346
  124MPD2    C1 1927   2.295   2.752  10.486 -0.5594  0.9023 -0.2022
  124MPD2    C2 1928   2.376   2.860  10.454 -0.2566  0.3855 -0.2117
  124MPD2    C3 1929   2.409   2.958  10.544  0.0608 -0.0384  0.0100
  124MPD2    C4 1930   2.365   2.942  10.675  0.0334  0.0851  0.8734
  124MPD2    C5 1931   2.299   2.825  10.706 -0.6816  0.1396 -0.0783
  124MPD2     H 1932   2.398   2.897  10.354  0.5960 -0.6643 -0.4163
  124MPD2    H1 1933   2.395   3.016  10.748  2.0331  1.0180 -0.8752
  124MPD2    H2 1934   2.214   2.639  10.641 -3.7055  1.8438 -1.5294
  124MPD2    H3 1935   2.278   2.811  10.812 -0.3822  0.1179 -0.0215
  124MPD2     N 1936   2.472   3.072  10.490 -0.5844 -0.2272  0.1528
  124MPD2    H5 1937   2.492   3.065  10.390  2.0424  2.5027  0.4937
  124MPD2    N1 1938   2.223   2.673  10.397 -0.2209 -0.4551 -0.3544
  124MPD2    H7 1939   2.142   2.626  10.437 -0.1160 -0.5100 -0.2040
  125TMC2    C1 1940   3.207   4.332  10.074 -0.0030  0.6985  0.3126
  125TMC2    C2 1941   3.282   4.233  10.129  0.5424  0.2463  0.6293
  125TMC2    C3 1942   3.317   4.127  10.055 -0.2857 -0.5136  0.0666
  125TMC2    C4 1943   3.169   4.333   9.945  0.2772 -0.2239  0.6686
  125TMC2    C5 1944   3.209   4.220   9.870 -0.0399 -0.1815 -0.3735
  125TMC2    C6 1945   3.270   4.112   9.931  0.3737  0.2779 -0.5559
  125TMC2     C 1946   3.144   4.415  10.168 -0.0736  0.6548 -0.3401
  125TMC2     O 1947   3.209   4.440  10.272 -0.5429 -0.1951  0.5532
  125TMC2     H 1948   3.294   4.230  10.237 -1.2639  1.6689  0.8612
  125TMC2    H1 1949   3.119   4.416   9.897 -0.1642  0.1578  1.7902
  125TMC2    H2 1950   3.299   4.023   9.877  1.1462  0.7073 -0.8509
  125TMC2    C7 1951   3.198   4.230   9.726 -0.0028  0.4185 -1.2420
  125TMC2    C8 1952   3.343   4.000  10.130 -0.0511  0.2595 -0.0417
  125TMC2    O1 1953   3.119   4.318   9.687 -0.0580 -0.2952 -0.3956
  125TMC2    O2 1954   3.309   3.893  10.080 -0.5513  0.2693  0.6514
  125TMC2    O5 1955   3.431   4.023  10.228  0.2742 -0.4937  0.2255
  125TMC2    H5 1956   3.441   4.118  10.249 -0.0950 -0.8353  1.9711
  126MPD1     C 1957   2.749   4.709  10.272  0.7661 -0.9348 -0.1744
  126MPD1    C1 1958   2.712   4.604  10.196 -0.0909 -0.0800 -0.7612
  126MPD1    C2 1959   2.806   4.529  10.139  0.1443  0.3757  0.0042
  126MPD1    C3 1960   2.937   4.543  10.173  0.0041  0.4600  0.0926
  126MPD1    C4 1961   2.981   4.638  10.263 -0.1579 -0.0753  0.1674
  126MPD1    C5 1962   2.882   4.724  10.309 -0.0262 -0.2499  0.2137
  126MPD1     H 1963   2.774   4.449  10.072 -0.4988  0.7246 -0.1054
  126MPD1    H1 1964   3.085   4.645  10.296 -0.6140  0.6686  1.4697
  126MPD1    H2 1965   2.678   0.052  10.300  0.9647 -1.0375  0.6033
  126MPD1    H3 1966   2.910   0.062  10.385 -0.7344  0.2158  0.0297
  126MPD1     N 1967   3.019   4.446  10.122 -0.1344  0.1942  0.3779
  126MPD1    H5 1968   2.991   4.392  10.041 -1.8004 -0.7299  1.5604
  126MPD1    N1 1969   2.579   4.585  10.159 -0.2429  0.2054  0.1238
  126MPD1    H6 1970   2.572   4.485  10.141 -2.8659  0.7320 -1.7296
  126MPD1    H7 1971   2.516   4.594  10.237 -1.5173 -1.8777 -0.6519
  127TMC2    C1 1972   4.541   2.612   9.831 -0.2543 -0.6724  0.2555
  127TMC2    C2 1973   4.592   2.622   9.963 -0.2245 -0.2204 -0.1989
  127TMC2    C3 1974   4.523   2.561  10.061  0.1525 -0.5121  0.6306
  127TMC2    C4 1975   4.436   2.537   9.796 -0.3840  0.3418  0.1965
  127TMC2    C5 1976   4.369   2.475   9.903  0.4804  0.4925 -0.2049
  127TMC2    C6 1977   4.410   2.483  10.037  0.0901 -0.2413  0.2438
  127TMC2     C 1978   4.597   2.721   9.751 -0.4574 -0.1408 -0.0722
  127TMC2     O 1979   4.680   2.791   9.809 -0.9420  0.1168  0.4038
  127TMC2     H 1980   4.669   2.689   9.999 -1.2425  1.8442 -1.8869
  127TMC2    H1 1981   4.399   2.548   9.695 -1.0781 -1.7895  0.2124
  127TMC2    H2 1982   4.371   2.428  10.122  0.4275 -1.5815 -0.4653
  127TMC2    C7 1983   4.222   2.467   9.874  0.5952  0.4042  0.2692
  127TMC2    C8 1984   4.586   2.570  10.195 -0.2402 -0.0132 -0.4005
  127TMC2    O1 1985   4.183   2.493   9.760  0.7120  0.2840  0.6313
  127TMC2    O2 1986   4.706   2.575  10.208  0.0679 -0.7416  0.5289
  127TMC2    O5 1987   4.501   2.536  10.291 -0.1135 -0.1395 -0.2773
  127TMC2    H5 1988   4.410   2.556  10.259  0.0805  2.0493  0.5428
  128MPD2     C 1989   4.429   2.838   9.443  0.7031 -0.1287 -0.7724
  128MPD2    C1 1990   4.522   2.841   9.546  0.6168 -1.0125  0.2968
  128MPD2    C2 1991   4.602   2.953   9.567  0.6851  0.0762  0.3554
  128MPD2    C3 1992   4.602   3.058   9.473 -0.8225 -0.2451 -0.2064
  128MPD2    C4 1993   4.521   3.044   9.363  0.4080  0.7213  0.2134
  128MPD2    C5 1994   4.435   2.938   9.354  0.9851  0.1546  0.7580
  128MPD2     H 1995   4.671   2.949   9.651 -1.1967  0.2662  1.9078
  128MPD2    H1 1996   4.538   3.118   9.287 -0.1017  0.3211 -0.2906
  128MPD2    H2 1997   4.354   2.760   9.431 -1.1731  1.2065  2.4569
  128MPD2    H3 1998   4.368   2.930   9.269  3.4251  0.2700 -1.1475
  128MPD2     N 1999   4.678   3.176   9.509  0.3141  0.0832  0.4616
  128MPD2    H5 2000   0.003   3.171   9.591  0.6966 -0.5677  0.1464
  128MPD2    N1 2001   4.523   2.734   9.639  0.6469 -0.0138 -0.5462
  128MPD2    H7 2002   4.451   2.665   9.621  0.1449  0.2547  0.4690
  129TMC2    C1 2003   1.500   2.947   2.220  0.2639  0.2158 -0.1049
  129TMC2    C2 2004   1.514   2.912   2.358 -0.5855 -0.0469  0.1005
  129TMC2    C3 2005   1.419   2.968   2.440  0.4571  0.5248  0.1791
  129TMC2    C4 2006   1.400   3.034   2.172 -0.3296 -0.0327  0.2907
  129TMC2    C5 2007   1.311   3.077   2.259  0.8650 -0.5467 -0.7997
  129TMC2    C6 2008   1.319   3.047   2.390  0.3993  0.7616 -0.5125
  129TMC2     C 2009   1.592   2.894   2.122 -0.9668  0.3439 -0.2098
  129TMC2     O 2010   1.654   2.796   2.153 -0.1968  0.5930 -0.0224
  129TMC2     H 2011   1.593   2.845   2.389  0.7829  1.8102  0.5997
  129TMC2    H1 2012   1.383   3.055   2.067  0.9395 -4.1820 -0.7546
  129TMC2    H2 2013   1.240   3.079   2.457 -0.2807  1.0853 -1.4700
  129TMC2    C7 2014   1.204   3.158   2.204 -0.3435 -0.0798  0.2170
  129TMC2    C8 2015   1.404   2.917   2.580 -0.4684 -0.1020 -0.0192
  129TMC2    O1 2016   1.154   3.121   2.097 -0.2386  0.2172 -0.4088
  129TMC2    O2 2017   1.370   2.811   2.626  0.0351  0.0985 -0.4139
  129TMC2    O5 2018   1.495   2.992   2.643 -0.5896 -0.1615  0.5382
  129TMC2    H5 2019   1.508   3.084   2.611 -0.3387 -0.7758 -1.0910
  130MPD2     C 2020   1.756   2.838   1.881 -0.1268 -0.8340 -0.1964
  130MPD2    C1 2021   1.699   2.960   1.909  0.1824 -0.4632 -0.4201
  130MPD2    C2 2022   1.718   3.063   1.821 -0.9006 -0.1889 -0.3107
  130MPD2    C3 2023   1.796   3.056   1.707 -0.1382  0.8616 -0.1609
  130MPD2    C4 2024   1.840   2.929   1.678  0.1815  0.0310 -0.2410
  130MPD2    C5 2025   1.821   2.826   1.760 -0.0797  0.1312  1.0154
  130MPD2     H 2026   1.683   3.160   1.852 -0.9679 -0.1199 -0.6033
  130MPD2    H1 2027   1.898   2.905   1.589  0.0003  0.0572 -0.3671
  130MPD2    H2 2028   1.754   2.755   1.950  0.5059 -1.6189 -1.1228
  130MPD2    H3 2029   1.875   2.735   1.735 -0.4838  1.0393 -3.1625
  130MPD2     N 2030   1.795   3.169   1.624  0.0581  0.5803 -0.1222
  130MPD2    H5 2031   1.727   3.239   1.653  0.2350 -0.1627  2.0672
  130MPD2    N1 2032   1.613   2.978   2.016 -0.2033 -0.5901 -0.0953
  130MPD2    H7 2033   1.559   3.064   2.022 -0.3342 -0.7633  1.4186
  131TMC2    C1 2034   2.038   3.357   9.694 -0.2360 -0.2195 -0.5255
  131TMC2    C2 2035   2.067   3.434   9.802 -1.3012  0.7960  0.0868
  131TMC2    C3 2036   2.143   3.540   9.780 -0.1975  0.3413 -0.3806
  131TMC2    C4 2037   2.048   3.406   9.566 -0.1894 -0.4449  0.7911
  131TMC2    C5 2038   2.115   3.525   9.546  0.5794  0.1362  0.8220
  131TMC2    C6 2039   2.174   3.587   9.654 -0.3902  0.7317  0.4582
  131TMC2     C 2040   1.984   3.228   9.731  0.9450 -0.9163 -0.1554
  131TMC2     O 2041   2.000   3.186   9.848  0.1151  0.3436 -0.5539
  131TMC2     H 2042   2.053   3.390   9.900  0.6447 -2.9209 -1.3090
  131TMC2    H1 2043   2.019   3.350   9.478 -0.6204 -2.6761  2.3489
  131TMC2    H2 2044   2.259   3.655   9.654  1.2263 -1.2742  3.5307
  131TMC2    C7 2045   2.173   3.549   9.413  0.0491  0.4155  0.5825
  131TMC2    C8 2046   2.176   3.615   9.902  0.2066  0.9191 -0.1955
  131TMC2    O1 2047   2.117   3.485   9.321 -0.5138 -0.4379 -0.1666
  131TMC2    O2 2048   2.172   3.568  10.015 -0.3631  0.8424  0.2963
  131TMC2    O5 2049   2.127   3.733   9.868  0.2975  0.1194 -0.4526
  131TMC2    H5 2050   2.101   3.746   9.775 -0.7157 -0.5829 -0.2645
  132MPD2     C 2051   1.911   2.941   9.501 -0.8835 -0.4305 -0.0422
  132MPD2    C1 2052   1.950   3.002   9.621  0.4389 -0.5081 -0.4196
  132MPD2    C2 2053   1.989   2.919   9.723 -0.0148  0.4032 -0.1190
  132MPD2    C3 2054   1.987   2.783   9.721 -0.1852  0.1197 -0.6969
  132MPD2    C4 2055   1.959   2.725   9.595 -0.1475 -0.2317 -0.6615
  132MPD2    C5 2056   1.927   2.802   9.489 -0.2993 -0.2943  0.2371
  132MPD2     H 2057   2.025   2.954   9.819 -0.3741 -0.2508  0.2548
  132MPD2    H1 2058   1.998   2.624   9.579 -0.5807 -0.2933 -1.3323
  132MPD2    H2 2059   1.874   3.006   9.423  1.7744  0.3372 -0.6756
  132MPD2    H3 2060   1.899   2.761   9.392  0.6029  0.5095 -0.3633
  132MPD2     N 2061   2.034   2.715   9.832 -0.6168 -0.0671  0.4862
  132MPD2    H5 2062   2.068   2.758   9.918 -0.5386 -2.1507  1.4944
  132MPD2    N1 2063   1.952   3.147   9.623  0.1031 -0.1758 -0.3856
  132MPD2    H7 2064   1.934   3.191   9.533 -3.2229  0.9432  0.8612
  133TMC2    C1 2065   1.480   2.895   9.402 -0.1688  0.6608 -0.4066
  133TMC2    C2 2066   1.574   2.911   9.301 -0.1835 -0.2517  0.2017
  133TMC2    C3 2067   1.631   2.793   9.250 -0.0999 -0.7594  0.1852
  133TMC2    C4 2068   1.432   2.768   9.434  0.0430 -0.3945  0.1930
  133TMC2    C5 2069   1.486   2.657   9.374 -0.2918  0.7235  0.2631
  133TMC2    C6 2070   1.586   2.668   9.287  0.1653  0.4833  0.2097
  133TMC2     C 2071   1.415   3.012   9.456 -0.2637 -0.0654 -0.0308
  133TMC2     O 2072   1.452   3.120   9.407  0.0172  0.6581 -0.0117
  133TMC2     H 2073   1.614   3.005   9.264 -1.7615  0.3730  0.0900
  133TMC2    H1 2074   1.334   2.760   9.479  0.2436 -0.7324  0.5622
  133TMC2    H2 2075   1.627   2.591   9.224  1.3068  0.6335  0.7650
  133TMC2    C7 2076   1.422   2.531   9.407  0.4368  0.7680  0.4393
  133TMC2    C8 2077   1.719   2.785   9.139  0.4286 -0.0019  0.2365
  133TMC2    O1 2078   1.326   2.526   9.484  0.2079 -0.7503 -0.2257
  133TMC2    O2 2079   1.815   2.864   9.123  0.4683  0.5326 -0.1026
  133TMC2    O5 2080   1.648   2.726   9.040  0.0207  0.5439  0.3301
  133TMC2    H5 2081   1.564   2.686   9.068  0.4755 -0.4724  0.2171
  134MPD2     C 2082   1.188   3.028   9.735 -0.1628 -0.0219 -0.3185
  134MPD2    C1 2083   1.281   3.071   9.646  0.1705  0.1077 -0.2185
  134MPD2    C2 2084   1.312   3.206   9.646  0.3930  0.3944 -0.0629
  134MPD2    C3 2085   1.250   3.293   9.732  0.4692 -0.4970 -0.0430
  134MPD2    C4 2086   1.159   3.242   9.822  0.2833  0.2308  0.1501
  134MPD2    C5 2087   1.121   3.113   9.819  0.6505 -0.5639 -0.4586
  134MPD2     H 2088   1.401   3.238   9.592 -0.1243  0.1384 -1.0548
  134MPD2    H1 2089   1.108   3.304   9.895  0.1480  1.1487 -0.7141
  134MPD2    H2 2090   1.151   2.927   9.740  1.7342 -0.9037 -4.4339
  134MPD2    H3 2091   1.044   3.074   9.884 -0.0595  0.6881 -0.5468
  134MPD2     N 2092   1.290   3.425   9.753  0.0982 -0.0890  0.6310
  134MPD2    H5 2093   1.250   3.466   9.837  1.1437  1.2489  0.4767
  134MPD2    N1 2094   1.343   2.980   9.571 -0.3663 -0.0962  0.7604
  134MPD2    H7 2095   1.331   2.881   9.592 -1.7506  0.0307  0.6108
  135TMC2    C1 2096   3.539   4.482  10.387  0.0186 -0.6736 -0.4342
  135TMC2    C2 2097   3.648   4.566  10.391 -0.3843 -0.0219 -0.2902
  135TMC2    C3 2098   3.686   4.615  10.516  0.4049 -0.5485  0.2380
  135TMC2    C4 2099   3.474   4.452  10.504  0.6678  0.5744  0.4434
  135TMC2    C5 2100   3.538   4.474  10.622  0.2410 -0.1322  0.6091
  135TMC2    C6 2101   3.639   4.565  10.636  1.2319  0.6904  0.1447
  135TMC2     C 2102   3.564   4.369  10.304 -0.3927  0.2031  0.1871
  135TMC2     O 2103   3.535   4.256  10.342  0.5232 -0.4077  0.0864
  135TMC2     H 2104   3.687   4.609  10.300 -1.1093 -0.4693 -0.8154
  135TMC2    H1 2105   3.395   4.378  10.498  1.0832  0.3388 -1.8268
  135TMC2    H2 2106   3.683   4.595  10.731  1.7610 -1.1486  0.4751
  135TMC2    C7 2107   3.531   4.372  10.725  0.8112  0.0161 -0.1770
  135TMC2    C8 2108   3.794   4.715  10.517 -0.0462  0.3599 -0.3014
  135TMC2    O1 2109   3.587   4.400  10.831  0.7968 -0.4076  0.0908
  135TMC2    O2 2110   3.814   0.052  10.419 -0.2675 -0.4723  0.0162
  135TMC2    O5 2111   3.889   4.676  10.598 -0.0740  0.3255 -0.3634
  135TMC2    H5 2112   3.863   4.597  10.651 -2.2937  1.3710  0.1024
  136MPD2     C 2113   3.654   4.216  10.061 -0.3611  0.1528 -0.2431
  136MPD2    C1 2114   3.618   4.353  10.063  0.4543 -0.8387 -0.2896
  136MPD2    C2 2115   3.634   4.425   9.945 -0.1835 -0.6053 -0.3589
  136MPD2    C3 2116   3.648   4.355   9.827  0.0163  0.0005  0.5255
  136MPD2    C4 2117   3.674   4.223   9.835 -0.7388 -0.0792  0.1189
  136MPD2    C5 2118   3.677   4.153   9.948  0.2760  0.1360  0.2019
  136MPD2     H 2119   3.636   4.533   9.940 -0.4560 -0.6230 -0.8068
  136MPD2    H1 2120   3.697   4.167   9.746  0.5871  0.7987 -0.0951
  136MPD2    H2 2121   3.649   4.158  10.152 -1.7456  0.6170 -0.0217
  136MPD2    H3 2122   3.710   4.050   9.958  0.1381  0.2253  1.6073
  136MPD2     N 2123   3.656   4.419   9.704  0.1253 -0.2212 -0.9867
  136MPD2    H5 2124   3.699   4.363   9.631  0.4468  0.1875 -1.1145
  136MPD2    N1 2125   3.583   4.423  10.180 -0.6962 -0.1821  0.1373
  136MPD2    H7 2126   3.568   4.521  10.158 -1.6285 -0.3421  0.0569
  137TMC2    C1 2127   4.010   3.525   9.678 -0.7175  0.4183 -0.1247
  137TMC2    C2 2128   4.132   3.582   9.702  0.0106 -0.6168 -0.5205
  137TMC2    C3 2129   4.174   3.670   9.610  0.4982 -0.1756 -0.1087
  137TMC2    C4 2130   3.932   3.563   9.570 -0.4661 -0.3500 -0.2946
  137TMC2    C5 2131   3.984   3.650   9.480 -0.2884 -0.0877 -0.5414
  137TMC2    C6 2132   4.107   3.697   9.494  0.2132 -0.0888 -0.3872
  137TMC2     C 2133   3.988   3.393   9.738 -0.1001  0.3115 -0.1240
  137TMC2     O 2134   4.058   3.372   9.835 -0.3174 -0.2605  0.2208
  137TMC2     H 2135   4.199   3.562   9.785  1.4567 -2.2853 -2.0972
  137TMC2    H1 2136   3.837   3.512   9.552 -0.2819 -1.1248  0.9212
  137TMC2    H2 2137   4.146   3.773   9.428  0.3103  0.2218  0.0232
  137TMC2    C7 2138   3.907   3.710   9.371 -0.1812  1.3888 -0.0374
  137TMC2    C8 2139   4.242   3.788   9.660 -0.6543  0.7235 -0.1504
  137TMC2    O1 2140   3.957   3.745   9.266  0.3749 -0.7319  0.9555
  137TMC2    O2 2141   4.181   3.896   9.661  0.6693  0.4635 -0.4014
  137TMC2    O5 2142   4.343   3.749   9.742 -0.0780  0.4298 -0.8052
  137TMC2    H5 2143   4.378   3.666   9.703  1.1523  0.3922  0.3768
  138MPD2     C 2144   3.817   3.109   9.581 -0.2169 -0.1032 -0.7353
  138MPD2    C1 2145   3.878   3.179   9.682 -0.1091  0.1562  0.1995
  138MPD2    C2 2146   3.885   3.126   9.810  0.3502 -0.2532  0.5260
  138MPD2    C3 2147   3.843   2.995   9.823 -0.2512 -0.0167  0.3117
  138MPD2    C4 2148   3.784   2.920   9.723 -0.7296  0.7727 -0.9095
  138MPD2    C5 2149   3.774   2.978   9.595  0.0423 -0.4346 -0.5354
  138MPD2     H 2150   3.926   3.180   9.894 -0.5279 -0.1510  0.8927
  138MPD2    H1 2151   3.745   2.823   9.751 -1.0664  1.3513  0.6225
  138MPD2    H2 2152   3.796   3.146   9.481  0.8031  0.0619 -0.8943
  138MPD2    H3 2153   3.727   2.924   9.512 -2.2478  2.2345 -0.9645
  138MPD2     N 2154   3.868   2.938   9.953 -0.1706 -0.3755 -0.2513
  138MPD2    H5 2155   3.893   3.011  10.019 -0.2832 -0.7958  0.2578
  138MPD2    N1 2156   3.921   3.313   9.652  0.4603 -0.1442  0.6444
  138MPD2    H7 2157   3.908   3.348   9.558  0.1961 -0.3557  0.6037
  139TMC2    C1 2158   3.999   1.350  13.321 -0.1250  0.5220  0.6610
  139TMC2    C2 2159   4.094   1.412  13.243  0.8625 -0.0407  0.3463
  139TMC2    C3 2160   4.108   1.548  13.250  0.4791  0.1038 -0.7923
  139TMC2    C4 2161   3.910   1.420  13.400 -0.2697  0.3495 -0.1232
  139TMC2    C5 2162   3.918   1.559  13.398 -0.6425 -0.4073  0.4334
  139TMC2    C6 2163   4.018   1.623  13.327 -0.1040 -0.2720 -0.0678
  139TMC2     C 2164   4.013   1.198  13.317 -0.4740 -0.3156  0.5827
  139TMC2     O 2165   4.101   1.153  13.245 -0.1517  0.5171  0.5853
  139TMC2     H 2166   4.165   1.361  13.179 -1.6073 -2.9293 -0.0739
  139TMC2    H1 2167   3.828   1.375  13.456  0.4089  0.2351  0.7731
  139TMC2    H2 2168   4.016   1.731  13.317  1.7187 -0.3993 -1.8272
  139TMC2    C7 2169   3.816   1.645  13.465  0.5349 -0.2767 -0.2094
  139TMC2    C8 2170   4.165   1.615  13.140  0.4823 -0.7049 -0.0756
  139TMC2    O1 2171   3.817   1.758  13.432  0.4290 -0.0963  0.4254
  139TMC2    O2 2172   4.178   1.578  13.028 -0.1448  0.1523 -0.2833
  139TMC2    O5 2173   4.225   1.714  13.207 -0.5642  0.1856 -0.5195
  139TMC2    H5 2174   4.208   1.705  13.303 -2.0578 -0.3836 -0.8384
  140MPD2     C 2175   3.749   0.969  13.410  0.1265 -0.1921  0.2124
  140MPD2    C1 2176   3.877   0.999  13.376 -0.5013 -1.3153 -0.6918
  140MPD2    C2 2177   3.966   0.905  13.330  0.0821  0.1647  0.2738
  140MPD2    C3 2178   3.928   0.778  13.323  0.2776 -0.2941  0.1701
  140MPD2    C4 2179   3.800   0.741  13.370  0.7182  0.3673 -0.3673
  140MPD2    C5 2180   3.706   0.830  13.407 -0.0816  0.0612 -0.1137
  140MPD2     H 2181   4.068   0.936  13.308 -0.0947  1.5019  1.3348
  140MPD2    H1 2182   3.785   0.636  13.349  0.6399 -0.2437  2.6792
  140MPD2    H2 2183   3.678   1.046  13.439 -0.7878 -0.9401 -0.0449
  140MPD2    H3 2184   3.609   0.793  13.440 -0.0008  0.8438  1.0184
  140MPD2     N 2185   4.023   0.677  13.278  0.1396  0.3594 -1.1239
  140MPD2    H5 2186   4.114   0.705  13.243  2.3204 -1.2663  3.2241
  140MPD2    N1 2187   3.912   1.135  13.377 -0.6808 -0.0060 -0.5715
  140MPD2    H7 2188   3.839   1.194  13.416  1.0705  0.1450  2.4904
  141TMC2    C1 2189   4.655   2.638  14.349  0.2821 -0.7811 -0.9604
  141TMC2    C2 2190   4.572   2.687  14.439  0.6842 -0.0654  0.5866
  141TMC2    C3 2191   4.629   2.749  14.550  0.3296 -0.0301 -0.2489
  141TMC2    C4 2192   0.059   2.636  14.366 -0.4133  0.2089 -0.2383
  141TMC2    C5 2193   0.106   2.688  14.481  0.2347 -0.4948  0.0085
  141TMC2    C6 2194   0.032   2.758  14.574 -0.2980  0.0487 -0.2297
  141TMC2     C 2195   4.613   2.628  14.214  0.5169 -0.3476  0.1637
  141TMC2     O 2196   4.705   2.603  14.137 -0.2828 -0.0625  0.3552
  141TMC2     H 2197   4.466   2.703  14.421  0.5773 -0.4164  0.9024
  141TMC2    H1 2198   0.124   2.612  14.282  0.9719  2.3832  0.2107
  141TMC2    H2 2199   0.077   2.804  14.661 -0.1561 -0.3854 -0.0741
  141TMC2    C7 2200   0.253   2.696  14.496 -0.0653  0.0526 -0.9279
  141TMC2    C8 2201   4.553   2.760  14.672  0.0279 -0.1395 -0.7333
  141TMC2    O1 2202   0.309   2.602  14.442 -0.4396 -0.2556  0.6446
  141TMC2    O2 2203   4.600   2.801  14.776  0.5428 -0.2060  0.1382
  141TMC2    O5 2204   4.456   2.663  14.672 -0.1140 -0.3059  0.1780
  141TMC2    H5 2205   4.437   2.628  14.583 -0.7521  0.7645 -0.0929
  142TMC2    C1 2206   2.299   2.911   9.410 -0.0809 -0.4202 -0.1291
  142TMC2    C2 2207   2.329   2.944   9.282  0.4351  0.3874 -0.2413
  142TMC2    C3 2208   2.352   3.075   9.253  0.0504  0.7559 -0.4346
  142TMC2    C4 2209   2.287   3.006   9.512  0.4140  0.1651  0.0978
  142TMC2    C5 2210   2.316   3.137   9.476 -0.4511  0.9002  0.5039
  142TMC2    C6 2211   2.346   3.171   9.350 -0.6975  0.0512  0.3119
  142TMC2     C 2212   2.291   2.766   9.436  0.6344  0.0081 -0.3095
  142TMC2     O 2213   2.260   2.693   9.342  0.1520 -0.5778  0.2756
  142TMC2     H 2214   2.325   2.864   9.209 -1.0901 -1.5038  1.9031
  142TMC2    H1 2215   2.260   2.978   9.613  1.9160 -1.6765 -0.0157
  142TMC2    H2 2216   2.366   3.274   9.323 -1.4498  0.2740  0.6200
  142TMC2    C7 2217   2.348   3.223   9.588  1.0081 -0.0272 -0.1443
  142TMC2    C8 2218   2.388   3.113   9.121  0.1994 -0.3869 -0.4073
  142TMC2    O1 2219   2.312   3.176   9.693  1.2642  0.0382  0.2840
  142TMC2    O2 2220   2.478   3.188   9.103 -0.5798 -0.2832  0.3696
  142TMC2    O5 2221   2.297   3.059   9.026 -0.0999  0.3208 -0.0685
  142TMC2    H5 2222   2.215   3.022   9.065 -1.4490  2.0826 -1.2322
  143MPD2     C 2223   2.398   2.346   9.712  0.2431  0.1150 -0.5675
  143MPD2    C1 2224   2.343   2.353   9.585  1.0700  0.1821 -0.1253
  143MPD2    C2 2225   2.314   2.482   9.539  0.3759 -0.3788 -0.4217
  143MPD2    C3 2226   2.360   2.595   9.599  0.1966  0.5550  0.1754
  143MPD2    C4 2227   2.419   2.584   9.724 -0.4690 -0.5727 -0.1088
  143MPD2    C5 2228   2.435   2.461   9.775  0.1036 -0.1265 -0.1047
  143MPD2     H 2229   2.277   2.489   9.437 -0.8075  0.1819  0.0389
  143MPD2    H1 2230   2.448   2.670   9.782 -2.4050 -2.2487  3.3632
  143MPD2    H2 2231   2.430   2.252   9.757  1.5737  2.9519  4.3443
  143MPD2    H3 2232   2.483   2.466   9.872  0.8538  1.4044 -0.5540
  143MPD2     N 2233   2.337   2.732   9.560 -0.4707 -0.5295  0.7019
  143MPD2    H5 2234   2.373   2.799   9.627  0.4668  0.5451 -0.8991
  143MPD2    N1 2235   2.310   2.230   9.519  0.3972 -0.1771  0.2789
  143MPD2    H7 2236   2.322   2.146   9.574  0.3070  1.1376  2.3128
  144TMC2    C1 2237   0.318   4.691   0.481 -0.5772  0.5127 -0.0694
  144TMC2    C2 2238   0.432   4.650   0.416 -0.1180  0.2337  0.3331
  144TMC2    C3 2239   0.530   4.590   0.497  0.1218 -0.1963  0.0582
  144TMC2    C4 2240   0.311   4.682   0.617  0.0279  0.0751  0.2826
  144TMC2    C5 2241   0.423   4.643   0.690  0.0593  0.4485 -0.2904
  144TMC2    C6 2242   0.531   4.592   0.628  0.8835  0.4961 -0.0328
  144TMC2     C 2243   0.214   0.015   0.402 -0.3105  0.0558 -0.0155
  144TMC2     O 2244   0.231   0.021   0.280  0.5723  0.1342  0.4397
  144TMC2     H 2245   0.429   4.642   0.308  3.6028  0.7903  0.1907
  144TMC2    H1 2246   0.219   4.709   0.668 -0.0052  0.5436 -0.0303
  144TMC2    H2 2247   0.606   4.535   0.681  1.7043  0.4807 -1.1926
  144TMC2    C7 2248   0.444   4.673   0.832 -0.2339 -0.6712  0.2024
  144TMC2    C8 2249   0.645   4.523   0.443 -0.4883  1.1845 -0.2491
  144TMC2    O1 2250   0.548   4.630   0.882  0.2037  0.1139 -0.5029
  144TMC2    O2 2251   0.708   4.444   0.512 -0.1248 -0.3894 -0.0931
  144TMC2    O5 2252   0.704   4.599   0.349 -0.1453 -0.0037 -0.2774
  144TMC2    H5 2253   0.640   4.655   0.299 -1.4316 -0.8405  0.4432
  145MPD2     C 2254   4.575   0.329   0.273  0.0345  0.1748 -0.7762
  145MPD2    C1 2255   4.616   0.214   0.214 -0.8456 -0.0295 -0.7733
  145MPD2    C2 2256   4.709   0.139   0.283 -0.0624 -0.6419  0.4454
  145MPD2    C3 2257   0.035   0.180   0.406  0.0042 -0.3482  0.8263
  145MPD2    C4 2258   4.714   0.290   0.470 -0.4433  0.5698  0.2166
  145MPD2    C5 2259   4.623   0.362   0.397 -0.7410  0.0579  0.2413
  145MPD2     H 2260   4.732   0.045   0.234 -1.0215 -1.4569  1.5384
  145MPD2    H1 2261   0.010   0.322   0.569  0.3860 -2.3043  0.8940
  145MPD2    H2 2262   4.513   0.405   0.226  1.6921 -0.4998 -4.0311
  145MPD2    H3 2263   4.578   0.448   0.447  0.5629  0.8182  0.1105
  145MPD2     N 2264   0.135   0.105   0.470  0.3253  0.3289  0.0886
  145MPD2    H5 2265   0.152   0.128   0.568  0.5574 -0.2597  0.1861
  145MPD2    N1 2266   4.569   0.162   0.091  0.3536 -0.5346  0.5951
  145MPD2    H7 2267   4.605   0.071   0.063 -0.6573 -1.6592  2.9947
  146TMC2    C1 2268   1.821   4.151  12.537 -1.0349  0.4168 -0.0225
  146TMC2    C2 2269   1.774   4.222  12.432  0.0060 -0.2216 -0.2844
  146TMC2    C3 2270   1.731   4.154  12.325 -0.0509  0.3768 -0.3264
  146TMC2    C4 2271   1.827   4.015  12.536  0.9723 -0.1235 -0.2002
  146TMC2    C5 2272   1.792   3.947  12.418 -0.1129 -0.2233 -0.3240
  146TMC2    C6 2273   1.747   4.016  12.312 -0.2026  0.5855 -0.1861
  146TMC2     C 2274   1.854   4.226  12.653  0.1499  0.1715 -0.4255
  146TMC2     O 2275   1.803   4.337  12.657 -0.0231 -0.1741  0.5877
  146TMC2     H 2276   1.754   4.328  12.425 -1.3608 -0.5790 -1.5522
  146TMC2    H1 2277   1.829   3.959  12.628  1.9819 -0.9775 -0.7483
  146TMC2    H2 2278   1.727   3.964  12.219  2.2510 -0.9965  0.1824
  146TMC2    C7 2279   1.784   3.797  12.414  0.4811  0.6099  0.1473
  146TMC2    C8 2280   1.676   4.228  12.211  0.1530 -0.6350 -0.4150
  146TMC2    O1 2281   1.711   3.741  12.334 -0.8335  0.4145  0.0119
  146TMC2    O2 2282   1.704   4.345  12.196 -0.4436  0.1845  0.2607
  146TMC2    O5 2283   1.564   4.172  12.169 -0.7080  0.0486  0.4109
  146TMC2    H5 2284   1.563   4.075  12.182  0.3633 -0.1297 -0.8143
  147MPD2     C 2285   1.849   3.354  12.648 -0.3162  0.4205 -0.8171
  147MPD2    C1 2286   1.936   3.441  12.712 -0.3013 -0.2023  0.0855
  147MPD2    C2 2287   1.944   3.572  12.665 -0.1308  0.6053 -0.2661
  147MPD2    C3 2288   1.856   3.608  12.562  0.8935  0.3108 -0.7773
  147MPD2    C4 2289   1.768   3.519  12.508 -0.6482 -0.3999 -0.2776
  147MPD2    C5 2290   1.771   3.392  12.547  0.6446 -0.0595  0.7045
  147MPD2     H 2291   2.013   3.638  12.717 -0.6885  0.1052  1.1033
  147MPD2    H1 2292   1.695   3.539  12.429 -0.9159 -1.5828 -0.3279
  147MPD2    H2 2293   1.842   3.257  12.694 -1.2358  1.0938  0.4724
  147MPD2    H3 2294   1.688   3.325  12.528  1.1725 -0.4853 -0.0716
  147MPD2     N 2295   1.859   3.739  12.516  0.0592  0.4819 -0.1768
  147MPD2    H5 2296   1.925   3.796  12.567  0.9765  0.4907 -1.3885
  147MPD2    N1 2297   2.016   3.382  12.817 -0.6334 -0.3871 -0.0187
  147MPD2    H7 2298   1.998   3.284  12.836 -1.0647 -0.6107 -1.5023
  148TMC2    C1 2299   1.790   2.987  10.472 -0.3446 -0.1479 -0.4930
  148TMC2    C2 2300   1.806   3.076  10.577  0.1338 -0.1604 -0.0083
  148TMC2    C3 2301   1.881   3.031  10.686 -0.2051 -0.8269 -0.3959
  148TMC2    C4 2302   1.853   2.867  10.474 -0.5006  0.0677 -0.1835
  148TMC2    C5 2303   1.923   2.831  10.586 -0.1017 -0.4297 -0.5972
  148TMC2    C6 2304   1.944   2.910  10.693 -1.0570  0.1171 -0.0049
  148TMC2     C 2305   1.689   3.018  10.376 -0.3181  0.4388  0.4585
  148TMC2     O 2306   1.655   3.134  10.362 -0.3455 -0.4097 -0.3202
  148TMC2     H 2307   1.749   3.168  10.572 -0.2351 -0.2975  1.6562
  148TMC2    H1 2308   1.848   2.788  10.401 -0.6806  0.3786 -0.5067
  148TMC2    H2 2309   2.023   2.887  10.763 -2.6256  0.5792  1.9022
  148TMC2    C7 2310   1.940   2.683  10.593 -0.6663 -0.8002  0.6328
  148TMC2    C8 2311   1.897   3.128  10.795  0.1624  0.0370 -0.1965
  148TMC2    O1 2312   1.964   2.618  10.491  0.0982 -0.2557 -0.6187
  148TMC2    O2 2313   1.866   3.246  10.781 -0.2797  0.2109 -0.2772
  148TMC2    O5 2314   1.963   3.071  10.907 -0.2293 -0.1403  0.2268
  148TMC2    H5 2315   1.924   2.981  10.910 -0.2938 -0.1030  0.4711
  149MPD2     C 2316   1.473   3.014  10.160 -0.3534  0.6790 -0.1676
  149MPD2    C1 2317   1.517   2.898  10.224  0.5543 -0.7999  0.9677
  149MPD2    C2 2318   1.474   2.780  10.178  0.3375  0.0627 -0.4830
  149MPD2    C3 2319   1.369   2.773  10.084  0.0637  0.4012 -0.7030
  149MPD2    C4 2320   1.310   2.883  10.033  0.3297 -0.1622 -0.1472
  149MPD2    C5 2321   1.367   3.007  10.064 -0.6094 -0.0320  0.3660
  149MPD2     H 2322   1.522   2.689  10.213 -2.6070 -1.6074 -0.8209
  149MPD2    H1 2323   1.223   2.866   9.969  0.9452  1.7837 -1.5141
  149MPD2    H2 2324   1.514   3.110  10.186 -1.3620  0.8677  0.7604
  149MPD2    H3 2325   1.333   3.105  10.034  0.3870 -0.5774 -2.5287
  149MPD2     N 2326   1.319   2.647  10.056 -0.5005 -0.2089 -0.3859
  149MPD2    H5 2327   1.271   2.642   9.967  1.8057  0.6116 -1.6803
  149MPD2    N1 2328   1.634   2.905  10.311  0.3994  0.1832  0.3250
  149MPD2    H7 2329   1.678   2.815  10.327  0.7782  0.1137 -1.0579
  150TMC2    C1 2330   3.439   1.835  12.453  0.2971  0.2619 -0.1102
  150TMC2    C2 2331   3.385   1.893  12.564  0.7199 -0.6514 -0.0106
  150TMC2    C3 2332   3.468   1.979  12.630  1.4871  0.2273 -0.5507
  150TMC2    C4 2333   3.571   1.860  12.418  0.5112 -0.3778  0.3040
  150TMC2    C5 2334   3.642   1.952  12.490  0.4285  0.1886  0.6426
  150TMC2    C6 2335   3.597   2.012  12.602 -0.0337 -0.0859  0.2661
  150TMC2     C 2336   3.373   1.721  12.390 -0.0806 -0.2633  0.5028
  150TMC2     O 2337   3.413   1.683  12.281 -0.7643 -0.2438  0.1441
  150TMC2     H 2338   3.288   1.881  12.610  0.1950 -0.6695 -1.1099
  150TMC2    H1 2339   3.601   1.824  12.320  0.6074 -0.1900  0.2647
  150TMC2    H2 2340   3.672   2.061  12.663  0.3565 -0.1214 -0.1797
  150TMC2    C7 2341   3.784   1.937  12.477 -0.2073 -0.7671  0.4656
  150TMC2    C8 2342   3.409   2.041  12.751  0.0987 -0.7616  0.0915
  150TMC2    O1 2343   3.857   2.032  12.515 -0.2131  0.0158 -0.3867
  150TMC2    O2 2344   3.289   2.047  12.784  0.4292 -0.5682  0.0972
  150TMC2    O5 2345   3.515   2.058  12.832 -0.5560 -0.3943 -0.1696
  150TMC2    H5 2346   3.597   2.009  12.811 -0.7978 -0.4458 -1.0067
  151MPD2     C 2347   2.991   1.383  12.335 -0.1026 -0.1025  0.8337
  151MPD2    C1 2348   3.095   1.413  12.250  0.0077 -0.2167  0.5292
  151MPD2    C2 2349   3.187   1.506  12.285 -0.1635  0.7360 -0.1923
  151MPD2    C3 2350   3.181   1.559  12.414 -0.2691 -0.6052 -0.1432
  151MPD2    C4 2351   3.088   1.515  12.507  1.4087 -0.0485  0.2110
  151MPD2    C5 2352   2.983   1.434  12.464 -1.2054 -0.0632  0.7502
  151MPD2     H 2353   3.254   1.543  12.209 -2.0570  0.8096 -1.8284
  151MPD2    H1 2354   3.081   1.554  12.608 -0.6104  0.5709 -0.1666
  151MPD2    H2 2355   2.921   1.309  12.298  2.1151 -1.7358 -0.0950
  151MPD2    H3 2356   2.902   1.406  12.529 -0.4841 -2.6650  0.5508
  151MPD2     N 2357   3.270   1.659  12.465 -0.6151 -0.4262 -0.3008
  151MPD2    H5 2358   3.246   1.690  12.558 -1.7044 -1.5846 -0.1877
  151MPD2    N1 2359   3.113   1.339  12.134 -0.1270  0.4213  0.7580
  151MPD2    H7 2360   3.069   1.249  12.121 -1.9020  1.2945  0.6714
  152TMC2    C1 2361   3.612   1.580  12.772 -0.4036  0.1068  0.3519
  152TMC2    C2 2362   3.694   1.472  12.783  0.9392  0.4688  0.2494
  152TMC2    C3 2363   3.827   1.488  12.808 -0.4066  0.6296  0.9022
  152TMC2    C4 2364   3.668   1.701  12.776  0.1403 -0.3669  0.4594
  152TMC2    C5 2365   3.805   1.712  12.786  0.2047  0.8718  0.3969
  152TMC2    C6 2366   3.889   1.605  12.808 -0.0384 -0.4905 -0.1203
  152TMC2     C 2367   3.467   1.559  12.769 -0.1345  0.3360  0.2364
  152TMC2     O 2368   3.416   1.654  12.721 -0.5033 -0.5885 -0.9670
  152TMC2     H 2369   3.657   1.372  12.764  1.3326  0.7097 -1.7944
  152TMC2    H1 2370   3.611   1.793  12.785  0.2776 -0.0687 -1.8629
  152TMC2    H2 2371   3.995   1.611  12.833 -0.1991 -0.5458  0.5581
  152TMC2    C7 2372   3.845   1.846  12.834 -0.0810  0.2536 -0.0552
  152TMC2    C8 2373   3.892   1.377  12.876 -0.0042  0.5620  0.5239
  152TMC2    O1 2374   3.762   1.935  12.832  0.4138 -0.1932 -0.3934
  152TMC2    O2 2375   3.852   1.264  12.851  0.6078  0.2937 -0.3395
  152TMC2    O5 2376   3.910   1.428  12.991  0.0473 -0.1677 -0.0206
  152TMC2    H5 2377   3.889   1.521  13.013  1.2095 -0.0128  0.4488
  153MPD2     C 2378   3.296   1.296  12.961  0.0564 -0.1442 -0.0374
  153MPD2    C1 2379   3.308   1.406  12.879  0.0887  0.1176 -0.4867
  153MPD2    C2 2380   3.193   1.485  12.859 -0.5392 -0.2024 -0.4069
  153MPD2    C3 2381   3.071   1.445  12.908  0.9781 -0.3296  1.0732
  153MPD2    C4 2382   3.053   1.326  12.971 -0.2752 -0.1638 -0.5443
  153MPD2    C5 2383   3.168   1.258  12.997  0.3766 -0.3216  0.7990
  153MPD2     H 2384   3.200   1.580  12.808  2.0659  0.3713  1.0450
  153MPD2    H1 2385   2.956   1.282  12.989  0.4797 -2.0026 -1.0392
  153MPD2    H2 2386   3.381   1.233  12.983  0.3724  0.6368  0.9957
  153MPD2    H3 2387   3.155   1.162  13.046 -2.8262 -0.7663 -0.9272
  153MPD2     N 2388   2.966   1.541  12.892  0.2048 -0.1739 -0.3842
  153MPD2    H5 2389   2.976   1.623  12.833 -0.3052  0.2950  0.1831
  153MPD2    N1 2390   3.437   1.446  12.836  0.4440  0.0538 -0.4576
  153MPD2    H7 2391   3.519   1.396  12.866 -0.1221 -1.4349 -1.4070
  154TMC2    C1 2392   0.284   1.226  17.478  0.7949  0.1683 -0.6392
  154TMC2    C2 2393   0.238   1.098  17.473  0.0157  0.2422  0.0217
  154TMC2    C3 2394   0.322   1.000  17.521  0.0186 -0.0436  0.0242
  154TMC2    C4 2395   0.408   1.265  17.518 -0.1467  0.8509  0.1418
  154TMC2    C5 2396   0.486   1.168  17.578 -0.3766 -0.6455 -0.5262
  154TMC2    C6 2397   0.449   1.037  17.570 -0.0437 -0.6155 -0.7112
  154TMC2     C 2398   0.203   1.335  17.423  0.1815  0.1229 -0.1064
  154TMC2     O 2399   0.194   1.442  17.474  0.4471  0.0878  0.0937
  154TMC2     H 2400   0.136   1.072  17.448  0.3288  0.8400 -1.9353
  154TMC2    H1 2401   0.442   1.368  17.509  0.8878  0.4118 -1.0243
  154TMC2    H2 2402   0.502   0.959  17.623 -2.6471 -1.2914  0.8941
  154TMC2    C7 2403   0.624   1.184  17.605 -0.4292 -0.0563  0.3986
  154TMC2    C8 2404   0.279   0.863  17.512 -0.0280 -0.5397 -0.4467
  154TMC2    O1 2405   0.703   1.093  17.607  0.3696  0.0824 -0.2995
  154TMC2    O2 2406   0.199   0.838  17.424 -0.0246 -0.0050 -0.1380
  154TMC2    O5 2407   0.277   0.812  17.638 -0.3851 -0.2384 -0.5956
  154TMC2    H5 2408   0.325   0.869  17.702 -0.8217  1.4393 -1.7459
  155MPD2     C 2409   4.671   1.300  17.163 -0.7045  0.0943 -0.0773
  155MPD2    C1 2410   0.012   1.364  17.258 -0.5602  0.2130  0.9615
  155MPD2    C2 2411   4.716   1.498  17.284 -0.5052  0.6947  0.3922
  155MPD2    C3 2412   4.617   1.566  17.216 -0.2845 -0.4360  0.3996
  155MPD2    C4 2413   4.540   1.493  17.131 -0.2061 -0.2306 -0.1121
  155MPD2    C5 2414   4.582   1.371  17.089  0.1385  0.2602  1.0988
  155MPD2     H 2415   0.032   1.549  17.366  2.0912 -0.1291 -0.6508
  155MPD2    H1 2416   4.456   1.538  17.080 -0.0107 -0.4212 -0.5952
  155MPD2    H2 2417   4.689   1.196  17.136  0.3297  0.4308 -0.6683
  155MPD2    H3 2418   4.526   1.323  17.009 -0.1642 -1.6073  2.4248
  155MPD2     N 2419   4.587   1.703  17.243  0.0024 -0.4053 -0.4419
  155MPD2    H5 2420   4.635   1.746  17.322 -1.9234 -0.8618  0.9662
  155MPD2    N1 2421   0.115   1.292  17.326 -0.2322  0.0815  0.0969
  155MPD2    H7 2422   0.126   1.196  17.296 -0.5523  0.2651 -0.5988
  156TMC2    C1 2423   3.821   4.107  11.497 -0.2858 -0.2512  0.0996
  156TMC2    C2 2424   3.818   3.986  11.429  0.6019  0.3539  0.2890
  156TMC2    C3 2425   3.759   3.987  11.304  0.2808 -0.5129 -0.0303
  156TMC2    C4 2426   3.734   4.204  11.459  0.4497  0.1876  0.0675
  156TMC2    C5 2427   3.684   4.207  11.333 -0.2344 -0.3199  0.0082
  156TMC2    C6 2428   3.688   4.094  11.252  0.2623 -0.1257  0.0995
  156TMC2     C 2429   3.878   4.110  11.634 -0.2812  0.0822 -0.3331
  156TMC2     O 2430   3.856   4.211  11.701 -0.0092 -0.0046 -0.4676
  156TMC2     H 2431   3.864   3.892  11.455 -1.6218 -0.4627  1.3293
  156TMC2    H1 2432   3.720   4.298  11.511 -0.0903  0.4498 -0.5574
  156TMC2    H2 2433   3.666   4.099  11.146  2.1865  0.0171 -0.3001
  156TMC2    C7 2434   3.589   4.310  11.302 -0.0945  0.2336 -0.9095
  156TMC2    C8 2435   3.806   3.895  11.214  0.2885  0.2880 -0.3634
  156TMC2    O1 2436   3.599   4.419  11.359 -0.6839 -0.8196  0.2473
  156TMC2    O2 2437   3.923   3.868  11.201 -0.0228  0.7553  0.0917
  156TMC2    O5 2438   3.701   3.840  11.143  0.0076 -0.3165 -0.5595
  156TMC2    H5 2439   3.615   3.862  11.186  0.3523 -3.7578  1.9005
  157MPD2     C 2440   4.072   3.862  11.831  0.3249  0.1389  0.3901
  157MPD2    C1 2441   3.996   3.970  11.807  0.1813  0.7071  0.4525
  157MPD2    C2 2442   3.947   4.039  11.915 -0.3507 -0.2846  0.5188
  157MPD2    C3 2443   3.981   4.002  12.046  0.3420  0.2125  0.7181
  157MPD2    C4 2444   4.066   3.891  12.070 -0.6324 -0.7748  0.4450
  157MPD2    C5 2445   4.105   3.821  11.959  0.3080 -0.0868 -0.9226
  157MPD2     H 2446   3.878   4.122  11.909 -2.0307 -1.8014 -0.9138
  157MPD2    H1 2447   4.106   3.861  12.166  1.9696  1.2227 -0.0393
  157MPD2    H2 2448   4.105   3.799  11.749  0.7003  0.7897  0.0370
  157MPD2    H3 2449   4.159   3.728  11.976  1.6302  1.0805  1.2419
  157MPD2     N 2450   3.924   4.082  12.154  0.1484  0.0928  0.2192
  157MPD2    H5 2451   3.891   4.175  12.128  0.8519  0.6863  1.4236
  157MPD2    N1 2452   3.950   4.000  11.676 -0.2361  0.0293  0.4912
  157MPD2    H7 2453   3.985   3.935  11.606 -0.8660 -0.2240  0.4071
  158TMC2    C1 2454   4.329   2.981  13.449  0.3517  0.4018 -0.6292
  158TMC2    C2 2455   4.408   2.993  13.335  0.1613  0.2634 -0.1864
  158TMC2    C3 2456   4.348   3.008  13.212 -0.1173 -0.0923 -0.2214
  158TMC2    C4 2457   4.194   2.960  13.435  0.2056 -0.0822 -0.1671
  158TMC2    C5 2458   4.142   2.962  13.309  1.1547  0.6743  0.3674
  158TMC2    C6 2459   4.215   2.986  13.195  0.3451 -0.3932  0.8591
  158TMC2     C 2460   4.403   2.990  13.573  0.5222  0.0983  0.7815
  158TMC2     O 2461   4.521   3.022  13.563 -0.4601  0.1065  0.8942
  158TMC2     H 2462   4.516   2.996  13.346 -0.1812 -2.5835  3.9280
  158TMC2    H1 2463   4.137   2.947  13.526  0.4151  0.2245  0.0072
  158TMC2    H2 2464   4.183   2.984  13.091 -1.3575 -1.3305  1.3973
  158TMC2    C7 2465   3.996   2.950  13.281 -0.0519 -0.0727 -0.4675
  158TMC2    C8 2466   4.411   3.066  13.091  0.5540  0.7648  0.2475
  158TMC2    O1 2467   3.960   3.006  13.178 -0.1550 -0.1094 -0.1080
  158TMC2    O2 2468   4.356   3.127  13.004  0.8772  0.3652  0.5381
  158TMC2    O5 2469   4.543   3.034  13.080  0.3376 -0.6487 -0.7646
  158TMC2    H5 2470   4.572   2.970  13.148 -2.9615  1.0918  2.3203
  159MPD2     C 2471   4.437   3.008  14.084  0.5364 -0.0337 -0.5739
  159MPD2    C1 2472   4.324   2.941  14.053  0.1621 -0.0210  0.4444
  159MPD2    C2 2473   4.288   2.932  13.923  0.6768  0.2166  0.4542
  159MPD2    C3 2474   4.367   2.979  13.819  0.1248  0.1595 -0.1830
  159MPD2    C4 2475   4.482   3.044  13.853 -0.4256  0.0545 -0.0565
  159MPD2    C5 2476   4.512   3.055  13.985 -0.4166 -0.2976 -0.0843
  159MPD2     H 2477   4.198   2.876  13.898  2.7214 -2.2297 -1.5359
  159MPD2    H1 2478   4.551   3.091  13.784 -0.0263 -0.1755  0.1826
  159MPD2    H2 2479   4.472   3.011  14.186 -1.1935 -0.3069  0.0266
  159MPD2    H3 2480   4.600   3.110  14.017 -0.8391  0.5524 -0.3769
  159MPD2     N 2481   4.323   2.959  13.686  0.7257  0.5482 -0.9568
  159MPD2    H5 2482   4.232   2.916  13.679  0.5111  1.1855 -2.1208
  159MPD2    N1 2483   4.237   2.893  14.154  0.1491  0.2666 -0.8777
  159MPD2    H7 2484   4.269   2.902  14.250 -1.1892 -0.4023 -0.3723
  160TMC2    C1 2485   3.659   0.451   1.427 -0.6890 -0.3312 -0.2026
  160TMC2    C2 2486   3.789   0.408   1.413 -0.7170 -0.2871 -0.4288
  160TMC2    C3 2487   3.892   0.492   1.453  0.0484  0.8498  0.4136
  160TMC2    C4 2488   3.641   0.577   1.478  0.4009  0.1067 -0.3764
  160TMC2    C5 2489   3.743   0.658   1.515  0.1769 -0.6812 -0.0635
  160TMC2    C6 2490   3.870   0.619   1.498 -0.2052  0.5301  0.1433
  160TMC2     C 2491   3.558   0.364   1.363  0.4324 -0.0227 -0.3063
  160TMC2     O 2492   3.586   0.246   1.346 -0.2717 -0.4297 -0.0516
  160TMC2     H 2493   3.807   0.313   1.364  0.5154 -0.9045  1.2357
  160TMC2    H1 2494   3.540   0.616   1.472  0.8370  1.2876  0.0135
  160TMC2    H2 2495   3.962   0.669   1.524  0.9141 -1.0388 -0.8114
  160TMC2    C7 2496   3.718   0.787   1.577 -0.0521  0.3848  0.0806
  160TMC2    C8 2497   4.009   0.483   1.375 -0.6391  0.1434  0.5658
  160TMC2    O1 2498   3.605   0.792   1.621 -0.0264  0.3593 -0.0918
  160TMC2    O2 2499   4.037   0.567   1.291  0.6420  0.2425  0.0825
  160TMC2    O5 2500   4.100   0.441   1.462 -0.5992 -0.0677  0.0133
  160TMC2    H5 2501   4.069   0.393   1.541 -0.1908 -0.0615  0.1790
  161MPD2     C 2502   3.324   0.225   1.255 -0.3134 -0.5167  0.6721
  161MPD2    C1 2503   3.326   0.361   1.280  0.2706  0.2800 -0.4805
  161MPD2    C2 2504   3.223   0.440   1.243  0.4587 -0.1409  0.4235
  161MPD2    C3 2505   3.112   0.385   1.172  0.3161  0.2995  0.3248
  161MPD2    C4 2506   3.119   0.251   1.137  0.0758 -0.0082 -0.0559
  161MPD2    C5 2507   3.225   0.175   1.173 -0.2542  0.0133  0.1882
  161MPD2     H 2508   3.237   0.548   1.249 -0.7441  0.1887 -2.9566
  161MPD2    H1 2509   3.046   0.194   1.079  1.5105  0.1213 -1.9888
  161MPD2    H2 2510   3.392   0.151   1.295  1.5114  0.2627 -0.9677
  161MPD2    H3 2511   3.209   0.068   1.158  0.0821  0.3226 -2.2328
  161MPD2     N 2512   3.007   0.463   1.112 -0.4908  0.4835 -0.3405
  161MPD2    H5 2513   2.950   0.424   1.038 -1.7118  1.5069  0.0608
  161MPD2    N1 2514   3.442   0.431   1.325  0.0257  0.4789  0.0754
  161MPD2    H7 2515   3.425   0.529   1.345 -0.2492  0.5348 -0.4245
  162TMC2    C1 2516   1.329   2.646   1.134 -0.0432 -0.3494  0.1108
  162TMC2    C2 2517   1.334   2.615   1.272  0.2537 -0.5745 -0.1936
  162TMC2    C3 2518   1.274   2.708   1.356  0.4647  0.3146 -0.6041
  162TMC2    C4 2519   1.285   2.764   1.088  0.6139  0.4465 -0.6103
  162TMC2    C5 2520   1.223   2.846   1.179 -0.5875  0.5240  0.3363
  162TMC2    C6 2521   1.220   2.823   1.315 -0.2602  0.5035 -0.0206
  162TMC2     C 2522   1.396   2.566   1.034  0.5182  0.6578 -0.4508
  162TMC2     O 2523   1.452   2.624   0.939  0.3266  0.1084  0.3709
  162TMC2     H 2524   1.390   2.529   1.307 -0.1333 -0.6340  0.2835
  162TMC2    H1 2525   1.273   2.783   0.982 -0.3781 -0.5088 -0.6698
  162TMC2    H2 2526   1.173   2.895   1.381 -3.8859 -0.8660 -1.1040
  162TMC2    C7 2527   1.180   2.973   1.126  0.5906  0.4120 -0.0696
  162TMC2    C8 2528   1.273   2.671   1.497 -0.0947  0.1846  0.2217
  162TMC2    O1 2529   1.214   2.997   1.012 -0.1699  0.4877  0.1675
  162TMC2    O2 2530   1.331   2.576   1.540  0.5192  1.0402 -0.2208
  162TMC2    O5 2531   1.156   2.721   1.554 -0.0535 -0.7113  0.4284
  162TMC2    H5 2532   1.108   2.774   1.487  1.5583  1.9884  1.4003
  163MPD2     C 2533   1.625   2.123   0.938 -0.1005 -0.2658  0.6902
  163MPD2    C1 2534   1.644   2.242   0.867  0.3367  0.6092 -0.5807
  163MPD2    C2 2535   1.570   2.351   0.915  0.0476  0.0287  0.4398
  163MPD2    C3 2536   1.487   2.334   1.032  0.2482  0.2634 -0.0440
  163MPD2    C4 2537   1.467   2.213   1.094  0.8073  0.3612  0.9936
  163MPD2    C5 2538   1.533   2.106   1.043 -0.9482  0.4306 -0.0295
  163MPD2     H 2539   1.568   2.445   0.860 -1.2972  1.3712  2.7465
  163MPD2    H1 2540   1.392   2.193   1.170 -0.4336 -0.3437 -0.4115
  163MPD2    H2 2541   1.695   2.041   0.928  2.1649  1.8770 -0.8326
  163MPD2    H3 2542   1.534   2.015   1.101  3.7133 -0.6238 -1.7697
  163MPD2     N 2543   1.406   2.436   1.083  0.0399  0.0722 -0.2257
  163MPD2    H5 2544   1.346   2.411   1.160  0.0934 -0.7060 -0.4389
  163MPD2    N1 2545   1.728   2.233   0.750 -0.4273  0.6229  0.5347
  163MPD2    H7 2546   1.768   2.142   0.731 -0.4511  0.4735  1.2051
  164TMC2    C1 2547   2.146   2.303  11.158  0.1379 -0.0789  0.2070
  164TMC2    C2 2548   2.157   2.229  11.270 -0.4947 -0.5752  0.3193
  164TMC2    C3 2549   2.101   2.281  11.392  0.5273 -0.1473 -0.2601
  164TMC2    C4 2550   2.078   2.423  11.160 -0.2296  0.8741 -0.4089
  164TMC2    C5 2551   2.037   2.479  11.277  0.3355  0.0235 -0.3157
  164TMC2    C6 2552   2.045   2.409  11.394  0.2268 -0.1342 -0.0153
  164TMC2     C 2553   2.149   2.230  11.031 -0.3425  0.5865  0.0085
  164TMC2     O 2554   2.104   2.116  11.023  0.1975 -0.3454 -0.3094
  164TMC2     H 2555   2.190   2.126  11.267  2.5147  0.3632  1.5808
  164TMC2    H1 2556   2.050   2.479  11.072  0.4221  0.7855 -0.6679
  164TMC2    H2 2557   2.005   2.448  11.487  0.6189  0.1770  0.0221
  164TMC2    C7 2558   1.981   2.605  11.270 -0.1491  0.0428 -0.1241
  164TMC2    C8 2559   2.141   2.244  11.526  0.1430  0.4010  0.0547
  164TMC2    O1 2560   1.927   2.646  11.167 -0.0673 -0.2099  0.0336
  164TMC2    O2 2561   2.168   2.329  11.614  0.5434  0.3461  0.1202
  164TMC2    O5 2562   2.153   2.107  11.541 -0.5498  0.2191 -0.3188
  164TMC2    H5 2563   2.106   2.059  11.469 -0.0418 -2.0203  0.8617
  165TMC2    C1 2564   2.819   4.528   1.354 -0.5383 -0.2567  0.4698
  165TMC2    C2 2565   2.811   4.435   1.249 -0.0617  0.1251 -0.5207
  165TMC2    C3 2566   2.933   4.370   1.222  0.4500  0.1547  0.5173
  165TMC2    C4 2567   2.932   4.548   1.427 -0.4223  0.1095  0.0896
  165TMC2    C5 2568   3.052   4.479   1.396  0.0406  0.3216  0.0294
  165TMC2    C6 2569   3.053   4.398   1.284 -0.4230 -0.7406  0.0100
  165TMC2     C 2570   2.684   4.565   1.390 -0.3241  0.2410  0.9948
  165TMC2     O 2571   2.592   4.522   1.324  0.1084  0.6629  0.2463
  165TMC2     H 2572   2.721   4.408   1.196  0.6938 -1.0797 -1.2040
  165TMC2    H1 2573   2.926   4.589   1.528 -0.0448 -1.3114  0.6956
  165TMC2    H2 2574   3.150   4.364   1.248  0.2384 -0.0701  1.1774
  165TMC2    C7 2575   3.179   4.541   1.438 -0.6073  0.6860  0.4905
  165TMC2    C8 2576   2.939   4.254   1.127 -0.1672  0.0946  0.1836
  165TMC2    O1 2577   3.277   4.477   1.405  0.8238 -0.4645 -0.3222
  165TMC2    O2 2578   2.997   4.149   1.148 -0.6675 -0.3245  0.2267
  165TMC2    O5 2579   2.910   4.306   1.012 -0.0149 -0.5463 -0.3164
  165TMC2    H5 2580   2.880   4.400   1.011 -0.7408 -0.7714  0.4795
  166MPD2     C 2581   2.384   0.066   1.723  0.3948 -0.4716  0.0919
  166MPD2    C1 2582   2.350   4.703   1.631 -0.1652  0.2456 -0.0368
  166MPD2    C2 2583   2.455   4.655   1.561 -0.1268  0.3942 -0.1203
  166MPD2    C3 2584   2.582   4.707   1.569 -0.4752  0.0230  0.5279
  166MPD2    C4 2585   2.612   0.078   1.651  0.2022 -0.7286 -0.3579
  166MPD2    C5 2586   2.514   0.118   1.734  0.1507  0.0775  0.3209
  166MPD2     H 2587   2.445   4.571   1.493  0.3927 -0.8805  1.3793
  166MPD2    H1 2588   2.713   0.109   1.673  0.4090 -1.1267 -0.7351
  166MPD2    H2 2589   2.315   0.118   1.788 -0.2116 -1.2874  0.1004
  166MPD2    H3 2590   2.538   0.190   1.811 -2.1786  0.4868  0.6658
  166MPD2     N 2591   2.686   4.656   1.493  0.0171  0.4564  0.1946
  166MPD2    H5 2592   2.781   4.686   1.513  0.8731 -2.0772 -0.0390
  166MPD2    N1 2593   2.219   4.654   1.618  0.5509  0.4871  0.2466
  166MPD2    H7 2594   2.148   4.698   1.676 -0.2484  0.2977 -0.5909
  167TMC2    C1 2595   1.414   2.320  12.807 -0.3606  0.1255  0.2576
  167TMC2    C2 2596   1.311   2.298  12.898 -0.3147 -0.1744  0.2499
  167TMC2    C3 2597   1.271   2.174  12.939  0.1013 -0.5199  0.1974
  167TMC2    C4 2598   1.493   2.212  12.766  0.1352 -0.1174  0.5682
  167TMC2    C5 2599   1.454   2.088  12.812  0.3531 -0.1033  0.3386
  167TMC2    C6 2600   1.349   2.070  12.902  0.4705  0.0299  0.5370
  167TMC2     C 2601   1.420   2.455  12.753  0.4737 -0.0300  0.1042
  167TMC2     O 2602   1.359   2.543  12.811 -0.1101  1.0864  0.4479
  167TMC2     H 2603   1.253   2.383  12.933  1.5403  0.6676  1.2775
  167TMC2    H1 2604   1.564   2.218  12.684 -0.2883 -0.4530  0.1844
  167TMC2    H2 2605   1.317   1.968  12.921 -0.2625 -0.1006 -1.3830
  167TMC2    C7 2606   1.536   1.976  12.785 -0.1571  0.0250 -0.3206
  167TMC2    C8 2607   1.151   2.149  13.015  0.0887 -0.3208  0.0998
  167TMC2    O1 2608   1.505   1.881  12.852 -0.3051 -0.2113  0.2712
  167TMC2    O2 2609   1.098   2.044  12.996 -0.2193 -1.1577 -0.3386
  167TMC2    O5 2610   1.175   2.199  13.138  0.1628  0.3461 -0.5574
  167TMC2    H5 2611   1.240   2.273  13.138  2.1835 -1.4136  0.4100
  168MPD2     C 2612   1.492   2.706  12.598  0.9284 -0.6896 -0.8897
  168MPD2    C1 2613   1.548   2.578  12.571 -0.5713  0.1267  0.0329
  168MPD2    C2 2614   1.632   2.561  12.467 -0.1971 -0.1387 -0.2718
  168MPD2    C3 2615   1.651   2.659  12.374 -0.3495 -0.1989 -0.1601
  168MPD2    C4 2616   1.588   2.784  12.390  0.7032  0.4246  0.4208
  168MPD2    C5 2617   1.522   2.812  12.511  0.5311 -0.2265  0.2238
  168MPD2     H 2618   1.669   2.460  12.449 -0.3605 -0.1732 -0.4172
  168MPD2    H1 2619   1.598   2.863  12.316  0.6025 -1.6279 -1.7589
  168MPD2    H2 2620   1.433   2.727  12.686  0.4468  2.5113 -2.0069
  168MPD2    H3 2621   1.471   2.907  12.526  2.3516  0.9094 -0.7731
  168MPD2     N 2622   1.718   2.634  12.251  0.3030 -0.2122 -0.1429
  168MPD2    H5 2623   1.680   2.693  12.177  1.8038  2.1921  1.0104
  168MPD2    N1 2624   1.512   2.463  12.644  0.1758  1.0461 -0.3077
  168MPD2    H7 2625   1.546   2.372  12.616 -0.6477  1.2831 -2.0577
  169MPD1     C 2626   3.416   2.501   9.169  0.0451  0.5136 -0.1808
  169MPD1    C1 2627   3.363   2.423   9.266 -0.2366 -0.4938 -0.9857
  169MPD1    C2 2628   3.447   2.362   9.353  0.2158  0.2426 -0.4302
  169MPD1    C3 2629   3.586   2.371   9.329  0.1049  0.2218 -0.4895
  169MPD1    C4 2630   3.634   2.440   9.223  0.1144 -0.5412  0.0980
  169MPD1    C5 2631   3.546   2.505   9.142  0.0574  0.0224 -0.4595
  169MPD1     H 2632   3.399   2.305   9.432  1.1996 -0.5719 -0.4306
  169MPD1    H1 2633   3.739   2.462   9.207 -0.3549 -0.1564 -2.5154
  169MPD1    H2 2634   3.348   2.564   9.114  0.6236  0.5574 -0.8418
  169MPD1    H3 2635   3.577   2.574   9.064  0.2456  0.5080  0.0450
  169MPD1     N 2636   3.672   2.307   9.422 -0.5947  0.2175 -0.2336
  169MPD1    H5 2637   3.620   2.247   9.485  0.2310  0.2902  0.5181
  169MPD1    N1 2638   3.226   2.428   9.297 -0.3945  0.7041  0.4485
  169MPD1    H6 2639   3.200   2.338   9.336  0.2271 -0.6747 -2.3125
  169MPD1    H7 2640   3.175   2.444   9.211  0.3855 -0.5110 -0.2416
  170MPD1     C 2641   3.447   4.450  13.271  0.7411 -0.0249 -0.4274
  170MPD1    C1 2642   3.453   4.429  13.404  0.9358 -0.0653 -0.7111
  170MPD1    C2 2643   3.336   4.427  13.477  0.6398 -0.6751  0.7103
  170MPD1    C3 2644   3.214   4.453  13.415  0.4809 -0.3001 -0.1801
  170MPD1    C4 2645   3.208   4.476  13.280 -0.2499 -0.5613  0.0444
  170MPD1    C5 2646   3.326   4.483  13.212 -0.0167  0.0680 -0.1459
  170MPD1     H 2647   3.326   4.404  13.583  1.7067  0.6150  1.0778
  170MPD1    H1 2648   3.122   4.492  13.216 -0.5773 -3.9646 -0.3572
  170MPD1    H2 2649   3.538   4.469  13.215  0.7411 -0.9944 -0.7555
  170MPD1    H3 2650   3.327   4.506  13.105  1.8033 -0.9167 -0.3487
  170MPD1     N 2651   3.095   4.454  13.493  0.2435  0.1646  0.6507
  170MPD1    H5 2652   3.102   4.460  13.594 -1.9956 -0.2905  0.8360
  170MPD1    N1 2653   3.575   4.382  13.464 -0.2093 -0.4925 -0.5606
  170MPD1    H6 2654   3.661   4.404  13.415  0.3349 -1.6816 -0.1357
  170MPD1    H7 2655   3.582   4.392  13.565  1.4387 -2.0092 -0.5361
  171MPD1     C 2656   1.078   1.282  15.931 -0.1038  0.4275 -0.0088
  171MPD1    C1 2657   1.017   1.155  15.917  0.4356  0.1496  0.1366
  171MPD1    C2 2658   1.090   1.042  15.900 -0.3501 -0.1988 -0.1621
  171MPD1    C3 2659   1.230   1.051  15.880  0.2946  0.2166  0.1664
  171MPD1    C4 2660   1.290   1.176  15.885 -0.1172 -0.2431  0.2253
  171MPD1    C5 2661   1.211   1.286  15.906 -0.2750  0.4619 -0.8772
  171MPD1     H 2662   1.043   0.945  15.888  0.2944 -0.6080  0.6148
  171MPD1    H1 2663   1.397   1.194  15.884  0.3004 -2.7532 -0.8428
  171MPD1    H2 2664   1.029   1.375  15.954  1.1480  1.2805 -0.7974
  171MPD1    H3 2665   1.260   1.382  15.903 -0.8556  0.8143  1.0302
  171MPD1     N 2666   1.313   0.932  15.865  0.1016  0.2865  0.4328
  171MPD1    H5 2667   1.415   0.940  15.863  0.1405 -0.0960  0.9665
  171MPD1    N1 2668   0.879   1.134  15.935  0.3231 -0.0897  0.2032
  171MPD1    H6 2669   0.843   1.061  15.874 -1.3194  0.5314  0.4035
  171MPD1    H7 2670   0.836   1.225  15.921 -0.6352 -0.8085 -1.5405
  172MPD1     C 2671   0.452   4.622  17.539 -0.5493  0.4926  0.0518
  172MPD1    C1 2672   0.377   4.716  17.470 -0.3206 -0.1715  0.3430
  172MPD1    C2 2673   0.299   0.068  17.540  0.2866 -0.4819 -0.0206
  172MPD1    C3 2674   0.283   0.051  17.681  0.1199  0.1256 -0.1474
  172MPD1    C4 2675   0.349   4.677   0.000 -0.3070  0.1371 -0.4758
  172MPD1    C5 2676   0.430   4.596  17.668  0.2728 -0.0857 -0.3064
  172MPD1     H 2677   0.252   0.149  17.484  0.4180 -1.0843 -1.0155
  172MPD1    H1 2678   0.346   4.660   0.107 -1.0074 -2.5311 -0.9350
  172MPD1    H2 2679   0.516   4.554  17.484  0.6089 -0.2605  2.3387
  172MPD1    H3 2680   0.485   4.515  17.715  0.0491 -0.0598 -0.0010
  172MPD1     N 2681   0.209   0.138   0.032 -0.2279  0.2763  0.3601
  172MPD1    H5 2682   0.211   0.120   0.132 -1.7453  0.1360  0.3758
  172MPD1    N1 2683   0.407   0.011  17.335  0.0479  0.6241 -0.5385
  172MPD1    H6 2684   0.431   4.655  17.295 -0.9216 -0.0169  0.3314
  172MPD1    H7 2685   0.326   0.055  17.290 -0.1514  1.5326  0.6943
  173MPD1     C 2686   2.446   0.727  13.962  0.1503  0.2376  0.1845
  173MPD1    C1 2687   2.516   0.604  13.989  0.4683 -1.2869  0.8548
  173MPD1    C2 2688   2.463   0.520  14.081 -0.4773  0.0530 -0.6923
  173MPD1    C3 2689   2.336   0.542  14.129  0.3902 -0.1081  0.2080
  173MPD1    C4 2690   2.262   0.647  14.092  0.5916  0.5985 -0.2271
  173MPD1    C5 2691   2.318   0.745  14.010 -0.0918 -0.2036 -0.2854
  173MPD1     H 2692   2.514   0.431  14.115 -1.9451 -0.9627 -1.1747
  173MPD1    H1 2693   2.160   0.664  14.121  0.6572 -0.4597  0.5841
  173MPD1    H2 2694   2.493   0.802  13.900 -0.8814  1.9212  1.4669
  173MPD1    H3 2695   2.255   0.829  13.986 -1.7877 -1.6417 -0.8661
  173MPD1     N 2696   2.274   0.438  14.205 -0.1435  0.3466 -0.4933
  173MPD1    H5 2697   2.334   0.358  14.223  0.4934  0.9425  0.0140
  173MPD1    N1 2698   2.650   0.591  13.950  0.1929  0.0743 -0.6401
  173MPD1    H6 2699   2.668   0.637  13.861 -0.2641 -0.5423 -1.0485
  173MPD1    H7 2700   2.672   0.495  13.924  3.1831  0.7656 -0.6956
  174MPD1     C 2701   2.620   4.617  14.887  0.1538  0.5780  0.3349
  174MPD1    C1 2702   2.643   4.652  14.757 -0.8688 -0.3973 -0.5567
  174MPD1    C2 2703   2.546   4.714  14.679  0.5450 -0.0426 -0.7613
  174MPD1    C3 2704   2.413   4.713  14.722 -0.3957 -0.9459 -0.9166
  174MPD1    C4 2705   2.395   4.662  14.848 -0.7602 -1.2156  0.7584
  174MPD1    C5 2706   2.496   4.626  14.932  0.4639 -0.4382 -0.1763
  174MPD1     H 2707   2.573   0.016  14.580 -0.8035  0.6482 -0.8903
  174MPD1    H1 2708   2.294   4.645  14.883 -1.5643 -1.1328 -1.4705
  174MPD1    H2 2709   2.694   4.574  14.955 -0.2413 -0.4714  0.0988
  174MPD1    H3 2710   2.475   4.589  15.031  0.5097 -2.8919 -1.0845
  174MPD1     N 2711   2.304   0.031  14.650 -0.0432  0.9850 -0.2243
  174MPD1    H5 2712   2.214   0.034  14.698  0.0076  2.6808 -0.2488
  174MPD1    N1 2713   2.781   4.656  14.717  0.1059 -0.4173 -0.0104
  174MPD1    H6 2714   2.834   4.572  14.739 -0.9165 -0.4309  2.3552
  174MPD1    H7 2715   2.793   4.677  14.618  0.7258  1.7200  0.5098
  175MPD1     C 2716   0.398   1.239  15.097  0.1862  0.1292 -0.6612
  175MPD1    C1 2717   0.477   1.159  15.177  0.9597  1.0022 -0.7603
  175MPD1    C2 2718   0.431   1.136  15.309  0.0254  0.2497  0.1147
  175MPD1    C3 2719   0.310   1.180  15.353  0.1908 -0.7010  0.1371
  175MPD1    C4 2720   0.230   1.252  15.265 -0.4511 -0.0783  0.0167
  175MPD1    C5 2721   0.277   1.278  15.139  0.0381 -0.1049 -1.1786
  175MPD1     H 2722   0.510   1.097  15.373 -1.5179  0.0929  1.9115
  175MPD1    H1 2723   0.137   1.294  15.300  0.3073  2.2746 -0.7345
  175MPD1    H2 2724   0.417   1.268  14.995  1.9368  0.4747 -0.2422
  175MPD1    H3 2725   0.209   1.336  15.078  0.0647  1.1025 -0.0775
  175MPD1     N 2726   0.267   1.164  15.492  0.0658 -0.7379 -1.2309
  175MPD1    H5 2727   0.190   1.224  15.517 -0.4255 -1.3126 -1.3737
  175MPD1    N1 2728   0.606   1.131  15.131 -0.2506 -0.3319  0.1749
  175MPD1    H6 2729   0.608   1.117  15.030 -0.5551  1.5228 -0.0863
  175MPD1    H7 2730   0.649   1.049  15.175 -1.6293  0.5877  3.1923
  176MPD1     C 2731   1.263   2.717  16.161  0.0737 -0.2711 -0.4008
  176MPD1    C1 2732   1.170   2.805  16.205  1.1451  0.2742  0.1756
  176MPD1    C2 2733   1.172   2.835  16.343  0.3025  0.0627  0.1766
  176MPD1    C3 2734   1.246   2.758  16.428 -0.4889  0.3980 -0.7427
  176MPD1    C4 2735   1.325   2.654  16.384 -0.3246 -0.3130  0.0216
  176MPD1    C5 2736   1.339   2.639  16.248  0.0251 -1.0612 -0.3841
  176MPD1     H 2737   1.110   2.917  16.376 -0.5188 -1.9453  3.6161
  176MPD1    H1 2738   1.379   2.588  16.449 -0.9522  1.0583  1.9292
  176MPD1    H2 2739   1.271   2.704  16.054 -1.2818  1.4939 -0.7124
  176MPD1    H3 2740   1.410   2.565  16.215  0.5126 -0.6734 -0.1943
  176MPD1     N 2741   1.241   2.802  16.563  0.1066  0.0159 -0.2000
  176MPD1    H5 2742   1.166   2.867  16.583  0.1432 -0.4826  1.6310
  176MPD1    N1 2743   1.112   2.887  16.111 -0.6934  0.1434 -0.9044
  176MPD1    H6 2744   1.026   2.921  16.154  1.5304  0.9344  2.8369
  176MPD1    H7 2745   1.074   2.847  16.025  0.0820  1.9548 -2.0858
  177MPD1     C 2746   0.794   3.374   9.921  0.2768  0.0550 -0.9901
  177MPD1    C1 2747   0.803   3.468   9.820  0.1394  0.2252  0.4031
  177MPD1    C2 2748   0.685   3.490   9.742  0.5570  0.0164  0.2952
  177MPD1    C3 2749   0.572   3.413   9.765  0.3851  0.0719 -0.0129
  177MPD1    C4 2750   0.575   3.315   9.856 -0.2490 -0.4943 -0.5635
  177MPD1    C5 2751   0.687   3.300   9.939  0.4391  0.2153 -0.2152
  177MPD1     H 2752   0.699   3.559   9.660  0.7206 -0.8661 -0.4171
  177MPD1    H1 2753   0.488   3.250   9.864  0.1039 -0.8917  0.0416
  177MPD1    H2 2754   0.880   3.349   9.983  0.4072  1.9537 -0.4211
  177MPD1    H3 2755   0.687   3.221  10.014 -2.1359 -0.5892 -1.0678
  177MPD1     N 2756   0.466   3.440   9.679  0.1269 -0.4422 -0.2895
  177MPD1    H5 2757   0.478   3.506   9.603  2.0367 -1.2669 -0.6940
  177MPD1    N1 2758   0.924   3.523   9.789 -0.0052 -0.0137  0.4578
  177MPD1    H6 2759   0.981   3.527   9.874 -1.8371  0.3174  1.6816
  177MPD1    H7 2760   0.939   3.608   9.735  0.6441 -0.1234  0.4559
  178MPD1     C 2761   2.058   3.452   0.149  0.3030 -0.7107 -0.8416
  178MPD1    C1 2762   2.179   3.393   0.151  0.9611  0.6961  0.4535
  178MPD1    C2 2763   2.258   3.407   0.040  0.2711 -0.4049  0.3208
  178MPD1    C3 2764   2.233   3.497  17.672  0.1813 -0.2022  0.0360
  178MPD1    C4 2765   2.112   3.558  17.677  0.4602  0.2650  0.1688
  178MPD1    C5 2766   2.028   3.538   0.051  0.1193 -0.0893  0.0510
  178MPD1     H 2767   2.350   3.350   0.043  0.3998 -0.2681 -0.9281
  178MPD1    H1 2768   2.079   3.637  17.611 -0.2145 -0.2979 -0.1680
  178MPD1    H2 2769   1.981   3.440   0.224 -0.3033  1.1850 -1.1544
  178MPD1    H3 2770   1.934   3.592   0.062  0.4212 -0.1285  2.6924
  178MPD1     N 2771   2.317   3.529  17.567  0.5523  1.1007  0.7995
  178MPD1    H5 2772   2.288   3.595  17.496  0.1262  0.0100 -0.0566
  178MPD1    N1 2773   2.210   3.307   0.253 -0.2195 -0.7413  0.4162
  178MPD1    H6 2774   2.311   3.306   0.261 -0.2579  0.4627  0.9808
  178MPD1    H7 2775   2.171   3.347   0.338 -0.7314  0.4089 -0.3648
  179MPD1     C 2776   1.842   1.911  15.579  0.3713 -0.6457 -0.6545
  179MPD1    C1 2777   1.751   1.818  15.600  0.9184 -0.3282 -0.4081
  179MPD1    C2 2778   1.788   1.685  15.595  0.0337 -0.2687  0.5093
  179MPD1    C3 2779   1.920   1.647  15.586  0.3591 -0.1154  0.9437
  179MPD1    C4 2780   2.018   1.749  15.573 -0.4654  0.6999  0.4021
  179MPD1    C5 2781   1.976   1.883  15.567 -0.3911 -0.5218  0.1819
  179MPD1     H 2782   1.706   1.614  15.597 -0.3738  0.2550  2.1885
  179MPD1    H1 2783   2.121   1.717  15.573 -0.0383  2.0901 -0.1249
  179MPD1    H2 2784   1.817   2.017  15.579  0.8868 -0.5233 -1.5557
  179MPD1    H3 2785   2.051   1.961  15.555 -0.3198 -0.4009  1.4613
  179MPD1     N 2786   1.960   1.512  15.588  0.1597 -0.4242  0.5510
  179MPD1    H5 2787   2.058   1.498  15.565 -0.7705 -1.2324 -2.9038
  179MPD1    N1 2788   1.614   1.840  15.586 -0.3484  0.4795 -0.0184
  179MPD1    H6 2789   1.563   1.768  15.636 -3.8841  0.8883 -3.0049
  179MPD1    H7 2790   1.583   1.932  15.619 -1.0550 -0.3161  1.5014
  180MPD1     C 2791   2.551   3.191  15.186 -0.4055  0.2563  0.5669
  180MPD1    C1 2792   2.541   3.138  15.061 -0.0640  0.3642  0.1508
  180MPD1    C2 2793   2.463   3.203  14.971 -0.0638 -0.5134 -0.7418
  180MPD1    C3 2794   2.396   3.315  15.002  0.3051  0.7810  0.7912
  180MPD1    C4 2795   2.402   3.369  15.130  0.3332 -1.2034 -0.2298
  180MPD1    C5 2796   2.482   3.303  15.221  0.0769 -0.1783 -0.2256
  180MPD1     H 2797   2.468   3.178  14.866  2.1623 -0.5365 -0.6157
  180MPD1    H1 2798   2.354   3.460  15.163 -1.2697 -1.1317 -2.7292
  180MPD1    H2 2799   2.615   3.143  15.259  0.2362  0.5915  0.2147
  180MPD1    H3 2800   2.483   3.338  15.324  2.0177  2.4099 -1.1165
  180MPD1     N 2801   2.329   3.377  14.895 -0.5792  0.2841  0.6882
  180MPD1    H5 2802   2.330   3.332  14.804  1.0453 -0.4761  1.0778
  180MPD1    N1 2803   2.611   3.022  15.036 -0.5180 -0.1350  0.2909
  180MPD1    H6 2804   2.670   3.022  14.953  2.1359  0.6677  2.1598
  180MPD1    H7 2805   2.675   2.994  15.111  1.5309 -0.8360 -1.7017
  181MPD1     C 2806   3.876   0.679  10.284  0.0525  0.0771  0.3167
  181MPD1    C1 2807   3.883   0.817  10.288  0.1296 -0.3121  0.3932
  181MPD1    C2 2808   3.989   0.880  10.349 -0.1929 -0.0753  0.0440
  181MPD1    C3 2809   4.090   0.803  10.393  0.3535 -0.2676 -0.5284
  181MPD1    C4 2810   4.090   0.667  10.382  0.5550  0.2878  0.0339
  181MPD1    C5 2811   3.983   0.605  10.331 -0.0737  0.1566  0.6281
  181MPD1     H 2812   3.990   0.989  10.350  0.5530 -0.0894  0.9160
  181MPD1    H1 2813   4.172   0.609  10.423  0.8583 -0.6823 -1.9324
  181MPD1    H2 2814   3.784   0.631  10.255  2.1062 -3.8152  0.1664
  181MPD1    H3 2815   3.977   0.497  10.334  1.8656  0.0342 -0.3663
  181MPD1     N 2816   4.208   0.871  10.440  0.4206  0.7837 -0.6140
  181MPD1    H5 2817   4.275   0.803  10.472  0.2222  0.5955 -0.5937
  181MPD1    N1 2818   3.765   0.876  10.246 -0.2309  0.0085 -0.0050
  181MPD1    H6 2819   3.774   0.976  10.229  0.7944 -0.0252  0.3471
  181MPD1    H7 2820   3.696   0.828  10.189  0.6548 -0.6402 -0.5332
  182MPD1     C 2821   3.379   0.328   2.281 -0.5889 -0.7361 -0.5152
  182MPD1    C1 2822   3.500   0.270   2.268 -0.5961  0.7275 -0.3565
  182MPD1    C2 2823   3.516   0.158   2.186 -0.4078  0.3941  0.0496
  182MPD1    C3 2824   3.419   0.131   2.088 -0.6897 -0.8768  0.5249
  182MPD1    C4 2825   3.305   0.206   2.089 -0.2242  0.1218  0.3436
  182MPD1    C5 2826   3.283   0.299   2.187  0.1778  0.7065 -0.1215
  182MPD1     H 2827   3.612   0.108   2.191 -0.9964 -0.8097 -0.5589
  182MPD1    H1 2828   3.230   0.194   2.012  0.9420  1.9420 -1.0693
  182MPD1    H2 2829   3.369   0.401   2.360 -0.1549 -0.7644 -0.4348
  182MPD1    H3 2830   3.185   0.346   2.188 -0.5830 -0.8686 -2.1551
  182MPD1     N 2831   3.421   0.015   2.006 -0.2817 -0.5268 -0.4146
  182MPD1    H5 2832   3.340   4.730   1.948 -0.1518  0.6136 -0.9875
  182MPD1    N1 2833   3.603   0.296   2.363  0.3764 -0.5107  0.3427
  182MPD1    H6 2834   3.698   0.296   2.328 -0.0255 -2.0979 -0.7671
  182MPD1    H7 2835   3.587   0.387   2.405  0.8023  0.1357 -0.8968
  183MPD1     C 2836   1.507   4.443   9.521  0.1666  0.6533 -0.5428
  183MPD1    C1 2837   1.371   4.458   9.536  0.3037 -0.5574 -0.9094
  183MPD1    C2 2838   1.332   4.560   9.624 -0.3045  0.6427 -0.3745
  183MPD1    C3 2839   1.416   4.625   9.705 -0.0214  0.5958 -0.4015
  183MPD1    C4 2840   1.553   4.586   9.702  0.1783 -0.7510  0.2280
  183MPD1    C5 2841   1.594   4.493   9.608  0.1115  0.7800  0.2064
  183MPD1     H 2842   1.226   4.584   9.626  0.0025  1.7702  1.7644
  183MPD1    H1 2843   1.620   4.645   9.765 -1.9172 -0.0617  1.8002
  183MPD1    H2 2844   1.551   4.386   9.441  0.8558 -0.2551  0.4738
  183MPD1    H3 2845   1.699   4.467   9.598 -0.2580 -0.8909  0.6671
  183MPD1     N 2846   1.369   4.727   9.792  0.2619 -0.0434  0.1764
  183MPD1    H5 2847   1.272   0.022   9.791 -0.0877 -1.3607 -2.7434
  183MPD1    N1 2848   1.281   4.398   9.451 -0.3230  0.0927  0.1050
  183MPD1    H6 2849   1.206   4.368   9.513 -0.1451 -1.6412 -0.5154
  183MPD1    H7 2850   1.330   4.323   9.403  0.6998  1.4635 -0.9685
  184MPD1     C 2851   4.272   2.811  10.332 -0.0224  0.4435 -0.5452
  184MPD1    C1 2852   4.238   2.733  10.221  0.0071 -0.2843 -0.2538
  184MPD1    C2 2853   4.248   2.790  10.096  0.6160 -0.1197  0.6654
  184MPD1    C3 2854   4.279   2.924  10.084 -0.3267  0.1037  0.1238
  184MPD1    C4 2855   4.306   2.991  10.192  0.0744  0.8170 -0.1731
  184MPD1    C5 2856   4.301   2.940  10.313 -0.6283  0.6212 -0.2414
  184MPD1     H 2857   4.233   2.717  10.016  0.4030  0.5906  0.0541
  184MPD1    H1 2858   4.321   3.098  10.182  0.8143  0.8205  0.9651
  184MPD1    H2 2859   4.280   2.762  10.428  1.4776 -3.5747 -2.7114
  184MPD1    H3 2860   4.317   3.005  10.398 -0.1094 -0.8082  0.7564
  184MPD1     N 2861   4.280   3.005   9.969  0.1419 -0.4748  0.0576
  184MPD1    H5 2862   4.292   3.106   9.974  1.4177 -0.5981 -0.7321
  184MPD1    N1 2863   4.221   2.590  10.238  0.1749 -0.4888  0.1052
  184MPD1    H6 2864   4.187   2.566  10.331 -1.7322  0.8005 -0.2629
  184MPD1    H7 2865   4.163   2.542  10.170 -0.8538  0.6330  0.1801
  185MPD1     C 2866   4.012   2.838   9.035  0.0345 -0.6071  0.1442
  185MPD1    C1 2867   4.068   2.967   9.026 -0.6679  0.0309  0.1259
  185MPD1    C2 2868   4.091   3.036   9.150  0.9461 -0.2183 -0.4933
  185MPD1    C3 2869   4.074   2.978   9.270 -1.4148 -0.3404  0.8267
  185MPD1    C4 2870   4.017   2.852   9.278  0.6234  0.0795 -0.5873
  185MPD1    C5 2871   3.988   2.787   9.161  0.1404  1.0019 -0.9384
  185MPD1     H 2872   4.127   3.138   9.152 -0.4246  0.2567 -0.1297
  185MPD1    H1 2873   4.007   2.814   9.378  0.9612 -1.7063 -1.2371
  185MPD1    H2 2874   3.970   2.783   8.952  1.1262  0.8162 -1.3462
  185MPD1    H3 2875   3.941   2.691   9.179  1.0820  0.4385 -1.4708
  185MPD1     N 2876   4.115   3.027   9.398  0.3618 -0.2487 -0.4638
  185MPD1    H5 2877   4.102   2.960   9.472  1.5624 -0.0073 -0.0349
  185MPD1    N1 2878   4.065   3.039   8.908  0.2415  0.1617  0.5076
  185MPD1    H6 2879   4.112   3.129   8.913 -0.0772  0.5016 -2.7442
  185MPD1    H7 2880   4.093   2.981   8.829 -0.6653 -0.1218  0.3950
  186MPD1     C 2881   2.326   1.577  15.709 -0.2095 -0.3070  0.4680
  186MPD1    C1 2882   2.397   1.686  15.663  0.1557  0.0002  0.2497
  186MPD1    C2 2883   2.423   1.790  15.752  0.8189 -0.0328 -0.2252
  186MPD1    C3 2884   2.377   1.789  15.885 -0.2576  0.1686  0.3227
  186MPD1    C4 2885   2.303   1.676  15.917 -0.2184  0.4336 -0.6358
  186MPD1    C5 2886   2.265   1.578  15.830 -0.7545  0.2126  0.6388
  186MPD1     H 2887   2.488   1.870  15.720 -0.3395  0.8414 -0.3816
  186MPD1    H1 2888   2.275   1.660  16.020  0.5342 -2.0100 -0.8037
  186MPD1    H2 2889   2.318   1.490  15.645 -1.5106 -0.2095  0.5089
  186MPD1    H3 2890   2.209   1.494  15.869  0.5213 -0.9400 -0.0527
  186MPD1     N 2891   2.409   1.885  15.984  0.0611 -0.6452 -0.1388
  186MPD1    H5 2892   2.374   1.855  16.075  0.5544 -0.3119  0.1636
  186MPD1    N1 2893   2.459   1.689  15.536 -0.2211  0.4145  0.0992
  186MPD1    H6 2894   2.473   1.778  15.489  2.5326  1.4517  2.8825
  186MPD1    H7 2895   2.418   1.622  15.472  0.8036 -2.2140  2.2065
  187MPD1     C 2896   2.558   4.509   0.276  0.2626 -0.0547 -0.2693
  187MPD1    C1 2897   2.450   4.426   0.310 -0.6103  0.0709  0.2888
  187MPD1    C2 2898   2.338   4.438   0.226 -0.6197 -0.0537  0.2236
  187MPD1    C3 2899   2.339   4.505   0.107  1.1554  0.5867  0.4131
  187MPD1    C4 2900   2.452   4.579   0.068  0.0877 -0.3553  0.8899
  187MPD1    C5 2901   2.556   4.579   0.157  0.2660 -0.3187 -0.3127
  187MPD1     H 2902   2.246   4.385   0.250 -1.5427  0.7776 -1.4704
  187MPD1    H1 2903   2.455   4.637  17.712  0.2708 -1.1866  0.3746
  187MPD1    H2 2904   2.646   4.518   0.339  0.3050  2.8397 -0.7465
  187MPD1    H3 2905   2.640   4.645   0.140 -0.8374  0.3309 -3.3710
  187MPD1     N 2906   2.228   4.513   0.017  0.0655 -0.1969 -0.2646
  187MPD1    H5 2907   2.236   4.578  17.675 -0.6659  0.2418  0.0317
  187MPD1    N1 2908   2.440   4.360   0.436 -0.4043  0.1606  0.1050
  187MPD1    H6 2909   2.533   4.339   0.472 -0.9283 -2.5143 -0.0471
  187MPD1    H7 2910   2.389   4.272   0.438 -0.2784  0.0008 -4.4124
  188MPD1     C 2911   2.468   4.438  10.615 -0.1422 -0.0398 -0.3378
  188MPD1    C1 2912   2.402   4.454  10.497  0.8393  0.3790  0.5265
  188MPD1    C2 2913   2.349   4.342  10.440  0.1456  0.1838  0.1778
  188MPD1    C3 2914   2.325   4.226  10.518 -0.3864 -0.3381 -0.5872
  188MPD1    C4 2915   2.389   4.224  10.640  1.1491  0.4067 -0.2125
  188MPD1    C5 2916   2.477   4.318  10.677  0.3056 -0.0530  0.2785
  188MPD1     H 2917   2.315   4.349  10.337  0.8302  1.0533  0.0103
  188MPD1    H1 2918   2.393   4.132  10.698  2.1733  0.2106 -0.6026
  188MPD1    H2 2919   2.539   4.515  10.642 -2.9699  2.6266 -0.4758
  188MPD1    H3 2920   2.535   4.309  10.769 -1.2760  1.0290  1.3594
  188MPD1     N 2921   2.255   4.111  10.471  0.5203 -0.4624  0.5528
  188MPD1    H5 2922   2.276   4.026  10.522 -0.4989 -1.4775 -0.7304
  188MPD1    N1 2923   2.414   4.572  10.424  0.3933 -0.0964 -0.3802
  188MPD1    H6 2924   2.454   4.651  10.473 -0.5181 -0.6831  1.3298
  188MPD1    H7 2925   2.327   4.605  10.383  0.4915  1.2622  0.5078
  189MPD1     C 2926   3.768   0.032   0.666 -0.4574 -0.0656  0.2977
  189MPD1    C1 2927   3.700   4.686   0.579  0.2947 -0.1520 -0.0730
  189MPD1    C2 2928   3.631   0.013   0.478  0.8061 -0.0003 -1.3543
  189MPD1    C3 2929   3.610   0.149   0.480  0.5836  0.0013  0.4318
  189MPD1    C4 2930   3.669   0.225   0.576  0.0243 -0.1009 -0.8407
  189MPD1    C5 2931   3.751   0.166   0.660 -0.5858  0.5145 -0.4682
  189MPD1     H 2932   3.584   4.692   0.397 -2.0740 -0.6530  0.7689
  189MPD1    H1 2933   3.657   0.332   0.586  0.0928 -0.1629 -0.0884
  189MPD1    H2 2934   3.836   4.724   0.739 -2.3996 -0.9700  1.5901
  189MPD1    H3 2935   3.809   0.220   0.734 -0.8897  2.4650 -1.6417
  189MPD1     N 2936   3.519   0.202   0.383  0.9038 -0.0153  0.2477
  189MPD1    H5 2937   3.488   0.133   0.316 -0.9969 -0.5559  1.6765
  189MPD1    N1 2938   3.739   4.552   0.569  0.0373 -0.4126 -0.0925
  189MPD1    H6 2939   3.737   4.512   0.663 -0.4661 -1.1767 -0.4320
  189MPD1    H7 2940   3.664   4.500   0.526 -1.2221  1.5059 -0.2088
  190MPD1     C 2941   1.947   3.168  15.112 -0.6466  0.4181  0.1252
  190MPD1    C1 2942   2.082   3.147  15.094  0.4313  0.0867  0.1066
  190MPD1    C2 2943   2.164   3.137  15.206 -0.4308 -0.0992 -0.4530
  190MPD1    C3 2944   2.110   3.160  15.328  0.9141 -0.2836 -0.6424
  190MPD1    C4 2945   1.980   3.197  15.344 -1.1384 -0.2082  0.2233
  190MPD1    C5 2946   1.897   3.188  15.234 -0.5254 -0.3344 -0.6682
  190MPD1     H 2947   2.271   3.121  15.194 -0.4920 -0.3191 -0.6918
  190MPD1    H1 2948   1.945   3.229  15.441 -0.5118 -2.1850  1.1026
  190MPD1    H2 2949   1.873   3.163  15.032  0.2135 -3.1509 -0.4084
  190MPD1    H3 2950   1.791   3.210  15.238 -0.3262  0.6042 -0.3787
  190MPD1     N 2951   2.197   3.148  15.435 -0.4607 -0.5353 -0.0090
  190MPD1    H5 2952   2.292   3.118  15.417 -1.0621 -1.8060 -1.0270
  190MPD1    N1 2953   2.133   3.123  14.968 -0.1339 -0.7525  0.4469
  190MPD1    H6 2954   2.075   3.170  14.899 -1.2073 -0.4165  1.5867
  190MPD1    H7 2955   2.234   3.124  14.952  0.0415  0.1154  1.6549
  191MPD1     C 2956   1.314   4.618  13.516 -0.1758 -0.6856 -0.4158
  191MPD1    C1 2957   1.231   4.616  13.409  0.0075 -0.6057 -0.2196
  191MPD1    C2 2958   1.240   4.726  13.317 -0.1620  0.5809 -0.6037
  191MPD1    C3 2959   1.311   0.103  13.343  0.1387 -0.2340 -0.2624
  191MPD1    C4 2960   1.390   0.102  13.460  0.1877 -0.3612 -0.2057
  191MPD1    C5 2961   1.398   4.723  13.529 -0.4182 -0.8394 -0.0740
  191MPD1     H 2962   1.180   4.730  13.227 -1.5984  0.7860  0.3632
  191MPD1    H1 2963   1.433   0.196  13.491 -1.7814 -0.1327  1.8437
  191MPD1    H2 2964   1.319   4.530  13.578 -2.8136  0.5815  1.5821
  191MPD1    H3 2965   1.462   4.716  13.617 -0.0432  1.7122 -0.1439
  191MPD1     N 2966   1.296   0.209  13.258 -0.1924  0.5670  0.3407
  191MPD1    H5 2967   1.229   0.197  13.183 -2.5107 -0.7930  2.6303
  191MPD1    N1 2968   1.140   4.510  13.388 -0.2328  0.5931  0.1157
  191MPD1    H6 2969   1.167   4.425  13.437 -0.5728  1.0777  1.1483
  191MPD1    H7 2970   1.132   4.480  13.291 -2.1788 -0.1322  0.4995
  192MPD1     C 2971   0.610   0.712  12.798  0.0662 -0.5455  0.5977
  192MPD1    C1 2972   0.608   0.623  12.902 -0.0293 -0.1961 -0.5333
  192MPD1    C2 2973   0.725   0.594  12.965  0.5782  0.6865 -0.1335
  192MPD1    C3 2974   0.840   0.654  12.920 -0.7832 -0.2398  0.2941
  192MPD1    C4 2975   0.844   0.719  12.800 -0.2622 -0.1460  0.4481
  192MPD1    C5 2976   0.727   0.759  12.748  0.1944 -0.2824 -0.2313
  192MPD1     H 2977   0.717   0.528  13.050 -1.0000  0.4879 -0.4473
  192MPD1    H1 2978   0.931   0.775  12.769 -1.5727 -0.0449 -2.9545
  192MPD1    H2 2979   0.516   0.748  12.759  1.6681  1.4276 -1.4240
  192MPD1    H3 2980   0.733   0.832  12.668  2.3923 -1.4633 -1.1623
  192MPD1     N 2981   0.968   0.640  12.968  0.4243  0.1259 -0.0389
  192MPD1    H5 2982   1.040   0.692  12.920  0.4577 -0.6045 -0.7918
  192MPD1    N1 2983   0.485   0.599  12.962  0.1530  0.3641 -0.2066
  192MPD1    H6 2984   0.413   0.598  12.891  0.2343  0.3747 -0.2893
  192MPD1    H7 2985   0.484   0.505  13.002 -0.7185  0.4888  0.0601
  193MPD1     C 2986   1.280   0.564  16.169  0.2374  0.5212 -0.3211
  193MPD1    C1 2987   1.403   0.498  16.178 -0.1599  0.6298 -0.5190
  193MPD1    C2 2988   1.479   0.501  16.292  0.3952 -0.5731 -0.1510
  193MPD1    C3 2989   1.450   0.602  16.385  0.1557 -0.2463 -0.2777
  193MPD1    C4 2990   1.333   0.675  16.372  0.6574 -0.2848  0.5564
  193MPD1    C5 2991   1.246   0.641  16.270 -0.1672 -0.0364  0.0373
  193MPD1     H 2992   1.563   0.432  16.297  0.6742 -0.0857  1.6789
  193MPD1    H1 2993   1.298   0.744  16.447  2.5637 -0.1996  1.3659
  193MPD1    H2 2994   1.203   0.553  16.093 -0.6689  1.0451  0.5236
  193MPD1    H3 2995   1.142   0.671  16.271 -0.5338 -1.4113  1.4636
  193MPD1     N 2996   1.529   0.620  16.502  0.4988 -0.1683  0.7957
  193MPD1    H5 2997   1.509   0.700  16.561 -0.6810  0.7364 -0.8451
  193MPD1    N1 2998   1.442   0.401  16.088 -0.1655 -0.4132  0.9982
  193MPD1    H6 2999   1.377   0.398  16.010 -0.1009  0.1848  0.9174
  193MPD1    H7 3000   1.539   0.384  16.061 -0.4549  0.9965 -0.9814
  194MPD1     C 3001   4.034   2.638  16.581  0.4071 -0.3603 -0.0207
  194MPD1    C1 3002   3.967   2.616  16.698 -0.1253 -0.2186  0.2809
  194MPD1    C2 3003   3.972   2.493  16.752 -0.3748  0.0124  0.7112
  194MPD1    C3 3004   4.011   2.384  16.674 -0.5851  0.3398  0.2500
  194MPD1    C4 3005   4.070   2.407  16.553  0.1560  0.0778  0.0451
  194MPD1    C5 3006   4.093   2.539  16.512  0.5702 -0.3981 -0.9300
  194MPD1     H 3007   3.940   2.474  16.854  0.5057  0.2755  1.0419
  194MPD1    H1 3008   4.099   2.323  16.490  0.5919 -0.5807  1.1154
  194MPD1    H2 3009   4.062   2.737  16.548  0.9772 -0.8092 -0.8631
  194MPD1    H3 3010   4.144   2.566  16.420  2.3415 -0.6160 -0.0138
  194MPD1     N 3011   3.987   2.253  16.717  0.3948 -0.4203 -0.4924
  194MPD1    H5 3012   4.003   2.188  16.640  1.2122 -0.4957 -0.2564
  194MPD1    N1 3013   3.929   2.723  16.782  0.0707 -0.0277 -0.1723
  194MPD1    H6 3014   3.871   2.708  16.864 -1.2765 -1.0812 -1.3225
  194MPD1    H7 3015   3.906   2.807  16.730  1.5887 -0.7760 -2.0513
  195MPD1     C 3016   1.179   4.310  17.632  0.1802  0.5204 -0.9719
  195MPD1    C1 3017   1.239   4.225  17.713 -0.1564  0.5896 -0.3160
  195MPD1    C2 3018   1.168   4.112   0.024  0.4527  0.2963  0.4198
  195MPD1    C3 3019   1.047   4.087  17.703 -0.1014  0.0646 -0.0324
  195MPD1    C4 3020   0.985   4.176  17.616 -0.1668  0.9814 -0.5711
  195MPD1    C5 3021   1.057   4.284  17.575 -0.7886 -0.7809 -0.3474
  195MPD1     H 3022   1.218   4.038   0.085 -1.3692 -0.0692  1.4801
  195MPD1    H1 3023   0.884   4.161  17.579 -0.1526 -2.0969  0.6409
  195MPD1    H2 3024   1.227   4.405  17.613  0.8397  0.2492 -0.6358
  195MPD1    H3 3025   1.012   4.352  17.503  1.3169  0.4211 -0.5239
  195MPD1     N 3026   0.979   3.972  17.724 -0.3335  0.5114 -0.1291
  195MPD1    H5 3027   0.923   3.933  17.649  1.1910 -0.1177 -0.9311
  195MPD1    N1 3028   1.359   4.268   0.046 -0.0590  0.2628  0.1095
  195MPD1    H6 3029   1.417   4.337  17.735  1.2573  0.1375  1.5387
  195MPD1    H7 3030   1.411   4.183   0.068 -0.3545  0.3430  1.1519
  196MPD1     C 3031   0.226   3.568  17.588 -0.2489 -0.5284  0.2303
  196MPD1    C1 3032   0.178   3.458  17.657  0.2943  0.2949 -0.3154
  196MPD1    C2 3033   0.199   3.449   0.064  0.0937 -0.0590 -0.2663
  196MPD1    C3 3034   0.256   3.553   0.125 -0.4285  0.4369  0.6228
  196MPD1    C4 3035   0.291   3.665   0.056 -0.1208 -0.0003  0.6673
  196MPD1    C5 3036   0.273   3.674  17.658 -0.1071  0.5748  1.0201
  196MPD1     H 3037   0.156   3.365   0.117 -0.6459 -1.0827 -2.4750
  196MPD1    H1 3038   0.333   3.753   0.103 -0.3727  0.7833 -0.5683
  196MPD1    H2 3039   0.212   3.575  17.481  0.6417  1.2682  0.2325
  196MPD1    H3 3040   0.303   3.769  17.614 -1.1747 -0.3135 -1.6582
  196MPD1     N 3041   0.280   3.558   0.268  0.0155  0.2010 -0.3292
  196MPD1    H5 3042   0.303   3.645   0.315  1.5036  0.4494 -1.5162
  196MPD1    N1 3043   0.135   3.347  17.586 -0.3354 -0.0302 -0.1978
  196MPD1    H6 3044   0.102   3.377  17.494 -4.0272 -3.1947  0.0821
  196MPD1    H7 3045   0.050   3.310  17.629 -0.0381  1.4772  1.6601
  197MPD1     C 3046   4.711   0.580  17.073 -0.1420  0.0994  0.4713
  197MPD1    C1 3047   0.034   0.672  17.158 -0.3588  0.0908  0.3880
  197MPD1    C2 3048   0.067   0.795  17.109 -0.3855  0.0171  0.8683
  197MPD1    C3 3049   0.045   0.827  16.974  0.5016 -0.0986 -0.6673
  197MPD1    C4 3050   4.710   0.741  16.896 -0.5796  0.3226 -0.1478
  197MPD1    C5 3051   4.682   0.618  16.944 -0.2071 -0.5335  0.3747
  197MPD1     H 3052   0.121   0.862  17.174  2.1367 -0.7096 -0.4631
  197MPD1    H1 3053   4.670   0.772  16.800 -2.3574 -1.3808  0.0351
  197MPD1    H2 3054   4.671   0.487  17.111  1.6237 -1.3251 -1.1771
  197MPD1    H3 3055   4.618   0.550  16.889 -0.2330 -1.6794  1.8193
  197MPD1     N 3056   0.081   0.948  16.917  0.2875  0.5896  0.0614
  197MPD1    H5 3057   0.070   0.948  16.816  0.8687 -1.2159 -0.0085
  197MPD1    N1 3058   0.043   0.650  17.297 -0.6341 -0.1077  0.0868
  197MPD1    H6 3059   0.073   0.553  17.305 -0.4194 -0.2131 -2.1697
  197MPD1    H7 3060   0.117   0.710  17.334 -0.0028 -0.1353 -1.1284
  198MPD1     C 3061   2.340   0.255  15.805  0.5524 -0.3757 -0.1117
  198MPD1    C1 3062   2.378   0.167  15.911  0.0254 -0.5316  0.4171
  198MPD1    C2 3063   2.397   0.034  15.878  0.6551 -0.1215  0.2742
  198MPD1    C3 3064   2.366   4.713  15.759  0.8206 -0.8320 -0.5105
  198MPD1    C4 3065   2.320   0.067  15.660 -0.0815  0.2255  0.1717
  198MPD1    C5 3066   2.309   0.198  15.685  0.0941  1.1932 -0.1785
  198MPD1     H 3067   2.455   4.708  15.948  0.9755 -0.2216 -0.0740
  198MPD1    H1 3068   2.302   0.036  15.557  1.7157 -2.0104  0.5290
  198MPD1    H2 3069   2.321   0.361  15.810 -0.2396 -0.5630  0.7115
  198MPD1    H3 3070   2.284   0.273  15.611 -0.6560  1.8818  0.7755
  198MPD1     N 3071   2.371   4.572  15.747  0.2358 -0.4222  0.8239
  198MPD1    H5 3072   2.412   4.526  15.828  1.6338  0.6862  0.7545
  198MPD1    N1 3073   2.404   0.218  16.040  0.1304 -0.2075 -0.6803
  198MPD1    H6 3074   2.389   0.140  16.103  1.1448 -0.8033 -1.1883
  198MPD1    H7 3075   2.356   0.304  16.066 -3.1990 -2.3130  0.2627
  199MPD1     C 3076   0.126   1.997  10.634  0.0558 -0.2181  0.1867
  199MPD1    C1 3077   4.733   1.982  10.681 -0.0432  0.4366  0.8068
  199MPD1    C2 3078   4.651   1.892  10.617  0.1515  0.1628 -0.0268
  199MPD1    C3 3079   4.694   1.817  10.506 -0.5566  0.5285 -1.1751
  199MPD1    C4 3080   0.088   1.842  10.454  0.0145 -0.9018  0.1448
  199MPD1    C5 3081   0.165   1.935  10.526 -0.4567 -0.4888  0.4668
  199MPD1     H 3082   4.557   1.877  10.670 -0.4262  0.5415 -0.9500
  199MPD1    H1 3083   0.127   1.794  10.365  0.2961  0.7375 -0.6085
  199MPD1    H2 3084   0.199   2.068  10.672 -0.1432  0.3268 -0.4450
  199MPD1    H3 3085   0.264   1.965  10.492 -0.1797 -0.0870  1.6210
  199MPD1     N 3086   4.621   1.707  10.449  0.4231  0.8110 -0.0022
  199MPD1    H5 3087   4.647   1.656  10.366  1.4495  1.1666  0.1020
  199MPD1    N1 3088   4.687   2.063  10.785  0.6171  0.8413 -0.1510
  199MPD1    H6 3089   0.034   2.079  10.845  0.0084  1.4847  0.5052
  199MPD1    H7 3090   4.626   2.006  10.844  1.5452  0.1597  0.1431
  200MPD1     C 3091   3.608   0.134  15.942  0.3847  0.4956 -0.1704
  200MPD1    C1 3092   3.668   0.258  15.967  0.1891  0.1105  0.4900
  200MPD1    C2 3093   3.640   0.363  15.883  0.3041 -0.1576 -0.3699
  200MPD1    C3 3094   3.564   0.349  15.773  0.6135  0.2113 -0.7211
  200MPD1    C4 3095   3.510   0.219  15.748 -0.1521 -0.0064  0.2332
  200MPD1    C5 3096   3.530   0.119  15.836 -0.1513  0.2758  0.2186
  200MPD1     H 3097   3.689   0.458  15.903 -1.4782  0.5866  0.4059
  200MPD1    H1 3098   3.462   0.194  15.654 -2.2753  0.7313  1.1213
  200MPD1    H2 3099   3.629   0.052  16.009 -0.4323 -1.1931 -1.9953
  200MPD1    H3 3100   3.474   0.029  15.818 -0.8408  0.3597  1.9849
  200MPD1     N 3101   3.541   0.468  15.700  0.2519 -0.3080  0.3820
  200MPD1    H5 3102   3.589   0.551  15.733  1.9801 -1.4751  0.8414
  200MPD1    N1 3103   3.733   0.276  16.087  0.0314  0.0246 -0.0304
  200MPD1    H6 3104   3.766   0.189  16.129 -0.0787  0.6604  1.3737
  200MPD1    H7 3105   3.794   0.358  16.086 -1.9568  1.5043  1.2038
  201MPD1     C 3106   1.055   3.435  13.854 -0.6925  0.4259  0.7104
  201MPD1    C1 3107   0.994   3.554  13.817  0.2842  1.3920  0.2003
  201MPD1    C2 3108   1.079   3.662  13.798 -0.3695  0.0087 -0.2067
  201MPD1    C3 3109   1.214   3.651  13.835  0.3558 -0.3358  0.3698
  201MPD1    C4 3110   1.268   3.529  13.867  0.3817  0.3984 -0.2398
  201MPD1    C5 3111   1.192   3.421  13.878  0.4449 -0.1609  0.6710
  201MPD1     H 3112   1.039   3.757  13.762 -0.5852  0.4514  1.2081
  201MPD1    H1 3113   1.376   3.529  13.872  0.3020 -0.9970  1.5542
  201MPD1    H2 3114   0.997   3.343  13.856 -3.1783  1.9348 -2.3627
  201MPD1    H3 3115   1.231   3.324  13.908  0.4444 -0.2001  0.5468
  201MPD1     N 3116   1.296   3.764  13.830  0.2034  0.4295  0.0244
  201MPD1    H5 3117   1.254   3.848  13.792  0.1352  1.2294  1.8629
  201MPD1    N1 3118   0.858   3.554  13.768  0.6865 -0.7996  0.1694
  201MPD1    H6 3119   0.801   3.497  13.831  0.2527 -0.8625 -0.2808
  201MPD1    H7 3120   0.819   3.648  13.761 -1.0245 -1.6173 -1.2064
  202MPD1     C 3121   2.663   1.086  10.901  0.4812 -0.8095 -0.2974
  202MPD1    C1 3122   2.693   0.953  10.899 -0.1256 -0.5987 -0.7246
  202MPD1    C2 3123   2.596   0.889  10.826 -0.6599  0.0816 -0.0517
  202MPD1    C3 3124   2.464   0.930  10.805 -0.2884 -0.5722 -0.2313
  202MPD1    C4 3125   2.438   1.065  10.811 -0.0660 -0.2422 -0.7367
  202MPD1    C5 3126   2.543   1.142  10.856 -0.0157 -0.5437 -0.2007
  202MPD1     H 3127   2.616   0.786  10.799  0.0076  0.2615 -0.2353
  202MPD1    H1 3128   2.344   1.113  10.785 -0.0758  1.6874  2.7469
  202MPD1    H2 3129   2.727   1.157  10.953  0.1977 -0.2134 -0.7685
  202MPD1    H3 3130   2.529   1.247  10.878  0.2787 -0.2775 -1.2605
  202MPD1     N 3131   2.364   0.853  10.759  0.0796  0.2339 -0.5241
  202MPD1    H5 3132   2.279   0.899  10.729  0.1344  0.5318 -0.2197
  202MPD1    N1 3133   2.829   0.917  10.888 -0.5347  0.3278  0.5929
  202MPD1    H6 3134   2.852   0.818  10.901  1.3000  0.6172 -0.3545
  202MPD1    H7 3135   2.883   0.969  10.957  0.5850  0.6580 -0.5306
  203MPD1     C 3136   4.135   0.618  12.594  0.5664 -0.2403  0.8458
  203MPD1    C1 3137   4.016   0.556  12.582  0.4826  0.5407 -0.7006
  203MPD1    C2 3138   4.018   0.417  12.587 -0.0651 -0.4884 -0.2892
  203MPD1    C3 3139   4.128   0.345  12.629 -0.8566 -0.4334 -0.9266
  203MPD1    C4 3140   4.245   0.412  12.650 -0.3780 -0.3229 -0.3946
  203MPD1    C5 3141   4.248   0.547  12.622 -0.3153  0.3975  0.0276
  203MPD1     H 3142   3.920   0.376  12.567 -0.3665  1.7668 -3.3940
  203MPD1    H1 3143   4.335   0.357  12.673  0.8238  0.9573 -1.9967
  203MPD1    H2 3144   4.146   0.726  12.583 -0.4861 -0.1524  0.6720
  203MPD1    H3 3145   4.342   0.602  12.622 -1.0523  1.6632  3.1339
  203MPD1     N 3146   4.127   0.209  12.637 -0.0536 -0.0536  0.6414
  203MPD1    H5 3147   4.216   0.162  12.650  0.3508  0.1674 -1.3385
  203MPD1    N1 3148   3.902   0.625  12.544  0.1227  0.1431 -0.2660
  203MPD1    H6 3149   3.892   0.724  12.567 -1.9174  0.0942 -0.9330
  203MPD1    H7 3150   3.811   0.580  12.559  0.2119  0.2771  0.7074
  204MPD1     C 3151   3.700   1.466  17.609 -0.4924  0.3973  0.5073
  204MPD1    C1 3152   3.821   1.490  17.552 -0.4198 -0.6580 -0.7532
  204MPD1    C2 3153   3.910   1.382  17.545  0.8603 -0.8171  0.1934
  204MPD1    C3 3154   3.870   1.255  17.593  0.0550  0.5857  0.0347
  204MPD1    C4 3155   3.750   1.239  17.656 -0.2546  0.3652 -0.1943
  204MPD1    C5 3156   3.667   1.347  17.675  1.4249  0.4462  0.6122
  204MPD1     H 3157   4.008   1.386  17.498  1.1969 -1.3997  0.8462
  204MPD1    H1 3158   3.710   1.142  17.681  1.3219 -0.8915 -2.6703
  204MPD1    H2 3159   3.624   1.543  17.615  0.0440  0.5795  4.6394
  204MPD1    H3 3160   3.573   1.324  17.723  2.1656 -1.5476  1.0827
  204MPD1     N 3161   3.960   1.148  17.581 -0.0829  0.2329  0.7177
  204MPD1    H5 3162   4.035   1.166  17.514 -1.1237 -0.6013 -0.6496
  204MPD1    N1 3163   3.839   1.604  17.476 -0.2306  0.1946 -0.3199
  204MPD1    H6 3164   3.937   1.630  17.473  0.1037 -0.7556  2.5895
  204MPD1    H7 3165   3.785   1.683  17.512  0.1893  1.2548 -1.9946
  205MPD1     C 3166   4.387   4.234  17.230 -0.1140  0.0326  0.7937
  205MPD1    C1 3167   4.284   4.287  17.152 -0.0745  0.0555  0.3720
  205MPD1    C2 3168   4.170   4.341  17.218 -0.0571  1.2545 -0.3892
  205MPD1    C3 3169   4.162   4.354  17.350  0.0847  0.0965 -0.0100
  205MPD1    C4 3170   4.272   4.315  17.429 -0.2373  0.0127 -1.0778
  205MPD1    C5 3171   4.377   4.249  17.367 -0.0964  0.3196  0.1187
  205MPD1     H 3172   4.087   4.369  17.154 -0.8237 -1.2730 -0.5376
  205MPD1    H1 3173   4.278   4.313  17.537 -1.2999 -0.2424 -1.0238
  205MPD1    H2 3174   4.474   4.184  17.189 -2.5989 -2.3095 -1.5028
  205MPD1    H3 3175   4.459   4.204  17.422  0.2795 -0.2728 -0.9192
  205MPD1     N 3176   4.058   4.418  17.415  0.6807  0.6263  0.0411
  205MPD1    H5 3177   4.081   4.448  17.509  0.1436 -1.7047  0.9126
  205MPD1    N1 3178   4.278   4.249  17.014  0.3140 -0.3425 -0.6034
  205MPD1    H6 3179   4.228   4.322  16.962 -1.0324 -0.6951  0.1941
  205MPD1    H7 3180   4.366   4.251  16.963  0.3839 -3.5745 -0.5911
  206MPD1     C 3181   3.380   2.296  16.939  0.8427 -0.1336  0.5968
  206MPD1    C1 3182   3.415   2.192  16.858 -0.3113 -0.4971  0.2544
  206MPD1    C2 3183   3.508   2.213  16.761  0.2790 -0.0425 -0.3724
  206MPD1    C3 3184   3.561   2.339  16.732 -0.3767  0.1357 -0.5285
  206MPD1    C4 3185   3.520   2.447  16.813  0.1003 -0.5718 -0.5894
  206MPD1    C5 3186   3.432   2.419  16.916  0.2384 -1.0972  0.7168
  206MPD1     H 3187   3.544   2.126  16.708  1.1233  0.7640 -1.1200
  206MPD1    H1 3188   3.542   2.553  16.801 -0.4733 -0.3910 -0.0696
  206MPD1    H2 3189   3.314   2.279  17.023  0.0538  0.1289  0.0323
  206MPD1    H3 3190   3.407   2.500  16.983  1.6412  1.5343 -1.9316
  206MPD1     N 3191   3.660   2.371  16.621 -0.2486 -0.5383  0.2534
  206MPD1    H5 3192   3.700   2.465  16.623  1.8636 -1.4503  0.7158
  206MPD1    N1 3193   3.373   2.064  16.898  0.3797 -0.0025  0.0335
  206MPD1    H6 3194   3.371   1.998  16.820 -2.0313 -1.1414  1.0304
  206MPD1    H7 3195   3.272   2.065  16.914  0.2042 -0.7333 -1.0171
  207MPD1     C 3196   1.615   2.066   8.844 -0.1093 -0.7791 -0.0072
  207MPD1    C1 3197   1.688   1.947   8.838  0.1105  0.3134 -0.6428
  207MPD1    C2 3198   1.780   1.922   8.939 -0.2722 -0.1483  0.4640
  207MPD1    C3 3199   1.803   2.020   9.035 -0.0670 -0.0568 -0.6184
  207MPD1    C4 3200   1.726   2.137   9.038 -0.2095  0.2828 -0.1818
  207MPD1    C5 3201   1.634   2.159   8.938  0.5863  0.4084  0.0578
  207MPD1     H 3202   1.843   1.834   8.935  1.1012  0.8018  1.3195
  207MPD1    H1 3203   1.741   2.209   9.118  0.8053 -0.1119 -0.0158
  207MPD1    H2 3204   1.542   2.082   8.765 -0.9898  1.4993  1.2585
  207MPD1    H3 3205   1.573   2.249   8.944  2.2962  1.6038 -0.6597
  207MPD1     N 3206   1.900   2.009   9.136 -0.0710  0.4527  0.4513
  207MPD1    H5 3207   1.906   2.084   9.204  0.0066  0.2685  0.6474
  207MPD1    N1 3208   1.663   1.841   8.747  1.2974  0.1206 -0.5116
  207MPD1    H6 3209   1.748   1.785   8.740  0.5216 -1.1501  0.3162
  207MPD1    H7 3210   1.636   1.855   8.650  2.1579 -0.7675 -0.8810
  208MPD1     C 3211   4.609   4.583   0.538  0.5912  0.1452 -0.4247
  208MPD1    C1 3212   4.525   4.497   0.472 -1.1558 -0.0798 -0.2931
  208MPD1    C2 3213   4.425   4.442   0.549 -0.0452  0.0888  0.8119
  208MPD1    C3 3214   4.429   4.446   0.689  0.0367  0.8650  0.0988
  208MPD1    C4 3215   4.539   4.505   0.752 -0.6017  0.2581 -0.5309
  208MPD1    C5 3216   4.612   4.590   0.675  0.3223  0.0681  0.0605
  208MPD1     H 3217   4.348   4.386   0.497  0.2317  0.7834 -0.3371
  208MPD1    H1 3218   4.544   4.517   0.859  4.0004  1.1689 -0.8400
  208MPD1    H2 3219   4.670   4.654   0.483  1.0518 -1.3438 -1.8325
  208MPD1    H3 3220   4.670   4.669   0.720  0.8446  0.3849 -1.1834
  208MPD1     N 3221   4.328   4.375   0.751  0.6175 -0.0198 -0.4398
  208MPD1    H5 3222   4.264   4.331   0.685 -0.6537  1.9192 -0.5203
  208MPD1    N1 3223   4.504   4.513   0.334 -0.2261 -0.9202 -0.1568
  208MPD1    H6 3224   4.461   4.431   0.292 -1.6873 -0.5054  0.5241
  208MPD1    H7 3225   4.587   4.539   0.282  1.1542 -0.7337  2.1267
  209MPD1     C 3226   2.234   0.524  10.028  0.0877 -0.3496  0.1426
  209MPD1    C1 3227   2.148   0.626  10.065 -0.4799  0.4879 -0.3354
  209MPD1    C2 3228   2.196   0.755  10.087  0.3770  0.0481  0.2836
  209MPD1    C3 3229   2.335   0.773  10.075  0.0675  0.3081 -0.2110
  209MPD1    C4 3230   2.422   0.668  10.050  0.1807 -0.5951 -0.0841
  209MPD1    C5 3231   2.370   0.541  10.025  0.5920  0.2552  0.4528
  209MPD1     H 3232   2.130   0.840  10.095 -0.6007 -0.8321  1.4227
  209MPD1    H1 3233   2.523   0.688  10.019  0.2850 -1.1027 -0.0693
  209MPD1    H2 3234   2.198   0.431   9.986  0.0576 -0.2525 -0.0428
  209MPD1    H3 3235   2.431   0.463   9.980  0.7641  0.1846  0.8099
  209MPD1     N 3236   2.390   0.906  10.089  0.2050  0.3478 -0.2115
  209MPD1    H5 3237   2.320   0.980  10.092 -0.3249 -0.2246  1.6168
  209MPD1    N1 3238   2.006   0.611  10.032 -0.3086 -0.1072  0.1165
  209MPD1    H6 3239   1.943   0.666  10.090 -0.2169  0.8029 -0.6634
  209MPD1    H7 3240   1.966   0.517  10.037  0.8761 -0.8192 -3.9185
  210MPD1     C 3241   3.262   1.557   9.936 -0.2685  0.3028  0.4462
  210MPD1    C1 3242   3.206   1.533  10.058 -1.2663  0.6084 -0.0607
  210MPD1    C2 3243   3.086   1.457  10.066  0.2965  0.4429  0.0433
  210MPD1    C3 3244   3.016   1.424   9.950 -0.2080 -0.2967  0.2167
  210MPD1    C4 3245   3.071   1.464   9.825 -0.3047 -1.0705  0.1372
  210MPD1    C5 3246   3.193   1.529   9.821 -0.2893 -0.6522 -0.0635
  210MPD1     H 3247   3.039   1.435  10.161 -1.8018 -3.1269 -1.7845
  210MPD1    H1 3248   3.020   1.462   9.730  2.1426  1.6752 -1.2176
  210MPD1    H2 3249   3.359   1.606   9.929 -0.7996  1.2762 -0.1008
  210MPD1    H3 3250   3.227   1.561   9.723 -1.7638  0.4962 -0.2013
  210MPD1     N 3251   2.897   1.353   9.952 -0.3257 -0.1479  0.0305
  210MPD1    H5 3252   2.840   1.338   9.870  0.1503  0.2939 -0.3763
  210MPD1    N1 3253   3.274   1.567  10.181  0.1473  0.6154  0.4036
  210MPD1    H6 3254   3.307   1.663  10.174  3.5436 -0.5712 -0.1728
  210MPD1    H7 3255   3.214   1.568  10.262 -1.3105  1.1343 -0.6824
  211MPD1     C 3256   4.451   3.901  16.178  0.2695 -0.4003  0.6164
  211MPD1    C1 3257   4.486   4.014  16.244 -0.3887  0.1790 -0.2606
  211MPD1    C2 3258   4.377   4.099  16.277 -0.4747 -0.1682 -0.3182
  211MPD1    C3 3259   4.249   4.083  16.236  0.4761  0.0180  0.7572
  211MPD1    C4 3260   4.226   3.980  16.154 -0.8120  0.3632 -0.7620
  211MPD1    C5 3261   4.321   3.887  16.138 -0.1889 -0.1919  0.6395
  211MPD1     H 3262   4.395   4.193  16.329  0.5899 -0.7553  0.3713
  211MPD1    H1 3263   4.128   3.959  16.111 -1.1442 -0.5040  0.4191
  211MPD1    H2 3264   4.518   3.818  16.162 -0.1564 -0.5744 -0.3051
  211MPD1    H3 3265   4.289   3.791  16.098  1.6923 -0.7908  0.5359
  211MPD1     N 3266   4.151   4.176  16.278 -0.1875  0.1521  0.2358
  211MPD1    H5 3267   4.178   4.263  16.322 -0.6205  0.2626  0.2865
  211MPD1    N1 3268   4.610   4.039  16.293 -0.3524 -0.1547  0.0401
  211MPD1    H6 3269   4.647   4.132  16.273 -1.7168  0.1603 -1.0175
  211MPD1    H7 3270   4.686   3.974  16.273  1.0106  1.0122  1.4314
  212MPD1     C 3271   3.564   2.842  16.708 -0.0399 -0.5883  0.3324
  212MPD1    C1 3272   3.499   2.837  16.832 -0.3037  0.9832 -0.0264
  212MPD1    C2 3273   3.378   2.774  16.838  1.0179 -0.7292 -0.2112
  212MPD1    C3 3274   3.322   2.708  16.728 -0.0548 -1.2644  0.4932
  212MPD1    C4 3275   3.394   2.700  16.610 -0.0626  0.0383 -0.6053
  212MPD1    C5 3276   3.513   2.772  16.604 -0.3123  0.0969  0.7037
  212MPD1     H 3277   3.324   2.777  16.932  3.0307  3.3171  0.8139
  212MPD1    H1 3278   3.358   2.651  16.521 -0.5857 -0.4343 -0.1324
  212MPD1    H2 3279   3.655   2.900  16.697 -1.0635  0.9197 -0.2574
  212MPD1    H3 3280   3.563   2.773  16.508 -0.3817  0.0161  0.6666
  212MPD1     N 3281   3.198   2.642  16.737 -0.6522  0.2446  0.4499
  212MPD1    H5 3282   3.169   2.578  16.663 -1.8186  1.7201 -0.3589
  212MPD1    N1 3283   3.543   2.914  16.943 -0.0929  0.3014 -0.3746
  212MPD1    H6 3284   3.642   2.929  16.959  0.1487  1.0347 -2.5804
  212MPD1    H7 3285   3.509   2.874  17.031  0.1020  1.5990  0.2913
  213MPD1     C 3286   1.696   3.448  15.922 -0.2509 -0.4093 -0.0945
  213MPD1    C1 3287   1.594   3.370  15.874 -0.6173 -0.4072 -0.5272
  213MPD1    C2 3288   1.515   3.447  15.792  0.8003 -0.0809 -0.7276
  213MPD1    C3 3289   1.545   3.565  15.729 -0.3831 -0.1403  0.3384
  213MPD1    C4 3290   1.664   3.616  15.751 -0.0695  0.0433  0.4243
  213MPD1    C5 3291   1.736   3.556  15.853  0.5458 -0.4615 -0.2024
  213MPD1     H 3292   1.416   3.412  15.764  0.5621  1.6839 -2.0727
  213MPD1    H1 3293   1.708   3.706  15.709 -1.6233  0.9374  0.6782
  213MPD1    H2 3294   1.758   3.404  16.000 -2.5462 -1.0946  1.3345
  213MPD1    H3 3295   1.833   3.593  15.882  0.1158  1.0726 -0.7239
  213MPD1     N 3296   1.450   3.623  15.646  0.3202 -0.3103  0.6341
  213MPD1    H5 3297   1.363   3.571  15.635 -0.0078  0.0643  1.5084
  213MPD1    N1 3298   1.527   3.281  15.961  0.8259 -0.0604  0.1178
  213MPD1    H6 3299   1.455   3.230  15.911  3.0407 -1.7820 -1.3288
  213MPD1    H7 3300   1.597   3.218  16.001 -0.1700 -0.5381  1.1225
  214MPD1     C 3301   1.262   3.302  14.781  0.2430  0.2095  0.3920
  214MPD1    C1 3302   1.184   3.270  14.886  0.8290 -0.4575  1.1540
  214MPD1    C2 3303   1.180   3.348  15.002  0.0223  0.2314 -0.8035
  214MPD1    C3 3304   1.239   3.471  14.998 -0.6273 -0.1608  0.2790
  214MPD1    C4 3305   1.311   3.512  14.885 -0.5776 -0.1850 -0.2752
  214MPD1    C5 3306   1.323   3.424  14.780  0.2526 -0.8713 -0.5204
  214MPD1     H 3307   1.118   3.313  15.083  0.9591 -1.5986 -0.8685
  214MPD1    H1 3308   1.359   3.609  14.884 -0.3618 -0.3224 -2.4272
  214MPD1    H2 3309   1.270   3.236  14.695  0.5230  0.5148  0.1825
  214MPD1    H3 3310   1.389   3.447  14.698  0.9152  2.9035  1.0835
  214MPD1     N 3311   1.229   3.566  15.102 -0.2422  0.0284 -0.2267
  214MPD1    H5 3312   1.267   3.659  15.087  1.2641 -0.3839  1.0766
  214MPD1    N1 3313   1.129   3.141  14.890 -0.2301  0.4219  0.2251
  214MPD1    H6 3314   1.074   3.125  14.807  0.6535 -0.0958 -0.2604
  214MPD1    H7 3315   1.061   3.118  14.962  1.8457  1.3349  2.5298
  215MPD1     C 3316   2.559   1.688  11.577 -0.2159 -1.0182 -0.3455
  215MPD1    C1 3317   2.571   1.600  11.678  0.0819 -0.3445  0.2380
  215MPD1    C2 3318   2.504   1.476  11.656  0.1060 -0.0236  0.5453
  215MPD1    C3 3319   2.456   1.440  11.528  0.2279 -0.0029  0.0715
  215MPD1    C4 3320   2.486   1.524  11.419 -0.1770 -0.6367 -0.3558
  215MPD1    C5 3321   2.531   1.647  11.446 -0.6289 -0.4055 -0.8103
  215MPD1     H 3322   2.490   1.410  11.741 -0.4427  2.3293  2.2716
  215MPD1    H1 3323   2.453   1.505  11.317  0.7394 -2.6648 -0.2861
  215MPD1    H2 3324   2.591   1.792  11.582 -2.2012 -0.4640  0.6936
  215MPD1    H3 3325   2.519   1.724  11.371 -0.8112  0.5566  0.2024
  215MPD1     N 3326   2.387   1.320  11.493 -0.3331 -0.2314  0.5412
  215MPD1    H5 3327   2.366   1.309  11.394  1.5095 -0.1670  0.1522
  215MPD1    N1 3328   2.603   1.651  11.803 -0.6934 -1.0748  0.7273
  215MPD1    H6 3329   2.657   1.583  11.856  2.0447  0.3710 -0.2015
  215MPD1    H7 3330   2.656   1.738  11.800  2.6645 -3.1143  2.3360
  216MPD1     C 3331   2.759   2.861  17.466  0.5617  0.3334  0.6627
  216MPD1    C1 3332   2.789   2.797  17.582  0.8942 -0.1991  0.6147
  216MPD1    C2 3333   2.881   2.697  17.584 -0.2721 -0.6705 -0.5146
  216MPD1    C3 3334   2.922   2.636  17.467  0.8822 -0.0856 -0.0273
  216MPD1    C4 3335   2.878   2.696  17.353 -0.3430 -0.2130 -0.2467
  216MPD1    C5 3336   2.800   2.807  17.342  0.3765 -0.2028 -0.6938
  216MPD1     H 3337   2.909   2.634  17.668  1.3534 -1.5650 -1.7222
  216MPD1    H1 3338   2.910   2.664  17.254 -1.2006 -1.2505 -0.1926
  216MPD1    H2 3339   2.689   2.943  17.453  1.4143  1.2063  1.5122
  216MPD1    H3 3340   2.776   2.855  17.247  0.6977  1.1282 -0.1091
  216MPD1     N 3341   3.004   2.518  17.469 -0.1023  0.3396  0.2844
  216MPD1    H5 3342   3.016   2.481  17.563 -0.9758 -3.5250 -1.1580
  216MPD1    N1 3343   2.746   2.865  17.701  0.3935  0.2454  0.5713
  216MPD1    H6 3344   2.661   2.916  17.680 -0.0300 -1.0710 -0.9055
  216MPD1    H7 3345   2.735   2.804   0.047  0.9270 -0.2847  0.2422
  217MPD1     C 3346   2.979   4.651   9.091  1.1459 -0.1905  0.0018
  217MPD1    C1 3347   3.090   4.621   9.016 -0.2250 -0.1927  0.6237
  217MPD1    C2 3348   3.206   4.608   9.081  0.4555 -0.2889 -0.4312
  217MPD1    C3 3349   3.209   4.611   9.223 -0.6236  0.6582  0.2658
  217MPD1    C4 3350   3.098   4.623   9.294  0.8254  0.5540 -0.2399
  217MPD1    C5 3351   2.981   4.656   9.228  0.0947 -0.1488  0.0280
  217MPD1     H 3352   3.296   4.579   9.027  0.5962 -1.3971  0.3848
  217MPD1    H1 3353   3.089   4.605   9.400  0.2412 -2.3830 -0.7717
  217MPD1    H2 3354   2.880   4.661   9.048  0.3815 -0.5930  1.6578
  217MPD1    H3 3355   2.891   4.659   9.289 -0.0895 -0.3168 -0.2395
  217MPD1     N 3356   3.325   4.599   9.293  0.3894  0.8951  0.4510
  217MPD1    H5 3357   3.321   4.569   9.390 -0.3913  0.3659  0.2575
  217MPD1    N1 3358   3.078   4.629   8.874  0.4272  0.5304 -0.1488
  217MPD1    H6 3359   3.135   4.552   8.841 -0.4374  1.1888 -3.1072
  217MPD1    H7 3360   2.983   4.601   8.852  0.5924 -1.5662  1.8286
  218MPD1     C 3361   2.205   1.385  12.159  0.4251 -0.0516 -0.2971
  218MPD1    C1 3362   2.249   1.311  12.049  0.2201 -0.2735  0.7069
  218MPD1    C2 3363   2.244   1.174  12.061 -0.2540 -0.0008  0.2588
  218MPD1    C3 3364   2.183   1.110  12.165 -0.0636  0.5367 -0.5914
  218MPD1    C4 3365   2.135   1.182  12.267 -0.0572 -0.0093 -0.0584
  218MPD1    C5 3366   2.139   1.318  12.260 -0.9732 -0.6167 -0.5980
  218MPD1     H 3367   2.268   1.111  11.976 -1.9711 -0.2495 -0.0390
  218MPD1    H1 3368   2.078   1.136  12.346  0.6861  0.5459  0.8047
  218MPD1    H2 3369   2.217   1.492  12.163  2.7092 -0.3432  0.7999
  218MPD1    H3 3370   2.101   1.381  12.341 -1.0706 -0.3271 -0.8684
  218MPD1     N 3371   2.181   0.968  12.159  0.3580 -0.0868  0.4996
  218MPD1    H5 3372   2.219   0.924  12.075  0.2223 -1.4799  1.1707
  218MPD1    N1 3373   2.315   1.377  11.941 -0.0494 -0.5214  0.0470
  218MPD1    H6 3374   2.300   1.474  11.917 -1.5205 -1.0201 -1.0788
  218MPD1    H7 3375   2.313   1.326  11.853 -0.7320 -0.0520 -0.2097
  219MPD1     C 3376   2.265   0.635  11.427 -0.0120  0.6561  0.4708
  219MPD1    C1 3377   2.187   0.532  11.477  0.4025 -0.1400  0.3349
  219MPD1    C2 3378   2.160   0.528  11.614  0.5426  0.4492 -0.2459
  219MPD1    C3 3379   2.219   0.625  11.697 -0.1851  0.1528 -0.4319
  219MPD1    C4 3380   2.307   0.718  11.647  0.3841  0.6444  0.5799
  219MPD1    C5 3381   2.321   0.726  11.511  0.7351 -0.0133 -0.1247
  219MPD1     H 3382   2.098   0.453  11.661 -1.0391  2.1333  0.3688
  219MPD1    H1 3383   2.361   0.784  11.714  0.9775 -0.1607  0.8814
  219MPD1    H2 3384   2.282   0.651  11.322 -0.1363  0.4924  0.4263
  219MPD1    H3 3385   2.375   0.807  11.462  0.7780  0.2141  0.3058
  219MPD1     N 3386   2.203   0.620  11.839  0.3073 -0.1286  0.0962
  219MPD1    H5 3387   2.260   0.685  11.892 -1.9855  2.3091 -0.4456
  219MPD1    N1 3388   2.127   0.449  11.382 -0.0479  0.9777 -0.1386
  219MPD1    H6 3389   2.097   0.354  11.406  0.9403  0.7927  0.3608
  219MPD1    H7 3390   2.175   0.444  11.292  0.0775 -1.6788  0.0504
  220MPD1     C 3391   2.122   0.154  11.056 -0.6050  0.9124  0.6648
  220MPD1    C1 3392   2.149   0.289  11.038 -0.0845  0.3150 -0.4968
  220MPD1    C2 3393   2.062   0.363  10.964 -0.4372  0.1763  0.1897
  220MPD1    C3 3394   1.953   0.305  10.897 -0.0978  0.3384 -0.6241
  220MPD1    C4 3395   1.936   0.168  10.895 -0.6390  0.0900  0.0489
  220MPD1    C5 3396   2.019   0.101  10.984  0.1447  0.1209  0.0040
  220MPD1     H 3397   2.076   0.469  10.949 -0.6117  0.4955  2.2678
  220MPD1    H1 3398   1.856   0.116  10.844 -1.4232 -0.0647  1.4091
  220MPD1    H2 3399   2.192   0.096  11.116  0.8203  2.3500  0.3928
  220MPD1    H3 3400   2.010   4.727  10.981 -0.7844  0.1398  2.1618
  220MPD1     N 3401   1.868   0.387  10.819  0.3951 -0.2957 -0.3940
  220MPD1    H5 3402   1.874   0.487  10.832 -0.2022 -0.5550  1.9779
  220MPD1    N1 3403   2.260   0.345  11.106 -0.0008 -0.5905 -0.2457
  220MPD1    H6 3404   2.332   0.276  11.123 -0.8374 -1.2899  0.4848
  220MPD1    H7 3405   2.292   0.424  11.050  0.3968  1.4935  2.9438
  221MPD1     C 3406   3.548   4.362  16.767 -0.0974 -0.0812 -0.3703
  221MPD1    C1 3407   3.563   4.282  16.652 -0.0388 -0.6677 -0.0053
  221MPD1    C2 3408   3.683   4.217  16.636  0.0012  0.8628 -0.2456
  221MPD1    C3 3409   3.778   4.233  16.732 -0.8322  0.4766  0.1333
  221MPD1    C4 3410   3.755   4.301  16.852 -0.4272  0.2136 -0.0080
  221MPD1    C5 3411   3.639   4.366  16.869 -0.1241 -0.1178  0.3166
  221MPD1     H 3412   3.707   4.180  16.537 -0.2796 -2.6406  0.9738
  221MPD1    H1 3413   3.831   4.298  16.929  2.2044  1.3954 -2.5459
  221MPD1    H2 3414   3.457   4.420  16.777 -0.2795 -0.2942 -0.7944
  221MPD1    H3 3415   3.620   4.423  16.959 -1.5922 -0.1160  0.0062
  221MPD1     N 3416   3.912   4.179  16.717 -0.6416  0.5458  0.2189
  221MPD1    H5 3417   3.981   4.217  16.780 -1.7826  1.2701  1.0400
  221MPD1    N1 3418   3.477   4.293  16.543 -0.0536  0.6137 -0.1729
  221MPD1    H6 3419   3.483   4.213  16.481 -1.6886  0.8418 -0.6042
  221MPD1    H7 3420   3.379   4.306  16.565 -0.1580  0.6988 -0.6958
  222MPD1     C 3421   2.688   2.275  17.691  0.4598 -0.0530 -0.2978
  222MPD1    C1 3422   2.670   2.417  17.674 -0.5831 -1.0628 -0.4474
  222MPD1    C2 3423   2.641   2.499   0.043  0.6940  0.3528 -0.6621
  222MPD1    C3 3424   2.635   2.450   0.172 -0.6210 -0.0680 -0.8773
  222MPD1    C4 3425   2.646   2.317   0.192  1.1564 -0.3839 -0.3594
  222MPD1    C5 3426   2.668   2.228   0.086  0.2120 -1.0791 -1.1540
  222MPD1     H 3427   2.615   2.601   0.020  0.8813  0.9501  1.7097
  222MPD1    H1 3428   2.659   2.285   0.295  0.0160 -0.2133 -0.1615
  222MPD1    H2 3429   2.704   2.207  17.607 -0.4020  0.3180 -0.7672
  222MPD1    H3 3430   2.702   2.130   0.116  1.4128  0.6883  3.3502
  222MPD1     N 3431   2.603   2.528   0.288  0.4117 -0.0420 -0.2562
  222MPD1    H5 3432   2.589   2.479   0.376  1.5529  2.1992  1.1640
  222MPD1    N1 3433   2.664   2.459  17.543 -0.3917 -0.3624 -0.0389
  222MPD1    H6 3434   2.683   2.559  17.535  0.0751 -0.5149 -0.7695
  222MPD1    H7 3435   2.724   2.399  17.488  0.2255 -1.7849  2.1759
  223MPD1     C 3436   2.177   2.577   1.182  0.0857  0.4378 -0.4602
  223MPD1    C1 3437   2.176   2.712   1.150 -0.0282  0.2673  0.9187
  223MPD1    C2 3438   2.238   2.755   1.040  0.1084  0.2103 -0.4589
  223MPD1    C3 3439   2.292   2.666   0.949 -0.1282  0.5681  0.1247
  223MPD1    C4 3440   2.300   2.534   0.985  0.0239  0.0873 -0.1576
  223MPD1    C5 3441   2.243   2.493   1.102 -0.0836  0.0608 -0.0599
  223MPD1     H 3442   2.244   2.860   1.014  0.0600 -0.1411 -1.9332
  223MPD1    H1 3443   2.359   2.462   0.929  0.1460  0.2199 -0.1999
  223MPD1    H2 3444   2.130   2.545   1.275  0.8034 -1.6847 -0.8223
  223MPD1    H3 3445   2.251   2.392   1.139  0.1001  0.2931  0.5320
  223MPD1     N 3446   2.354   2.708   0.830  0.2582 -0.0637  0.0552
  223MPD1    H5 3447   2.384   2.804   0.837  0.1431 -0.0088 -0.1977
  223MPD1    N1 3448   2.127   2.803   1.246 -0.0082 -0.4615 -0.1462
  223MPD1    H6 3449   2.048   2.766   1.297  0.4897 -2.0975 -0.5780
  223MPD1    H7 3450   2.112   2.894   1.202 -1.0220 -0.7197 -0.3257
  224MPD1     C 3451   3.879   0.174  10.061 -0.4062 -0.3583 -0.5853
  224MPD1    C1 3452   3.955   0.082   9.984 -0.6848 -0.2502 -0.2150
  224MPD1    C2 3453   4.084   0.121   9.953  0.1084  0.1973  0.5854
  224MPD1    C3 3454   4.145   0.232  10.016 -0.0510  0.9928  0.3176
  224MPD1    C4 3455   4.072   0.312  10.098  0.1838 -0.5991 -0.3401
  224MPD1    C5 3456   3.939   0.286  10.119  0.1903  0.4707  0.0425
  224MPD1     H 3457   4.132   0.056   9.881 -0.4686  0.7247 -0.2749
  224MPD1    H1 3458   4.124   0.393  10.148  0.2341 -1.4946  1.0388
  224MPD1    H2 3459   3.775   0.153  10.086 -0.8136 -1.7779 -3.4811
  224MPD1    H3 3460   3.888   0.356  10.185  0.3437  1.8578 -1.3160
  224MPD1     N 3461   4.287   0.248  10.009 -0.2558  0.4844  0.0715
  224MPD1    H5 3462   4.315   0.338  10.047  0.9227 -0.5850  1.7360
  224MPD1    N1 3463   3.895   4.703   9.930 -0.1028 -0.4453  0.7778
  224MPD1    H6 3464   3.961   4.632   9.900  0.8027  0.9044 -0.4463
  224MPD1    H7 3465   3.835   4.662  10.002 -0.1767  1.3517  1.7448
  225MPD1     C 3466   1.182   0.764  12.597  0.5298  0.1365 -0.6079
  225MPD1    C1 3467   1.103   0.653  12.560 -0.4474 -0.3158  0.4861
  225MPD1    C2 3468   0.982   0.673  12.491 -0.2224 -0.1804  0.1098
  225MPD1    C3 3469   0.934   0.801  12.473  0.3605 -0.1530  0.1488
  225MPD1    C4 3470   1.019   0.907  12.509 -0.7165 -0.0840 -0.0664
  225MPD1    C5 3471   1.140   0.885  12.570  0.6071 -0.2260  0.6921
  225MPD1     H 3472   0.922   0.585  12.472 -0.6771  0.1568 -0.0062
  225MPD1    H1 3473   0.983   1.003  12.476 -0.1828  0.1313 -0.0171
  225MPD1    H2 3474   1.277   0.750  12.647  1.0045  0.6869 -1.3675
  225MPD1    H3 3475   1.195   0.971  12.607  1.4760 -0.1954 -0.6635
  225MPD1     N 3476   0.813   0.839  12.411  0.1122  0.1084 -0.2082
  225MPD1    H5 3477   0.804   0.940  12.407  0.4425  0.1455  0.0028
  225MPD1    N1 3478   1.154   0.526  12.580 -0.0153  0.3188 -0.3774
  225MPD1    H6 3479   1.083   0.453  12.571 -0.4256  0.8827 -1.7050
  225MPD1    H7 3480   1.200   0.508  12.669 -1.6136 -2.4551 -0.1113
  226MPD1     C 3481   0.770   4.463   9.359 -1.4545  0.1006  0.6217
  226MPD1    C1 3482   0.788   4.505   9.490  0.1961  0.0757  0.5072
  226MPD1    C2 3483   0.685   4.582   9.547 -0.2525  0.3895 -0.2123
  226MPD1    C3 3484   0.563   4.609   9.480 -0.7662  0.0922 -0.3517
  226MPD1    C4 3485   0.547   4.561   9.351 -0.4470  0.2019  0.2811
  226MPD1    C5 3486   0.648   4.491   9.295 -0.7547  1.2202 -0.3377
  226MPD1     H 3487   0.697   4.617   9.648 -0.3565  0.8973 -0.3752
  226MPD1    H1 3488   0.457   4.570   9.291 -0.7054  0.1508  0.6609
  226MPD1    H2 3489   0.845   4.406   9.304 -0.3579  0.5617  1.6467
  226MPD1    H3 3490   0.630   4.451   9.196 -0.9348 -0.0109  0.1862
  226MPD1     N 3491   0.478   4.694   9.545 -0.0381 -0.3034  0.5206
  226MPD1    H5 3492   0.506   4.732   9.635 -0.8046  1.1601  0.1437
  226MPD1    N1 3493   0.916   4.493   9.558 -0.0099  0.5397 -0.7467
  226MPD1    H6 3494   0.960   4.406   9.531  0.9437  0.3737  1.3774
  226MPD1    H7 3495   0.902   4.489   9.659  2.1225 -0.6979 -0.4847
  227MPD1     C 3496   4.262   0.530   9.669  0.0197  0.7245  0.4710
  227MPD1    C1 3497   4.289   0.399   9.640 -0.0698  0.3296  0.4608
  227MPD1    C2 3498   4.422   0.362   9.637  0.2391 -0.2335  0.6424
  227MPD1    C3 3499   4.529   0.447   9.670 -0.0370  0.1140  1.1754
  227MPD1    C4 3500   4.495   0.577   9.712  0.0028 -0.2924  0.3435
  227MPD1    C5 3501   4.362   0.619   9.714 -0.1888  0.4198  0.4101
  227MPD1     H 3502   4.447   0.261   9.609 -0.9781 -0.3194 -0.1264
  227MPD1    H1 3503   4.571   0.651   9.736  0.2658 -0.2540 -0.6301
  227MPD1    H2 3504   4.165   0.580   9.674 -1.1839 -1.6376  0.5718
  227MPD1    H3 3505   4.338   0.717   9.755  1.7338  1.5129 -1.0793
  227MPD1     N 3506   4.666   0.413   9.647  0.1017 -0.4350 -0.1764
  227MPD1    H5 3507   4.733   0.481   9.681 -2.3814  2.6899 -1.5096
  227MPD1    N1 3508   4.186   0.312   9.598 -0.1926  0.2887  0.2137
  227MPD1    H6 3509   4.103   0.328   9.654 -1.0079  1.7265 -1.3801
  227MPD1    H7 3510   4.211   0.214   9.600  1.1210  0.6469  1.4499
  228MPD1     C 3511   2.834   3.639  13.409  0.6664  0.0644 -0.4121
  228MPD1    C1 3512   2.875   3.584  13.284  1.0845 -0.4622 -0.3071
  228MPD1    C2 3513   2.783   3.518  13.209  0.5563 -0.6747 -0.6922
  228MPD1    C3 3514   2.653   3.485  13.259 -0.9276  0.1667  0.6950
  228MPD1    C4 3515   2.625   3.525  13.390  0.3301 -0.4732 -0.1335
  228MPD1    C5 3516   2.711   3.610  13.455 -0.2564  0.0017 -0.2468
  228MPD1     H 3517   2.805   3.468  13.116  2.8330 -4.3323  1.7905
  228MPD1    H1 3518   2.525   3.518  13.433  0.5244 -1.4683  0.1734
  228MPD1    H2 3519   2.895   3.702  13.472  0.1874 -0.1645  0.2709
  228MPD1    H3 3520   2.680   3.649  13.552 -0.5315 -0.2820 -0.2216
  228MPD1     N 3521   2.557   3.428  13.178  0.3097  0.2689  0.8041
  228MPD1    H5 3522   2.582   3.406  13.082  0.0976 -0.5319  0.9313
  228MPD1    N1 3523   3.004   3.613  13.231 -0.5053 -0.1475  0.2520
  228MPD1    H6 3524   3.031   3.537  13.169 -0.7631 -0.3740  0.4151
  228MPD1    H7 3525   3.079   3.636  13.296  0.0291 -3.4121  0.8349
  229MPD1     C 3526   2.152   2.472  14.627 -0.5656  0.0517 -0.4525
  229MPD1    C1 3527   2.231   2.373  14.578 -0.5431  0.0009  0.0318
  229MPD1    C2 3528   2.258   2.268  14.660 -0.3326  0.0017  0.3155
  229MPD1    C3 3529   2.187   2.258  14.783  0.3607 -1.0591  0.3436
  229MPD1    C4 3530   2.099   2.354  14.829 -0.8644  0.6165 -0.7791
  229MPD1    C5 3531   2.077   2.457  14.743 -0.2993  0.4662  0.2092
  229MPD1     H 3532   2.326   2.191  14.626 -0.0864  1.2054 -1.9261
  229MPD1    H1 3533   2.048   2.349  14.924 -2.1815 -0.6671 -1.5591
  229MPD1    H2 3534   2.134   2.559  14.565 -1.3121 -0.6651 -1.2398
  229MPD1    H3 3535   2.017   2.546  14.762 -0.9677 -0.3001  1.7005
  229MPD1     N 3536   2.204   2.150  14.877  0.1168 -0.5143 -0.3277
  229MPD1    H5 3537   2.174   2.164  14.973 -1.7066 -0.2545 -0.9328
  229MPD1    N1 3538   2.302   2.394  14.462  0.2866  0.4328  0.3289
  229MPD1    H6 3539   2.334   2.305  14.424 -0.4914 -0.1185  0.9842
  229MPD1    H7 3540   2.249   2.451  14.397 -2.0460 -0.2388  1.6612
  230MPD1     C 3541   2.208   2.277  15.693  0.0873  1.0742 -0.7631
  230MPD1    C1 3542   2.176   2.332  15.572  0.4308 -0.3121  0.2026
  230MPD1    C2 3543   2.217   2.269  15.451  0.2201  0.3075 -0.5815
  230MPD1    C3 3544   2.298   2.164  15.451  0.0384  0.3275  0.2755
  230MPD1    C4 3545   2.345   2.123  15.572  0.2913  0.5053 -0.4932
  230MPD1    C5 3546   2.295   2.171  15.694 -0.4233  0.2123  0.7143
  230MPD1     H 3547   2.197   2.316  15.356 -1.3547  0.5074 -0.1491
  230MPD1    H1 3548   2.432   2.058  15.578  0.1436  0.7707  4.2436
  230MPD1    H2 3549   2.168   2.312  15.787  0.3060 -0.6633 -0.0130
  230MPD1    H3 3550   2.338   2.140  15.789 -2.2236 -2.5892  0.6137
  230MPD1     N 3551   2.329   2.108  15.329 -0.7593  0.2575  0.0429
  230MPD1    H5 3552   2.294   2.154  15.245 -1.2791  0.6055  0.4563
  230MPD1    N1 3553   2.088   2.441  15.573  0.3302 -0.0287  0.4051
  230MPD1    H6 3554   2.125   2.518  15.518  1.1562 -1.2638 -0.7447
  230MPD1    H7 3555   2.081   2.483  15.666  1.9040 -0.1655  0.5781
  231MPD1     C 3556   0.714   4.071  15.487 -0.5430  0.0643 -0.3781
  231MPD1    C1 3557   0.678   4.079  15.358 -0.1001  0.3399  0.0161
  231MPD1    C2 3558   0.768   4.145  15.283 -0.6368  0.4162 -0.0885
  231MPD1    C3 3559   0.896   4.184  15.312  0.4622 -0.8492  0.2121
  231MPD1    C4 3560   0.932   4.174  15.445 -0.3760 -0.7688  0.1153
  231MPD1    C5 3561   0.839   4.106  15.524 -0.0657  0.3487 -0.1872
  231MPD1     H 3562   0.722   4.158  15.185  1.1458  0.3547 -0.9254
  231MPD1    H1 3563   1.023   4.216  15.486 -1.1662  1.1180 -0.0647
  231MPD1    H2 3564   0.648   4.035  15.565  0.6754 -1.5882 -0.1011
  231MPD1    H3 3565   0.870   4.089  15.626  0.2671  1.6002 -0.0734
  231MPD1     N 3566   0.983   4.242  15.213 -0.0317 -0.8615  0.1323
  231MPD1    H5 3567   0.951   4.249  15.117  0.1921  2.8843  0.3270
  231MPD1    N1 3568   0.547   4.044  15.323 -0.6782  0.0144  0.3881
  231MPD1    H6 3569   0.516   4.081  15.234 -1.2984  1.7308  1.3139
  231MPD1    H7 3570   0.480   4.060  15.399  0.9066  2.4174  1.2658
  232MPD1     C 3571   2.269   1.519  17.683 -0.8947  0.1123  0.3178
  232MPD1    C1 3572   2.247   1.657  17.695 -0.0337  0.1629 -0.0402
  232MPD1    C2 3573   2.183   1.698   0.074  0.2205 -0.2532 -0.2326
  232MPD1    C3 3574   2.132   1.611   0.171  0.2670 -0.1944 -0.2519
  232MPD1    C4 3575   2.154   1.475   0.154 -0.2126  0.0627 -0.6459
  232MPD1    C5 3576   2.224   1.431   0.044 -0.1701 -0.1575 -0.1593
  232MPD1     H 3577   2.177   1.800   0.111  1.9128 -0.4650  0.6329
  232MPD1    H1 3578   2.108   1.402   0.219 -0.0173 -1.6230 -2.4141
  232MPD1    H2 3579   2.339   1.479  17.611 -1.5519  1.1013 -0.8696
  232MPD1    H3 3580   2.245   1.324   0.039 -0.4850 -0.2486  0.4503
  232MPD1     N 3581   2.056   1.663   0.278  0.5505 -0.6237  0.2051
  232MPD1    H5 3582   2.043   1.764   0.283 -0.2092 -0.7205  0.1667
  232MPD1    N1 3583   2.315   1.750  17.615  0.3172 -0.1918 -0.1180
  232MPD1    H6 3584   2.265   1.837  17.626 -1.1129 -0.9315 -0.7785
  232MPD1    H7 3585   2.319   1.730  17.515  0.4833 -0.7156 -0.0118
  233MPD1     C 3586   2.187   3.370   1.644 -1.0358  0.5037 -0.3133
  233MPD1    C1 3587   2.193   3.493   1.709 -0.1568 -0.3593 -0.2622
  233MPD1    C2 3588   2.277   3.588   1.668  0.1257  0.7191 -0.2700
  233MPD1    C3 3589   2.364   3.558   1.566 -0.1199 -0.3188 -0.3193
  233MPD1    C4 3590   2.346   3.445   1.489  0.3443  0.0904 -0.0717
  233MPD1    C5 3591   2.257   3.347   1.527  0.3137 -0.1732  0.4120
  233MPD1     H 3592   2.286   3.681   1.722  0.5263 -0.2144  1.2789
  233MPD1    H1 3593   2.410   3.429   1.404 -1.6856 -0.3926 -1.5149
  233MPD1    H2 3594   2.115   3.297   1.679 -0.5825  1.6205  2.8974
  233MPD1    H3 3595   2.235   3.260   1.467 -0.3979  1.0709 -1.1227
  233MPD1     N 3596   2.465   3.654   1.517  0.5213 -0.0569  0.2727
  233MPD1    H5 3597   2.514   3.614   1.438 -0.9021  0.3344 -0.8124
  233MPD1    N1 3598   2.102   3.520   1.804  0.3645 -0.5440  0.0803
  233MPD1    H6 3599   2.151   3.580   1.869 -0.3197 -0.1270  0.2053
  233MPD1    H7 3600   2.057   3.446   1.858 -0.6166  2.2538  3.0868
  234MPD1     C 3601   0.171   3.456   9.156  0.1009 -0.2388  0.3464
  234MPD1    C1 3602   0.267   3.556   9.186 -0.3072 -0.9339 -0.0095
  234MPD1    C2 3603   0.230   3.690   9.195 -0.0104  0.4822  0.8928
  234MPD1    C3 3604   0.098   3.718   9.159 -0.5526  0.4262 -0.1544
  234MPD1    C4 3605   0.002   3.620   9.136 -0.5236 -0.2324 -0.3528
  234MPD1    C5 3606   0.039   3.490   9.136  0.6396  0.4353  0.2302
  234MPD1     H 3607   0.292   3.774   9.226  0.2763  1.7190 -3.0806
  234MPD1    H1 3608   4.633   3.653   9.121 -0.7300 -0.9218 -0.4478
  234MPD1    H2 3609   0.189   3.349   9.159 -0.3377 -0.3168  0.3211
  234MPD1    H3 3610   4.692   3.420   9.125 -0.5452  1.7618  0.5256
  234MPD1     N 3611   0.076   3.858   9.156  0.2936 -0.2132 -0.8059
  234MPD1    H5 3612   0.159   3.916   9.162  0.6673 -1.0599  2.1681
  234MPD1    N1 3613   0.390   3.514   9.225 -0.0086 -0.3082  0.2110
  234MPD1    H6 3614   0.458   3.575   9.179 -1.6434  1.9610  0.8084
  234MPD1    H7 3615   0.405   3.422   9.185  0.1336  0.0862 -0.6310
  235MPD1     C 3616   1.948   1.764  10.224  0.1076  0.4789 -0.6087
  235MPD1    C1 3617   1.924   1.808  10.090  0.1402  0.4506 -0.6654
  235MPD1    C2 3618   1.934   1.945  10.069  0.6283  0.3316 -0.0529
  235MPD1    C3 3619   2.002   2.028  10.157 -0.3659  0.2097 -0.0307
  235MPD1    C4 3620   2.051   1.974  10.276  0.2172 -0.6686  0.2254
  235MPD1    C5 3621   2.024   1.841  10.302 -0.2331  0.1955  0.0762
  235MPD1     H 3622   1.881   1.983   9.983 -0.6861 -0.7434  0.2714
  235MPD1    H1 3623   2.097   2.032  10.355 -1.3544  0.2683  0.4649
  235MPD1    H2 3624   1.917   1.666  10.258 -0.7451  0.7008 -0.7513
  235MPD1    H3 3625   2.049   1.802  10.400  0.7725 -0.3186 -0.3798
  235MPD1     N 3626   2.001   2.162  10.129 -0.0133 -0.1148 -0.0874
  235MPD1    H5 3627   2.010   2.190  10.032 -1.9722 -0.3271 -0.3359
  235MPD1    N1 3628   1.850   1.738   9.996 -0.6548 -0.1085 -0.0427
  235MPD1    H6 3629   1.862   1.638  10.009  3.9947  0.5484  0.8388
  235MPD1    H7 3630   1.849   1.773   9.900  1.4171  0.6848  0.2231
  236MPD1     C 3631   0.779   2.544   9.479  0.0282 -0.5211  0.1780
  236MPD1    C1 3632   0.805   2.412   9.477 -0.0824  0.1453  0.3447
  236MPD1    C2 3633   0.897   2.362   9.568  0.2924 -0.0787  0.1936
  236MPD1    C3 3634   0.977   2.456   9.636 -0.2186 -0.4460 -0.3249
  236MPD1    C4 3635   0.962   2.590   9.620 -0.0331  0.4671  0.2568
  236MPD1    C5 3636   0.862   2.631   9.544 -0.0300  0.2200  0.2713
  236MPD1     H 3637   0.910   2.256   9.580  4.5444  0.3399 -0.7901
  236MPD1    H1 3638   1.022   2.663   9.673  2.6516  0.5602 -2.9201
  236MPD1    H2 3639   0.704   2.593   9.419  0.2434 -0.3291  0.0693
  236MPD1    H3 3640   0.834   2.735   9.541  1.8031  0.7433  0.9038
  236MPD1     N 3641   1.081   2.428   9.723  0.1736 -1.1398  0.5454
  236MPD1    H5 3642   1.128   2.507   9.767  0.2071 -0.4321 -0.7887
  236MPD1    N1 3643   0.714   2.323   9.411  0.8504 -0.2690  0.5332
  236MPD1    H6 3644   0.753   2.233   9.384  0.6197 -0.9433  2.4485
  236MPD1    H7 3645   0.661   2.370   9.338 -2.3148 -0.7913  2.4713
  237MPD1     C 3646   1.028   0.394  15.527 -0.0649  0.5399 -0.3636
  237MPD1    C1 3647   0.929   0.420  15.613  0.5250  0.1424 -0.6473
  237MPD1    C2 3648   0.798   0.411  15.566  0.0939  0.4349  0.8416
  237MPD1    C3 3649   0.764   0.371  15.438 -0.2029  0.0836  0.2667
  237MPD1    C4 3650   0.869   0.355  15.347 -0.3497 -0.5094  0.2422
  237MPD1    C5 3651   0.999   0.365  15.393  0.6748  0.1871  0.2314
  237MPD1     H 3652   0.729   0.432  15.647  2.1221  0.4461  2.5920
  237MPD1    H1 3653   0.857   0.324  15.244 -2.5889  0.3767  0.2212
  237MPD1    H2 3654   1.131   0.396  15.561 -0.6129  0.4650  1.3083
  237MPD1    H3 3655   1.082   0.338  15.328 -0.0504 -0.3814 -0.4565
  237MPD1     N 3656   0.634   0.378  15.396 -0.3955  0.4357  0.2880
  237MPD1    H5 3657   0.629   0.369  15.295  0.2769 -2.3646  0.5093
  237MPD1    N1 3658   0.964   0.479  15.732 -0.0908 -0.1018 -0.1900
  237MPD1    H6 3659   1.050   0.436  15.766  0.8096  1.4336 -0.5251
  237MPD1    H7 3660   0.895   0.464  15.805  1.3022  0.3690  1.2019
  238MPD1     C 3661   2.995   3.491  15.064  0.0471 -0.0860  0.5661
  238MPD1    C1 3662   2.871   3.450  15.115  0.4391  0.8160 -0.3614
  238MPD1    C2 3663   2.758   3.532  15.095  0.3031  0.2172  0.5088
  238MPD1    C3 3664   2.764   3.638  15.007 -0.4285  0.1081 -0.3226
  238MPD1    C4 3665   2.886   3.670  14.947 -0.1082  0.3393 -0.6841
  238MPD1    C5 3666   2.995   3.600  14.979  0.6480  0.5857  0.1301
  238MPD1     H 3667   2.657   3.499  15.121  0.8204 -0.2007  1.9950
  238MPD1    H1 3668   2.905   3.756  14.884  1.3444 -1.0926 -2.1903
  238MPD1    H2 3669   3.089   3.443  15.087  0.2052  1.2762  2.7927
  238MPD1    H3 3670   3.089   3.635  14.938  1.4493 -1.4185  0.2341
  238MPD1     N 3671   2.656   3.729  14.977  0.2271 -0.8042 -0.3348
  238MPD1    H5 3672   2.674   3.795  14.902  2.7995 -0.2311  0.7717
  238MPD1    N1 3673   2.865   3.334  15.202 -0.6898 -0.4254 -0.4102
  238MPD1    H6 3674   2.782   3.276  15.196 -2.3296  1.8344  0.2861
  238MPD1    H7 3675   2.947   3.275  15.192  0.6381  1.4958 -0.8786
  239MPD1     C 3676   2.989   0.078  15.282  0.0864  0.0553  0.9509
  239MPD1    C1 3677   2.970   0.213  15.261  0.3652  0.5081 -0.3820
  239MPD1    C2 3678   2.916   0.251  15.135 -0.7895  0.4988 -0.1830
  239MPD1    C3 3679   2.879   0.156  15.041  0.4237  0.3065 -0.6564
  239MPD1    C4 3680   2.920   0.028  15.056  1.0248 -0.2321  0.0220
  239MPD1    C5 3681   2.970   4.725  15.175  0.6820 -0.1220 -0.4399
  239MPD1     H 3682   2.900   0.358  15.119  2.2940  0.4415 -3.6027
  239MPD1    H1 3683   2.899   4.689  14.979  0.5455  0.9378 -0.9687
  239MPD1    H2 3684   3.028   0.046  15.378  0.6939 -0.1899  0.6250
  239MPD1    H3 3685   2.979   4.620  15.202  1.6589  0.1744  0.4096
  239MPD1     N 3686   2.822   0.186  14.914  0.3593  0.8128 -0.1068
  239MPD1    H5 3687   2.825   0.115  14.842  0.7136 -2.2098  2.8966
  239MPD1    N1 3688   2.994   0.308  15.364  0.4553 -0.0586 -0.3137
  239MPD1    H6 3689   3.015   0.401  15.327 -0.2407  0.5856  0.9128
  239MPD1    H7 3690   3.066   0.291  15.434  1.6732 -0.7428 -1.7030
  240MPD1     C 3691   2.486   4.609  14.153 -0.3310 -0.0040  0.6466
  240MPD1    C1 3692   2.353   4.620  14.160  0.0939  0.7723 -0.0424
  240MPD1    C2 3693   2.277   4.558  14.259 -0.1469 -0.6174  0.1821
  240MPD1    C3 3694   2.349   4.482  14.354 -0.4234 -0.0040 -0.3189
  240MPD1    C4 3695   2.487   4.474  14.341 -0.6287  0.3888 -0.3849
  240MPD1    C5 3696   2.552   4.530  14.239 -0.1763 -0.3459  0.5735
  240MPD1     H 3697   2.171   4.574  14.269 -0.0652  1.5379 -2.2629
  240MPD1    H1 3698   2.548   4.413  14.405 -0.2505  2.0663  0.8615
  240MPD1    H2 3699   2.544   4.651  14.072 -0.2040  2.4265  2.0100
  240MPD1    H3 3700   2.657   4.512  14.223 -0.7097  0.0087 -3.3431
  240MPD1     N 3701   2.274   4.413  14.457 -0.2378 -0.5608  0.1516
  240MPD1    H5 3702   2.174   4.428  14.461 -0.2142 -0.2010 -0.6680
  240MPD1    N1 3703   2.293   4.690  14.058 -0.0275  0.1244 -0.1698
  240MPD1    H6 3704   2.208   0.007  14.080  0.9427  1.2551  0.9659
  240MPD1    H7 3705   2.353   0.026  14.015 -0.8437  1.0011  0.1289
  241MPD1     C 3706   1.963   4.294  15.464 -0.0332  0.1074  0.3913
  241MPD1    C1 3707   2.000   4.409  15.402 -0.0107 -0.3609 -0.0415
  241MPD1    C2 3708   2.036   4.394  15.267  0.2022  0.0713 -0.4132
  241MPD1    C3 3709   2.048   4.273  15.215  0.2310  0.0548 -0.5998
  241MPD1    C4 3710   2.022   4.157  15.282 -0.5779 -0.4727 -0.2678
  241MPD1    C5 3711   1.977   4.175  15.406  0.1117 -0.1715 -0.3091
  241MPD1     H 3712   2.055   4.487  15.214 -0.8437  0.8835  0.6267
  241MPD1    H1 3713   2.033   4.057  15.242  0.3328 -0.5240  0.1069
  241MPD1    H2 3714   1.922   4.287  15.565 -1.9861  0.6995 -0.3567
  241MPD1    H3 3715   1.946   4.093  15.471  2.1334 -2.4845 -2.2535
  241MPD1     N 3716   2.073   4.258  15.075 -0.2155  0.0305 -0.4712
  241MPD1    H5 3717   2.058   4.164  15.040  2.5874  0.4082 -2.5874
  241MPD1    N1 3718   1.966   4.537  15.444  0.5968  0.1876  1.1981
  241MPD1    H6 3719   1.968   4.529  15.545 -0.9331 -2.0555  1.0774
  241MPD1    H7 3720   2.040   4.600  15.414 -1.2491  2.1629  0.8255
  242MPD1     C 3721   1.312   2.773  15.734  0.1139 -0.0253  0.6971
  242MPD1    C1 3722   1.278   2.774  15.593 -0.3175 -0.4414  0.3347
  242MPD1    C2 3723   1.370   2.811  15.489  0.3709 -0.1391 -0.1534
  242MPD1    C3 3724   1.497   2.853  15.539  0.1315  0.4311 -0.2465
  242MPD1    C4 3725   1.528   2.849  15.674 -0.4167  0.1462 -0.1607
  242MPD1    C5 3726   1.443   2.801  15.774 -0.1310 -0.0334  0.6053
  242MPD1     H 3727   1.340   2.800  15.385  0.5301  1.8975 -0.4124
  242MPD1    H1 3728   1.629   2.868  15.711 -0.1784  0.7162 -1.1092
  242MPD1    H2 3729   1.235   2.742  15.804 -1.7744  2.2443 -0.3922
  242MPD1    H3 3730   1.474   2.788  15.877 -0.3042  2.0295  0.9315
  242MPD1     N 3731   1.603   2.879  15.459 -0.6003  0.4210 -0.8731
  242MPD1    H5 3732   1.685   2.915  15.506 -1.1852  1.0599 -0.3472
  242MPD1    N1 3733   1.158   2.714  15.553  0.2068  0.0321  0.6131
  242MPD1    H6 3734   1.082   2.713  15.622  1.3194 -0.6412  1.8336
  242MPD1    H7 3735   1.127   2.735  15.459  3.0917  0.2206 -0.2927
  243MPD1     C 3736   2.786   1.060  17.648 -0.3993 -0.1792 -0.1079
  243MPD1    C1 3737   2.880   0.965  17.615  0.3047 -0.0671 -0.6604
  243MPD1    C2 3738   3.007   1.004  17.568 -0.4686  0.1545  0.0680
  243MPD1    C3 3739   3.049   1.139  17.574  0.7349 -0.4928  0.6177
  243MPD1    C4 3740   2.959   1.230  17.622  0.0188  0.7240 -0.1837
  243MPD1    C5 3741   2.824   1.188  17.651  0.2481  0.1956  0.7262
  243MPD1     H 3742   3.068   0.927  17.521  1.1123  0.4174  1.7141
  243MPD1    H1 3743   2.983   1.334  17.641  0.3969  0.8430 -1.3035
  243MPD1    H2 3744   2.688   1.029  17.682  0.6481 -1.3094  1.8800
  243MPD1    H3 3745   2.748   1.263  17.670  0.5717  1.1085 -1.5707
  243MPD1     N 3746   3.179   1.165  17.520  0.6171  0.2736 -0.5041
  243MPD1    H5 3747   3.225   1.092  17.468  0.6737  1.1312 -1.6428
  243MPD1    N1 3748   2.827   0.836  17.598 -0.1834  0.0607  0.2938
  243MPD1    H6 3749   2.758   0.809  17.668  0.3492 -0.6324  0.5514
  243MPD1    H7 3750   2.899   0.764  17.607 -0.1882 -0.3953 -3.6204
  244MPD1     C 3751   3.763   0.572  17.543  0.4440  0.2546  0.2444
  244MPD1    C1 3752   3.693   0.627  17.649 -0.1783 -0.4681 -0.1940
  244MPD1    C2 3753   3.638   0.754  17.629  0.0944 -0.3608 -0.6211
  244MPD1    C3 3754   3.663   0.825  17.511  0.2122 -1.0697 -0.1078
  244MPD1    C4 3755   3.749   0.771  17.418  0.1995  0.2479 -0.3038
  244MPD1    C5 3756   3.800   0.650  17.440 -0.4848  0.3008  0.1606
  244MPD1     H 3757   3.572   0.795  17.705 -0.2566 -0.9964 -0.5893
  244MPD1    H1 3758   3.782   0.807  17.321 -3.2886  1.0618 -1.1958
  244MPD1    H2 3759   3.801   0.470  17.545 -1.3721 -0.4329 -0.6140
  244MPD1    H3 3760   3.884   0.608  17.385  0.9816  0.1317  2.5578
  244MPD1     N 3761   3.598   0.949  17.487 -0.6149 -0.4631 -0.1574
  244MPD1    H5 3762   3.527   0.977  17.554 -1.2107 -1.2742 -0.4371
  244MPD1    N1 3763   3.653   0.550   0.024  0.1666  0.7684  0.3574
  244MPD1    H6 3764   3.716   0.472   0.042 -0.7038  0.4172  1.8551
  244MPD1    H7 3765   3.645   0.600   0.112 -1.6721 -1.2920  1.3381
  245MPD1     C 3766   0.465   1.564  12.914  0.2517  0.5752 -0.1645
  245MPD1    C1 3767   0.581   1.574  12.989  0.3870  0.2543  0.2252
  245MPD1    C2 3768   0.603   1.693  13.052 -0.3683 -0.0390 -0.4261
  245MPD1    C3 3769   0.541   1.810  13.019 -0.0509 -0.8515 -0.2781
  245MPD1    C4 3770   0.435   1.803  12.936  0.7522  0.4643 -0.2827
  245MPD1    C5 3771   0.393   1.679  12.890  0.0558  0.2136 -0.5767
  245MPD1     H 3772   0.691   1.712  13.111 -1.1307  0.2165  0.6379
  245MPD1    H1 3773   0.379   1.890  12.905 -1.5755 -1.0192 -0.2645
  245MPD1    H2 3774   0.427   1.481  12.856  0.0694  0.2450  0.4312
  245MPD1    H3 3775   0.307   1.667  12.825 -3.5438  2.0669  3.8602
  245MPD1     N 3776   0.588   1.929  13.089 -0.0841  0.3088 -0.4724
  245MPD1    H5 3777   0.678   1.925  13.135 -1.3002 -0.6167  1.8681
  245MPD1    N1 3778   0.639   1.459  13.036  0.0125 -0.0370  0.1710
  245MPD1    H6 3779   0.648   1.388  12.964  1.1357 -1.2799  1.5375
  245MPD1    H7 3780   0.727   1.480  13.083  0.1137  1.5225 -0.7172
  246MPD1     C 3781   1.361   2.034   9.334 -0.0016  0.6317  0.1213
  246MPD1    C1 3782   1.482   2.069   9.278  0.6855  0.1564 -0.1414
  246MPD1    C2 3783   1.526   2.196   9.300 -0.7492 -0.2747  0.4206
  246MPD1    C3 3784   1.452   2.295   9.358 -0.6595  0.2979 -0.1180
  246MPD1    C4 3785   1.327   2.257   9.422 -0.5755  0.2556 -0.3545
  246MPD1    C5 3786   1.282   2.129   9.404 -0.8059  0.6506  0.0138
  246MPD1     H 3787   1.623   2.221   9.258 -1.1356 -0.9607 -0.9013
  246MPD1    H1 3788   1.250   2.326   9.453 -0.1591 -0.3679  2.0648
  246MPD1    H2 3789   1.320   1.935   9.316  1.4214  0.0662  0.0028
  246MPD1    H3 3790   1.183   2.102   9.441 -0.2155  0.0856  1.1969
  246MPD1     N 3791   1.496   2.429   9.357  0.2828  0.1267 -0.4314
  246MPD1    H5 3792   1.593   2.440   9.330  0.2593 -1.5873 -1.1876
  246MPD1    N1 3793   1.545   1.962   9.209 -0.5152  0.1861 -0.5814
  246MPD1    H6 3794   1.477   1.896   9.171  0.0376 -1.6333  1.5554
  246MPD1    H7 3795   1.612   1.987   9.137  0.0985  1.8273  0.5522
  247MPD1     C 3796   4.701   2.676  16.772 -0.3893 -0.2402  0.1838
  247MPD1    C1 3797   0.038   2.590  16.846 -0.0537  0.4210  0.4272
  247MPD1    C2 3798   0.122   2.493  16.791  0.0526 -0.1226  0.0978
  247MPD1    C3 3799   0.116   2.475  16.652  0.1181  0.8503  0.3312
  247MPD1    C4 3800   0.035   2.557  16.582  0.4945 -0.1305  0.4338
  247MPD1    C5 3801   4.697   2.660  16.637  0.2730 -0.5371  0.2618
  247MPD1     H 3802   0.178   2.427  16.857 -1.7570  1.3043  3.0358
  247MPD1    H1 3803   0.033   2.542  16.474  1.1778 -0.3698  0.4562
  247MPD1    H2 3804   4.656   2.766  16.812 -0.7133  0.9834 -2.8995
  247MPD1    H3 3805   4.647   2.732  16.574  1.4313 -0.3838 -0.4693
  247MPD1     N 3806   0.175   2.366  16.590  0.2131  0.8780  0.6606
  247MPD1    H5 3807   0.168   2.362  16.489 -2.5300  0.9300  0.8579
  247MPD1    N1 3808   0.044   2.613  16.986  0.1148 -0.1124  0.1129
  247MPD1    H6 3809   0.071   2.529  17.036  0.2064  1.0020  1.9648
  247MPD1    H7 3810   4.691   2.654  17.021  0.4583  0.6070  0.1350
  248MPD1     C 3811   1.007   1.511  17.597 -0.5405  0.0266  0.6001
  248MPD1    C1 3812   0.897   1.586  17.636 -0.6702 -0.5369  0.2268
  248MPD1    C2 3813   0.783   1.512  17.664 -0.2658 -0.7884  0.3103
  248MPD1    C3 3814   0.773   1.378  17.637  0.4251  0.5954 -0.1957
  248MPD1    C4 3815   0.881   1.307  17.592  1.4392  0.2374  0.9148
  248MPD1    C5 3816   0.999   1.378  17.579  0.2074  0.4739 -0.2480
  248MPD1     H 3817   0.698   1.549  17.719 -1.2624  2.3722 -3.3956
  248MPD1    H1 3818   0.892   1.203  17.563  1.1105  0.6190 -0.5394
  248MPD1    H2 3819   1.102   1.560  17.580 -2.1499  1.8545 -3.2154
  248MPD1    H3 3820   1.084   1.318  17.548  0.5242  0.6725  0.2258
  248MPD1     N 3821   0.649   1.318  17.627  0.1702  0.2680 -0.6180
  248MPD1    H5 3822   0.573   1.386  17.624  0.4898  0.6550  0.2376
  248MPD1    N1 3823   0.912   1.718  17.681  0.5116 -0.3316  0.7278
  248MPD1    H6 3824   0.829   1.775  17.664  1.4315  0.4719 -1.1850
  248MPD1    H7 3825   0.979   1.762  17.618  0.4417  1.6278  2.0118
  249MPD1     C 3826   3.452   2.323   9.986 -1.2516  0.0050 -0.5783
  249MPD1    C1 3827   3.404   2.282   9.865 -0.6679 -0.3489 -0.5671
  249MPD1    C2 3828   3.312   2.178   9.859 -0.3646 -0.5233 -0.4115
  249MPD1    C3 3829   3.259   2.120   9.976  0.3061 -1.0351 -0.2910
  249MPD1    C4 3830   3.306   2.164  10.101 -0.4504  0.3831 -0.7889
  249MPD1    C5 3831   3.406   2.260  10.099  0.0954 -0.0709  0.0500
  249MPD1     H 3832   3.277   2.141   9.764  0.4389 -0.6026 -0.6727
  249MPD1    H1 3833   3.287   2.123  10.200  0.3822 -2.2090 -1.7074
  249MPD1    H2 3834   3.535   2.391   9.998  2.2134 -4.0456 -1.9160
  249MPD1    H3 3835   3.431   2.304  10.195 -3.9153  0.2587  0.9743
  249MPD1     N 3836   3.177   2.008   9.971  0.0117 -1.0179  0.1394
  249MPD1    H5 3837   3.159   1.963   9.882 -0.7020  0.0816 -0.2775
  249MPD1    N1 3838   3.461   2.325   9.743 -0.4587 -0.2989 -0.2412
  249MPD1    H6 3839   3.510   2.414   9.749  0.3717 -0.7414 -0.5219
  249MPD1    H7 3840   3.388   2.329   9.672  0.5389  0.4369 -1.2178
  250MPD2     C 3841   3.576   0.113  12.817  0.4622  0.4485 -1.3054
  250MPD2    C1 3842   3.481   0.191  12.880  0.3907  0.7721 -0.2006
  250MPD2    C2 3843   3.353   0.145  12.905  0.4611 -0.6628 -0.0822
  250MPD2    C3 3844   3.320   0.014  12.858  0.6009  0.1928 -0.4204
  250MPD2    C4 3845   3.413   4.670  12.800  0.6107 -0.1241  0.2782
  250MPD2    C5 3846   3.544   4.723  12.787  0.5655 -0.2761 -0.2681
  250MPD2     H 3847   3.274   0.208  12.947 -0.1463 -2.5655  1.6399
  250MPD2    H1 3848   3.391   4.570  12.765  0.8772 -0.2291  0.4156
  250MPD2    H2 3849   3.672   0.159  12.797  1.0897 -0.8830 -1.3545
  250MPD2    H3 3850   3.620   4.672  12.729 -0.0854 -0.1615 -1.2343
  250MPD2     N 3851   3.191   4.693  12.876  0.5039  0.2550  0.4262
  250MPD2    H5 3852   3.185   4.599  12.836 -0.1492  0.4745  0.0069
  250MPD2    N1 3853   3.522   0.317  12.929 -0.3418 -0.4774 -0.5575
  250MPD2    H7 3854   3.620   0.340  12.922 -0.4417  0.1752  0.1859
  251TMC3    C1 3855   3.513   0.546  13.008 -0.3731 -0.1931  0.1486
  251TMC3    C2 3856   3.447   0.645  13.080 -0.0318 -0.2389  0.0039
  251TMC3    C3 3857   3.515   0.762  13.105  0.3659 -0.2369 -0.0534
  251TMC3    C4 3858   3.637   0.565  12.958 -0.3884 -0.2315  0.7178
  251TMC3    C5 3859   3.708   0.677  12.989  0.1939 -0.4831  0.0969
  251TMC3    C6 3860   3.648   0.778  13.069 -0.0878  0.4035  0.0663
  251TMC3     C 3861   3.438   0.423  12.977  0.0980 -0.3844  0.9032
  251TMC3     O 3862   3.320   0.427  13.005 -0.5641  0.0398 -0.0943
  251TMC3     H 3863   3.342   0.644  13.108 -0.3756  2.0488 -1.2126
  251TMC3    H1 3864   3.697   0.491  12.906 -1.0458  0.0792 -0.4623
  251TMC3    H2 3865   3.710   0.865  13.087  0.3469  0.6301 -2.5384
  251TMC3    C7 3866   3.846   0.685  12.954  0.3136  0.2722 -0.1394
  251TMC3    C8 3867   3.450   0.879  13.151  0.2861 -0.2047 -0.5743
  251TMC3    O1 3868   3.903   0.578  12.941  0.4957 -0.2037  0.1085
  251TMC3    O2 3869   3.342   0.869  13.208 -0.1713  0.0220  0.1573
  252TMC3    C1 3870   3.871   2.232   9.530  0.2915 -0.1222  0.2883
  252TMC3    C2 3871   4.004   2.238   9.537  0.5428  0.4321  0.0027
  252TMC3    C3 3872   4.074   2.141   9.598  0.9742  0.1271 -0.2769
  252TMC3    C4 3873   3.805   2.127   9.591  0.1356 -0.3751 -0.2730
  252TMC3    C5 3874   3.883   2.032   9.662 -0.0464  0.0665 -0.2618
  252TMC3    C6 3875   4.018   2.034   9.659  0.1742 -0.4143 -0.1870
  252TMC3     C 3876   3.809   2.332   9.441 -0.0190  0.0135  0.6313
  252TMC3     O 3877   3.879   2.421   9.391 -0.0885 -0.2895  0.5885
  252TMC3     H 3878   4.053   2.322   9.488 -0.3718 -0.5574 -2.5955
  252TMC3    H1 3879   3.697   2.120   9.592  0.1329 -0.1381  0.8882
  252TMC3    H2 3880   4.076   1.962   9.715 -0.9056 -0.9072  0.3128
  252TMC3    C7 3881   3.817   1.927   9.739  0.5831 -0.6410 -0.5313
  252TMC3    C8 3882   4.219   2.157   9.601  0.1629 -0.3156 -0.9579
  252TMC3    O1 3883   3.698   1.920   9.708 -0.3680  1.0788 -0.3778
  252TMC3    O2 3884   4.261   2.208   9.497 -0.2606 -0.2617 -0.3632
  253MPD2     C 3885   0.551   0.764  15.009  0.0138 -0.0014 -0.1115
  253MPD2    C1 3886   0.419   0.729  15.037 -0.4133  0.2691 -0.4681
  253MPD2    C2 3887   0.390   0.723  15.173 -0.5003  1.0131  0.0300
  253MPD2    C3 3888   0.475   0.737  15.279 -0.5661  0.2605 -0.0373
  253MPD2    C4 3889   0.598   0.774  15.247  0.1917 -0.0718 -0.1932
  253MPD2    C5 3890   0.632   0.789  15.118  0.7587 -0.3164 -0.2196
  253MPD2     H 3891   0.289   0.687  15.189 -1.1384  2.6284 -0.3221
  253MPD2    H1 3892   0.680   0.782  15.317  1.4997 -1.6068 -1.5604
  253MPD2    H2 3893   0.588   0.774  14.907 -1.0174 -2.1572 -0.6973
  253MPD2    H3 3894   0.737   0.802  15.092  0.8732 -0.7117  0.0472
  253MPD2     N 3895   0.439   0.724  15.411  0.1712 -0.1591  0.2095
  253MPD2    H5 3896   0.513   0.728  15.481  2.3038 -1.3199 -1.9709
  253MPD2    N1 3897   0.317   0.713  14.943  0.7607 -0.2741  0.3720
  253MPD2    H7 3898   0.231   0.668  14.974  0.3158  1.1832  1.2685
  254TMC3    C1 3899   0.267   0.704  15.594  0.0751 -0.2918 -0.3182
  254TMC3    C2 3900   0.136   0.717  15.626  0.5990  0.1118  0.4562
  254TMC3    C3 3901   0.098   0.722  15.760 -0.2909 -0.5990  0.2984
  254TMC3    C4 3902   0.369   0.693  15.686 -0.7200 -0.7278 -0.5887
  254TMC3    C5 3903   0.327   0.698  15.813  0.5253 -0.0095 -0.1867
  254TMC3    C6 3904   0.196   0.712  15.854  0.2137 -0.3379  0.0683
  254TMC3     C 3905   0.302   0.720  15.450 -0.2198 -1.0882 -0.0652
  254TMC3     O 3906   0.205   0.756  15.384  0.6234  0.8071 -0.1022
  254TMC3     H 3907   0.053   0.711  15.556  0.7180  1.2056  0.2280
  254TMC3    H1 3908   0.470   0.662  15.663  0.1540  2.5641 -1.2038
  254TMC3    H2 3909   0.165   0.721  15.957 -1.1041 -0.6684 -0.3036
  254TMC3    C7 3910   0.408   0.649  15.928  0.5731 -1.4549  0.0053
  254TMC3    C8 3911   4.700   0.705  15.809 -0.3564  0.2068  0.0553
  254TMC3    O1 3912   0.345   0.592  16.014 -0.2227  0.1398 -0.7576
  254TMC3    O2 3913   4.675   0.660  15.919  0.1695 -0.1596  0.3256
  255MPD2     C 3914   3.101   2.963  10.316  0.5973 -0.4649 -0.1655
  255MPD2    C1 3915   3.201   3.053  10.356  0.2818  0.2697 -0.8215
  255MPD2    C2 3916   3.328   3.001  10.380  0.4918 -1.0182  0.1398
  255MPD2    C3 3917   3.372   2.880  10.336 -0.3293 -0.3312  0.3615
  255MPD2    C4 3918   3.278   2.796  10.294 -0.3936 -0.3668  0.0809
  255MPD2    C5 3919   3.147   2.837  10.289  0.6487 -0.0185 -0.7298
  255MPD2     H 3920   3.401   3.059  10.434  1.0975  0.0008 -1.7649
  255MPD2    H1 3921   3.290   2.692  10.265 -1.9132 -0.7448  0.8083
  255MPD2    H2 3922   2.994   2.978  10.308  0.9106  0.8755 -1.8664
  255MPD2    H3 3923   3.066   2.770  10.265 -0.0157  0.7696 -0.6968
  255MPD2     N 3924   3.511   2.843  10.347  0.5757 -0.2701 -0.5210
  255MPD2    H5 3925   3.573   2.913  10.387  0.6341 -1.7849  2.0481
  255MPD2    N1 3926   3.166   3.186  10.386 -0.2622 -0.2764 -0.0343
  255MPD2    H7 3927   3.071   3.218  10.367 -0.3641 -0.5800 -0.0375
  256TMC3    C1 3928   3.185   3.405  10.454  0.0788 -0.2558  0.6883
  256TMC3    C2 3929   3.247   3.471  10.555  0.2660 -0.2541 -0.1580
  256TMC3    C3 3930   3.246   3.604  10.553  0.4017 -0.0579  0.1074
  256TMC3    C4 3931   3.138   3.476  10.348 -0.0604  0.7262  0.3835
  256TMC3    C5 3932   3.157   3.607  10.347 -0.1318 -0.2137 -0.1230
  256TMC3    C6 3933   3.209   3.676  10.453 -0.0712 -0.1861 -0.4787
  256TMC3     C 3934   3.252   3.275  10.429  0.5662  0.5155 -1.0249
  256TMC3     O 3935   3.371   3.273  10.436  0.0812 -0.0767  0.5528
  256TMC3     H 3936   3.288   3.419  10.641  0.9276 -0.7852 -0.7913
  256TMC3    H1 3937   3.111   3.418  10.260  1.6611  0.1218  0.2644
  256TMC3    H2 3938   3.208   3.784  10.454 -2.6705 -0.1905 -1.3779
  256TMC3    C7 3939   3.095   3.684  10.238  0.3107 -0.4709 -0.0664
  256TMC3    C8 3940   3.328   3.665  10.654 -0.8856  1.0507 -0.4768
  256TMC3    O1 3941   3.088   3.619  10.134 -0.6520 -0.0475  0.4967
  256TMC3    O2 3942   3.363   3.596  10.749 -0.2931  0.0127  0.1908
  257MPD2     C 3943   2.236   0.213  13.499  0.6700  0.1059 -0.0408
  257MPD2    C1 3944   2.345   0.240  13.426  0.3216  0.0226 -0.8508
  257MPD2    C2 3945   2.459   0.160  13.449 -0.6975 -0.2060  0.1703
  257MPD2    C3 3946   2.458   0.055  13.544  0.0127  0.6882  0.1639
  257MPD2    C4 3947   2.342   0.035  13.621  0.2554 -0.2625 -0.3362
  257MPD2    C5 3948   2.236   0.123  13.603  0.6842  0.3478  0.1917
  257MPD2     H 3949   2.544   0.168  13.383 -0.1245 -2.9612  0.5676
  257MPD2    H1 3950   2.334   4.680  13.683 -0.1203 -1.1741 -1.7104
  257MPD2    H2 3951   2.155   0.284  13.489  0.8873  0.4588  0.6973
  257MPD2    H3 3952   2.144   0.099  13.655  1.5078 -0.8512  1.0684
  257MPD2     N 3953   2.569   4.708  13.555  0.0595  0.0989 -0.6954
  257MPD2    H5 3954   2.638   4.701  13.480  0.5935 -0.3293 -0.1576
  257MPD2    N1 3955   2.344   0.341  13.333 -0.6506  0.1610 -0.3327
  257MPD2    H7 3956   2.252   0.379  13.314 -0.4293  1.1075  0.4798
  258TMC3    C1 3957   2.699   4.544  13.671 -0.3681 -0.9733 -0.7138
  258TMC3    C2 3958   2.763   4.522  13.557  0.2975  0.5864  0.6476
  258TMC3    C3 3959   2.873   4.438  13.566 -0.5672 -0.0577 -0.4368
  258TMC3    C4 3960   2.739   4.483  13.784  0.2183 -0.4443 -1.2900
  258TMC3    C5 3961   2.853   4.404  13.786  0.8353  0.7652 -0.1517
  258TMC3    C6 3962   2.927   4.382  13.675  0.0896  0.5023 -0.2716
  258TMC3     C 3963   2.590   4.629  13.671 -0.3111  0.2700 -0.1459
  258TMC3     O 3964   2.547   4.643  13.785  0.0640  0.7762 -0.0768
  258TMC3     H 3965   2.743   4.561  13.457  2.1909  0.5621  0.2651
  258TMC3    H1 3966   2.683   4.507  13.873  1.5988  0.5560 -0.6730
  258TMC3    H2 3967   3.012   4.315  13.672  1.1292  1.8467 -1.0874
  258TMC3    C7 3968   2.889   4.348  13.917 -0.1909 -0.0273  0.0227
  258TMC3    C8 3969   2.960   4.453  13.452  0.9203 -0.2475 -0.9483
  258TMC3    O1 3970   2.799   4.300  13.984  0.1530 -0.5938  0.4438
  258TMC3    O2 3971   2.921   4.447  13.337 -0.7543  0.1228  0.2087
  259MPD2     C 3972   0.322   2.574   0.407  0.2731  0.0221 -1.0087
  259MPD2    C1 3973   0.386   2.599   0.524 -0.0940  0.3467  0.0703
  259MPD2    C2 3974   0.523   2.584   0.533 -0.0068 -0.0353  0.5169
  259MPD2    C3 3975   0.595   2.548   0.420  1.1757  0.5710 -0.0306
  259MPD2    C4 3976   0.527   2.534   0.302 -0.4866  0.2694 -0.2379
  259MPD2    C5 3977   0.390   2.538   0.297 -0.1390  0.1548 -0.1933
  259MPD2     H 3978   0.571   2.580   0.630  1.8437  0.1706 -0.3933
  259MPD2    H1 3979   0.578   2.501   0.212 -0.0383 -0.0307  0.1263
  259MPD2    H2 3980   0.214   2.568   0.399  0.2189 -0.7443  0.2821
  259MPD2    H3 3981   0.340   2.506   0.207 -2.0362  3.6936 -0.4115
  259MPD2     N 3982   0.726   2.513   0.434  0.0133  0.4652 -0.2086
  259MPD2    H5 3983   0.760   2.516   0.530 -2.3197  3.8032  0.4967
  259MPD2    N1 3984   0.303   2.626   0.635 -0.5769  0.2694  0.4476
  259MPD2    H7 3985   0.203   2.622   0.619 -0.5502 -1.3127  0.6687
  260TMC3    C1 3986   0.937   2.420   0.386 -0.5897  0.6535  0.2741
  260TMC3    C2 3987   1.039   2.428   0.299 -0.2512  0.1735  1.2665
  260TMC3    C3 3988   1.162   2.395   0.348  0.4980  0.3388 -0.7194
  260TMC3    C4 3989   0.945   2.351   0.506  0.0101  0.0858 -0.7317
  260TMC3    C5 3990   1.071   2.318   0.550  0.4713  0.0068  0.3331
  260TMC3    C6 3991   1.173   2.357   0.473  0.1788 -0.4699 -0.2834
  260TMC3     C 3992   0.813   2.476   0.335 -0.7706  0.2129  0.5185
  260TMC3     O 3993   0.800   2.489   0.213 -0.5503 -0.3496  0.0003
  260TMC3     H 3994   1.023   2.456   0.195  2.9465  1.2297  1.0552
  260TMC3    H1 3995   0.858   2.360   0.571  0.0230  2.1071 -0.9917
  260TMC3    H2 3996   1.272   2.333   0.512 -1.1826 -2.5053  1.9315
  260TMC3    C7 3997   1.103   2.179   0.587  0.6224  0.2995 -0.5041
  260TMC3    C8 3998   1.267   2.380   0.252  0.6023  0.2779 -0.9328
  260TMC3    O1 3999   1.210   2.127   0.571 -0.2744 -0.2906 -0.1592
  260TMC3    O2 4000   1.266   2.439   0.148 -0.6280 -0.4075  0.5425
  261MPD2     C 4001   2.707   4.659  12.287 -0.3254  0.6043  0.2911
  261MPD2    C1 4002   2.842   4.647  12.310  0.3050 -0.0498 -0.6530
  261MPD2    C2 4003   2.928   4.654  12.202 -0.9912  0.7549 -0.3888
  261MPD2    C3 4004   2.874   4.679  12.072 -0.1733 -0.3514  0.2258
  261MPD2    C4 4005   2.738   4.691  12.052  0.1877 -0.0087 -0.2194
  261MPD2    C5 4006   2.660   4.676  12.157 -0.1250  0.2789 -0.3600
  261MPD2     H 4007   3.031   4.624  12.218 -0.5727  1.9562 -0.8429
  261MPD2    H1 4008   2.692   4.708  11.955 -1.9239 -0.0156  0.7665
  261MPD2    H2 4009   2.629   4.643  12.360  0.7816 -2.2299  0.8361
  261MPD2    H3 4010   2.552   4.686  12.151 -0.1467  0.2361 -0.0530
  261MPD2     N 4011   2.969   4.705  11.969 -0.0189  0.2525 -0.3589
  261MPD2    H5 4012   3.066   4.708  11.998 -0.1180 -2.0696  0.2113
  261MPD2    N1 4013   2.892   4.633  12.440 -0.8410 -0.1846  0.0573
  261MPD2    H7 4014   2.992   4.624  12.448 -1.2018 -2.8402  1.5934
  262TMC3    C1 4015   3.042   0.049  11.753  0.2834  0.1953  0.5184
  262TMC3    C2 4016   3.141   0.129  11.806 -0.2895 -0.5137 -0.7287
  262TMC3    C3 4017   3.227   0.191  11.724  0.5045  0.2414 -0.5867
  262TMC3    C4 4018   3.042   0.012  11.624 -0.2402 -0.7672  0.0812
  262TMC3    C5 4019   3.130   0.077  11.539  0.5886  0.1478  0.1673
  262TMC3    C6 4020   3.226   0.165  11.587  0.4831 -1.0889 -0.0957
  262TMC3     C 4021   2.935   4.722  11.834 -0.4986  0.3418 -0.2690
  262TMC3     O 4022   2.836   4.689  11.776 -0.0572 -0.7316 -0.3414
  262TMC3     H 4023   3.131   0.157  11.910 -0.3558 -1.3801 -0.5082
  262TMC3    H1 4024   2.983   4.664  11.584  0.1745 -1.5697  1.1227
  262TMC3    H2 4025   3.295   0.215  11.521  0.4713 -1.3153 -0.2789
  262TMC3    C7 4026   3.095   0.077  11.398  0.7614  0.2361  0.5817
  262TMC3    C8 4027   3.295   0.315  11.772 -0.4850  0.7076  0.4566
  262TMC3    O1 4028   3.032   4.719  11.349 -0.8234  0.0829 -0.2887
  262TMC3    O2 4029   3.347   0.385  11.685  0.1411  0.3518  0.1350
  263MPD2     C 4030   4.010   4.719  11.198  0.2511 -0.7106 -0.9899
  263MPD2    C1 4031   4.081   4.727  11.312 -0.4552  0.6055  0.4242
  263MPD2    C2 4032   4.130   0.115  11.345  0.5388  0.3852  1.0934
  263MPD2    C3 4033   4.111   0.225  11.263  0.6802 -0.1954 -0.1720
  263MPD2    C4 4034   4.028   0.210  11.152  0.5121 -0.1321 -0.4752
  263MPD2    C5 4035   3.990   0.088  11.114  0.1598 -0.8236  0.4760
  263MPD2     H 4036   4.189   0.120  11.436  0.5819 -0.4388  1.1135
  263MPD2    H1 4037   4.004   0.293  11.085  2.0708  2.0070  1.6012
  263MPD2    H2 4038   3.975   4.622  11.164  0.5690 -0.3585 -2.3321
  263MPD2    H3 4039   3.944   0.066  11.019  1.9108 -0.6715 -0.4113
  263MPD2     N 4040   4.186   0.347  11.281 -0.1157 -0.0527  0.1868
  263MPD2    H5 4041   4.236   0.369  11.367 -0.6061 -0.7214  0.6387
  263MPD2    N1 4042   4.099   4.608  11.386  0.2084 -0.3086  0.2347
  263MPD2    H7 4043   4.061   4.521  11.349  0.9792  0.5234 -2.4982
  264TMC3    C1 4044   4.333   0.518  11.212  0.2989  0.0245  0.1074
  264TMC3    C2 4045   4.359   0.543  11.344 -0.4569 -0.2957  0.1668
  264TMC3    C3 4046   4.484   0.550  11.399 -0.0489  0.0840 -0.6408
  264TMC3    C4 4047   4.441   0.505  11.128 -0.1117  0.4091  0.5909
  264TMC3    C5 4048   4.562   0.499  11.185 -0.2979  0.1614  0.6510
  264TMC3    C6 4049   4.590   0.526  11.318 -0.2615  0.0699  0.0146
  264TMC3     C 4050   4.214   0.433  11.177 -0.1032 -0.2694  0.1375
  264TMC3     O 4051   4.192   0.416  11.059  0.3281  0.7080  0.1393
  264TMC3     H 4052   4.270   0.565  11.402 -0.6170 -0.7669  0.1000
  264TMC3    H1 4053   4.432   0.475  11.024  1.6737  0.8858  0.2898
  264TMC3    H2 4054   4.691   0.531  11.359 -0.4675 -1.7485  0.7557
  264TMC3    C7 4055   4.685   0.506  11.095 -0.6633  0.9877 -0.1588
  264TMC3    C8 4056   4.513   0.648  11.498  1.0457  0.5519  0.5957
  264TMC3    O1 4057   4.678   0.481  10.975  0.0404 -0.1510 -0.2876
  264TMC3    O2 4058   4.622   0.704  11.481 -0.0554  0.2312 -0.5086
  265MPD2     C 4059   1.696   0.107  15.740  0.7191 -0.4248 -0.2562
  265MPD2    C1 4060   1.649   0.205  15.655 -0.0234  0.2294  0.0360
  265MPD2    C2 4061   1.651   0.188  15.519  0.2590 -0.0888  0.4349
  265MPD2    C3 4062   1.681   0.063  15.466  0.1823 -0.6107  0.1241
  265MPD2    C4 4063   1.709   4.694  15.550  0.4544  0.1890  0.7346
  265MPD2    C5 4064   1.729   4.723  15.684  0.1714  0.3188 -0.1427
  265MPD2     H 4065   1.650   0.270  15.447 -1.3750  0.4727  1.0941
  265MPD2    H1 4066   1.742   4.598  15.513  3.5364  2.4400 -2.3399
  265MPD2    H2 4067   1.721   0.129  15.843 -0.8031 -0.1575  0.0554
  265MPD2    H3 4068   1.775   4.648  15.747  0.8150 -0.2158 -1.2356
  265MPD2     N 4069   1.707   0.040  15.333  0.3614 -0.2243 -0.0899
  265MPD2    H5 4070   1.734   4.678  15.317 -0.8890 -0.5376 -0.3224
  265MPD2    N1 4071   1.625   0.335  15.706  0.3348 -0.6928  0.1153
  265MPD2    H7 4072   1.672   0.356  15.794 -0.7017  2.3069 -0.0294
  266TMC3    C1 4073   1.526   0.552  15.736 -0.1895  0.2440  0.1683
  266TMC3    C2 4074   1.634   0.586  15.820 -0.3401  0.8965  0.3141
  266TMC3    C3 4075   1.609   0.671  15.923  0.8180  0.2083  0.1720
  266TMC3    C4 4076   1.407   0.616  15.754 -0.4754  0.0861 -0.5858
  266TMC3    C5 4077   1.393   0.713  15.849  0.2143  0.2644  0.5056
  266TMC3    C6 4078   1.492   0.738  15.942 -0.5281  0.3614 -0.3292
  266TMC3     C 4079   1.530   0.425  15.657  0.2985  1.5558 -0.2587
  266TMC3     O 4080   1.439   0.407  15.574  0.4154  0.4174  0.2642
  266TMC3     H 4081   1.734   0.549  15.803 -0.5470  0.3548  0.2576
  266TMC3    H1 4082   1.332   0.610  15.676  1.5275 -1.3714 -2.4269
  266TMC3    H2 4083   1.459   0.803  16.023  0.3385 -0.7105  0.8907
  266TMC3    C7 4084   1.276   0.802  15.841 -0.5995  0.0222  0.4920
  266TMC3    C8 4085   1.707   0.675  16.029  1.0818  0.0431 -0.5401
  266TMC3    O1 4086   1.166   0.758  15.817 -0.0603  0.4176 -0.3208
  266TMC3    O2 4087   1.779   0.574  16.033  0.3799  0.3796  0.1328
  267MPD2     C 4088   3.563   2.316   0.323 -0.3213  0.4016 -0.7009
  267MPD2    C1 4089   3.593   2.233   0.218 -0.2667  0.0049  1.0831
  267MPD2    C2 4090   3.502   2.207   0.117 -0.0066  0.3407  0.7863
  267MPD2    C3 4091   3.378   2.265   0.127  0.3314  0.0121 -0.2202
  267MPD2    C4 4092   3.353   2.361   0.221  0.4843 -0.2020 -0.5369
  267MPD2    C5 4093   3.448   2.393   0.317 -0.5226 -0.1292  0.0097
  267MPD2     H 4094   3.529   2.148   0.030  0.9893  2.2126 -0.1716
  267MPD2    H1 4095   3.260   2.417   0.215 -0.1306 -1.0817  0.7641
  267MPD2    H2 4096   3.630   2.349   0.401  0.9009  0.1160 -1.6286
  267MPD2    H3 4097   3.429   2.469   0.392  0.7813  2.1435 -1.9851
  267MPD2     N 4098   3.282   2.249   0.025  0.5219  0.1799 -0.3641
  267MPD2    H5 4099   3.201   2.310   0.036  2.0273  1.6012  2.8978
  267MPD2    N1 4100   3.725   2.176   0.224  0.0245 -0.6096 -0.8235
  267MPD2    H7 4101   3.773   2.176   0.314  1.4768 -0.2366 -1.6092
  268TMC3    C1 4102   3.900   2.028   0.169 -0.5967  0.4332  0.0773
  268TMC3    C2 4103   3.966   1.963   0.063 -0.0332  0.1708  0.0356
  268TMC3    C3 4104   4.070   1.878   0.091  0.0382 -0.7064  0.0503
  268TMC3    C4 4105   3.913   1.995   0.300 -0.3104 -0.0988 -0.2892
  268TMC3    C5 4106   4.009   1.900   0.318 -0.0938 -0.2159 -0.4653
  268TMC3    C6 4107   4.088   1.836   0.222  0.0502 -0.3295  0.7264
  268TMC3     C 4108   3.783   2.097   0.125 -0.0968 -0.6601  0.3878
  268TMC3     O 4109   3.753   2.099   0.005 -0.3323 -0.1341 -0.6498
  268TMC3     H 4110   3.946   1.996  17.697  2.0494 -1.3696 -0.8801
  268TMC3    H1 4111   3.844   2.024   0.378 -0.5791 -1.4304 -0.0224
  268TMC3    H2 4112   4.151   1.752   0.247 -0.3800 -0.9091 -0.1330
  268TMC3    C7 4113   4.054   1.880   0.455  0.5212 -0.4873 -0.6593
  268TMC3    C8 4114   4.136   1.801  17.721 -0.0238  0.2309  0.2692
  268TMC3    O1 4115   4.108   1.779   0.488 -0.7049 -0.2138 -0.0598
  268TMC3    O2 4116   4.212   1.711   0.025  0.2803  0.3921  0.3926
  269MPD2     C 4117   4.318   0.639  15.368 -0.5337  0.2703  0.1977
  269MPD2    C1 4118   4.186   0.657  15.398  0.5336 -0.4125 -0.4584
  269MPD2    C2 4119   4.136   0.785  15.411 -0.5673 -0.2715  0.2025
  269MPD2    C3 4120   4.211   0.898  15.389  0.0211  0.0438 -0.4477
  269MPD2    C4 4121   4.348   0.875  15.380 -0.0813 -0.1294  0.1166
  269MPD2    C5 4122   4.404   0.746  15.368  0.2055 -0.3675  0.3527
  269MPD2     H 4123   4.039   0.804  15.457 -1.3488 -0.9759 -1.1470
  269MPD2    H1 4124   4.412   0.962  15.385  0.7965 -0.7841  0.2735
  269MPD2    H2 4125   4.356   0.538  15.367 -1.2499  0.0309 -2.8910
  269MPD2    H3 4126   4.511   0.738  15.351  0.1237 -0.7447  0.0076
  269MPD2     N 4127   4.142   1.020  15.414  0.4656 -0.3516 -0.3183
  269MPD2    H5 4128   4.044   1.017  15.439  1.1358  0.6961  2.4632
  269MPD2    N1 4129   4.103   0.546  15.426  0.7118  0.3030  0.5554
  269MPD2    H7 4130   4.154   0.460  15.442  0.5273 -0.1545 -1.3859
  270TMC3    C1 4131   3.902   0.429  15.461 -0.1309 -0.5438 -1.1699
  270TMC3    C2 4132   3.787   0.395  15.400  0.7761  0.0555  0.1457
  270TMC3    C3 4133   3.724   0.278  15.449  0.4438  0.5589  0.5397
  270TMC3    C4 4134   3.962   0.354  15.560  0.0720  0.9100 -0.5014
  270TMC3    C5 4135   3.894   0.250  15.603  0.1611 -0.0675 -0.0493
  270TMC3    C6 4136   3.780   0.199  15.551  0.2594  0.0479 -0.5451
  270TMC3     C 4137   3.965   0.548  15.418  0.3401 -0.2862  1.2722
  270TMC3     O 4138   3.898   0.635  15.365  0.3581  0.1913 -0.4002
  270TMC3     H 4139   3.737   0.465  15.335  1.4778  1.3102  0.9459
  270TMC3    H1 4140   4.052   0.392  15.607  0.0433 -0.5154  0.6841
  270TMC3    H2 4141   3.724   0.120  15.600  1.1133 -0.9878 -1.2369
  270TMC3    C7 4142   3.963   0.168  15.699  0.1532  0.2656 -0.1948
  270TMC3    C8 4143   3.652   0.210  15.341  0.2119  0.4758  0.2939
  270TMC3    O1 4144   4.045   0.219  15.770  0.2068  0.2957 -0.7187
  270TMC3    O2 4145   3.707   0.118  15.284  0.3069 -0.1503  0.0026
  271MPD2     C 4146   3.295   0.130  13.834  1.1085  0.1212  0.1416
  271MPD2    C1 4147   3.221   0.178  13.943  0.3528 -0.3776 -0.0743
  271MPD2    C2 4148   3.162   0.304  13.940 -0.3768  0.5955 -0.0115
  271MPD2    C3 4149   3.167   0.379  13.827  0.6140  0.4205  0.6350
  271MPD2    C4 4150   3.232   0.329  13.714  0.2696 -0.0434  0.5410
  271MPD2    C5 4151   3.297   0.210  13.720 -0.7664 -0.2748  0.1199
  271MPD2     H 4152   3.123   0.333  14.037 -0.9444 -0.0279 -0.0519
  271MPD2    H1 4153   3.228   0.382  13.619 -4.8400 -0.0210  0.7861
  271MPD2    H2 4154   3.356   0.041  13.836 -0.9749 -1.3916 -3.1540
  271MPD2    H3 4155   3.339   0.173  13.627  0.7868  0.0323  0.6986
  271MPD2     N 4156   3.114   0.505  13.818 -0.0290 -0.0585 -0.5500
  271MPD2    H5 4157   3.099   0.545  13.726  0.0739 -0.1611 -0.6117
  271MPD2    N1 4158   3.228   0.111  14.069 -0.2236 -0.0294  0.1733
  271MPD2    H7 4159   3.186   0.159  14.148 -0.7661  1.8683 -1.2473
  272TMC3    C1 4160   3.280   4.682  14.222  0.6531 -0.7063  0.0298
  272TMC3    C2 4161   3.393   4.605  14.249  0.1326 -0.1996 -0.0632
  272TMC3    C3 4162   3.441   4.612  14.377 -0.0511 -0.3032  0.0352
  272TMC3    C4 4163   3.223   0.030  14.318 -0.1695  0.2782  0.3677
  272TMC3    C5 4164   3.275   0.027  14.448 -0.0551 -0.6321  0.0267
  272TMC3    C6 4165   3.384   4.681  14.476  0.7020  0.2282 -0.8946
  272TMC3     C 4166   3.268   4.716  14.086  0.3831  0.1432  0.2721
  272TMC3     O 4167   3.298   4.630  14.005  0.3315  0.1434 -0.3117
  272TMC3     H 4168   3.439   4.551  14.167 -2.6413 -1.5472 -0.7605
  272TMC3    H1 4169   3.123   0.070  14.302 -0.0514 -0.1327 -1.4059
  272TMC3    H2 4170   3.435   4.691  14.572 -2.4364  0.8806  0.6973
  272TMC3    C7 4171   3.238   0.124  14.546  0.2169 -0.5031  0.9515
  272TMC3    C8 4172   3.583   4.619  14.372 -0.3237 -0.0359  0.3692
  272TMC3    O1 4173   3.297   0.107  14.649 -0.2683  0.1190  0.0401
  272TMC3    O2 4174   3.635   4.637  14.263  0.4090  0.0120  0.2387
  273MPD2     C 4175   4.579   3.281  11.918 -0.6698 -0.2727 -0.5560
  273MPD2    C1 4176   4.689   3.367  11.889 -0.4252  1.2920 -0.2279
  273MPD2    C2 4177   4.695   3.416  11.762  0.6333  0.7644  0.6250
  273MPD2    C3 4178   4.594   3.394  11.666  0.2857  0.3912 -0.2212
  273MPD2    C4 4179   4.499   3.298  11.690  0.2026 -0.0137 -0.4305
  273MPD2    C5 4180   4.489   3.240  11.816 -0.2542  0.0690  0.2800
  273MPD2     H 4181   0.045   3.479  11.734  0.3767  0.6027 -0.5381
  273MPD2    H1 4182   4.421   3.267  11.621  0.0203 -3.1653  1.1908
  273MPD2    H2 4183   4.560   3.236  12.015  0.5249  0.9010  0.2183
  273MPD2    H3 4184   4.398   3.183  11.834  0.5711 -1.6570 -1.1017
  273MPD2     N 4185   4.593   3.461  11.541  0.4184 -0.4121 -0.1975
  273MPD2    H5 4186   4.506   3.469  11.488  0.1170 -2.5937 -0.0441
  273MPD2    N1 4187   0.044   3.399  11.996 -0.2995  0.0648 -0.1043
  273MPD2    H7 4188   0.033   3.348  12.082  0.5003 -0.6128 -0.4012
  274TMC3    C1 4189   4.671   3.579  11.354 -0.3667  0.3251  0.0282
  274TMC3    C2 4190   4.577   3.515  11.273 -0.2980  0.5954 -0.6245
  274TMC3    C3 4191   4.592   3.537  11.138 -0.2143 -0.0112  0.1568
  274TMC3    C4 4192   0.035   3.665  11.305 -0.3685  0.2052  0.3356
  274TMC3    C5 4193   0.049   3.682  11.170 -0.5520 -0.2726  0.5289
  274TMC3    C6 4194   4.702   3.609  11.087  0.2061  0.4224  0.0093
  274TMC3     C 4195   4.699   3.527  11.491 -0.3938  0.4219  0.5293
  274TMC3     O 4196   0.085   3.514  11.527  0.0069 -0.4935 -0.4502
  274TMC3     H 4197   4.505   3.441  11.306  0.2646  0.6201  0.6642
  274TMC3    H1 4198   0.107   3.705  11.375 -1.4168  1.0343  0.9474
  274TMC3    H2 4199   4.697   3.625  10.980  0.8247 -0.7269 -0.1877
  274TMC3    C7 4200   0.035   3.820  11.126  0.2376 -0.4039 -0.6523
  274TMC3    C8 4201   4.470   3.571  11.075 -0.4459  0.4131  0.3496
  274TMC3    O1 4202   0.035   3.833  11.008 -0.4425  0.1612 -0.1412
  274TMC3    O2 4203   4.457   3.683  11.029 -0.2782 -0.0400  0.1847
  275MPD2     C 4204   4.080   1.869  14.360  0.6059 -0.0445 -0.3407
  275MPD2    C1 4205   4.138   1.744  14.379  0.1857 -0.0563 -0.3305
  275MPD2    C2 4206   4.082   1.627  14.331 -0.0310 -0.2655 -0.8147
  275MPD2    C3 4207   3.954   1.632  14.270  0.0072  0.4030  0.1353
  275MPD2    C4 4208   3.898   1.761  14.254 -0.5996 -0.4307  0.1039
  275MPD2    C5 4209   3.957   1.870  14.300  0.3175 -0.2214  0.9793
  275MPD2     H 4210   4.125   1.530  14.352  1.1150  0.1330 -1.2688
  275MPD2    H1 4211   3.799   1.775  14.212  0.5157  1.7416 -1.7818
  275MPD2    H2 4212   4.114   1.967  14.392  0.5818 -0.8741  2.2214
  275MPD2    H3 4213   3.918   1.971  14.295 -1.3158 -0.9284 -0.9012
  275MPD2     N 4214   3.880   1.525  14.223  0.0889 -0.1843  0.3526
  275MPD2    H5 4215   3.787   1.546  14.189 -0.9016 -0.2519  3.0379
  275MPD2    N1 4216   4.258   1.734  14.459  0.8999  0.6482 -0.1953
  275MPD2    H7 4217   4.308   1.647  14.445  1.6686  1.3466 -1.8031
  276TMC3    C1 4218   4.433   1.787  14.617 -0.0687  0.2904  0.8431
  276TMC3    C2 4219   4.509   1.686  14.557 -1.3750 -0.4366  0.7471
  276TMC3    C3 4220   4.640   1.690  14.599 -0.0854  0.2833  0.1336
  276TMC3    C4 4221   4.484   1.877  14.703  0.1817 -0.2856 -0.2552
  276TMC3    C5 4222   4.621   1.881  14.727  0.1271  0.2942 -1.1133
  276TMC3    C6 4223   4.700   1.785  14.673 -0.3996 -0.7333  0.1351
  276TMC3     C 4224   4.311   1.829  14.551  0.1471 -0.3898  0.1827
  276TMC3     O 4225   4.267   1.942  14.566 -0.0989 -0.2129 -0.2751
  276TMC3     H 4226   4.483   1.611  14.484  0.3092 -2.7567  2.5569
  276TMC3    H1 4227   4.417   1.950  14.749  1.3378  0.3167  0.4783
  276TMC3    H2 4228   0.069   1.775  14.705 -0.3778 -2.7147 -0.5555
  276TMC3    C7 4229   4.676   1.979  14.807  0.9198 -0.0650 -0.0514
  276TMC3    C8 4230   4.726   1.608  14.518  0.1642 -0.2167  0.6012
  276TMC3    O1 4231   4.599   2.057  14.859  0.7932  0.4451  0.4250
  276TMC3    O2 4232   0.088   1.667  14.469  0.0190  0.6289  0.2399
  277MPD2     C 4233   2.179   0.736  13.339 -0.2153  0.8575  0.4732
  277MPD2    C1 4234   2.046   0.733  13.380 -0.6714  0.3514 -0.0687
  277MPD2    C2 4235   2.016   0.662  13.492  0.9125  0.2784 -0.7666
  277MPD2    C3 4236   2.122   0.614  13.567 -0.4304 -0.4612 -0.0107
  277MPD2    C4 4237   2.256   0.637  13.532 -0.1260  0.1790  0.1696
  277MPD2    C5 4238   2.285   0.693  13.412 -0.1909  0.6093  0.0152
  277MPD2     H 4239   1.912   0.667  13.522  1.3749  1.1749  0.6905
  277MPD2    H1 4240   2.339   0.608  13.595  1.3474  2.1303 -0.8877
  277MPD2    H2 4241   2.195   0.791  13.247  1.2206 -1.5200 -0.7070
  277MPD2    H3 4242   2.388   0.715  13.387  0.8724 -1.2771  2.8040
  277MPD2     N 4243   2.082   0.548  13.684 -0.7286  0.2622  0.0304
  277MPD2    H5 4244   1.982   0.555  13.700 -0.3763 -1.4040  2.9446
  277MPD2    N1 4245   1.954   0.803  13.294 -0.2890  0.3420 -0.1002
  277MPD2    H7 4246   1.997   0.850  13.216  0.7736 -1.4421 -0.6002
  278TMC3    C1 4247   2.068   0.447  13.877  0.1431  0.5328  0.1312
  278TMC3    C2 4248   2.073   0.316  13.900 -0.2147 -0.0058  0.7059
  278TMC3    C3 4249   1.960   0.238  13.919 -0.3361  0.5846 -0.8822
  278TMC3    C4 4250   1.948   0.510  13.890 -0.2912  0.5323  0.2026
  278TMC3    C5 4251   1.833   0.438  13.900  0.2990  0.1177  0.0758
  278TMC3    C6 4252   1.842   0.305  13.924 -0.3466  0.0464 -0.1532
  278TMC3     C 4253   2.161   0.493  13.778 -0.0574 -0.0317 -0.2816
  278TMC3     O 4254   2.275   0.456  13.766 -0.4050 -0.0204 -0.2957
  278TMC3     H 4255   2.173   0.275  13.915  0.1660  1.0390  1.0467
  278TMC3    H1 4256   1.947   0.618  13.881 -0.4931  0.6238  1.4267
  278TMC3    H2 4257   1.750   0.248  13.929  0.4556 -1.1972  0.7348
  278TMC3    C7 4258   1.733   0.494  13.811 -0.1918  0.8537 -0.0438
  278TMC3    C8 4259   1.966   0.114  13.996  0.5689  0.3240  0.7688
  278TMC3    O1 4260   1.783   0.580  13.739  0.1957 -0.0134  0.1066
  278TMC3    O2 4261   2.072   0.099  14.058 -0.3229 -0.2410  0.6280
  279MPD2     C 4262   0.628   0.759   0.341 -0.0016 -0.0988  0.2473
  279MPD2    C1 4263   0.596   0.654   0.260  0.4206 -0.1674 -0.2543
  279MPD2    C2 4264   0.689   0.616   0.162  0.2004 -0.1063  0.1018
  279MPD2    C3 4265   0.807   0.681   0.143 -0.2161  0.1876 -0.6168
  279MPD2    C4 4266   0.833   0.793   0.222 -0.2122  0.4827 -0.3978
  279MPD2    C5 4267   0.740   0.838   0.320 -0.0384  0.3391 -0.2723
  279MPD2     H 4268   0.660   0.535   0.096  0.8777 -0.2614 -0.0067
  279MPD2    H1 4269   0.930   0.842   0.218 -0.0488  0.1713 -0.2744
  279MPD2    H2 4270   0.563   0.776   0.426  1.7148  2.9971  0.9485
  279MPD2    H3 4271   0.772   0.920   0.383 -1.4426  1.0425 -0.4603
  279MPD2     N 4272   0.901   0.648   0.045 -0.5429  0.1808  0.3245
  279MPD2    H5 4273   0.969   0.718   0.019 -0.7200  0.0732 -0.4187
  279MPD2    N1 4274   0.477   0.585   0.291 -0.0494  0.0268 -0.2500
  279MPD2    H7 4275   0.417   0.621   0.365 -1.4476 -2.9212  0.0544
  280TMC3    C1 4276   0.286   0.465   0.242  0.0543 -0.1534  0.1636
  280TMC3    C2 4277   0.232   0.350   0.189 -0.3862 -0.0094 -0.5628
  280TMC3    C3 4278   0.143   0.357   0.091 -0.0366  0.2189  0.1825
  280TMC3    C4 4279   0.212   0.580   0.221 -0.0276  0.0549  0.4514
  280TMC3    C5 4280   0.111   0.578   0.131 -0.7601 -0.0110  0.2771
  280TMC3    C6 4281   0.072   0.466   0.064  0.1813  0.8450 -0.3114
  280TMC3     C 4282   0.428   0.484   0.216  0.0182 -0.2445 -0.6234
  280TMC3     O 4283   0.468   0.424   0.113 -0.2210 -0.6237  0.0404
  280TMC3     H 4284   0.294   0.262   0.204  1.5956  1.4411 -0.1757
  280TMC3    H1 4285   0.238   0.672   0.272  0.0051  0.0044  0.5271
  280TMC3    H2 4286   4.728   0.458  17.724 -0.1365 -4.2904  0.5483
  280TMC3    C7 4287   0.030   0.699   0.120 -0.4022 -0.6524  0.3181
  280TMC3    C8 4288   0.147   0.251  17.725  0.3445  0.3149  0.4804
  280TMC3    O1 4289   0.002   0.756   0.229 -0.6190 -0.7077  0.6777
  280TMC3    O2 4290   0.091   0.271  17.616  0.0648 -0.1008  0.4455
  281TMC3    C1 4291   4.130   0.483  13.210 -0.1002  0.5842 -0.3524
  281TMC3    C2 4292   4.196   0.559  13.125  0.4718 -0.1439  0.1847
  281TMC3    C3 4293   4.251   0.487  13.019  0.5866  0.4463 -0.7183
  281TMC3    C4 4294   4.133   0.343  13.214 -0.3963  0.2945 -0.9201
  281TMC3    C5 4295   4.181   0.281  13.102 -0.1699 -0.1242  0.3494
  281TMC3    C6 4296   4.226   0.357  12.998 -0.4765 -0.0585 -0.4046
  281TMC3     C 4297   4.015   0.544  13.279  0.2221 -1.2761 -0.4278
  281TMC3     O 4298   3.944   0.477  13.352  0.9128  0.2408  0.1024
  281TMC3     H 4299   4.213   0.666  13.133 -0.8964  0.0909 -0.1986
  281TMC3    H1 4300   4.089   0.290  13.298  2.0268  2.0934  1.4633
  281TMC3    H2 4301   4.250   0.308  12.904  0.7881 -2.6688  1.2574
  281TMC3    C7 4302   4.255   0.165  13.117  0.3490 -0.0293  0.2194
  281TMC3    C8 4303   4.357   0.551  12.935 -0.8426 -0.1762  0.4900
  281TMC3    O1 4304   4.285   0.104  13.014  0.2093  0.1655 -0.9708
  281TMC3    O2 4305   4.449   0.476  12.903 -0.2397  0.0278 -0.2463
  282MPD2     C 4306   1.308   2.005  14.993  0.9372 -0.5202 -0.0425
  282MPD2    C1 4307   1.222   2.086  14.923 -1.0823  0.1253  0.1359
  282MPD2    C2 4308   1.266   2.129  14.800  0.3875  0.0571 -0.0364
  282MPD2    C3 4309   1.378   2.082  14.735 -0.1799  0.3712 -0.5528
  282MPD2    C4 4310   1.462   2.003  14.807 -0.3133 -0.1229 -0.5459
  282MPD2    C5 4311   1.426   1.966  14.936 -0.3352  1.0004 -0.2358
  282MPD2     H 4312   1.198   2.186  14.737 -0.2446 -0.3527  0.2691
  282MPD2    H1 4313   1.556   1.964  14.771  0.6565  1.0749  0.6725
  282MPD2    H2 4314   1.290   1.995  15.099 -2.7623 -0.3643 -0.6524
  282MPD2    H3 4315   1.495   1.910  14.998 -0.3877  1.0943 -0.0929
  282MPD2     N 4316   1.393   2.109  14.600  0.7255 -0.0621 -0.2239
  282MPD2    H5 4317   1.340   2.187  14.562  1.8930 -0.2538 -2.2559
  282MPD2    N1 4318   1.104   2.122  14.984 -0.0042  0.0891  0.4435
  282MPD2    H7 4319   1.083   2.078  15.073 -1.6557 -1.4445 -0.6891
  283TMC3    C1 4320   0.916   2.253  15.041 -0.3854 -0.2703 -0.3488
  283TMC3    C2 4321   0.874   2.382  15.049  0.5665  0.3109  0.3431
  283TMC3    C3 4322   0.763   2.408  15.124 -0.1118 -0.2910 -0.2852
  283TMC3    C4 4323   0.849   2.151  15.101  0.0758  0.2976  0.0958
  283TMC3    C5 4324   0.734   2.181  15.171  0.2508 -0.1715  0.0851
  283TMC3    C6 4325   0.688   2.304  15.187 -0.8211 -0.2733  0.1361
  283TMC3     C 4326   1.026   2.229  14.944  0.7849 -0.4813 -0.3804
  283TMC3     O 4327   1.056   2.317  14.863 -0.1324  0.4556  0.1640
  283TMC3     H 4328   0.907   2.464  14.985 -0.6605  0.3039 -0.2949
  283TMC3    H1 4329   0.870   2.047  15.076  0.8448 -0.1741  2.7042
  283TMC3    H2 4330   0.594   2.329  15.235 -1.7057  0.4028 -1.9385
  283TMC3    C7 4331   0.647   2.081  15.223  0.1557  0.3855 -0.4721
  283TMC3    C8 4332   0.782   2.515  15.217  0.4435 -0.3011  0.1368
  283TMC3    O1 4333   0.571   2.113  15.311  0.2921  0.3264  0.0446
  283TMC3    O2 4334   0.722   2.515  15.326 -0.5660  0.1378 -0.6648
  284MPD2     C 4335   3.967   1.454  12.040  0.1727  0.1812  0.0186
  284MPD2    C1 4336   4.089   1.496  12.097 -0.4028 -0.1231 -0.0893
  284MPD2    C2 4337   4.183   1.399  12.130  0.1537  0.6503  0.1884
  284MPD2    C3 4338   4.159   1.264  12.116 -0.2139 -0.3367  0.4430
  284MPD2    C4 4339   4.036   1.226  12.061  0.2494  0.7240 -0.5270
  284MPD2    C5 4340   3.942   1.323  12.023 -0.1782 -0.6821 -0.1727
  284MPD2     H 4341   4.278   1.443  12.162  0.4274 -0.3984  0.8192
  284MPD2    H1 4342   4.012   1.122  12.039  1.1771 -0.3063  3.3451
  284MPD2    H2 4343   3.901   1.521  11.986  0.8755  0.5708 -0.3534
  284MPD2    H3 4344   3.856   1.285  11.968 -1.2961  0.9436  0.4542
  284MPD2     N 4345   4.251   1.162  12.154 -0.1380  0.4640 -0.1672
  284MPD2    H5 4346   4.226   1.070  12.120  0.1892  0.5906 -0.7518
  284MPD2    N1 4347   4.137   1.628  12.101  0.1973 -0.2344  1.0855
  284MPD2    H7 4348   4.235   1.642  12.125  0.3499  0.1858  0.1825
  285TMC3    C1 4349   4.150   1.863  12.070 -0.7077 -0.3111 -0.7377
  285TMC3    C2 4350   4.289   1.847  12.099 -0.6762  0.0066 -0.1490
  285TMC3    C3 4351   4.381   1.937  12.055  0.0457 -0.7991  0.5233
  285TMC3    C4 4352   4.112   1.962  11.984  0.6889  0.4828 -1.0470
  285TMC3    C5 4353   4.206   2.057  11.945  0.0048 -0.3325  0.1220
  285TMC3    C6 4354   4.339   2.037  11.972  0.3451  0.3186  0.1513
  285TMC3     C 4355   4.067   1.744  12.075  0.1363 -0.3734 -0.3863
  285TMC3     O 4356   3.951   1.763  12.040 -0.6170 -0.1881  0.2391
  285TMC3     H 4357   4.328   1.771  12.165 -2.7443 -1.5909 -0.7765
  285TMC3    H1 4358   4.008   1.973  11.956  0.8653  0.4317 -1.7299
  285TMC3    H2 4359   4.408   2.117  11.949 -1.4488  1.7272 -0.3735
  285TMC3    C7 4360   4.167   2.177  11.869  0.6379  0.1066 -0.2190
  285TMC3    C8 4361   4.510   1.877  12.028  0.9707 -0.0351 -0.4744
  285TMC3    O1 4362   4.263   2.252  11.832 -0.5542  0.3126 -0.1611
  285TMC3    O2 4363   4.525   1.765  12.071  0.2879  0.5068 -0.6892
  286MPD2     C 4364   4.483   4.532   1.797  0.1705 -0.1229  0.2303
  286MPD2    C1 4365   4.453   4.525   1.662 -0.1131 -0.1910  0.3268
  286MPD2    C2 4366   4.535   4.453   1.580  0.3998  0.4603  0.1159
  286MPD2    C3 4367   4.651   4.398   1.624  0.2236  0.4846 -0.9522
  286MPD2    C4 4368   4.661   4.389   1.762 -0.4064 -0.0635  0.0784
  286MPD2    C5 4369   4.578   4.455   1.848  0.4121 -0.5946 -0.0378
  286MPD2     H 4370   4.505   4.453   1.476  1.4560 -0.1051 -0.1952
  286MPD2    H1 4371   0.002   4.328   1.811  1.5542  1.5748 -0.8962
  286MPD2    H2 4372   4.408   4.569   1.865  0.5466 -0.0139  0.5857
  286MPD2    H3 4373   4.597   4.453   1.955 -1.3888  2.3181  0.3492
  286MPD2     N 4374   0.005   4.323   1.541 -0.4458  0.5761  0.1278
  286MPD2    H5 4375   0.083   4.282   1.591  0.5112  0.5611 -1.3802
  286MPD2    N1 4376   4.336   4.573   1.604 -0.1041 -0.0806  0.2952
  286MPD2    H7 4377   4.327   4.566   1.503  0.4063  2.5545  0.0458
  287TMC3    C1 4378   0.093   4.225   1.341 -0.2592 -0.3480  0.0106
  287TMC3    C2 4379   0.055   4.159   1.225  0.4022 -0.0444  0.3017
  287TMC3    C3 4380   0.153   4.085   1.171 -0.2746 -0.1131 -0.4915
  287TMC3    C4 4381   0.218   4.205   1.395 -1.0096  0.2311 -0.3588
  287TMC3    C5 4382   0.313   4.118   1.339  0.3748  0.4885  0.1258
  287TMC3    C6 4383   0.274   4.058   1.223  0.3304  0.0165 -0.5562
  287TMC3     C 4384   4.725   4.304   1.404 -0.4481 -0.4496  0.5990
  287TMC3     O 4385   4.630   4.331   1.329 -0.0630 -0.4631 -0.1084
  287TMC3     H 4386   4.687   4.163   1.189  0.9941  0.2636 -1.3515
  287TMC3    H1 4387   0.249   4.269   1.476  0.8927 -0.8292 -0.2535
  287TMC3    H2 4388   0.342   3.987   1.176 -1.9614 -1.5392 -1.4938
  287TMC3    C7 4389   0.441   4.108   1.411 -0.1045 -0.3557 -0.1496
  287TMC3    C8 4390   0.126   4.034   1.037 -0.5276  0.2753 -0.6065
  287TMC3    O1 4391   0.445   4.161   1.520 -0.3972 -0.2567  0.4157
  287TMC3    O2 4392   0.198   3.940   1.007 -0.1847 -0.1938 -0.3091
  288TMC3    C1 4393   2.201   0.145  14.470  1.6255  0.0694 -0.3226
  288TMC3    C2 4394   2.075   0.111  14.510 -0.0491  0.4357 -0.4969
  288TMC3    C3 4395   1.973   0.184  14.449  0.0308  0.2093 -0.4622
  288TMC3    C4 4396   2.231   0.238  14.380 -0.0344 -0.1430  0.3895
  288TMC3    C5 4397   2.125   0.305  14.316 -0.3719 -1.0236 -0.4077
  288TMC3    C6 4398   1.995   0.271  14.342 -0.0777  0.2041  0.7737
  288TMC3     C 4399   2.319   0.079  14.523 -0.1944  0.2634 -1.3141
  288TMC3     O 4400   2.418   0.096  14.455  0.7410  0.1374  0.2482
  288TMC3     H 4401   2.056   0.042  14.591 -1.7872  1.2442 -0.2300
  288TMC3    H1 4402   2.335   0.254  14.353 -0.2283  1.6142  0.7310
  288TMC3    H2 4403   1.914   0.331  14.302  1.1081 -0.9787 -3.4510
  288TMC3    C7 4404   2.143   0.425  14.246 -0.4551 -0.7721  0.5135
  288TMC3    C8 4405   1.833   0.178  14.499 -0.6337 -0.1070  0.5758
  288TMC3    O1 4406   2.048   0.496  14.226 -0.2710  0.3227 -0.2750
  288TMC3    O2 4407   1.759   0.267  14.458 -0.0622 -0.4179  0.1754
  289MPD2     C 4408   1.736   3.852  14.827  1.0890 -0.7530  0.3254
  289MPD2    C1 4409   1.779   3.908  14.710 -0.6586 -0.5030  0.2890
  289MPD2    C2 4410   1.728   3.861  14.593  0.5816 -0.6476  0.0711
  289MPD2    C3 4411   1.623   3.770  14.594 -0.2020 -0.1993 -0.2487
  289MPD2    C4 4412   1.574   3.719  14.711 -0.1517  0.6284 -0.2404
  289MPD2    C5 4413   1.638   3.749  14.832  0.5218 -0.4349  0.1367
  289MPD2     H 4414   1.780   3.893  14.504  0.6780 -1.6671 -0.2426
  289MPD2    H1 4415   1.494   3.646  14.714  1.0123 -0.6357  0.2471
  289MPD2    H2 4416   1.771   3.870  14.928 -2.0077 -1.4378  1.5337
  289MPD2    H3 4417   1.608   3.713  14.929 -0.4876 -0.7357 -0.2857
  289MPD2     N 4418   1.558   3.728  14.478  0.2602 -0.3432  0.1079
  289MPD2    H5 4419   1.478   3.667  14.485  2.0105 -2.6517 -0.0879
  289MPD2    N1 4420   1.886   3.996  14.723 -0.0925  0.5279  0.2237
  289MPD2    H7 4421   1.915   4.011  14.819 -0.1538 -0.5162  0.4031
  290TMC3    C1 4422   1.454   3.778  14.269 -0.1329 -0.4952 -0.0642
  290TMC3    C2 4423   1.405   3.894  14.214  0.3951 -0.7913 -0.7035
  290TMC3    C3 4424   1.279   3.903  14.171 -0.1111 -0.1082 -0.5020
  290TMC3    C4 4425   1.372   3.668  14.288 -0.3050 -0.5219 -0.5498
  290TMC3    C5 4426   1.254   3.673  14.218 -0.1448 -0.0441  0.6501
  290TMC3    C6 4427   1.199   3.791  14.163 -0.0992  0.4201 -1.0461
  290TMC3     C 4428   1.570   3.792  14.355 -0.4006  0.1278  0.3225
  290TMC3     O 4429   1.654   3.867  14.309  0.1730 -0.1125  0.1494
  290TMC3     H 4430   1.477   3.975  14.203  0.5188 -0.7335  0.5231
  290TMC3    H1 4431   1.407   3.575  14.331 -0.6671 -0.0345  0.8007
  290TMC3    H2 4432   1.102   3.803  14.115  0.3898 -0.7764 -2.3373
  290TMC3    C7 4433   1.169   3.557  14.243  0.6386 -0.0636 -0.3364
  290TMC3    C8 4434   1.240   4.025  14.106 -0.3247  0.3867  0.5193
  290TMC3    O1 4435   1.225   3.461  14.296  0.1018  0.1706 -0.1122
  290TMC3    O2 4436   1.159   4.020  14.016  0.1703 -0.0228 -0.8931
  291MPD2     C 4437   0.848   3.256   0.661  0.4731 -0.1195 -0.1384
  291MPD2    C1 4438   0.831   3.206   0.533  0.6690 -0.5129  0.8063
  291MPD2    C2 4439   0.903   3.265   0.432 -0.7010  0.0123  0.0166
  291MPD2    C3 4440   0.975   3.384   0.443 -1.2362  0.6138 -0.3337
  291MPD2    C4 4441   0.991   3.436   0.565 -0.0005  0.0666  0.1452
  291MPD2    C5 4442   0.934   3.363   0.673  0.4177 -0.2655  0.1103
  291MPD2     H 4443   0.874   3.224   0.336 -2.0261  0.6214  0.1632
  291MPD2    H1 4444   1.050   3.522   0.594 -0.6406  1.4630 -2.6887
  291MPD2    H2 4445   0.796   3.217   0.748  0.4412 -0.7451 -0.4392
  291MPD2    H3 4446   0.952   3.401   0.773 -0.6781  0.0701  0.1772
  291MPD2     N 4447   1.027   3.454   0.331 -0.0479 -0.1644 -0.2026
  291MPD2    H5 4448   1.086   3.536   0.344 -0.3623  0.3071 -1.7209
  291MPD2    N1 4449   0.739   3.101   0.500  0.4060 -0.2317 -0.6251
  291MPD2    H7 4450   0.732   3.073   0.403  1.1746  0.0902 -0.7727
  292TMC3    C1 4451   0.595   2.931   0.516 -0.2135  0.0869 -0.4276
  292TMC3    C2 4452   0.464   2.933   0.554 -0.0333  0.4092  0.1169
  292TMC3    C3 4453   0.371   2.928   0.452 -0.4208  0.1417 -0.2013
  292TMC3    C4 4454   0.635   2.913   0.387  0.1378 -0.6234  0.4258
  292TMC3    C5 4455   0.540   2.898   0.289  1.0009  0.5726 -0.0947
  292TMC3    C6 4456   0.406   2.907   0.322 -0.4594 -0.5122  0.3108
  292TMC3     C 4457   0.662   3.029   0.588  0.0142  0.5446  0.6918
  292TMC3     O 4458   0.643   3.042   0.708 -0.2568 -0.0343 -0.2974
  292TMC3     H 4459   0.432   2.939   0.657  2.6910 -0.1826  1.0080
  292TMC3    H1 4460   0.738   2.886   0.367  0.4102 -0.9885  2.3175
  292TMC3    H2 4461   0.327   2.878   0.253 -1.3212 -0.6731  1.3530
  292TMC3    C7 4462   0.582   2.840   0.163  0.2899 -0.8492  0.5163
  292TMC3    C8 4463   0.238   2.972   0.487  0.4663 -0.2803 -0.3506
  292TMC3    O1 4464   0.696   2.800   0.153 -0.3768 -0.3079 -0.2659
  292TMC3    O2 4465   0.198   2.937   0.595  0.2604 -0.1408  0.3008
  293MPD2     C 4466   2.624   4.673  12.890 -0.2924 -0.4669  0.0087
  293MPD2    C1 4467   2.595   0.073  12.894  0.5185  0.0722  0.2291
  293MPD2    C2 4468   2.639   0.145  13.003  0.2652 -0.1874 -0.4724
  293MPD2    C3 4469   2.713   0.088  13.103 -0.0768 -0.2895 -0.5213
  293MPD2    C4 4470   2.735   4.688  13.100  0.5176  0.1532  0.2749
  293MPD2    C5 4471   2.689   4.615  12.994 -0.4421  0.0112  0.0002
  293MPD2     H 4472   2.622   0.252  13.004  0.3272 -0.1892  1.0420
  293MPD2    H1 4473   2.783   4.631  13.179  0.7527  0.1198  0.1090
  293MPD2    H2 4474   2.590   4.607  12.812 -0.5678 -0.1746 -0.1200
  293MPD2    H3 4475   2.703   4.508  12.985  0.2950  0.0103  1.1237
  293MPD2     N 4476   2.761   0.172  13.206 -0.3616  0.2676  0.2907
  293MPD2    H5 4477   2.741   0.271  13.199  1.5060  0.7024  1.1068
  293MPD2    N1 4478   2.520   0.133  12.794  0.0252 -1.0882 -0.5212
  293MPD2    H7 4479   2.510   0.093  12.701  3.1835 -0.7358 -0.9790
  294TMC3    C1 4480   2.408   0.305  12.672  0.1927  0.2843  0.2234
  294TMC3    C2 4481   2.412   0.238  12.552 -0.6294  0.0023 -0.6196
  294TMC3    C3 4482   2.400   0.308  12.435  0.2571  1.0151  0.5399
  294TMC3    C4 4483   2.381   0.444  12.671  0.1540 -0.5621  0.2742
  294TMC3    C5 4484   2.381   0.510  12.551 -0.1255  0.2202 -0.4066
  294TMC3    C6 4485   2.382   0.450  12.431 -0.3447  0.1312 -0.0344
  294TMC3     C 4486   2.453   0.253  12.802  0.1604 -0.6194  0.5622
  294TMC3     O 4487   2.421   0.318  12.904 -0.0587  0.2393  0.0026
  294TMC3     H 4488   2.404   0.130  12.555 -0.1572  0.0098  0.7437
  294TMC3    H1 4489   2.360   0.494  12.765  0.9444  0.0509  0.1281
  294TMC3    H2 4490   2.366   0.504  12.338  2.6711  0.6714 -0.2728
  294TMC3    C7 4491   2.349   0.649  12.556  0.0719  0.7014  0.0232
  294TMC3    C8 4492   2.403   0.240  12.309  0.2968  0.0354  0.3626
  294TMC3    O1 4493   2.287   0.686  12.655 -0.4364 -0.0060  0.4369
  294TMC3    O2 4494   2.374   0.122  12.316 -0.2060 -0.3849 -0.7641
  295MPD2     C 4495   2.405   3.934   1.274 -0.0405  0.4128 -0.3067
  295MPD2    C1 4496   2.417   3.802   1.219  0.1387 -0.0870  0.5659
  295MPD2    C2 4497   2.318   3.715   1.229  0.3095 -0.4782 -0.2891
  295MPD2    C3 4498   2.200   3.753   1.299 -0.9264 -0.0977  0.2341
  295MPD2    C4 4499   2.192   3.876   1.361 -0.4621  0.1073 -0.1493
  295MPD2    C5 4500   2.295   3.965   1.353 -0.3457 -0.1852 -0.1554
  295MPD2     H 4501   2.325   3.617   1.185 -1.0447 -1.1588  1.0047
  295MPD2    H1 4502   2.098   3.903   1.408 -0.7832 -1.3061  0.0005
  295MPD2    H2 4503   2.484   4.006   1.254  0.3182  0.6660  1.9592
  295MPD2    H3 4504   2.277   4.063   1.395  1.4258  0.7258 -1.5248
  295MPD2     N 4505   2.079   3.674   1.313 -0.0631 -0.0213  0.0577
  295MPD2    H5 4506   2.001   3.702   1.372 -0.0055  1.3431 -0.5200
  295MPD2    N1 4507   2.522   3.750   1.128  0.3716 -0.3430  0.1693
  295MPD2    H7 4508   2.518   3.652   1.105 -1.4784 -0.3004  0.2489
  296TMC3    C1 4509   1.946   3.481   1.319 -0.2406  0.4876 -0.2758
  296TMC3    C2 4510   1.840   3.570   1.333  0.7270  0.1673  0.1890
  296TMC3    C3 4511   1.745   3.523   1.426 -0.1586  1.4274  0.4985
  296TMC3    C4 4512   1.951   3.355   1.365  0.2279  0.0353 -0.3022
  296TMC3    C5 4513   1.854   3.317   1.452  0.0992  0.4512  0.2722
  296TMC3    C6 4514   1.748   3.397   1.481  0.4125 -0.8995 -0.1591
  296TMC3     C 4515   2.066   3.542   1.265  0.1233  0.1377 -0.0767
  296TMC3     O 4516   2.152   3.472   1.211 -0.4710  0.1338 -0.2634
  296TMC3     H 4517   1.821   3.658   1.272  1.9738 -0.2149 -0.7623
  296TMC3    H1 4518   2.035   3.290   1.343 -1.0260 -1.7000 -0.0240
  296TMC3    H2 4519   1.657   3.361   1.528  0.2005  0.3268  0.3674
  296TMC3    C7 4520   1.874   3.184   1.511  0.1293  0.2637 -0.2769
  296TMC3    C8 4521   1.645   3.611   1.467 -0.4306 -0.2488 -0.3162
  296TMC3    O1 4522   1.953   3.113   1.456 -0.4460 -0.3186  0.0515
  296TMC3    O2 4523   1.537   3.562   1.509 -0.0322 -0.0875  0.1550
  297MPD2     C 4524   0.501   0.883  16.276 -0.3902 -0.1107  0.1779
  297MPD2    C1 4525   0.538   0.967  16.171  0.2155  0.1772 -0.3354
  297MPD2    C2 4526   0.665   1.022  16.162 -0.2292 -0.7360 -0.4006
  297MPD2    C3 4527   0.768   0.969  16.236  0.6019  0.1552  0.1326
  297MPD2    C4 4528   0.734   0.876  16.332  0.1963  0.2595  0.4501
  297MPD2    C5 4529   0.603   0.836  16.352 -0.7456  0.1813  0.9074
  297MPD2     H 4530   0.692   1.091  16.083 -4.1430  1.2009 -0.0600
  297MPD2    H1 4531   0.806   0.831  16.399 -0.8326  0.3604  1.6117
  297MPD2    H2 4532   0.397   0.863  16.300 -0.0876 -4.6385 -2.2051
  297MPD2    H3 4533   0.574   0.775  16.436  1.6390 -0.2121  1.4644
  297MPD2     N 4534   0.896   1.020  16.214  0.7096 -0.9182 -0.4278
  297MPD2    H5 4535   0.905   1.074  16.129  1.1033 -0.8482 -0.3400
  297MPD2    N1 4536   0.452   1.015  16.064 -0.0069 -0.3053 -0.3524
  297MPD2    H7 4537   0.494   1.089  16.009 -1.3595 -1.5559 -3.0348
  298TMC3    C1 4538   0.248   1.042  15.940 -0.1091 -0.2429  0.0655
  298TMC3    C2 4539   0.322   1.052  15.824  0.5352 -0.3224  0.7057
  298TMC3    C3 4540   0.261   1.073  15.706  0.4558 -0.2174  0.5806
  298TMC3    C4 4541   0.114   1.059  15.942  0.9717  0.8308  0.4151
  298TMC3    C5 4542   0.056   1.075  15.817  0.2420  0.2737  0.1783
  298TMC3    C6 4543   0.125   1.093  15.700 -0.6090 -0.0799 -0.4916
  298TMC3     C 4544   0.309   1.003  16.059  0.6076 -0.6660 -0.6472
  298TMC3     O 4545   0.236   0.948  16.143  0.5146  0.3055 -0.6017
  298TMC3     H 4546   0.429   1.040  15.814  0.1490 -2.1468 -1.2974
  298TMC3    H1 4547   0.057   1.062  16.034  1.1766 -0.1058  0.5771
  298TMC3    H2 4548   0.073   1.110  15.607 -3.3819  2.2347  1.5048
  298TMC3    C7 4549   4.655   1.130  15.822 -0.3980  0.0509 -0.1003
  298TMC3    C8 4550   0.332   1.085  15.583  0.3183  0.0084  0.2274
  298TMC3    O1 4551   4.590   1.087  15.916  0.1517 -0.0288 -0.1667
  298TMC3    O2 4552   0.435   1.022  15.575  0.2178 -0.7055 -0.0518
  299MPD2     C 4553   0.718   0.725  10.443 -0.5297  0.0391 -0.0609
  299MPD2    C1 4554   0.760   0.853  10.461 -0.5177  0.3298  0.5775
  299MPD2    C2 4555   0.666   0.955  10.472 -0.4111 -0.0036  0.0619
  299MPD2    C3 4556   0.534   0.920  10.495 -0.0295 -0.2304  0.0497
  299MPD2    C4 4557   0.488   0.789  10.478 -0.2965  0.3304  0.2608
  299MPD2    C5 4558   0.583   0.696  10.457  0.3351 -0.2771 -0.1247
  299MPD2     H 4559   0.694   1.059  10.489  0.6999 -0.3016  0.1009
  299MPD2    H1 4560   0.384   0.762  10.492 -0.6604  0.5547 -1.8914
  299MPD2    H2 4561   0.787   0.646  10.418 -0.2250 -0.5966  2.8728
  299MPD2    H3 4562   0.548   0.593  10.456 -0.2904 -0.0869  1.8735
  299MPD2     N 4563   0.434   1.019  10.541 -0.5131 -0.2510  0.3395
  299MPD2    H5 4564   0.352   0.980  10.586 -1.4298  0.4091 -0.7487
  299MPD2    N1 4565   0.900   0.879  10.458  0.0842 -0.1419  0.5713
  299MPD2    H7 4566   0.960   0.801  10.480 -1.4802 -1.2483  0.8992
  300TMC3    C1 4567   0.327   1.228  10.574  0.0495 -0.9777  0.9464
  300TMC3    C2 4568   0.346   1.365  10.598 -0.8138  0.4767  0.3024
  300TMC3    C3 4569   0.281   1.438  10.697 -0.3198  0.4335 -0.2133
  300TMC3    C4 4570   0.227   1.169  10.642  0.6970 -0.0244  0.9671
  300TMC3    C5 4571   0.169   1.240  10.742  0.2357 -0.4730  0.3644
  300TMC3    C6 4572   0.188   1.370  10.769 -0.2602 -0.1783  0.2157
  300TMC3     C 4573   0.445   1.157  10.527  0.4850  0.4406  0.2766
  300TMC3     O 4574   0.533   1.226  10.473  0.0948 -0.4304 -0.1361
  300TMC3     H 4575   0.425   1.415  10.543  0.3423  0.3352  1.8343
  300TMC3    H1 4576   0.211   1.062  10.656 -1.6165  0.6067  3.1270
  300TMC3    H2 4577   0.127   1.416  10.845  0.3702  1.6404 -0.3958
  300TMC3    C7 4578   0.097   1.160  10.839  0.0571  0.8823  0.7130
  300TMC3    C8 4579   0.313   1.575  10.716  0.3243  0.3751 -0.2288
  300TMC3    O1 4580   0.021   1.075  10.795  0.2688 -0.1902 -0.5689
  300TMC3    O2 4581   0.383   1.627  10.634 -0.0706  0.1468 -0.4285
  301MPD2     C 4582   2.492   1.299   1.465  0.0378  0.0910 -0.2364
  301MPD2    C1 4583   2.523   1.316   1.330  0.3538  0.0985 -0.2456
  301MPD2    C2 4584   2.568   1.208   1.253  0.0184 -0.1069 -0.7877
  301MPD2    C3 4585   2.600   1.089   1.313  0.0317 -0.2892 -0.5394
  301MPD2    C4 4586   2.560   1.065   1.444 -0.5961 -0.7953 -0.2689
  301MPD2    C5 4587   2.503   1.171   1.520  0.5581 -0.5075  0.4713
  301MPD2     H 4588   2.566   1.219   1.146 -0.9405  2.7843 -0.4794
  301MPD2    H1 4589   2.576   0.967   1.487  0.8969 -0.5757 -0.3229
  301MPD2    H2 4590   2.448   1.380   1.522 -0.2343 -1.7107  2.0994
  301MPD2    H3 4591   2.467   1.158   1.622 -0.0297  1.4286  0.5109
  301MPD2     N 4592   2.668   0.982   1.250  0.0686  0.0862  0.1675
  301MPD2    H5 4593   2.688   0.899   1.303 -1.1309  0.0100  0.5040
  301MPD2    N1 4594   2.506   1.437   1.260 -0.0184  0.4237 -1.0320
  301MPD2    H7 4595   2.528   1.436   1.161  1.7116 -1.0525 -0.6210
  302TMC3    C1 4596   2.766   0.866   1.067  0.0764 -0.3007  0.7321
  302TMC3    C2 4597   2.824   0.774   1.148  0.2223  0.3046 -0.2446
  302TMC3    C3 4598   2.881   0.668   1.085  0.1798 -0.3731  0.2882
  302TMC3    C4 4599   2.755   0.852   0.933  0.3229  0.0292  0.0974
  302TMC3    C5 4600   2.815   0.744   0.873 -0.3791  0.0437 -1.1442
  302TMC3    C6 4601   2.869   0.647   0.946 -0.0466 -0.3384  0.3076
  302TMC3     C 4602   2.712   0.989   1.119  0.0804 -0.0760  0.3404
  302TMC3     O 4603   2.735   1.088   1.054  0.7923 -1.1211 -0.2581
  302TMC3     H 4604   2.817   0.786   1.256  1.3233 -0.8898 -0.0471
  302TMC3    H1 4605   2.699   0.928   0.880  0.1991 -0.1511 -0.0259
  302TMC3    H2 4606   2.905   0.551   0.909  2.5060  0.8845 -0.4039
  302TMC3    C7 4607   2.856   0.742   0.733  0.0731  0.2583 -0.2320
  302TMC3    C8 4608   2.981   0.591   1.158 -0.3596 -0.2148 -0.6133
  302TMC3    O1 4609   2.899   0.638   0.685 -0.7854  0.1892  0.2534
  302TMC3    O2 4610   3.032   0.648   1.255 -0.4479 -0.0386  0.0569
  303MPD2     C 4611   3.413   1.226   9.994  0.2026 -0.4371 -0.4420
  303MPD2    C1 4612   3.362   1.107   9.942 -0.2371 -0.4054 -0.0002
  303MPD2    C2 4613   3.448   0.995   9.940  0.4333 -0.0409  0.6518
  303MPD2    C3 4614   3.582   1.006   9.970  0.2748 -0.2088 -0.3382
  303MPD2    C4 4615   3.630   1.130  10.013  0.3847 -0.7610 -0.1038
  303MPD2    C5 4616   3.541   1.231  10.036 -0.2322 -0.5170  0.3257
  303MPD2     H 4617   3.412   0.905   9.892 -0.5980  0.8790 -0.2938
  303MPD2    H1 4618   3.737   1.142  10.018  0.0664  0.3053  3.6846
  303MPD2    H2 4619   3.357   1.318  10.011  0.9610 -0.3861  1.8472
  303MPD2    H3 4620   3.571   1.322  10.087 -1.8093 -0.4025  1.0662
  303MPD2     N 4621   3.678   0.904   9.944  0.0843  0.3416  1.1013
  303MPD2    H5 4622   3.774   0.934   9.956  0.2807  1.1937 -2.3912
  303MPD2    N1 4623   3.229   1.104   9.907 -0.8329 -0.2725 -0.1717
  303MPD2    H7 4624   3.179   1.192   9.914 -1.5363 -0.5229 -1.9260
  304TMC3    C1 4625   3.015   1.017   9.868 -0.0956  0.4800  0.0161
  304TMC3    C2 4626   2.986   1.083   9.754  0.3139 -0.6581 -0.2283
  304TMC3    C3 4627   2.863   1.052   9.701  0.4571 -0.0899 -0.4686
  304TMC3    C4 4628   2.933   0.929   9.929 -0.2615  0.0595  0.5706
  304TMC3    C5 4629   2.802   0.915   9.874 -0.2264 -0.0122 -0.1160
  304TMC3    C6 4630   2.763   0.991   9.767 -0.3537 -0.0785 -0.3506
  304TMC3     C 4631   3.156   0.989   9.885  0.2160  0.7768 -0.1935
  304TMC3     O 4632   3.190   0.869   9.874  0.0309 -0.1685 -0.0578
  304TMC3     H 4633   3.065   1.117   9.689  0.2589  0.8640  0.4900
  304TMC3    H1 4634   2.965   0.877  10.018  3.4514 -0.0292 -0.8330
  304TMC3    H2 4635   2.671   0.985   9.710  1.0289 -0.9304 -2.4908
  304TMC3    C7 4636   2.764   0.779   9.856 -0.0979 -0.1144 -0.9714
  304TMC3    C8 4637   2.871   1.038   9.560  0.0835  0.3985  0.0318
  304TMC3    O1 4638   2.736   0.750   9.744  0.0780  0.3844 -0.0544
  304TMC3    O2 4639   2.940   1.118   9.497  0.6530  0.6264  0.0459
  305MPD2     C 4640   1.461   2.448  13.780 -0.2376 -0.3181  0.2912
  305MPD2    C1 4641   1.568   2.371  13.818 -0.8025 -0.6055 -0.6940
  305MPD2    C2 4642   1.579   2.253  13.739  0.1618  0.0049 -0.7435
  305MPD2    C3 4643   1.493   2.222  13.640  0.4554 -0.2210 -0.0191
  305MPD2    C4 4644   1.381   2.303  13.618  0.7773 -0.1989 -0.5396
  305MPD2    C5 4645   1.372   2.416  13.687  0.1733  0.1119  0.0500
  305MPD2     H 4646   1.664   2.188  13.758  1.1004  1.0271 -1.4512
  305MPD2    H1 4647   1.305   2.276  13.546 -0.0150 -1.3539  0.7298
  305MPD2    H2 4648   1.450   2.534  13.846  0.5428 -0.0753  0.1142
  305MPD2    H3 4649   1.292   2.486  13.666 -0.8470 -0.6553  1.3883
  305MPD2     N 4650   1.505   2.101  13.558  0.4637  0.7476  0.4628
  305MPD2    H5 4651   1.430   2.080  13.494  2.1866 -0.3727 -1.1919
  305MPD2    N1 4652   1.657   2.420  13.918 -0.0819  0.1558  0.6072
  305MPD2    H7 4653   1.634   2.508  13.964 -0.1372 -0.0580  0.9883
  306TMC3    C1 4654   1.808   2.394  14.100  0.0417 -0.0849 -0.0923
  306TMC3    C2 4655   1.829   2.288  14.190 -0.0355 -0.3748 -0.0532
  306TMC3    C3 4656   1.853   2.318  14.320  0.0481 -0.2075  0.0727
  306TMC3    C4 4657   1.799   2.521  14.146 -0.0857 -0.8187  0.7141
  306TMC3    C5 4658   1.831   2.545  14.273 -0.2182  0.1822 -0.4215
  306TMC3    C6 4659   1.853   2.445  14.367  0.0596  0.3354 -0.1224
  306TMC3     C 4660   1.757   2.340  13.967  0.1450 -0.1015 -0.9234
  306TMC3     O 4661   1.795   2.224  13.936 -0.2719 -1.2633  0.0029
  306TMC3     H 4662   1.830   2.182  14.168  0.4803 -0.1758 -1.0022
  306TMC3    H1 4663   1.787   2.601  14.074  1.7539 -0.5654  0.7011
  306TMC3    H2 4664   1.903   2.451  14.463 -1.6152 -0.3409  0.7920
  306TMC3    C7 4665   1.892   2.671  14.307  0.1551 -0.4615 -0.3848
  306TMC3    C8 4666   1.833   2.218  14.422 -0.1283 -0.4967  0.2369
  306TMC3    O1 4667   1.956   2.727  14.222  0.7658 -0.0651  0.5788
  306TMC3    O2 4668   1.854   2.106  14.378 -0.0493 -0.1476  0.3525
  307MPD2     C 4669   4.075   4.702   0.868  0.4033  0.6936 -0.6524
  307MPD2    C1 4670   4.082   0.104   0.837 -0.0000 -0.3301  1.1133
  307MPD2    C2 4671   3.998   0.199   0.900 -0.2618  0.2557 -0.8232
  307MPD2    C3 4672   3.905   0.151   0.993 -0.0345  0.0505 -0.2930
  307MPD2    C4 4673   3.901   0.016   1.028 -0.7767  0.4162  0.2378
  307MPD2    C5 4674   3.978   4.665   0.958  0.1912 -0.2860  0.2553
  307MPD2     H 4675   4.001   0.305   0.879  1.5386  0.1408 -1.1410
  307MPD2    H1 4676   3.820   4.723   1.094 -2.5663  2.3343 -1.1650
  307MPD2    H2 4677   4.129   4.624   0.817  0.6452 -1.3600  2.6888
  307MPD2    H3 4678   3.973   4.558   0.974 -3.4668 -0.2177 -0.5597
  307MPD2     N 4679   3.802   0.230   1.041 -0.1386 -0.3322  0.1706
  307MPD2    H5 4680   3.720   0.192   1.088  0.0515  0.6534  1.2925
  307MPD2    N1 4681   4.152   0.149   0.725  0.5496  0.6626  0.5104
  307MPD2    H7 4682   4.160   0.250   0.717  1.2654  0.4232 -1.7019
  308TMC3    C1 4683   3.434   0.359   0.913  1.4278  0.1237  0.6730
  308TMC3    C2 4684   3.382   0.476   0.947 -0.2296 -0.5300 -0.2295
  308TMC3    C3 4685   3.477   0.561   0.989  0.3870  0.4139  0.8238
  308TMC3    C4 4686   3.558   0.310   0.948  0.0952  0.3254  0.7872
  308TMC3    C5 4687   3.636   0.394   1.021 -0.9483  0.4444  0.8922
  308TMC3    C6 4688   3.603   0.522   1.035  0.4714  0.0925  0.0060
  308TMC3     C 4689   3.364   0.276   0.809 -0.2088  0.3454  0.4835
  308TMC3     O 4690   3.409   0.167   0.781 -0.3416 -0.0439  0.4328
  308TMC3     H 4691   3.279   0.510   0.945  0.1466  0.6923  1.2841
  308TMC3    H1 4692   3.596   0.214   0.914 -1.3822 -0.0586  0.2290
  308TMC3    H2 4693   3.673   0.592   1.080 -0.2439  1.0044 -0.2796
  308TMC3    C7 4694   3.777   0.362   1.014 -0.1056 -0.1303 -0.6821
  308TMC3    C8 4695   3.448   0.706   0.995  0.1419 -0.0664  0.6564
  308TMC3    O1 4696   3.847   0.454   0.969 -0.0601 -1.1271 -0.3174
  308TMC3    O2 4697   3.327   0.733   0.997  0.0886  0.8268  0.0494
  309MPD2     C 4698   3.115   0.664  17.176  0.4194 -0.0792  0.5327
  309MPD2    C1 4699   3.055   0.653  17.053 -0.1862  0.3264 -0.2385
  309MPD2    C2 4700   2.918   0.688  17.041  0.0323  0.8526 -0.0198
  309MPD2    C3 4701   2.846   0.742  17.145  0.2053  0.2687 -0.2474
  309MPD2    C4 4702   2.912   0.757  17.267 -0.0271  0.2721  0.9528
  309MPD2    C5 4703   3.045   0.711  17.285  0.8228 -0.6251  0.0735
  309MPD2     H 4704   2.875   0.680  16.942  0.6541 -2.3980 -0.0137
  309MPD2    H1 4705   2.862   0.796  17.355  1.4332 -2.0081  2.8110
  309MPD2    H2 4706   3.222   0.646  17.188  0.1718 -0.7910  1.6557
  309MPD2    H3 4707   3.103   0.734  17.373 -1.1047  2.3722  0.5705
  309MPD2     N 4708   2.714   0.786  17.134 -0.0440 -0.2151 -0.2552
  309MPD2    H5 4709   2.678   0.823  17.222  2.3033 -2.2028  1.5632
  309MPD2    N1 4710   3.125   0.600  16.937 -0.2535  0.3218  0.7848
  309MPD2    H7 4711   3.081   0.613  16.847 -0.2478  1.4353  0.9409
  310TMC3    C1 4712   3.315   0.540  16.812  0.3311  0.0048 -0.5220
  310TMC3    C2 4713   3.298   0.656  16.731  0.4628 -0.6685  0.0900
  310TMC3    C3 4714   3.375   0.676  16.627  0.5904 -0.7150  0.2440
  310TMC3    C4 4715   3.419   0.454  16.789  0.0581 -0.5286  0.2403
  310TMC3    C5 4716   3.495   0.478  16.677 -0.9532 -1.2855 -0.3501
  310TMC3    C6 4717   3.473   0.585  16.594  0.1744  0.4883 -0.5036
  310TMC3     C 4718   3.255   0.551  16.940  0.0110  0.1312  0.6303
  310TMC3     O 4719   3.325   0.518  17.035  0.3856  0.5493 -0.3820
  310TMC3     H 4720   3.242   0.743  16.763  1.0893 -0.2088 -0.0685
  310TMC3    H1 4721   3.427   0.359  16.840  0.4717 -0.7998 -0.3326
  310TMC3    H2 4722   3.524   0.597  16.499  2.7788 -1.5673  0.6326
  310TMC3    C7 4723   3.595   0.378  16.640  0.4744  0.9722  0.3780
  310TMC3    C8 4724   3.308   0.739  16.516 -0.9081 -0.2155  0.5544
  310TMC3    O1 4725   3.621   0.362  16.524 -0.4099  0.2608 -0.2423
  310TMC3    O2 4726   3.187   0.733  16.527 -0.0808 -0.2003 -0.2462
  311MPD2     C 4727   0.429   2.456  12.491  0.1887  0.0097  0.6109
  311MPD2    C1 4728   0.475   2.454  12.622  0.1378  0.2311 -0.3179
  311MPD2    C2 4729   0.421   2.364  12.712 -0.9204  0.1254 -0.6352
  311MPD2    C3 4730   0.311   2.290  12.685 -0.6743  0.3290  0.6579
  311MPD2    C4 4731   0.273   2.290  12.552  0.0481  0.0309 -1.1367
  311MPD2    C5 4732   0.326   2.371  12.464  0.1636  0.1597  0.1202
  311MPD2     H 4733   0.448   2.361  12.817 -1.1992 -1.1409 -0.5916
  311MPD2    H1 4734   0.186   2.234  12.520 -0.8270 -0.0714  1.4321
  311MPD2    H2 4735   0.477   2.514  12.413 -1.0103  1.0628  0.6584
  311MPD2    H3 4736   0.276   2.364  12.367  1.8926  0.8920 -0.8111
  311MPD2     N 4737   0.259   2.205  12.785 -0.0226  0.2611 -0.1139
  311MPD2    H5 4738   0.280   2.231  12.881  2.0637 -0.7266 -0.3043
  311MPD2    N1 4739   0.585   2.536  12.665  0.4808  0.2667  0.9436
  311MPD2    H7 4740   0.624   2.520  12.757  1.1676  2.1760  0.9883
  312TMC3    C1 4741   0.084   2.077  12.897  0.0571 -0.4281  0.2930
  312TMC3    C2 4742   4.692   2.025  12.884 -0.3426 -0.2142  0.7680
  312TMC3    C3 4743   4.619   2.001  12.993  0.1444 -0.2273  0.1014
  312TMC3    C4 4744   0.144   2.099  13.018 -0.1291 -0.0598 -0.0754
  312TMC3    C5 4745   0.062   2.083  13.128 -0.3912  0.6203  0.7623
  312TMC3    C6 4746   4.665   2.032  13.115  0.2459 -0.2288 -0.2678
  312TMC3     C 4747   0.148   2.129  12.771  0.7024 -0.1273  0.2768
  312TMC3     O 4748   0.094   2.081  12.672 -0.0588  0.5967  0.5898
  312TMC3     H 4749   4.648   1.993  12.790  1.4875 -2.0591  0.5288
  312TMC3    H1 4750   0.239   2.148  13.032 -0.9869  1.6754 -0.2803
  312TMC3    H2 4751   4.612   2.015  13.208  1.1779 -1.2330  0.0870
  312TMC3    C7 4752   0.125   2.092  13.256 -0.3505 -0.4247  0.5191
  312TMC3    C8 4753   4.488   1.955  12.971 -0.1082  0.2058  0.1205
  312TMC3    O1 4754   0.052   2.142  13.344 -0.3450 -0.0523  0.1026
  312TMC3    O2 4755   4.463   1.895  12.868 -0.1589  0.8905  0.3726
  313MPD2     C 4756   3.997   1.813  11.680 -0.0946  0.3862  0.0961
  313MPD2    C1 4757   4.125   1.825  11.623  0.5723  0.6797  0.2769
  313MPD2    C2 4758   4.206   1.721  11.611 -0.0766  0.2551  0.6396
  313MPD2    C3 4759   4.180   1.595  11.660 -0.5682  0.2026  0.1327
  313MPD2    C4 4760   4.055   1.573  11.707  0.5289  0.1519 -0.0543
  313MPD2    C5 4761   3.965   1.684  11.716 -0.1436  0.7669 -0.3153
  313MPD2     H 4762   4.300   1.734  11.559 -1.0996  0.2758 -1.1932
  313MPD2    H1 4763   4.019   1.479  11.746 -0.8388  0.4442 -0.6285
  313MPD2    H2 4764   3.933   1.898  11.699  0.6413  0.8106  0.7224
  313MPD2    H3 4765   3.866   1.674  11.760  0.4083  1.2757  1.0317
  313MPD2     N 4766   4.276   1.497  11.640  0.3060  0.2774 -1.0480
  313MPD2    H5 4767   4.362   1.525  11.593  0.0704 -0.8626 -2.1713
  313MPD2    N1 4768   4.163   1.956  11.574 -0.3034  0.2763 -0.5298
  313MPD2    H7 4769   4.092   2.027  11.560 -0.7599 -0.4080 -1.7145
  314TMC3    C1 4770   4.300   2.138  11.533 -0.5144  0.1795  0.3274
  314TMC3    C2 4771   4.425   2.192  11.554 -0.1680  0.4562  0.1727
  314TMC3    C3 4772   4.455   2.290  11.460  0.2073  0.3580  0.1991
  314TMC3    C4 4773   4.208   2.179  11.433 -0.1253 -0.1769  0.2705
  314TMC3    C5 4774   4.250   2.269  11.343 -0.3261  0.6028 -0.0815
  314TMC3    C6 4775   4.373   2.321  11.349  0.0568  0.4221 -0.1329
  314TMC3     C 4776   4.294   1.995  11.571  0.4068  0.7910  0.1613
  314TMC3     O 4777   4.394   1.934  11.602 -0.4717 -0.5142 -0.2063
  314TMC3     H 4778   4.484   2.153  11.636 -0.5109 -1.6292 -0.5854
  314TMC3    H1 4779   4.128   2.113  11.399 -3.0146  3.3454  0.2291
  314TMC3    H2 4780   4.409   2.383  11.269 -1.1044  1.0493 -0.1741
  314TMC3    C7 4781   4.191   2.257  11.212 -0.0489 -0.1169  0.7590
  314TMC3    C8 4782   4.596   2.325  11.446  0.1786  0.3545 -0.0056
  314TMC3    O1 4783   4.071   2.250  11.207 -0.1254 -0.0476 -0.2741
  314TMC3    O2 4784   4.624   2.428  11.389 -0.4462  0.8998 -0.0209
  315MPD2     C 4785   4.184   0.277  17.107 -0.1205  1.2334 -0.3035
  315MPD2    C1 4786   4.229   0.339  17.216  0.4606 -0.4617  0.2833
  315MPD2    C2 4787   4.281   0.464  17.209  0.3325 -0.0043 -0.4375
  315MPD2    C3 4788   4.286   0.529  17.088  0.6094  0.2759  0.0843
  315MPD2    C4 4789   4.252   0.464  16.975  0.2602 -0.0694 -0.6012
  315MPD2    C5 4790   4.198   0.340  16.984  0.1855  0.6920  0.8724
  315MPD2     H 4791   4.329   0.522  17.287 -0.6927 -1.1720  1.0522
  315MPD2    H1 4792   4.253   0.510  16.877  0.7361 -0.6731 -0.8825
  315MPD2    H2 4793   4.123   0.188  17.104  3.1762 -1.0725  1.5487
  315MPD2    H3 4794   4.173   0.287  16.893  0.0093 -1.4249  2.1383
  315MPD2     N 4795   4.340   0.661  17.085  0.5058 -0.2571 -0.5752
  315MPD2    H5 4796   4.385   0.696  17.169  0.1598  2.0633 -1.3704
  315MPD2    N1 4797   4.237   0.273  17.342  0.4524 -0.2216 -0.1377
  315MPD2    H7 4798   4.293   0.312  17.417  0.2642  0.5043 -0.3728
  316TMC3    C1 4799   4.369   0.877  17.003 -0.0117 -0.1032 -0.2530
  316TMC3    C2 4800   4.434   0.907  17.122 -0.1418 -0.2012 -0.1344
  316TMC3    C3 4801   4.428   1.034  17.177  0.7295  0.1837  0.5885
  316TMC3    C4 4802   4.313   0.974  16.933  0.1971 -0.0114  0.1821
  316TMC3    C5 4803   4.300   1.097  16.992  0.1172  0.5805 -0.7370
  316TMC3    C6 4804   4.363   1.134  17.108  0.1579  0.2238  0.9664
  316TMC3     C 4805   4.324   0.743  16.976  0.3347  0.1080  0.2769
  316TMC3     O 4806   4.265   0.723  16.872 -0.0735 -0.0280 -0.4311
  316TMC3     H 4807   4.498   0.828  17.159  0.2351 -0.5437 -1.5089
  316TMC3    H1 4808   4.258   0.946  16.844 -1.5410 -0.0789  1.2930
  316TMC3    H2 4809   4.349   1.227  17.161 -2.3141  0.3198  0.1199
  316TMC3    C7 4810   4.222   1.212  16.944  0.5501  0.0910 -0.3322
  316TMC3    C8 4811   4.450   1.065  17.318 -0.4554 -0.3100 -0.4302
  316TMC3    O1 4812   4.191   1.297  17.024  0.2299 -0.0142  0.0683
  316TMC3    O2 4813   4.425   1.178  17.354  0.3707  0.2161 -0.0447
  317MPD2     C 4814   1.910   4.337  12.918 -0.2672 -0.3097  0.9680
  317MPD2    C1 4815   1.951   4.208  12.882 -1.0087  0.2952 -0.8278
  317MPD2    C2 4816   2.015   4.123  12.959 -0.7231  0.3147  0.3518
  317MPD2    C3 4817   2.028   4.153  13.095 -0.0935 -0.3597 -0.7894
  317MPD2    C4 4818   1.987   4.272  13.148 -0.1323 -0.4966 -0.6015
  317MPD2    C5 4819   1.922   4.356  13.057 -0.0113  0.8553  1.0390
  317MPD2     H 4820   2.047   4.025  12.924  1.8177 -0.4188  4.8256
  317MPD2    H1 4821   2.003   4.306  13.250 -3.0996  2.3654 -1.0801
  317MPD2    H2 4822   1.841   4.396  12.859 -1.4584 -2.7647 -0.0982
  317MPD2    H3 4823   1.895   4.454  13.094 -4.0021 -0.1458  0.6847
  317MPD2     N 4824   2.086   4.056  13.177  0.0712  0.0300  0.1243
  317MPD2    H5 4825   2.103   3.966  13.134 -0.7399 -0.0651 -0.0094
  317MPD2    N1 4826   1.922   4.156  12.753 -0.1468 -0.4361  0.2836
  317MPD2    H7 4827   1.943   4.058  12.740 -0.7318 -0.3913 -0.9668
  318TMC3    C1 4828   2.160   3.929  13.361 -0.3148 -0.3205 -0.4414
  318TMC3    C2 4829   2.088   3.815  13.313 -0.0860  0.2109  0.2062
  318TMC3    C3 4830   2.101   3.698  13.392  0.1737 -0.0921 -0.2743
  318TMC3    C4 4831   2.219   3.928  13.485  0.2471 -0.4670  0.1466
  318TMC3    C5 4832   2.228   3.808  13.552  0.0404 -1.1020 -0.7187
  318TMC3    C6 4833   2.172   3.692  13.510  0.4100 -0.7421  0.2645
  318TMC3     C 4834   2.114   4.059  13.311  0.2560  0.0372 -0.2668
  318TMC3     O 4835   2.106   4.148  13.395 -0.4510  0.2265  0.0723
  318TMC3     H 4836   2.006   3.829  13.245 -1.5185 -0.7310  1.7452
  318TMC3    H1 4837   2.266   4.014  13.532 -2.1835  0.9811 -0.0561
  318TMC3    H2 4838   2.153   3.611  13.579  0.6263 -0.8235  0.2276
  318TMC3    C7 4839   2.334   3.803  13.646  0.6868  1.2088 -0.1804
  318TMC3    C8 4840   2.020   3.579  13.347 -0.2598 -0.4188 -0.6198
  318TMC3    O1 4841   2.363   3.902  13.711 -0.4683 -0.4693  0.4477
  318TMC3    O2 4842   1.987   3.494  13.431  0.2888  0.3230  0.0021
  319MPD2     C 4843   2.919   0.095  16.606  0.2480  0.3779 -0.3015
  319MPD2    C1 4844   2.872   0.047  16.724 -0.4260  0.0854  1.1951
  319MPD2    C2 4845   2.742   0.002  16.716 -1.0577  0.2819  0.8573
  319MPD2    C3 4846   2.665   4.729  16.604  0.0126 -0.2035 -0.3436
  319MPD2    C4 4847   2.723   0.045  16.489  0.0406  0.1834 -0.2915
  319MPD2    C5 4848   2.849   0.093  16.495  0.1101  0.2690 -0.3044
  319MPD2     H 4849   2.707   4.688  16.807  1.1971 -1.3445  0.8416
  319MPD2    H1 4850   2.663   0.070  16.402 -1.2796  2.7200  1.3344
  319MPD2    H2 4851   3.023   0.127  16.607 -0.1305  1.6212 -0.5661
  319MPD2    H3 4852   2.878   0.157  16.412  0.1093  0.4527 -0.1627
  319MPD2     N 4853   2.529   4.689  16.594 -0.6994  0.1349  0.2846
  319MPD2    H5 4854   2.488   4.685  16.501  2.1498  1.6331 -1.0268
  319MPD2    N1 4855   2.946   0.026  16.844  0.4594 -0.4219 -0.5899
  319MPD2    H7 4856   2.903   4.704  16.916 -1.2738  1.4440 -0.1757
  320TMC3    C1 4857   2.315   4.631  16.647  0.0826 -0.2083  0.0542
  320TMC3    C2 4858   2.256   0.001  16.585  0.0898  0.5297 -0.5556
  320TMC3    C3 4859   2.149   4.702  16.506 -0.2486  0.7185 -0.1201
  320TMC3    C4 4860   2.270   4.503  16.637  1.1012 -0.9065  0.1017
  320TMC3    C5 4861   2.164   4.481  16.550  0.4996 -0.1118 -0.2161
  320TMC3    C6 4862   2.107   4.576  16.479  0.0413  0.4111  0.1341
  320TMC3     C 4863   2.449   4.654  16.698 -0.3822 -0.1549 -0.3296
  320TMC3     O 4864   2.473   4.632  16.817 -0.0851  0.5843  0.6545
  320TMC3     H 4865   2.290   0.103  16.595  0.8805  0.2648 -0.5433
  320TMC3    H1 4866   2.329   4.422  16.679  0.3081 -1.6126 -0.1381
  320TMC3    H2 4867   2.011   4.561  16.432  0.2231 -1.8145  0.4683
  320TMC3    C7 4868   2.139   4.347  16.501 -0.2340 -0.5840 -0.2983
  320TMC3    C8 4869   2.120   0.069  16.410  0.3456 -0.3683  0.1014
  320TMC3    O1 4870   2.070   4.341  16.399  0.1641  0.4252 -0.1040
  320TMC3    O2 4871   2.147   0.184  16.438 -0.0003 -0.5751  0.1800
  321TMC3    C1 4872   3.162   0.028  16.970  0.6778  0.6072  1.0191
  321TMC3    C2 4873   3.136   4.638  17.008 -0.3856 -0.2268  0.5246
  321TMC3    C3 4874   3.247   4.572  17.046  0.4256 -0.5113  0.6734
  321TMC3    C4 4875   3.273   0.106  16.986 -0.0714  0.5716  0.8645
  321TMC3    C5 4876   3.384   0.038  17.017  0.1402  0.2173 -0.6690
  321TMC3    C6 4877   3.372   4.640  17.046 -0.6188 -0.6725 -0.5225
  321TMC3     C 4878   3.074   0.083  16.864 -0.4419 -0.1278 -0.1013
  321TMC3     O 4879   3.122   0.184  16.814  0.5514 -0.3791 -0.0413
  321TMC3     H 4880   3.037   4.594  17.000 -0.9348  0.8703  1.4149
  321TMC3    H1 4881   3.291   0.205  16.944 -0.3157  0.3579  0.2585
  321TMC3    H2 4882   3.460   4.581  17.069  0.5904  1.8748  1.4063
  321TMC3    C7 4883   3.451   0.107  17.121 -0.3163  0.1799  0.1754
  321TMC3    C8 4884   3.238   4.498  17.167  0.3998  0.3577  0.3029
  321TMC3    O1 4885   3.484   0.225  17.111  0.0232 -0.1759  0.2585
  321TMC3    O2 4886   3.325   4.519  17.245  0.1541  0.1492  0.2312
  322MPD2     C 4887   2.002   1.830  13.553  0.1791  0.0175  0.2759
  322MPD2    C1 4888   1.970   1.728  13.638 -0.5546 -0.7378 -0.4922
  322MPD2    C2 4889   1.959   1.605  13.587 -0.2149  0.0154 -0.0149
  322MPD2    C3 4890   1.978   1.577  13.453  0.4326 -0.1743  0.0038
  322MPD2    C4 4891   2.021   1.680  13.369  0.0104 -0.4278  0.1767
  322MPD2    C5 4892   2.027   1.807  13.421  0.5133 -0.1483 -0.1687
  322MPD2     H 4893   1.919   1.522  13.645 -3.6339  0.3752 -1.8488
  322MPD2    H1 4894   2.049   1.670  13.265 -0.8995 -3.2860  0.2209
  322MPD2    H2 4895   2.028   1.927  13.592  1.1079 -0.3016  0.4776
  322MPD2    H3 4896   2.065   1.886  13.357  0.5907 -0.3728 -0.4015
  322MPD2     N 4897   1.964   1.442  13.411 -0.4591 -0.4474  0.1221
  322MPD2    H5 4898   1.956   1.382  13.493 -1.2833 -1.7148 -0.8821
  322MPD2    N1 4899   1.954   1.762  13.774  0.2515  0.9343 -0.2830
  322MPD2    H7 4900   1.966   1.860  13.800 -0.9524  1.4273 -1.5835
  323TMC3    C1 4901   1.921   1.739  14.006  0.3718  0.3278 -0.1878
  323TMC3    C2 4902   1.988   1.861  14.020 -0.3946 -0.0270 -0.1341
  323TMC3    C3 4903   1.993   1.918  14.144 -0.1815  0.2830  0.5319
  323TMC3    C4 4904   1.864   1.669  14.112  1.0466  0.3905  0.0273
  323TMC3    C5 4905   1.880   1.722  14.234 -0.5205 -0.7406  0.0040
  323TMC3    C6 4906   1.936   1.849  14.252  0.4829 -0.1968 -0.1104
  323TMC3     C 4907   1.937   1.674  13.879  0.7308  0.2923  0.1147
  323TMC3     O 4908   1.903   1.558  13.874  0.7906 -0.4033  0.3408
  323TMC3     H 4909   2.040   1.904  13.934 -2.0487 -1.7223 -1.9747
  323TMC3    H1 4910   1.808   1.578  14.093 -0.2959  0.8635  1.6587
  323TMC3    H2 4911   1.953   1.880  14.355 -0.5924 -1.3790  0.4264
  323TMC3    C7 4912   1.848   1.630  14.337 -0.2144  0.6451  0.6363
  323TMC3    C8 4913   2.070   2.042  14.176  0.8195 -0.3623  0.9756
  323TMC3    O1 4914   1.913   1.527  14.324 -0.0203  0.0049 -0.3482
  323TMC3    O2 4915   2.150   2.036  14.267 -0.1037 -0.3693 -0.3397
  324MPD2     C 4916   2.886   2.495  14.462  0.8186  0.1115  0.2561
  324MPD2    C1 4917   2.947   2.594  14.392 -0.3623 -0.8156  0.1242
  324MPD2    C2 4918   2.871   2.673  14.303 -0.7295 -0.8286 -0.5329
  324MPD2    C3 4919   2.733   2.649  14.287  0.1806  0.3924  0.1013
  324MPD2    C4 4920   2.677   2.570  14.379  0.1935 -0.0750  0.0953
  324MPD2    C5 4921   2.751   2.481  14.451 -1.1061 -0.0630  0.1986
  324MPD2     H 4922   2.925   2.749  14.247 -0.7320 -0.9947 -0.7613
  324MPD2    H1 4923   2.569   2.560  14.372  0.3547 -0.2597 -2.3192
  324MPD2    H2 4924   2.942   2.423  14.520  1.5839 -0.4677 -1.2005
  324MPD2    H3 4925   2.689   2.421  14.517  1.3492 -3.2707 -0.4229
  324MPD2     N 4926   2.651   2.719  14.193  0.2505 -0.1698 -0.5032
  324MPD2    H5 4927   2.552   2.696  14.196  0.1666  0.4957  2.0679
  324MPD2    N1 4928   3.086   2.627  14.405  0.1679  0.1023 -0.1672
  324MPD2    H7 4929   3.125   2.709  14.360 -0.5885  0.0570 -0.9015
  325TMC3    C1 4930   2.585   2.857  14.015 -0.0495 -0.5182  0.4064
  325TMC3    C2 4931   2.480   2.791  13.954 -0.0189  0.6198  0.3874
  325TMC3    C3 4932   2.366   2.856  13.922 -0.4384  0.1116 -0.1987
  325TMC3    C4 4933   2.567   2.990  14.046  0.3835 -0.1401  0.5601
  325TMC3    C5 4934   2.447   3.045  14.024  0.2520 -0.8126  0.0199
  325TMC3    C6 4935   2.348   2.987  13.957  0.4957  0.8009 -0.6817
  325TMC3     C 4936   2.697   2.793  14.091  0.6301 -0.5640  0.0043
  325TMC3     O 4937   2.806   2.850  14.092 -0.5607  0.1076  0.0157
  325TMC3     H 4938   2.504   2.690  13.923 -0.8797  0.8510 -1.0338
  325TMC3    H1 4939   2.638   3.029  14.119  0.0081  2.7763 -0.6678
  325TMC3    H2 4940   2.258   3.040  13.929 -1.0020 -1.3019  0.1732
  325TMC3    C7 4941   2.414   3.167  14.093  0.1740  0.2416  1.0857
  325TMC3    C8 4942   2.263   2.778  13.850 -0.2197 -0.1129 -0.2896
  325TMC3    O1 4943   2.449   3.186  14.207 -0.3874  0.5357  0.4972
  325TMC3    O2 4944   2.302   2.682  13.788 -0.1775  1.0478 -0.8367
  326MPD2     C 4945   4.156   4.380  10.970  0.5957  0.9080 -0.1100
  326MPD2    C1 4946   4.178   4.275  10.885 -0.8634  0.0769  1.0778
  326MPD2    C2 4947   4.298   4.256  10.815 -0.4127 -0.6642 -0.1751
  326MPD2    C3 4948   4.394   4.355  10.831 -0.7105 -0.3204 -0.3185
  326MPD2    C4 4949   4.371   4.463  10.913 -0.0589 -0.0567 -0.3176
  326MPD2    C5 4950   4.254   4.473  10.983 -0.1121  0.3569  0.2678
  326MPD2     H 4951   4.311   4.165  10.758  3.6795  0.8474 -1.6881
  326MPD2    H1 4952   4.449   4.537  10.932 -0.2348  0.3702 -1.2687
  326MPD2    H2 4953   4.069   4.400  11.031  0.7691 -0.2210  0.5040
  326MPD2    H3 4954   4.245   4.568  11.034 -1.9072  0.8057 -0.8875
  326MPD2     N 4955   4.521   4.343  10.771  0.6322  0.0194 -0.4227
  326MPD2    H5 4956   4.592   4.403  10.813 -0.2956  0.3680  0.6329
  326MPD2    N1 4957   4.084   4.173  10.876  0.0124  0.2910 -0.1134
  326MPD2    H7 4958   4.114   4.094  10.819 -3.0868 -0.0289 -1.3227
  327TMC3    C1 4959   3.872   4.063  10.863  0.3499  0.6912  0.0133
  327TMC3    C2 4960   3.798   4.097  10.751  0.3952  0.0464  0.9967
  327TMC3    C3 4961   3.780   4.005  10.647  0.8903 -1.2606 -0.1325
  327TMC3    C4 4962   3.923   3.939  10.874  0.0603  0.6725 -0.2611
  327TMC3    C5 4963   3.891   3.851  10.777  0.2891  0.5041 -0.0878
  327TMC3    C6 4964   3.833   3.876  10.657  0.0108  0.4895  0.4238
  327TMC3     C 4965   3.951   4.176  10.919  0.3219  0.3417  0.0063
  327TMC3     O 4966   3.891   4.249  10.994  0.2319  0.2033  0.3074
  327TMC3     H 4967   3.776   4.202  10.732  0.4342 -0.3965 -1.4739
  327TMC3    H1 4968   3.961   3.900  10.968  0.3863  3.4809  0.7540
  327TMC3    H2 4969   3.842   3.805  10.575 -0.2567  1.6191 -0.5940
  327TMC3    C7 4970   3.906   3.713  10.802 -0.1744  0.1970  0.3630
  327TMC3    C8 4971   3.790   4.072  10.518 -0.3972 -0.0953  0.2350
  327TMC3    O1 4972   3.813   3.639  10.773 -0.8193  0.0685  0.1156
  327TMC3    O2 4973   3.781   4.193  10.524 -0.2219  0.7226 -0.6944
  328MPD2     C 4974   1.744   3.139  17.057 -0.1283  0.1853  0.9129
  328MPD2    C1 4975   1.615   3.164  17.084  0.4154  0.2576 -0.1352
  328MPD2    C2 4976   1.578   3.296  17.106 -0.9660 -0.5162  1.0529
  328MPD2    C3 4977   1.667   3.399  17.125  0.5753 -0.4597 -0.1881
  328MPD2    C4 4978   1.797   3.367  17.110  0.5029  0.4389  0.2044
  328MPD2    C5 4979   1.833   3.245  17.059  0.0449  0.6772  0.1857
  328MPD2     H 4980   1.473   3.309  17.130 -1.4461 -1.6426 -0.4705
  328MPD2    H1 4981   1.881   3.435  17.117 -0.7608  2.0267 -0.0597
  328MPD2    H2 4982   1.790   3.043  17.039 -1.6744  0.0956 -2.6837
  328MPD2    H3 4983   1.937   3.217  17.045 -0.3972 -0.6219 -0.4328
  328MPD2     N 4984   1.628   3.538  17.154  0.5719  0.1486  0.5892
  328MPD2    H5 4985   1.701   3.608  17.164  0.0699  0.9029 -0.9639
  328MPD2    N1 4986   1.518   3.060  17.074 -0.4739 -0.2525  0.3837
  328MPD2    H7 4987   1.425   3.083  17.108 -1.3105 -1.8021 -0.8473
  329TMC3    C1 4988   1.416   2.860  16.996  0.1214 -0.5920 -0.0696
  329TMC3    C2 4989   1.307   2.928  17.035 -0.2085 -0.8698 -0.0260
  329TMC3    C3 4990   1.205   2.944  16.949  0.8773  0.6468  0.5557
  329TMC3    C4 4991   1.415   2.794  16.877 -0.1415 -0.8696 -0.2568
  329TMC3    C5 4992   1.312   2.814  16.787  0.0038 -0.5684  0.3432
  329TMC3    C6 4993   1.207   2.889  16.826 -0.1927  0.2731 -0.5633
  329TMC3     C 4994   1.534   2.944  17.009  0.8646 -0.5142  0.2730
  329TMC3     O 4995   1.631   2.909  16.945  0.8265  0.3402 -0.0746
  329TMC3     H 4996   1.298   2.964  17.137 -0.0910  0.9503 -0.6657
  329TMC3    H1 4997   1.509   2.750  16.846 -1.3345 -3.3185 -0.3803
  329TMC3    H2 4998   1.121   2.921  16.767  1.0607  2.8736 -0.9438
  329TMC3    C7 4999   1.323   2.749  16.660 -0.3385  0.5316  0.0672
  329TMC3    C8 5000   1.087   3.023  16.989 -0.0082 -0.9810  0.2120
  329TMC3    O1 5001   1.418   2.669  16.655  1.0000  0.2861  0.0730
  329TMC3    O2 5002   0.996   3.047  16.908 -0.4025 -0.1687  0.4729
  330TMC3    C1 5003   0.121   3.603   9.499 -0.3404 -0.1418  0.2951
  330TMC3    C2 5004   0.011   3.524   9.481  0.0285  0.1195 -0.4892
  330TMC3    C3 5005   0.034   3.392   9.496  0.1829 -0.6924 -0.0344
  330TMC3    C4 5006   0.241   3.554   9.549 -0.0968  0.0300 -0.8463
  330TMC3    C5 5007   0.251   3.420   9.580 -0.1294 -0.9671 -0.4463
  330TMC3    C6 5008   0.146   3.336   9.554  0.3128  0.0022 -0.1936
  330TMC3     C 5009   0.097   3.744   9.521 -0.4494 -0.0401  0.6740
  330TMC3     O 5010   0.176   3.820   9.566 -0.6178 -0.5029 -0.0706
  330TMC3     H 5011   4.644   3.556   9.458  0.2842  2.0889  1.1026
  330TMC3    H1 5012   0.320   3.628   9.560 -0.6620  0.7939 -1.9088
  330TMC3    H2 5013   0.170   3.231   9.567  0.0901 -0.0142  0.0974
  330TMC3    C7 5014   0.346   3.375   9.679 -0.5815 -0.2491  0.2759
  330TMC3    C8 5015   4.670   3.302   9.450 -0.3462  1.0487  0.7046
  330TMC3    O1 5016   0.318   3.268   9.737  0.1587 -0.0321  0.2317
  330TMC3    O2 5017   4.590   3.348   9.374 -0.3072  0.1931 -0.0533
  331MPD2     C 5018   2.611   2.421  13.228  0.1508 -0.1833 -0.1505
  331MPD2    C1 5019   2.517   2.401  13.125  0.5146 -1.2459 -0.1565
  331MPD2    C2 5020   2.508   2.271  13.073  0.2626  0.7243 -0.0798
  331MPD2    C3 5021   2.587   2.173  13.128 -0.2677  0.3940  0.9734
  331MPD2    C4 5022   2.677   2.198  13.225  0.2832 -0.9562 -0.4059
  331MPD2    C5 5023   2.693   2.323  13.273 -0.2740  0.0428 -0.0248
  331MPD2     H 5024   2.444   2.254  12.987  1.7360 -2.1133 -0.5995
  331MPD2    H1 5025   2.747   2.129  13.271  0.4845 -1.0115 -0.7962
  331MPD2    H2 5026   2.614   2.512  13.288  1.3335  1.7414 -3.0888
  331MPD2    H3 5027   2.776   2.349  13.337 -0.5649 -2.0136  1.1856
  331MPD2     N 5028   2.579   2.049  13.066  0.3586  0.2572 -0.1271
  331MPD2    H5 5029   2.517   2.043  12.986 -2.4483  0.6431  2.0243
  331MPD2    N1 5030   2.457   2.520  13.068 -0.8728  0.4172 -0.6677
  331MPD2    H7 5031   2.486   2.610  13.103 -0.2054 -0.6461  1.4844
  332TMC3    C1 5032   2.649   1.843  12.994 -1.0383 -0.0198  0.0149
  332TMC3    C2 5033   2.654   1.890  12.868 -0.2687 -0.4238 -0.1181
  332TMC3    C3 5034   2.722   1.811  12.774  0.1307  0.6865  0.2231
  332TMC3    C4 5035   2.698   1.716  13.029 -0.1588  0.0623 -0.5179
  332TMC3    C5 5036   2.759   1.639  12.929 -0.3345  0.2536  0.3651
  332TMC3    C6 5037   2.775   1.688  12.804 -0.3438  0.2513  0.1133
  332TMC3     C 5038   2.661   1.942  13.100  0.7211 -0.0395 -1.0467
  332TMC3     O 5039   2.695   1.906  13.212  0.9408  0.2397 -0.5552
  332TMC3     H 5040   2.633   1.992  12.839  0.2380 -0.0395  0.8618
  332TMC3    H1 5041   2.702   1.683  13.132 -1.3919 -3.2217 -1.5390
  332TMC3    H2 5042   2.801   1.623  12.722  1.0443 -1.1571  1.6799
  332TMC3    C7 5043   2.851   1.538  12.970  0.0899  0.8338  0.4029
  332TMC3    C8 5044   2.736   1.871  12.638  0.0846 -0.0314 -0.3786
  332TMC3    O1 5045   2.814   1.461  13.056 -0.4387 -0.1812  0.0959
  332TMC3    O2 5046   2.721   1.989  12.636  0.1289 -0.0926 -0.0207
  333MPD2     C 5047   2.779   2.506  11.028 -0.0713  0.6448  0.2316
  333MPD2    C1 5048   2.821   2.425  10.931  0.3287  0.5691 -1.3126
  333MPD2    C2 5049   2.759   2.306  10.910 -0.1916  0.2769  0.6723
  333MPD2    C3 5050   2.644   2.279  10.989 -0.1169  0.1481  0.2221
  333MPD2    C4 5051   2.602   2.367  11.081  0.3667 -0.1487 -0.2339
  333MPD2    C5 5052   2.671   2.481  11.109  0.6877 -0.3916 -0.7680
  333MPD2     H 5053   2.780   2.241  10.827  2.6456  0.3538  1.3353
  333MPD2    H1 5054   2.511   2.351  11.137 -1.1583  1.0154 -2.4049
  333MPD2    H2 5055   2.823   2.603  11.047  1.2850 -0.0053  0.4307
  333MPD2    H3 5056   2.632   2.550  11.181  0.5026 -1.9726  0.6438
  333MPD2     N 5057   2.585   2.151  10.964 -0.0185 -0.2426 -0.1504
  333MPD2    H5 5058   2.625   2.093  10.891  3.0231 -0.8460  1.9826
  333MPD2    N1 5059   2.926   2.469  10.850 -0.0441  0.1339 -0.4207
  333MPD2    H7 5060   2.959   2.565  10.865 -1.0911  0.0369  2.5384
  334TMC3    C1 5061   3.078   2.493  10.663  0.3935 -0.5705 -1.1935
  334TMC3    C2 5062   3.189   2.435  10.602 -0.1557 -0.2102  0.8112
  334TMC3    C3 5063   3.301   2.513  10.574 -0.2846 -0.8037 -0.4515
  334TMC3    C4 5064   3.076   2.626  10.688 -0.4351 -0.2788  0.1522
  334TMC3    C5 5065   3.190   2.692  10.652 -0.6063  0.0719  0.7845
  334TMC3    C6 5066   3.305   2.644  10.611  0.1664  0.9088 -0.1841
  334TMC3     C 5067   2.982   2.406  10.741 -0.3086  0.0142 -0.1825
  334TMC3     O 5068   2.968   2.287  10.714  0.6029  0.1026 -0.4630
  334TMC3     H 5069   3.180   2.329  10.579  3.2849 -0.0958 -0.9231
  334TMC3    H1 5070   2.990   2.670  10.737 -0.2485 -0.8767  1.0089
  334TMC3    H2 5071   3.379   2.717  10.579 -1.8631  1.8373 -2.7563
  334TMC3    C7 5072   3.191   2.831  10.678  0.0412 -0.2826  0.1102
  334TMC3    C8 5073   3.422   2.435  10.532  0.0921  0.3266  0.3534
  334TMC3    O1 5074   3.291   2.883  10.725  0.1560  1.0959  0.5169
  334TMC3    O2 5075   3.409   2.315  10.522 -0.1275 -0.4380 -0.5312
  335TMC3    C1 5076   2.512   3.534  17.443 -0.2519 -0.4594 -0.7374
  335TMC3    C2 5077   2.442   3.496  17.332 -0.3888  0.0112 -0.2372
  335TMC3    C3 5078   2.512   3.466  17.217  0.5539 -0.0339 -0.6262
  335TMC3    C4 5079   2.646   3.535  17.446  0.0158  0.0983  0.0089
  335TMC3    C5 5080   2.712   3.527  17.323 -0.4988  0.8666 -0.9847
  335TMC3    C6 5081   2.647   3.483  17.211 -0.5622  0.0336 -0.1442
  335TMC3     C 5082   2.450   3.502  17.568  0.0759 -0.0911 -0.2448
  335TMC3     O 5083   2.505   3.435  17.651 -0.4128  0.0049 -0.4339
  335TMC3     H 5084   2.335   3.483  17.319 -0.4442 -1.1859  1.4028
  335TMC3    H1 5085   2.696   3.558  17.539  0.2361 -1.1930  0.2017
  335TMC3    H2 5086   2.705   3.451  17.126  0.9727  2.6449 -0.0715
  335TMC3    C7 5087   2.858   3.530  17.321  0.0320  0.4915  0.1071
  335TMC3    C8 5088   2.454   3.380  17.111 -0.1699  1.2434 -1.1135
  335TMC3    O1 5089   2.914   3.492  17.216 -0.2819 -0.2772  0.2282
  335TMC3    O2 5090   2.520   3.388  17.010  0.2382  0.2003 -0.1579
  336MPD2     C 5091   2.462   1.113  15.964  0.2092  0.6460 -0.5466
  336MPD2    C1 5092   2.409   1.010  15.890  0.4525  0.2955  0.3387
  336MPD2    C2 5093   2.455   0.880  15.906  0.4366 -0.1177 -0.1215
  336MPD2    C3 5094   2.540   0.856  16.013  0.2366  0.5761 -0.0974
  336MPD2    C4 5095   2.582   0.958  16.091  0.5087 -0.0387  0.1223
  336MPD2    C5 5096   2.555   1.085  16.060  0.3121 -0.8284 -0.1374
  336MPD2     H 5097   2.411   0.800  15.848 -0.0367 -0.2355  0.4012
  336MPD2    H1 5098   2.639   0.934  16.180  2.1376  0.4068 -0.7921
  336MPD2    H2 5099   2.437   1.216  15.940 -0.4560  0.8244  0.9150
  336MPD2    H3 5100   2.599   1.162  16.122  0.3153  1.7593 -3.3171
  336MPD2     N 5101   2.568   0.723  16.058 -0.7881  0.3590  0.4149
  336MPD2    H5 5102   2.605   0.714  16.151 -1.7207 -1.3077  0.6232
  336MPD2    N1 5103   2.304   1.035  15.801 -0.0514  0.0607  0.8057
  336MPD2    H7 5104   2.284   0.968  15.727  1.3978  2.3285 -1.6519
  337TMC3    C1 5105   2.126   1.153  15.681  1.3727 -0.3712 -0.0970
  337TMC3    C2 5106   2.068   1.035  15.634 -0.9355  0.5568  0.2573
  337TMC3    C3 5107   1.934   1.044  15.598 -0.4354 -0.2353  0.3048
  337TMC3    C4 5108   2.059   1.270  15.679 -0.3280  0.0160 -0.0245
  337TMC3    C5 5109   1.929   1.279  15.635 -0.5354 -0.6918  0.1723
  337TMC3    C6 5110   1.863   1.168  15.592  0.9044 -0.0316 -0.3876
  337TMC3     C 5111   2.222   1.143  15.798  0.3735  0.5710 -0.0840
  337TMC3     O 5112   2.219   1.235  15.883  0.9191 -0.6777  0.8451
  337TMC3     H 5113   2.116   0.938  15.642  0.7330  1.2855 -0.8843
  337TMC3    H1 5114   2.098   1.363  15.717 -1.2618  1.1709 -1.9133
  337TMC3    H2 5115   1.764   1.183  15.551  0.9504 -1.0487 -0.8730
  337TMC3    C7 5116   1.866   1.408  15.599 -0.4063 -0.1275  0.0758
  337TMC3    C8 5117   1.864   0.924  15.557 -0.0319 -0.1434  0.2966
  337TMC3    O1 5118   1.744   1.407  15.589 -0.4646  0.0343  0.0253
  337TMC3    O2 5119   1.937   0.823  15.538 -0.4160  0.0815  0.1106
  338MPD2     C 5120   2.534   0.448   0.891  0.2788 -0.1768  0.0844
  338MPD2    C1 5121   2.497   0.560   0.824  0.2154 -0.0823 -0.3648
  338MPD2    C2 5122   2.450   0.668   0.891 -0.1726 -0.0745 -0.2959
  338MPD2    C3 5123   2.435   0.670   1.032  0.4951 -0.2713 -0.0688
  338MPD2    C4 5124   2.484   0.557   1.096 -0.2697 -0.6406 -0.1130
  338MPD2    C5 5125   2.533   0.450   1.029  0.2855  0.2035 -0.3029
  338MPD2     H 5126   2.411   0.754   0.838  2.2774  1.0537 -0.3042
  338MPD2    H1 5127   2.491   0.552   1.204 -0.6486  0.7136 -0.0303
  338MPD2    H2 5128   2.549   0.352   0.845  1.6116  0.5243 -0.9126
  338MPD2    H3 5129   2.565   0.362   1.084 -0.3163 -0.3595 -0.8530
  338MPD2     N 5130   2.377   0.786   1.097 -0.1432  0.0068 -1.1144
  338MPD2    H5 5131   2.367   0.868   1.038 -0.6892 -0.2507 -1.3773
  338MPD2    N1 5132   2.508   0.567   0.680 -0.2685 -0.0161 -0.1619
  338MPD2    H7 5133   2.533   0.480   0.634  1.3649 -0.2354  1.1317
  339TMC3    C1 5134   2.278   0.901   1.285  0.8983  0.4335 -0.1034
  339TMC3    C2 5135   2.218   0.889   1.409 -0.0103 -0.1246 -0.1178
  339TMC3    C3 5136   2.151   0.993   1.457 -0.3437 -0.1336 -0.0028
  339TMC3    C4 5137   2.283   1.013   1.213 -0.7904  0.6170 -0.2490
  339TMC3    C5 5138   2.217   1.118   1.263 -0.0553  1.1466 -0.2660
  339TMC3    C6 5139   2.146   1.110   1.377 -0.4810  0.1633  0.3973
  339TMC3     C 5140   2.351   0.790   1.231 -0.4321  0.4281  0.0416
  339TMC3     O 5141   2.395   0.718   1.323 -0.2799 -1.0290  0.2727
  339TMC3     H 5142   2.224   0.790   1.453  0.8840  0.0821  0.2241
  339TMC3    H1 5143   2.352   1.038   1.133 -0.3939  2.4523  0.6485
  339TMC3    H2 5144   2.078   1.192   1.397 -3.1662 -2.6675  2.8468
  339TMC3    C7 5145   2.180   1.235   1.175 -0.2787  1.1602  0.5382
  339TMC3    C8 5146   2.036   0.963   1.544 -0.5850  0.2658 -0.3834
  339TMC3    O1 5147   2.202   1.226   1.055  0.4239  0.6955  0.2050
  339TMC3    O2 5148   1.936   1.039   1.542  0.1543  0.7638  0.9933
  340MPD2     C 5149   2.883   4.088  10.009  0.2014 -0.5722  0.1070
  340MPD2    C1 5150   2.946   3.981   9.960  0.3856 -0.6090  0.2217
  340MPD2    C2 5151   2.990   3.878  10.039  0.0345 -0.8998  0.0052
  340MPD2    C3 5152   2.978   3.893  10.179  0.2284  0.5497  0.0686
  340MPD2    C4 5153   2.902   3.999  10.225  0.0241 -1.1942 -0.4529
  340MPD2    C5 5154   2.845   4.083  10.137 -0.3489 -0.5083  0.3901
  340MPD2     H 5155   3.041   3.797   9.988  0.0611 -0.8139 -0.1031
  340MPD2    H1 5156   2.886   4.015  10.331 -0.7687 -0.1853 -0.7274
  340MPD2    H2 5157   2.847   4.169   9.948 -0.1900 -1.4995 -0.8809
  340MPD2    H3 5158   2.776   4.157  10.176 -0.4427  0.2281 -1.1545
  340MPD2     N 5159   3.032   3.800  10.273  0.3620  0.7116 -0.7567
  340MPD2    H5 5160   3.023   3.812  10.373  1.0103 -2.5321 -0.2902
  340MPD2    N1 5161   2.958   3.981   9.822  0.0032 -0.4524  0.3231
  340MPD2    H7 5162   2.907   4.054   9.773 -0.4657 -2.5822 -2.3992
  341TMC3    C1 5163   3.002   3.928   9.596  0.5479 -0.2421  0.3162
  341TMC3    C2 5164   2.875   3.934   9.545 -0.0135  0.5087 -0.3514
  341TMC3    C3 5165   2.854   3.913   9.412  0.2948  0.3500 -0.5846
  341TMC3    C4 5166   3.106   3.896   9.511 -0.6819 -0.1893  0.4669
  341TMC3    C5 5167   3.082   3.882   9.375 -0.2350 -0.1800 -0.5047
  341TMC3    C6 5168   2.957   3.893   9.327  0.3596  1.0874  0.1401
  341TMC3     C 5169   3.020   3.890   9.734 -0.1217 -1.0314 -0.8375
  341TMC3     O 5170   3.094   3.797   9.765 -0.0317 -0.0581 -0.0735
  341TMC3     H 5171   2.791   3.943   9.613 -1.1758  1.3264 -1.8749
  341TMC3    H1 5172   3.202   3.874   9.556  0.1788 -2.3838 -2.4540
  341TMC3    H2 5173   2.951   3.898   9.219 -2.7252  0.2224  0.2835
  341TMC3    C7 5174   3.196   3.887   9.284 -0.6752  0.3117  0.3249
  341TMC3    C8 5175   2.719   3.870   9.379  0.6873  0.0008  0.0123
  341TMC3    O1 5176   3.176   3.931   9.171  0.7635  0.4698 -0.2845
  341TMC3    O2 5177   2.633   3.909   9.456  0.0969 -0.2932 -0.1854
  342MPD2     C 5178   0.466   1.569  17.282  0.3234  0.3580  0.0459
  342MPD2    C1 5179   0.601   1.596  17.254  0.2908 -0.1778 -0.0326
  342MPD2    C2 5180   0.646   1.727  17.266 -0.4262  0.0534  0.3777
  342MPD2    C3 5181   0.556   1.836  17.279 -0.4257 -0.7359  0.3862
  342MPD2    C4 5182   0.425   1.804  17.302 -0.4753 -0.2567 -1.0093
  342MPD2    C5 5183   0.385   1.673  17.295 -0.6370  0.4270  0.2003
  342MPD2     H 5184   0.752   1.744  17.252 -0.2689 -0.3355  1.0816
  342MPD2    H1 5185   0.360   1.888  17.322  1.1200  0.3997  1.4128
  342MPD2    H2 5186   0.417   1.473  17.275 -0.0868  0.5213  0.6590
  342MPD2    H3 5187   0.281   1.660  17.325 -0.0166 -1.7602  1.3938
  342MPD2     N 5188   0.594   1.974  17.275  0.2717 -0.2625  0.4783
  342MPD2    H5 5189   0.515   2.037  17.291  0.3867  0.2350 -0.9275
  342MPD2    N1 5190   0.699   1.494  17.232  0.8898  0.4446  0.1388
  342MPD2    H7 5191   0.798   1.512  17.221  0.9551 -1.2996 -2.1497
  343TMC3    C1 5192   0.791   1.271  17.246  0.9372 -0.3736  0.4551
  343TMC3    C2 5193   0.916   1.304  17.198  0.1580  0.4479  0.5594
  343TMC3    C3 5194   1.001   1.194  17.177 -0.2938  0.0109 -0.5648
  343TMC3    C4 5195   0.756   1.143  17.291 -0.3697  0.1859  0.5001
  343TMC3    C5 5196   0.849   1.043  17.282  0.7814 -0.2089  0.4768
  343TMC3    C6 5197   0.965   1.071  17.215  0.3676  0.1136  0.4103
  343TMC3     C 5198   0.672   1.363  17.253  0.5138 -0.1113 -0.4663
  343TMC3     O 5199   0.563   1.308  17.256  0.1941 -0.1345  0.5747
  343TMC3     H 5200   0.933   1.405  17.164 -1.1068  0.2165 -0.7842
  343TMC3    H1 5201   0.660   1.116  17.333 -1.1814 -0.3812 -1.7019
  343TMC3    H2 5202   1.036   0.990  17.202  0.1871 -0.0015  0.1372
  343TMC3    C7 5203   0.816   0.909  17.292 -0.1786  0.6235 -0.5356
  343TMC3    C8 5204   1.136   1.230  17.156  0.3331 -0.1985  0.5348
  343TMC3    O1 5205   0.852   0.837  17.197  0.2602  0.4490  0.0166
  343TMC3    O2 5206   1.165   1.348  17.180 -0.1042 -0.2968 -0.2094
  344MPD2     C 5207   1.360   1.363  10.027  0.4113  1.2743  0.1363
  344MPD2    C1 5208   1.377   1.371  10.160 -0.5675  0.5630  0.1805
  344MPD2    C2 5209   1.435   1.486  10.211  0.3523 -0.3627  0.0904
  344MPD2    C3 5210   1.487   1.586  10.130  0.1786  0.1047 -0.8461
  344MPD2    C4 5211   1.462   1.582   9.993 -0.8905  0.2600 -0.5227
  344MPD2    C5 5212   1.391   1.473   9.951 -0.6761  0.1098  0.6741
  344MPD2     H 5213   1.440   1.486  10.320 -3.6553  2.3436  0.2915
  344MPD2    H1 5214   1.486   1.658   9.920  1.3749 -1.0622 -1.1445
  344MPD2    H2 5215   1.304   1.285   9.976  0.1055  0.2456  2.0525
  344MPD2    H3 5216   1.366   1.464   9.846  0.9700 -0.8350  0.3593
  344MPD2     N 5217   1.556   1.697  10.183  0.4860 -0.7958  0.5061
  344MPD2    H5 5218   1.578   1.774  10.120 -0.1228 -0.7207  0.3816
  344MPD2    N1 5219   1.331   1.262  10.235 -0.6276 -0.5049  0.5394
  344MPD2    H7 5220   1.292   1.185  10.181 -1.4298  0.4198 -0.1922
  345TMC3    C1 5221   1.620   1.860  10.342 -0.5828  0.3216 -0.0312
  345TMC3    C2 5222   1.676   1.896  10.467 -0.1312  0.0717 -0.3284
  345TMC3    C3 5223   1.733   2.015  10.472 -0.3920 -1.0181  0.1935
  345TMC3    C4 5224   1.612   1.952  10.243 -0.5723  0.0974  0.0889
  345TMC3    C5 5225   1.672   2.074  10.252 -0.2712  0.0391  0.6807
  345TMC3    C6 5226   1.739   2.106  10.371  0.4310 -0.3822  0.3249
  345TMC3     C 5227   1.580   1.726  10.317 -0.0113  0.2144  0.1068
  345TMC3     O 5228   1.579   1.643  10.408  0.1161 -0.1304 -0.1141
  345TMC3     H 5229   1.663   1.830  10.553  1.4239 -1.0857 -0.9696
  345TMC3    H1 5230   1.549   1.935  10.155 -2.3452  0.2064  1.3339
  345TMC3    H2 5231   1.782   2.205  10.383 -2.3271  0.6982  1.2215
  345TMC3    C7 5232   1.631   2.193  10.174 -0.2713  0.3063 -0.1232
  345TMC3    C8 5233   1.777   2.060  10.604 -1.1288 -0.1270  0.8658
  345TMC3    O1 5234   1.623   2.294  10.245 -0.1412  0.6128 -0.0520
  345TMC3    O2 5235   1.732   2.003  10.705 -0.3123 -0.2595  0.1138
  346MPD2     C 5236   1.545   3.286  14.361 -0.8333 -0.2192  1.0831
  346MPD2    C1 5237   1.623   3.368  14.290  0.0397  0.0621 -0.0903
  346MPD2    C2 5238   1.711   3.455  14.345  0.1537 -0.2888  0.7753
  346MPD2    C3 5239   1.728   3.460  14.484 -0.4799  0.0000  0.5010
  346MPD2    C4 5240   1.656   3.365  14.563  0.5017 -0.3945  0.3093
  346MPD2    C5 5241   1.557   3.286  14.498  0.1826  0.2452 -0.1268
  346MPD2     H 5242   1.765   3.521  14.279 -1.0533  0.7507  0.8264
  346MPD2    H1 5243   1.664   3.355  14.670  3.3467 -0.9665  0.0508
  346MPD2    H2 5244   1.472   3.223  14.313  0.8306 -0.1638 -1.4943
  346MPD2    H3 5245   1.490   3.227  14.560  1.4557 -1.7759 -0.6378
  346MPD2     N 5246   1.836   3.535  14.536  0.5715  0.3115 -0.3090
  346MPD2    H5 5247   1.892   3.578  14.462  0.4388  2.0025  0.5746
  346MPD2    N1 5248   1.621   3.364  14.146 -0.1990  0.6263 -0.1218
  346MPD2    H7 5249   1.667   3.439  14.097  0.2265 -0.3795 -1.2484
  347TMC3    C1 5250   1.997   3.611  14.685 -0.5610  0.2512 -0.4660
  347TMC3    C2 5251   2.071   3.623  14.566  0.2132 -0.2651  0.0144
  347TMC3    C3 5252   2.204   3.590  14.561 -0.2200 -0.1281  0.3162
  347TMC3    C4 5253   2.063   3.582  14.799 -0.1920  0.0839 -0.7533
  347TMC3    C5 5254   2.189   3.537  14.795 -0.2646  0.1602  0.3201
  347TMC3    C6 5255   2.262   3.539  14.677 -0.0740 -0.0521  0.0390
  347TMC3     C 5256   1.875   3.536  14.671  0.5999 -0.3789  0.3608
  347TMC3     O 5257   1.839   3.478  14.767  0.6329  0.0671 -0.0003
  347TMC3     H 5258   2.021   3.656  14.475  0.4347 -0.0281 -0.0195
  347TMC3    H1 5259   2.009   3.580  14.893  0.4296  2.5346 -0.3397
  347TMC3    H2 5260   2.369   3.525  14.661 -0.2314  0.6946 -1.7182
  347TMC3    C7 5261   2.248   3.484  14.916 -0.1692 -0.3167 -0.7095
  347TMC3    C8 5262   2.258   3.527  14.443 -0.4265  0.0015  0.3174
  347TMC3    O1 5263   2.185   3.526  15.016  0.8906  0.2756  0.1934
  347TMC3    O2 5264   2.343   3.442  14.455 -0.3877  0.5673 -0.4590
  348MPD2     C 5265   0.800   3.066  12.028  0.2241  0.2157 -0.2778
  348MPD2    C1 5266   0.732   3.016  11.919 -0.3122 -0.0939 -0.6694
  348MPD2    C2 5267   0.731   3.084  11.800 -0.7596  0.3998 -0.7933
  348MPD2    C3 5268   0.799   3.206  11.784  0.5364 -0.7161 -0.9453
  348MPD2    C4 5269   0.857   3.258  11.901  0.3036 -0.4182  0.9360
  348MPD2    C5 5270   0.862   3.187  12.016  1.2012 -0.3298  0.0660
  348MPD2     H 5271   0.680   3.030  11.721  1.3312 -0.8942 -1.2641
  348MPD2    H1 5272   0.900   3.357  11.892 -2.4732  0.6444 -0.7833
  348MPD2    H2 5273   0.800   3.029  12.130  2.8127 -0.3763 -0.5023
  348MPD2    H3 5274   0.907   3.229  12.105 -0.1825  3.7707 -1.1767
  348MPD2     N 5275   0.798   3.263  11.659  0.1436 -0.4075  0.4517
  348MPD2    H5 5276   0.734   3.216  11.596 -0.7754  1.2604  0.1492
  348MPD2    N1 5277   0.648   2.903  11.918 -0.0191 -0.9551 -0.1768
  348MPD2    H7 5278   0.604   2.883  11.829  3.2001  1.2320 -2.2354
  349TMC3    C1 5279   0.540   2.707  11.984 -0.3915 -0.8251 -0.1588
  349TMC3    C2 5280   0.566   2.590  12.056 -0.1379  0.0132 -0.2124
  349TMC3    C3 5281   0.514   2.479  12.002 -0.6557 -0.6611  0.5398
  349TMC3    C4 5282   0.476   2.704  11.860 -0.5017  0.1201 -0.5514
  349TMC3    C5 5283   0.421   2.589  11.814 -0.2374 -0.2544 -0.5438
  349TMC3    C6 5284   0.426   2.478  11.891  0.0721 -0.0112 -0.3434
  349TMC3     C 5285   0.626   2.814  12.022  0.4672 -0.1177 -0.2437
  349TMC3     O 5286   0.665   2.815  12.138 -0.0358  0.3145  0.3060
  349TMC3     H 5287   0.606   2.594  12.157 -1.9634 -0.8761  0.5279
  349TMC3    H1 5288   0.459   2.796  11.805  1.3216  1.0391  0.4388
  349TMC3    H2 5289   0.401   2.383  11.845  0.2117  0.3209 -1.0949
  349TMC3    C7 5290   0.328   2.591  11.710  0.6615  0.0608  0.5710
  349TMC3    C8 5291   0.530   2.354  12.068  0.1994  0.0373 -0.0442
  349TMC3    O1 5292   0.245   2.499  11.702  0.0242  0.0796 -0.3344
  349TMC3    O2 5293   0.636   2.345  12.130  0.0390  0.0395  0.0905
  350MPD2     C 5294   4.601   1.503  10.818 -0.1818 -0.3399 -0.0199
  350MPD2    C1 5295   4.547   1.376  10.829 -0.0795  0.1763  0.0318
  350MPD2    C2 5296   4.517   1.321  10.949  0.1116  0.5061 -0.0069
  350MPD2    C3 5297   4.559   1.395  11.063  0.3315  0.4044 -0.2987
  350MPD2    C4 5298   4.592   1.528  11.057  0.0167 -0.6777 -0.7107
  350MPD2    C5 5299   4.620   1.575  10.936  0.4305  0.3521 -0.5124
  350MPD2     H 5300   4.483   1.220  10.965 -0.3657  1.0801  2.6452
  350MPD2    H1 5301   4.587   1.591  11.145 -0.7113 -3.0796  0.9969
  350MPD2    H2 5302   4.633   1.550  10.726  1.8251 -0.7109  0.4864
  350MPD2    H3 5303   4.645   1.680  10.921 -1.6613  0.3794 -3.9427
  350MPD2     N 5304   4.532   1.335  11.182 -0.0280 -0.5489  0.0905
  350MPD2    H5 5305   4.483   1.247  11.177  0.7691 -1.0471  0.9794
  350MPD2    N1 5306   4.510   1.300  10.714  0.5312 -0.0238  0.3783
  350MPD2    H7 5307   4.459   1.218  10.743  0.3140  0.0420  0.1795
  351TMC3    C1 5308   4.535   1.193  10.519  0.3945 -0.4085 -0.0358
  351TMC3    C2 5309   4.636   1.117  10.469 -0.2439  0.8712  0.3829
  351TMC3    C3 5310   4.599   0.985  10.448 -0.0100  0.0899  0.5393
  351TMC3    C4 5311   4.404   1.161  10.514  0.5073 -0.3025 -0.1053
  351TMC3    C5 5312   4.373   1.030  10.474 -0.0274 -0.5485 -0.2467
  351TMC3    C6 5313   4.474   0.942  10.444  0.0074  0.3348  0.5421
  351TMC3     C 5314   4.565   1.316  10.592 -0.2362  0.3119  0.7359
  351TMC3     O 5315   4.652   1.394  10.558 -0.5070  0.0312  0.3584
  351TMC3     H 5316   0.004   1.136  10.499 -0.0514  1.1135 -0.4476
  351TMC3    H1 5317   4.332   1.242  10.525 -0.9364 -1.4661 -0.8949
  351TMC3    H2 5318   4.454   0.844  10.401 -1.0775  1.4050 -1.3953
  351TMC3    C7 5319   4.232   1.000  10.455 -0.1155  0.0398  0.0763
  351TMC3    C8 5320   4.698   0.881  10.431  0.3710 -0.5969  0.9792
  351TMC3    O1 5321   4.158   1.095  10.435  0.4515  0.2103 -0.3004
  351TMC3    O2 5322   4.670   0.762  10.457 -0.1766  0.4373  0.6490
  352MPD2     C 5323   1.900   2.239   1.343  0.4780  0.2219 -0.0479
  352MPD2    C1 5324   1.956   2.242   1.215  0.1670 -0.4278  0.5621
  352MPD2    C2 5325   2.062   2.158   1.179  0.6035 -0.4037 -0.2429
  352MPD2    C3 5326   2.119   2.076   1.276  0.0272 -0.4661 -0.2206
  352MPD2    C4 5327   2.056   2.062   1.396 -0.2464 -0.1632 -0.0154
  352MPD2    C5 5328   1.949   2.142   1.429  0.0444  0.7695 -0.0031
  352MPD2     H 5329   2.112   2.171   1.084  0.7616 -3.0698 -0.5175
  352MPD2    H1 5330   2.109   1.992   1.459 -0.4967 -0.0704  0.3027
  352MPD2    H2 5331   1.815   2.302   1.363  0.8202  1.1660 -1.5869
  352MPD2    H3 5332   1.903   2.126   1.526 -0.0426 -0.9735 -0.3361
  352MPD2     N 5333   2.240   2.001   1.258 -0.5205  0.5839  0.7877
  352MPD2    H5 5334   2.280   1.952   1.337  1.4640 -0.8707 -1.1322
  352MPD2    N1 5335   1.907   2.347   1.133  0.0094  0.3266  0.1053
  352MPD2    H7 5336   1.838   2.407   1.175 -0.5433 -0.5360  0.4381
  353TMC3    C1 5337   2.406   1.883   1.135  0.5723 -0.1644 -0.6284
  353TMC3    C2 5338   2.394   1.777   1.226  0.3338  0.1698 -0.3382
  353TMC3    C3 5339   2.467   1.663   1.209 -0.9471  0.1575 -0.1701
  353TMC3    C4 5340   2.491   1.870   1.026  0.2183  0.2175  0.6550
  353TMC3    C5 5341   2.558   1.754   1.009 -0.1262 -0.1088 -0.7370
  353TMC3    C6 5342   2.535   1.640   1.086 -0.7943 -0.1587  0.0363
  353TMC3     C 5343   2.303   1.990   1.137  0.0624 -0.0127 -0.0682
  353TMC3     O 5344   2.279   2.044   1.030  0.5440  0.9229  0.1501
  353TMC3     H 5345   2.323   1.786   1.308  0.0496 -1.8961 -0.3602
  353TMC3    H1 5346   2.489   1.955   0.960  1.9522  0.5397  1.0070
  353TMC3    H2 5347   2.597   1.552   1.067 -0.8746 -0.0034 -0.9503
  353TMC3    C7 5348   2.626   1.738   0.887 -0.1163  0.2008  1.0190
  353TMC3    C8 5349   2.464   1.560   1.312 -0.6274 -0.1248  0.0556
  353TMC3    O1 5350   2.622   1.624   0.845  0.4192  0.5591  0.3021
  353TMC3    O2 5351   2.452   1.595   1.427  0.0231  0.0314 -0.3120
  354TMC3    C1 5352   4.477   3.874  13.458  0.1907 -0.3392  0.5057
  354TMC3    C2 5353   4.393   3.969  13.406  0.5407  0.7422  0.0806
  354TMC3    C3 5354   4.385   3.976  13.275 -0.5433  0.3666 -0.7911
  354TMC3    C4 5355   4.535   3.776  13.382 -0.3165 -0.1710 -0.6368
  354TMC3    C5 5356   4.531   3.798  13.246 -0.5217  0.5265  0.9179
  354TMC3    C6 5357   4.451   3.893  13.188  0.2931  0.6448  0.9731
  354TMC3     C 5358   4.470   3.860  13.598 -0.6447 -0.0373  0.3985
  354TMC3     O 5359   4.405   3.941  13.663 -0.0400 -0.1072 -0.0266
  354TMC3     H 5360   4.318   4.020  13.465 -1.3072 -1.1499 -0.6640
  354TMC3    H1 5361   4.626   3.735  13.424 -0.9231 -0.9247 -0.0566
  354TMC3    H2 5362   4.470   3.915  13.084 -1.8934 -0.5295  0.3468
  354TMC3    C7 5363   4.653   3.754  13.186 -0.4120  0.1285  0.1747
  354TMC3    C8 5364   4.323   4.096  13.212  0.5323  0.5153  0.2709
  354TMC3    O1 5365   4.710   3.652  13.228 -0.3328  0.0094 -0.2611
  354TMC3    O2 5366   4.338   4.094  13.090  0.2694  0.1458  0.1049
  355MPD2     C 5367   4.585   0.154  11.412 -0.2049 -0.2613  0.7043
  355MPD2    C1 5368   4.698   0.073  11.392 -0.4300  0.5510  0.2193
  355MPD2    C2 5369   4.706   4.681  11.446  0.0890  0.0230 -1.0044
  355MPD2    C3 5370   4.604   4.637  11.525 -0.6011  0.3193 -0.7861
  355MPD2    C4 5371   4.497   4.716  11.545 -0.0371  0.4145  0.1801
  355MPD2    C5 5372   4.488   0.107  11.493 -0.8597  0.9459 -0.3146
  355MPD2     H 5373   0.067   4.628  11.443 -1.1367 -2.1825 -0.5272
  355MPD2    H1 5374   4.419   4.680  11.611  0.2692 -1.3519 -0.4248
  355MPD2    H2 5375   4.579   0.255  11.375 -0.5947 -1.0734 -1.4477
  355MPD2    H3 5376   4.404   0.167  11.528 -1.1233  1.1207 -1.2410
  355MPD2     N 5377   4.606   4.520  11.606  0.2839 -0.0874  0.2811
  355MPD2    H5 5378   4.533   4.514  11.675 -0.0697 -1.5580 -0.2242
  355MPD2    N1 5379   0.072   0.125  11.318  0.3771 -0.4112  0.0749
  355MPD2    H7 5380   0.139   0.056  11.288  1.7718  0.8225  0.3532
  356TMC3    C1 5381   0.085   4.524  11.693  0.2722 -0.3814  0.4748
  356TMC3    C2 5382   0.206   4.545  11.630  0.1971  0.7871  0.2513
  356TMC3    C3 5383   0.278   4.654  11.666  0.1559 -0.1144  0.1702
  356TMC3    C4 5384   0.038   4.608  11.789 -0.0665  1.0275  0.6054
  356TMC3    C5 5385   0.108   4.717  11.817 -0.4420 -0.1879 -0.4024
  356TMC3    C6 5386   0.236   0.004  11.765 -0.5296  0.4943  0.1550
  356TMC3     C 5387   4.719   4.446  11.620 -0.3919 -0.0374 -0.6659
  356TMC3     O 5388   0.039   4.379  11.534  0.1619  0.7979 -0.5378
  356TMC3     H 5389   0.242   4.480  11.551 -0.0080  0.5084  0.3884
  356TMC3    H1 5390   4.677   4.579  11.833 -0.3578  1.5168  0.2982
  356TMC3    H2 5391   0.297   0.085  11.803 -1.7167  0.3385  2.4279
  356TMC3    C7 5392   0.062   0.052  11.941  0.3281  0.6089  0.0215
  356TMC3    C8 5393   0.402   4.679  11.598  0.3923 -0.1971  0.2117
  356TMC3    O1 5394   0.007   4.718  12.026  0.2854 -0.7376 -0.3154
  356TMC3    O2 5395   0.454   4.575  11.568  0.0193 -0.5402 -0.0268
  357MPD2     C 5396   2.897   4.526   1.834  0.2014 -0.1739  0.2734
  357MPD2    C1 5397   2.989   4.434   1.786  0.0029 -0.1168  0.3489
  357MPD2    C2 5398   2.934   4.332   1.706  0.6395  0.2567 -0.0193
  357MPD2    C3 5399   2.792   4.321   1.679  0.4479  0.8864  0.1734
  357MPD2    C4 5400   2.710   4.420   1.734 -0.5627  0.4741  0.4491
  357MPD2    C5 5401   2.764   4.523   1.801  0.5729  0.6136  0.1213
  357MPD2     H 5402   2.997   4.256   1.662 -0.2204 -1.6245  2.0467
  357MPD2    H1 5403   2.604   4.421   1.712 -0.8113 -3.3450  1.4834
  357MPD2    H2 5404   2.922   4.612   1.895 -0.9446  0.2001  0.2114
  357MPD2    H3 5405   2.715   4.614   1.835 -2.4173 -1.4224  1.2554
  357MPD2     N 5406   2.735   4.230   1.586 -0.4167  0.2201  0.1027
  357MPD2    H5 5407   2.635   4.214   1.583  0.0246 -2.6252 -0.1100
  357MPD2    N1 5408   3.127   4.453   1.812 -0.1599 -0.0451  0.7481
  357MPD2    H7 5409   3.149   4.549   1.837 -1.4221  0.3084  0.4774
  358TMC3    C1 5410   3.355   4.402   1.833 -0.9149  0.3792 -0.1082
  358TMC3    C2 5411   3.464   4.345   1.756  0.3455 -0.3987  0.0068
  358TMC3    C3 5412   3.589   4.404   1.770 -0.7646 -0.4470 -0.3560
  358TMC3    C4 5413   3.375   4.506   1.918  0.4023 -0.7945 -0.1939
  358TMC3    C5 5414   3.502   4.558   1.918  0.2495  0.1161  0.3861
  358TMC3    C6 5415   3.612   4.506   1.849 -0.2313  0.7026  0.9317
  358TMC3     C 5416   3.225   4.360   1.796 -0.3124  0.6941 -0.0524
  358TMC3     O 5417   3.214   4.253   1.745 -0.5391 -0.4739 -0.2247
  358TMC3     H 5418   3.461   4.250   1.705 -2.4656 -0.3581  0.0743
  358TMC3    H1 5419   3.294   4.524   1.987  0.2937 -2.9357  0.2177
  358TMC3    H2 5420   3.700   4.568   1.852  0.6584 -0.2691 -4.5983
  358TMC3    C7 5421   3.532   4.673   1.998  0.2474 -0.1321 -0.0481
  358TMC3    C8 5422   3.687   4.376   1.667  0.1176 -0.3456 -0.3759
  358TMC3    O1 5423   3.646   4.690   2.041 -0.0366 -0.2045  0.4443
  358TMC3    O2 5424   3.637   4.327   1.565 -0.6182 -0.1261 -0.3776
  359MPD2     C 5425   4.725   3.484  12.715  0.8839 -0.4870 -0.1378
  359MPD2    C1 5426   4.731   3.415  12.599  0.0103 -0.3522 -0.2235
  359MPD2    C2 5427   4.679   3.286  12.603 -0.1992 -1.1417  0.0800
  359MPD2    C3 5428   4.625   3.224  12.712  0.2192  0.5193 -0.6631
  359MPD2    C4 5429   4.625   3.295  12.829  0.3056 -0.4468 -0.3175
  359MPD2    C5 5430   4.678   3.423  12.827  0.5474 -0.0199  0.1089
  359MPD2     H 5431   4.683   3.238  12.506  1.1910 -2.9531  1.0484
  359MPD2    H1 5432   4.584   3.258  12.922  0.1015  1.6458  0.4338
  359MPD2    H2 5433   0.041   3.579  12.726 -1.0320  0.3066  1.6108
  359MPD2    H3 5434   4.680   3.476  12.922 -2.2542  1.3138 -0.5933
  359MPD2     N 5435   4.565   3.093  12.717 -0.1144  0.4972  0.2771
  359MPD2    H5 5436   4.517   3.067  12.803  0.0586  2.5562  1.0076
  359MPD2    N1 5437   0.050   3.469  12.477 -0.2563  0.0691  0.3653
  359MPD2    H7 5438   0.049   3.405  12.398 -0.0522  2.5793 -1.6546
  360TMC3    C1 5439   0.179   3.591  12.333  0.0568  0.3698 -0.1733
  360TMC3    C2 5440   0.313   3.631  12.349  0.2453  0.3503 -0.2404
  360TMC3    C3 5441   0.388   3.626  12.226 -0.8452  0.2208  0.2879
  360TMC3    C4 5442   0.130   3.521  12.227  0.2176  0.1558 -0.1930
  360TMC3    C5 5443   0.210   3.518  12.118  0.1858  0.7160 -0.4572
  360TMC3    C6 5444   0.337   3.572  12.106  0.3639  0.3398  0.0261
  360TMC3     C 5445   0.104   3.591  12.453 -0.3805  0.5198 -0.6071
  360TMC3     O 5446   0.123   3.685  12.529 -0.1923 -0.4988 -0.3418
  360TMC3     H 5447   0.336   3.693  12.435 -0.8319 -0.7022  0.8011
  360TMC3    H1 5448   0.024   3.502  12.215 -0.1243  1.2687  1.0342
  360TMC3    H2 5449   0.395   3.586  12.015 -0.8117 -0.6043 -0.8654
  360TMC3    C7 5450   0.146   3.494  11.994 -0.2145 -0.3456 -0.0759
  360TMC3    C8 5451   0.506   3.703  12.219 -0.1596 -0.6449  0.4737
  360TMC3    O1 5452   0.179   3.567  11.903  0.5890  0.2242 -0.2417
  360TMC3    O2 5453   0.533   3.767  12.320  0.6480 -0.0621  0.0132
  361MPD2     C 5454   1.365   2.283  16.465 -0.2908  0.1154  1.1098
  361MPD2    C1 5455   1.364   2.304  16.599 -0.1365 -0.2819 -0.2971
  361MPD2    C2 5456   1.473   2.249  16.669 -0.0866 -0.2566  0.2411
  361MPD2    C3 5457   1.584   2.189  16.611  0.1524  0.0414 -0.2093
  361MPD2    C4 5458   1.586   2.164  16.471  0.4572 -0.2112  0.0325
  361MPD2    C5 5459   1.469   2.215  16.400 -0.0954  0.2758 -0.4193
  361MPD2     H 5460   1.457   2.249  16.776  0.9440  1.6290  0.4035
  361MPD2    H1 5461   1.671   2.116  16.424  0.2454  0.0804 -0.6406
  361MPD2    H2 5462   1.285   2.313  16.398  0.5376 -0.5060 -0.1699
  361MPD2    H3 5463   1.465   2.194  16.294  1.1953  0.8981 -0.5917
  361MPD2     N 5464   1.689   2.125  16.682 -0.1414  0.4131  0.1938
  361MPD2    H5 5465   1.764   2.085  16.627  0.0150  1.7506 -0.5928
  361MPD2    N1 5466   1.256   2.377  16.666 -0.3605 -0.1826 -0.7287
  361MPD2    H7 5467   1.264   2.405  16.763 -0.2284 -1.8912 -0.2418
  362TMC3    C1 5468   1.046   2.488  16.681  0.1649  0.3415 -0.3627
  362TMC3    C2 5469   1.065   2.505  16.822 -0.3335  0.3829  0.0448
  362TMC3    C3 5470   1.006   2.606  16.883  0.6579 -0.0375  0.6624
  362TMC3    C4 5471   0.962   2.569  16.608  0.3994 -0.3122  0.1643
  362TMC3    C5 5472   0.922   2.685  16.678 -0.1473  0.5657 -0.0919
  362TMC3    C6 5473   0.946   2.710  16.814  0.6518  0.3569  0.8171
  362TMC3     C 5474   1.129   2.395  16.607  0.1727 -0.2292  1.0059
  362TMC3     O 5475   1.079   2.359  16.500 -0.0421 -0.0310 -0.2623
  362TMC3     H 5476   1.122   2.438  16.885 -2.9443 -3.1449 -1.3489
  362TMC3    H1 5477   0.977   2.567  16.501  1.4322  2.6039  0.2542
  362TMC3    H2 5478   0.907   2.803  16.854  0.0948 -0.5294  2.3475
  362TMC3    C7 5479   0.891   2.808  16.596  0.4300 -0.2846  0.4487
  362TMC3    C8 5480   1.052   2.629  17.019 -0.1866  0.7734  0.0954
  362TMC3    O1 5481   0.976   2.892  16.614 -0.1137 -0.1765  0.8578
  362TMC3    O2 5482   1.161   2.590  17.057  0.5375  0.5482 -0.0985
  363TMC3    C1 5483   1.372   0.150   9.965 -0.1889 -0.4940  0.0413
  363TMC3    C2 5484   1.437   0.259  10.005  0.3296  0.4509  1.0257
  363TMC3    C3 5485   1.361   0.364  10.048  0.2109  0.3446  0.2561
  363TMC3    C4 5486   1.235   0.137   9.984 -0.2626 -0.3302 -0.3360
  363TMC3    C5 5487   1.156   0.233  10.043 -0.6032  0.5549  0.2445
  363TMC3    C6 5488   1.225   0.351  10.079  0.5276 -0.5896  0.1170
  363TMC3     C 5489   1.442   0.055   9.886 -0.9712  0.2409  0.0277
  363TMC3     O 5490   1.561   0.048   9.904  0.2337  0.4785  0.1462
  363TMC3     H 5491   1.545   0.266   9.997  0.0005  2.9784 -1.0068
  363TMC3    H1 5492   1.182   0.049   9.951 -2.3000  1.6601 -2.4236
  363TMC3    H2 5493   1.177   0.423  10.144  1.3333  0.7350 -0.7404
  363TMC3    C7 5494   1.015   0.224  10.023 -0.3281  0.7747  0.0902
  363TMC3    C8 5495   1.421   0.492  10.083  0.7206  0.4450  0.2601
  363TMC3    O1 5496   0.963   0.132   9.965 -0.6063  0.2445 -0.3926
  363TMC3    O2 5497   1.341   0.585  10.079  0.1896  0.4474 -0.8500
  364MPD2     C 5498   3.998   4.109  10.053 -0.2810 -0.3716  0.0430
  364MPD2    C1 5499   3.960   4.207  10.142 -0.0316 -0.3856  0.4768
  364MPD2    C2 5500   3.900   4.161  10.256  0.9394  0.2256  0.1008
  364MPD2    C3 5501   3.868   4.030  10.287 -0.1731 -0.1625  0.3450
  364MPD2    C4 5502   3.897   3.931  10.196 -0.0477 -0.5323  0.5961
  364MPD2    C5 5503   3.966   3.974  10.082  0.2680 -0.6526  0.2130
  364MPD2     H 5504   3.853   4.234  10.322 -0.2608 -1.6108  1.2818
  364MPD2    H1 5505   3.880   3.826  10.211 -0.4790 -0.6002 -0.3337
  364MPD2    H2 5506   4.049   4.137   9.961  1.3093 -1.3516  0.6421
  364MPD2    H3 5507   3.994   3.903  10.005 -1.5251 -0.5160 -0.5766
  364MPD2     N 5508   3.816   3.991  10.413 -0.0727  0.2854  0.1115
  364MPD2    H5 5509   3.799   3.891  10.416  1.1690  0.0314 -1.1542
  364MPD2    N1 5510   4.010   4.341  10.119  0.3276 -0.5486  0.2465
  364MPD2    H7 5511   4.052   4.360  10.029  1.1213 -0.4175  0.6489
  365TMC3    C1 5512   4.117   4.543  10.182  0.5716 -0.3190  0.5856
  365TMC3    C2 5513   4.236   4.486  10.146 -0.1265  0.4060 -0.0388
  365TMC3    C3 5514   4.355   4.559  10.166 -0.1520 -0.0547 -0.1310
  365TMC3    C4 5515   4.114   4.659  10.247  0.3775 -0.0643 -0.1563
  365TMC3    C5 5516   4.226   4.728  10.262 -0.7535 -0.6663 -0.4291
  365TMC3    C6 5517   4.348   4.679  10.222  0.2604  0.1178  0.2290
  365TMC3     C 5518   4.012   4.446  10.208 -0.4514 -0.1117  0.4391
  365TMC3     O 5519   3.939   4.473  10.303 -0.2340 -0.0236  0.0756
  365TMC3     H 5520   4.238   4.392  10.093 -0.2902  0.8605 -0.8580
  365TMC3    H1 5521   4.015   4.692  10.275  0.9757  1.6882 -0.0687
  365TMC3    H2 5522   4.433   0.011  10.235  0.1556 -0.1653  2.4135
  365TMC3    C7 5523   4.240   0.101  10.365  0.2986  0.4617  0.7513
  365TMC3    C8 5524   4.479   4.504  10.122 -0.5665 -0.4789  0.4376
  365TMC3    O1 5525   4.351   0.119  10.421 -0.4145  0.2643  0.2108
  365TMC3    O2 5526   4.575   4.579  10.105  0.5864  0.3076  0.2241
  366MPD2     C 5527   1.922   0.456  15.480  0.5726  0.6469  0.3479
  366MPD2    C1 5528   1.946   0.495  15.356 -0.3959  0.2335 -0.0234
  366MPD2    C2 5529   2.003   0.401  15.270 -0.1613  0.1219 -0.3181
  366MPD2    C3 5530   2.047   0.282  15.323  0.2033  0.8014  1.0438
  366MPD2    C4 5531   2.019   0.241  15.451 -0.7588  0.1216  0.3282
  366MPD2    C5 5532   1.954   0.328  15.527  0.0457  0.8634  0.6760
  366MPD2     H 5533   2.024   0.424  15.166  1.5359 -0.6707 -0.1494
  366MPD2    H1 5534   2.040   0.146  15.499 -0.2762  1.3174  2.5213
  366MPD2    H2 5535   1.893   0.523  15.559 -0.3895 -0.2341  0.7431
  366MPD2    H3 5536   1.931   0.313  15.632 -3.0577 -2.4217 -0.4848
  366MPD2     N 5537   2.129   0.211  15.232 -0.1603  0.4962 -0.4633
  366MPD2    H5 5538   2.153   0.264  15.148 -1.1426 -0.8661 -1.6030
  366MPD2    N1 5539   1.937   0.631  15.324 -0.0180  0.1505 -0.8143
  366MPD2    H7 5540   1.914   0.697  15.399  1.2048 -0.0630 -0.2571
  367TMC3    C1 5541   1.990   0.830  15.207  0.3602  0.2236 -0.6526
  367TMC3    C2 5542   2.116   0.869  15.244 -0.6324 -0.7441 -0.3157
  367TMC3    C3 5543   2.136   0.995  15.265 -0.8408 -0.4871  0.2816
  367TMC3    C4 5544   1.882   0.914  15.209  0.2078  0.3065 -0.3385
  367TMC3    C5 5545   1.906   1.050  15.232 -0.5438 -0.4970  0.6609
  367TMC3    C6 5546   2.036   1.091  15.263 -0.0998  0.5324  0.3080
  367TMC3     C 5547   1.963   0.686  15.198 -0.3655 -0.1066  0.0906
  367TMC3     O 5548   1.956   0.628  15.086 -0.5826  0.5951  0.0781
  367TMC3     H 5549   2.186   0.787  15.255 -2.0519 -1.8643  0.2888
  367TMC3    H1 5550   1.783   0.870  15.200 -0.1495  1.2631 -1.1317
  367TMC3    H2 5551   2.045   1.193  15.298  3.1086  0.9590 -1.7638
  367TMC3    C7 5552   1.789   1.134  15.259 -0.3615 -0.5682 -0.2239
  367TMC3    C8 5553   2.262   1.020  15.323 -0.2495  0.1238  1.2920
  367TMC3    O1 5554   1.685   1.076  15.252  0.1596  0.0281  0.1243
  367TMC3    O2 5555   2.299   0.919  15.381 -0.2714 -0.4291 -0.0877
  368MPD2     C 5556   2.862   2.476  12.970  0.3170 -0.0123 -0.7309
  368MPD2    C1 5557   2.964   2.554  13.027 -0.1025 -1.3721 -0.4166
  368MPD2    C2 5558   3.093   2.539  12.983 -0.5389 -0.2731 -0.8977
  368MPD2    C3 5559   3.125   2.446  12.885 -0.3800  0.5921  0.4580
  368MPD2    C4 5560   3.023   2.370  12.830  0.5678  0.0682  0.3612
  368MPD2    C5 5561   2.895   2.392  12.865  0.6546 -0.4793 -0.0689
  368MPD2     H 5562   3.171   2.603  13.022 -0.6714 -1.5908  1.5235
  368MPD2    H1 5563   3.047   2.295  12.756  0.0545  0.9367 -0.6788
  368MPD2    H2 5564   2.758   2.497  12.994  0.3016  0.4555 -1.2123
  368MPD2    H3 5565   2.818   2.346  12.804  1.2598 -1.8082  0.1541
  368MPD2     N 5566   3.262   2.427  12.849  0.0498 -0.0522 -0.2549
  368MPD2    H5 5567   3.336   2.459  12.911 -0.3490 -1.5548  0.9727
  368MPD2    N1 5568   2.932   2.655  13.121 -0.1982  0.0706  0.1606
  368MPD2    H7 5569   2.833   2.666  13.144 -0.5117 -2.1915 -0.0940
  369TMC3    C1 5570   2.948   2.844  13.266 -0.1869  0.1570 -0.1794
  369TMC3    C2 5571   2.989   2.972  13.241 -0.2159 -0.4109 -0.2632
  369TMC3    C3 5572   2.899   3.074  13.269 -0.2935 -0.5925 -0.6555
  369TMC3    C4 5573   2.819   2.811  13.294  0.1933  0.5899 -0.3756
  369TMC3    C5 5574   2.728   2.909  13.289 -0.9537 -0.5113  0.3257
  369TMC3    C6 5575   2.763   3.045  13.278 -0.3850 -0.5990  0.4920
  369TMC3     C 5576   3.020   2.751  13.183  0.1771  0.2781 -0.0958
  369TMC3     O 5577   3.142   2.772  13.165  0.7987  0.1067 -0.3293
  369TMC3     H 5578   3.081   2.994  13.188  0.2405  0.0529  0.7212
  369TMC3    H1 5579   2.784   2.709  13.310 -0.0919  0.4685 -1.7404
  369TMC3    H2 5580   2.692   3.127  13.278  1.3050  0.9002 -0.3588
  369TMC3    C7 5581   2.606   2.858  13.232 -0.1081 -0.6622 -0.0928
  369TMC3    C8 5582   2.929   3.200  13.194  0.4040  0.0706 -0.0843
  369TMC3    O1 5583   2.597   2.736  13.218 -0.4057 -0.0789  0.2649
  369TMC3    O2 5584   2.839   3.227  13.114  0.0878  0.2184 -0.3357
  370TMC3    C1 5585   2.656   2.980  16.285  0.4359  0.2044  0.2608
  370TMC3    C2 5586   2.571   2.903  16.364 -0.4323  0.0859 -0.1038
  370TMC3    C3 5587   2.532   2.781  16.313 -0.5514 -0.5363  0.8009
  370TMC3    C4 5588   2.696   2.937  16.164  0.1233 -0.5803  0.4042
  370TMC3    C5 5589   2.674   2.809  16.126 -0.2904  0.1514 -0.3699
  370TMC3    C6 5590   2.575   2.736  16.189 -0.0146 -0.2608 -0.3506
  370TMC3     C 5591   2.753   3.065  16.350  0.2750 -0.5364 -0.1808
  370TMC3     O 5592   2.776   3.044  16.468  0.0901  0.4097 -0.3239
  370TMC3     H 5593   2.554   2.943  16.463  1.5721  0.9641 -0.1147
  370TMC3    H1 5594   2.755   2.990  16.091 -0.3172  0.6603  0.9436
  370TMC3    H2 5595   2.543   2.638  16.157 -2.1212 -0.0266  1.0421
  370TMC3    C7 5596   2.714   2.767  15.996  1.0026 -0.0814  0.3938
  370TMC3    C8 5597   2.443   2.695  16.387 -0.8068 -0.1883  0.1971
  370TMC3    O1 5598   2.705   2.841  15.902  0.0979  0.6071 -0.3575
  370TMC3    O2 5599   2.453   2.581  16.354 -0.0094  0.3020  0.3243
  371TMC3    C1 5600   4.121   1.251  15.452  0.4324 -0.1841 -0.5932
  371TMC3    C2 5601   4.005   1.234  15.517  0.2630 -0.2943 -0.6675
  371TMC3    C3 5602   3.936   1.350  15.545 -0.3447  0.3244  0.5290
  371TMC3    C4 5603   4.178   1.373  15.424  0.1466  0.3654 -0.4764
  371TMC3    C5 5604   4.104   1.481  15.455  0.2016 -0.0375 -0.9925
  371TMC3    C6 5605   3.984   1.479  15.520 -0.5997 -0.7433 -0.5361
  371TMC3     C 5606   4.198   1.142  15.404  0.1350  0.5406  0.0221
  371TMC3     O 5607   4.298   1.174  15.344 -0.0288 -0.3685 -0.6819
  371TMC3     H 5608   3.965   1.134  15.528  0.0614 -0.1268  0.0610
  371TMC3    H1 5609   4.276   1.392  15.383  0.8031  0.0700  0.9610
  371TMC3    H2 5610   3.924   1.569  15.529  0.1222 -0.0930 -2.1536
  371TMC3    C7 5611   4.162   1.613  15.428 -0.2181 -0.0530  0.5939
  371TMC3    C8 5612   3.827   1.326  15.647 -0.3066 -0.6445  0.4143
  371TMC3    O1 5613   4.129   1.711  15.500  0.2692 -0.4071  1.5140
  371TMC3    O2 5614   3.829   1.215  15.704  0.1176  0.2152  0.9323
  372MPD2     C 5615   3.722   2.858  13.233  0.7968  0.2232 -0.2936
  372MPD2    C1 5616   3.794   2.816  13.344  0.2724  0.2294  0.4593
  372MPD2    C2 5617   3.739   2.717  13.425 -0.0554 -0.2885  0.1155
  372MPD2    C3 5618   3.616   2.652  13.387  0.7241  0.1604 -0.0645
  372MPD2    C4 5619   3.540   2.712  13.290 -0.2519  0.6067 -0.3055
  372MPD2    C5 5620   3.599   2.808  13.212 -0.0298 -0.2464  0.0922
  372MPD2     H 5621   3.787   2.671  13.510 -0.3141  0.3686  0.6151
  372MPD2    H1 5622   3.438   2.690  13.259 -0.1070  1.8035 -1.6116
  372MPD2    H2 5623   3.758   2.922  13.153  1.8103  3.9295  3.0771
  372MPD2    H3 5624   3.548   2.829  13.119 -1.3490 -3.7908  0.0360
  372MPD2     N 5625   3.570   2.538  13.457 -0.1630  0.2305 -0.5138
  372MPD2    H5 5626   3.614   2.504  13.542 -1.6181  1.0595  0.5512
  372MPD2    N1 5627   3.927   2.864  13.365  0.0895 -0.0458  0.1987
  372MPD2    H7 5628   3.991   2.820  13.430  1.4088  2.1643  0.4093
  373TMC3    C1 5629   3.416   2.382  13.530  0.5729 -0.0515 -0.1048
  373TMC3    C2 5630   3.442   2.426  13.664  0.7628  0.6191 -0.5243
  373TMC3    C3 5631   3.444   2.332  13.754 -0.4066 -0.0100  0.7692
  373TMC3    C4 5632   3.397   2.249  13.499  0.4165 -0.5831  0.5968
  373TMC3    C5 5633   3.409   2.154  13.599 -0.1353  0.3611 -0.3781
  373TMC3    C6 5634   3.423   2.200  13.731 -0.3784 -0.6755 -0.1833
  373TMC3     C 5635   3.456   2.466  13.423 -0.0826  0.7577  0.5968
  373TMC3     O 5636   3.395   2.465  13.317 -0.2901 -0.2870 -0.5672
  373TMC3     H 5637   3.459   2.531  13.685 -0.3615  1.0455 -1.7082
  373TMC3    H1 5638   3.387   2.211  13.398  1.4827  3.2880 -0.9925
  373TMC3    H2 5639   3.432   2.125  13.810 -0.3912  0.5119  0.9485
  373TMC3    C7 5640   3.445   2.019  13.564  0.4807  0.0904 -0.4677
  373TMC3    C8 5641   3.462   2.385  13.890  0.5114  0.0487 -0.0471
  373TMC3    O1 5642   3.490   1.998  13.452  0.1729 -1.4395  0.4059
  373TMC3    O2 5643   3.535   2.480  13.891 -0.2693 -0.1582  0.1125
  374TMC3    C1 5644   4.296   3.070   9.736 -0.2831  0.3109  0.7995
  374TMC3    C2 5645   4.389   3.167   9.765  0.7777 -0.0363 -0.2957
  374TMC3    C3 5646   4.370   3.281   9.685  0.1565  0.1392 -1.4430
  374TMC3    C4 5647   4.216   3.058   9.628 -0.1901  0.5632  0.3691
  374TMC3    C5 5648   4.211   3.166   9.548 -0.6655 -0.2400 -0.1594
  374TMC3    C6 5649   4.279   3.277   9.578 -0.2230 -0.2635 -0.3158
  374TMC3     C 5650   4.274   2.962   9.836 -0.1936  0.0402 -0.0012
  374TMC3     O 5651   4.253   2.847   9.792 -0.4841  0.6408  0.0595
  374TMC3     H 5652   4.451   3.160   9.853  3.3652  1.2972 -2.0196
  374TMC3    H1 5653   4.140   2.982   9.635 -1.3591  1.8955  2.2128
  374TMC3    H2 5654   4.243   3.369   9.533  0.4919 -0.1122 -0.5803
  374TMC3    C7 5655   4.158   3.155   9.416  0.4274  0.3017  0.0633
  374TMC3    C8 5656   4.449   3.405   9.709  0.1676  0.0074 -0.3218
  374TMC3    O1 5657   4.159   3.253   9.345 -0.0807  0.1972 -0.2688
  374TMC3    O2 5658   4.413   3.508   9.653 -0.6684  0.0423  0.0785
  375MPD2     C 5659   4.238   3.362  17.216  0.2311  0.7917  0.7537
  375MPD2    C1 5660   4.173   3.294  17.117 -0.6524  0.5449 -0.1837
  375MPD2    C2 5661   4.248   3.222  17.026 -0.4972 -0.7664 -0.3667
  375MPD2    C3 5662   4.387   3.212  17.034 -0.5158  0.2366  0.5800
  375MPD2    C4 5663   4.448   3.279  17.141  0.2458 -0.4069 -0.1713
  375MPD2    C5 5664   4.380   3.352  17.233  0.9780  0.0349  0.4385
  375MPD2     H 5665   4.196   3.178  16.941 -0.7289 -1.2862  0.0495
  375MPD2    H1 5666   4.555   3.295  17.133 -0.3161  3.0119 -1.1440
  375MPD2    H2 5667   4.187   3.436  17.277 -2.9581  1.2219 -2.4213
  375MPD2    H3 5668   4.435   3.420  17.297  1.6453 -0.3181  0.2446
  375MPD2     N 5669   4.474   3.160  16.930 -0.2560 -0.2379 -0.4138
  375MPD2    H5 5670   4.574   3.170  16.947 -1.0260  1.8658  2.7469
  375MPD2    N1 5671   4.029   3.292  17.109 -0.3911 -0.7819 -0.6265
  375MPD2    H7 5672   3.978   3.240  17.038  0.8875 -2.5688 -0.2070
  376TMC3    C1 5673   4.538   3.096  16.706  0.5828 -0.5348 -0.0164
  376TMC3    C2 5674   4.647   3.178  16.703 -0.3640 -0.1849 -0.1659
  376TMC3    C3 5675   0.008   3.158  16.605  0.2471  0.1008 -0.1376
  376TMC3    C4 5676   4.522   3.007  16.607  0.0236  0.8658  0.3500
  376TMC3    C5 5677   4.622   2.999  16.504  0.7724  0.9333 -0.5149
  376TMC3    C6 5678   4.730   3.074  16.502 -0.3106 -0.9578  0.1562
  376TMC3     C 5679   4.435   3.111  16.806 -0.2478 -0.0389  0.2132
  376TMC3     O 5680   4.323   3.067  16.778  0.0502  0.1475  0.1417
  376TMC3     H 5681   4.654   3.257  16.777  1.2501 -1.4656  1.0373
  376TMC3    H1 5682   4.438   2.939  16.602 -0.4633  1.5623 -1.1407
  376TMC3    H2 5683   0.070   3.070  16.424  0.8723  1.7180  1.1383
  376TMC3    C7 5684   4.575   2.948  16.376  0.1403 -0.8062  0.7788
  376TMC3    C8 5685   0.127   3.247  16.606  0.5358  0.1657 -0.3560
  376TMC3    O1 5686   4.520   2.841  16.381 -0.1060  0.1295 -0.9516
  376TMC3    O2 5687   0.163   3.274  16.494 -0.0645  0.4501 -0.2374
  377MPD2     C 5688   2.005   3.113  12.410 -0.2822 -0.3186 -0.3574
  377MPD2    C1 5689   2.073   3.114  12.533 -0.4716  0.2267  1.0200
  377MPD2    C2 5690   2.020   3.057  12.644 -0.1378 -0.5467  0.3122
  377MPD2    C3 5691   1.897   2.997  12.633  0.6525  0.3680 -0.6248
  377MPD2    C4 5692   1.827   2.992  12.514  0.3498 -0.0167  0.5434
  377MPD2    C5 5693   1.883   3.052  12.404  0.3766  0.8286  0.0657
  377MPD2     H 5694   2.074   3.052  12.738 -0.2908 -2.8917  0.2713
  377MPD2    H1 5695   1.727   2.952  12.517  0.1304  0.5402  0.5843
  377MPD2    H2 5696   2.055   3.149  12.321 -0.2107  1.5563  0.4346
  377MPD2    H3 5697   1.835   3.044  12.307  0.1521  0.8001  0.1813
  377MPD2     N 5698   1.833   2.934  12.740  0.1443 -0.1775 -0.7176
  377MPD2    H5 5699   1.754   2.874  12.718 -1.2135  1.2471  0.2481
  377MPD2    N1 5700   2.197   3.168  12.530 -0.2602 -0.1512  0.1217
  377MPD2    H7 5701   2.236   3.196  12.441 -0.5396 -0.4116 -0.0812
  378TMC3    C1 5702   2.531   3.382  12.473 -0.8349 -0.3336 -0.2046
  378TMC3    C2 5703   2.405   3.349  12.519 -0.4449  0.9409 -0.5030
  378TMC3    C3 5704   2.401   3.252  12.612  0.6924 -0.2531 -0.5383
  378TMC3    C4 5705   2.651   3.309  12.499 -0.3470 -0.5105 -1.0443
  378TMC3    C5 5706   2.633   3.204  12.589  0.1802  0.1781  0.0514
  378TMC3    C6 5707   2.511   3.177  12.648 -0.3343  0.0548 -0.2820
  378TMC3     C 5708   2.542   3.455  12.347 -1.3127  0.0955 -0.4381
  378TMC3     O 5709   2.636   3.429  12.274 -0.3440  0.4482 -0.1134
  378TMC3     H 5710   2.317   3.407  12.494  1.1506  2.4884 -2.5074
  378TMC3    H1 5711   2.747   3.338  12.457  0.3964 -2.6422 -0.7810
  378TMC3    H2 5712   2.504   3.088  12.710 -1.2071 -1.0122 -1.9411
  378TMC3    C7 5713   2.745   3.153  12.656 -0.1871 -0.2130 -0.0723
  378TMC3    C8 5714   2.273   3.195  12.643  0.3273 -0.3051 -0.1354
  378TMC3    O1 5715   2.720   3.100  12.764  0.2812 -0.6843 -0.6626
  378TMC3    O2 5716   2.253   3.177  12.761  0.4881 -0.2896 -0.7017
  379MPD2     C 5717   3.267   1.074  16.119  0.4117 -0.8840  0.2049
  379MPD2    C1 5718   3.187   0.966  16.153  0.1242 -0.4036  0.5525
  379MPD2    C2 5719   3.219   0.882  16.265 -0.2235 -0.0900 -0.6680
  379MPD2    C3 5720   3.338   0.905  16.337 -0.0442  0.2806 -0.2970
  379MPD2    C4 5721   3.416   1.008  16.293 -0.2804  0.2744 -0.0721
  379MPD2    C5 5722   3.379   1.091  16.189  0.1811  0.3602 -0.1727
  379MPD2     H 5723   3.167   0.791  16.293  0.2071 -0.6763 -1.7681
  379MPD2    H1 5724   3.515   1.027  16.331 -0.2502  2.5653 -1.2460
  379MPD2    H2 5725   3.245   1.128  16.028 -0.2114 -2.5185 -0.6124
  379MPD2    H3 5726   3.454   1.161  16.154  0.1399 -0.8666 -2.7523
  379MPD2     N 5727   3.387   0.827  16.449  0.4766  0.3330 -0.2919
  379MPD2    H5 5728   3.484   0.845  16.473  0.8328 -0.9890 -0.7652
  379MPD2    N1 5729   3.077   0.940  16.067  0.3370  0.0242  0.5793
  379MPD2    H7 5730   3.061   1.012  15.997  0.4396  0.4403  0.9829
  380TMC3    C1 5731   2.904   0.833  15.970 -0.1516 -0.0153 -0.3928
  380TMC3    C2 5732   2.873   0.710  15.918 -0.1491  0.7702  0.2014
  380TMC3    C3 5733   2.819   0.703  15.785 -0.8362  0.2966 -0.2963
  380TMC3    C4 5734   2.876   0.944  15.896  1.0998 -0.5786 -0.4078
  380TMC3    C5 5735   2.807   0.937  15.771 -0.6103 -0.1573 -0.3481
  380TMC3    C6 5736   2.775   0.814  15.720  0.0828 -1.1570 -0.4363
  380TMC3     C 5737   2.998   0.834  16.075 -0.6448 -0.4542 -0.2572
  380TMC3     O 5738   3.008   0.731  16.142 -0.1676  0.1174  0.1858
  380TMC3     H 5739   2.908   0.618  15.964  1.6520  1.4824  0.2522
  380TMC3    H1 5740   2.894   1.038  15.947  2.0473 -0.9449 -0.0575
  380TMC3    H2 5741   2.743   0.807  15.617 -1.0400 -0.6241 -0.1242
  380TMC3    C7 5742   2.774   1.058  15.707  0.0743  0.6368 -0.7192
  380TMC3    C8 5743   2.846   0.578  15.708  0.7520 -0.4869 -0.0677
  380TMC3    O1 5744   2.833   1.162  15.736  0.0762 -0.1304  0.2700
  380TMC3    O2 5745   2.745   0.508  15.693 -0.9839  0.5089  0.0766
  381TMC3    C1 5746   2.491   2.072  16.111 -0.3009 -0.4384 -0.2358
  381TMC3    C2 5747   2.587   2.162  16.125 -0.0387 -0.4669  0.9586
  381TMC3    C3 5748   2.576   2.265  16.217 -0.1408  0.3792  0.6700
  381TMC3    C4 5749   2.379   2.078  16.189 -0.2371  0.0477  0.2776
  381TMC3    C5 5750   2.373   2.172  16.287 -0.5168 -0.0168 -0.5079
  381TMC3    C6 5751   2.474   2.258  16.307 -0.5702 -0.6969  0.7429
  381TMC3     C 5752   2.489   1.998  15.981 -0.6444 -0.0073 -0.1577
  381TMC3     O 5753   2.571   2.039  15.899 -0.6356  0.5595 -0.2966
  381TMC3     H 5754   2.665   2.154  16.050 -1.4307  0.6945 -0.6098
  381TMC3    H1 5755   2.291   2.016  16.173 -0.7398  1.3625 -2.0782
  381TMC3    H2 5756   2.460   2.340  16.377 -0.1633  1.0214 -1.2072
  381TMC3    C7 5757   2.296   2.118  16.400  0.2010  0.1005  0.2508
  381TMC3    C8 5758   2.686   2.356  16.234 -0.2994  0.2073 -0.0949
  381TMC3    O1 5759   2.316   1.997  16.407  0.1940  0.5355 -0.3886
  381TMC3    O2 5760   2.760   2.368  16.139  0.4588 -0.5282  0.5478
  382MPD2     C 5761   2.026   0.419  17.236  1.0725 -0.2596 -0.0314
  382MPD2    C1 5762   1.932   0.427  17.342 -0.1445 -0.8760  0.2874
  382MPD2    C2 5763   1.904   0.317  17.425  0.4635 -0.0646 -0.1022
  382MPD2    C3 5764   1.978   0.200  17.412 -0.0513  0.9904  0.0610
  382MPD2    C4 5765   2.067   0.196  17.306 -0.2040 -0.1389  0.4485
  382MPD2    C5 5766   2.093   0.299  17.218 -0.0578 -0.3817 -0.5960
  382MPD2     H 5767   1.833   0.327  17.507 -1.0950 -2.3207 -1.1760
  382MPD2    H1 5768   2.112   0.098  17.295 -0.6716 -0.1211 -1.5569
  382MPD2    H2 5769   2.050   0.506  17.175 -1.6253 -0.2995 -1.1497
  382MPD2    H3 5770   2.163   0.296  17.135  0.5528  1.7374 -0.1603
  382MPD2     N 5771   1.967   0.086  17.489  0.3224  0.5586  0.5796
  382MPD2    H5 5772   2.028   0.007  17.472  0.7287  0.7659  1.0985
  382MPD2    N1 5773   1.871   0.555  17.377  0.8133 -0.1969 -0.8573
  382MPD2    H7 5774   1.817   0.556  17.463  1.4974 -1.3540 -0.4011
  383TMC3    C1 5775   1.870   4.672  17.640  0.3831  0.6483  0.3940
  383TMC3    C2 5776   1.757   4.593  17.619 -0.6409 -0.7352  0.6655
  383TMC3    C3 5777   1.776   4.463  17.638  0.5662  0.0051  0.1364
  383TMC3    C4 5778   1.992   4.622  17.665  0.2418 -0.0714  0.1709
  383TMC3    C5 5779   2.004   4.486  17.687  0.5996  0.4724  0.6808
  383TMC3    C6 5780   1.893   4.410  17.680  0.3132 -0.1265 -0.7399
  383TMC3     C 5781   1.865   0.075  17.591 -0.4247 -0.1420 -0.1482
  383TMC3     O 5782   1.776   0.150  17.634 -0.5676  0.1484  0.0466
  383TMC3     H 5783   1.663   4.632  17.582 -0.0554  0.1298  0.0625
  383TMC3    H1 5784   2.084   4.679  17.667  0.1096  0.1522 -0.1688
  383TMC3    H2 5785   1.903   4.304  17.699  0.2817  0.0413  0.2532
  383TMC3    C7 5786   2.109   4.437   0.030  0.4641 -0.3068 -0.1748
  383TMC3    C8 5787   1.665   4.380  17.594  0.5159 -0.1267  0.5727
  383TMC3    O1 5788   2.082   4.336   0.096  0.3170  0.0113  0.4088
  383TMC3    O2 5789   1.556   4.425  17.630 -0.7859 -0.4239  0.3937
  384MPD2     C 5790   3.484   1.265  12.176  0.1097 -0.1445 -0.1032
  384MPD2    C1 5791   3.426   1.154  12.244 -0.6070 -0.7754  0.9631
  384MPD2    C2 5792   3.452   1.029  12.198 -0.3552 -0.6146 -1.1515
  384MPD2    C3 5793   3.533   1.011  12.086 -0.3202  0.1894  0.1981
  384MPD2    C4 5794   3.573   1.119  12.007  0.8846  0.2980  0.2709
  384MPD2    C5 5795   3.543   1.248  12.053  0.1402 -0.1699 -0.3295
  384MPD2     H 5796   3.431   0.939  12.254 -0.3692 -0.7791 -1.4174
  384MPD2    H1 5797   3.643   1.115  11.925  0.8631 -1.3381  0.3332
  384MPD2    H2 5798   3.472   1.368  12.209 -1.6379  0.0712 -1.4050
  384MPD2    H3 5799   3.583   1.333  12.000 -0.2288  0.0970 -0.1784
  384MPD2     N 5800   3.580   0.877  12.058 -0.2521 -0.5767 -1.2561
  384MPD2    H5 5801   3.570   0.816  12.139  1.4868  0.6593 -0.1275
  384MPD2    N1 5802   3.359   1.171  12.365 -0.3027 -0.8191 -0.1387
  384MPD2    H7 5803   3.379   1.260  12.408  0.2508 -0.7224 -0.5967
  385TMC3    C1 5804   3.721   0.709  11.985  0.0241 -0.1047  0.3975
  385TMC3    C2 5805   3.691   0.603  11.908 -0.3498  0.0241 -0.2674
  385TMC3    C3 5806   3.693   0.483  11.967 -0.4203 -0.5577  0.0437
  385TMC3    C4 5807   3.747   0.699  12.118 -0.3218 -0.3073  0.5997
  385TMC3    C5 5808   3.735   0.576  12.175 -0.2459  0.6719  0.3920
  385TMC3    C6 5809   3.706   0.466  12.106 -0.2973  0.0203  0.4324
  385TMC3     C 5810   3.651   0.831  11.949  0.7516  0.3487 -0.2974
  385TMC3     O 5811   3.659   0.878  11.838 -0.1728 -0.2398 -0.5025
  385TMC3     H 5812   3.650   0.626  11.810 -0.4966 -0.3154 -0.2867
  385TMC3    H1 5813   3.767   0.786  12.179 -0.0378  0.5880 -0.7620
  385TMC3    H2 5814   3.705   0.366  12.146  1.6084  0.3287  1.2530
  385TMC3    C7 5815   3.663   0.591  12.295 -0.8910  0.5709 -0.3890
  385TMC3    C8 5816   3.679   0.363  11.890  0.7322  0.2336  0.1411
  385TMC3    O1 5817   3.631   0.704  12.331  0.2505  0.1067  0.2294
  385TMC3    O2 5818   3.662   0.255  11.944 -0.0096 -0.0856 -1.1365
  386TMC3    C1 5819   3.911   3.521  11.996  0.6692 -0.0620  0.0048
  386TMC3    C2 5820   3.907   3.557  11.863 -0.4850 -0.5047 -0.6137
  386TMC3    C3 5821   3.827   3.669  11.834 -0.0937 -0.2499 -0.1928
  386TMC3    C4 5822   3.833   3.574  12.095  0.0554 -0.4203  0.3376
  386TMC3    C5 5823   3.741   3.666  12.052 -0.2983 -0.3125  0.3932
  386TMC3    C6 5824   3.747   3.722  11.931 -0.7556  0.5332  0.1596
  386TMC3     C 5825   4.000   3.412  12.040 -0.6962  0.3030  0.3377
  386TMC3     O 5826   4.040   3.419  12.157  0.6504 -0.3499 -0.1145
  386TMC3     H 5827   3.967   3.507  11.787  3.4453  0.8312  1.5757
  386TMC3    H1 5828   3.831   3.534  12.195 -0.8413 -1.5489 -0.1339
  386TMC3    H2 5829   3.681   3.806  11.913 -0.7682  0.2674 -1.0046
  386TMC3    C7 5830   3.609   3.619  12.088 -0.4342 -0.7390  0.2022
  386TMC3    C8 5831   3.779   3.665  11.706 -0.3131 -0.1384  0.1242
  386TMC3    O1 5832   3.596   3.594  12.206  0.5614  0.2306  0.4164
  386TMC3    O2 5833   3.660   3.679  11.693  0.4642  0.1781 -0.1481
  387MPD2     C 5834   1.774   3.719   9.805 -0.5589 -0.0732  0.0270
  387MPD2    C1 5835   1.770   3.669   9.936 -0.2138 -0.8790 -0.0718
  387MPD2    C2 5836   1.719   3.542   9.954  0.1943 -0.3317  0.9380
  387MPD2    C3 5837   1.686   3.453   9.852  0.1002 -0.4730 -0.3305
  387MPD2    C4 5838   1.698   3.504   9.720 -0.8147  0.0286  0.5627
  387MPD2    C5 5839   1.730   3.633   9.700  0.3528 -0.5134 -0.4923
  387MPD2     H 5840   1.715   3.508  10.057 -1.7386 -0.1438  0.9375
  387MPD2    H1 5841   1.684   3.437   9.636  2.7044  1.0565 -0.8591
  387MPD2    H2 5842   1.810   3.819   9.784  2.2413 -0.8925  0.9667
  387MPD2    H3 5843   1.723   3.673   9.600  0.7880 -0.0035 -0.3180
  387MPD2     N 5844   1.657   3.323   9.893  0.4500  0.2104 -0.1294
  387MPD2    H5 5845   1.671   3.306   9.992  0.8866  0.4244 -0.1564
  387MPD2    N1 5846   1.834   3.731  10.041 -0.2522  0.0924  0.0348
  387MPD2    H7 5847   1.840   3.685  10.131 -3.7136 -1.4814 -0.5533
  388TMC3    C1 5848   1.962   3.863  10.180  0.3165  0.2938  0.1076
  388TMC3    C2 5849   2.015   3.977  10.229 -0.0160  0.2071  0.3618
  388TMC3    C3 5850   2.108   3.987  10.332 -0.7874 -0.0698 -0.1613
  388TMC3    C4 5851   2.010   3.739  10.236  0.6324 -0.1613 -0.0696
  388TMC3    C5 5852   2.103   3.742  10.344 -0.2500 -0.6439  0.7635
  388TMC3    C6 5853   2.145   3.867  10.394  0.2348 -0.1199  0.1490
  388TMC3     C 5854   1.900   3.850  10.052 -0.6802  0.7357  0.3640
  388TMC3     O 5855   1.901   3.943   9.975 -0.3351  1.2807 -0.1600
  388TMC3     H 5856   1.987   4.067  10.175 -1.5303 -0.4287  0.0734
  388TMC3    H1 5857   1.970   3.643  10.206  1.9635 -0.4283 -1.0011
  388TMC3    H2 5858   2.228   3.871  10.463 -0.2316  0.0476  0.6942
  388TMC3    C7 5859   2.155   3.612  10.385 -0.4399 -0.1551 -0.4716
  388TMC3    C8 5860   2.163   4.119  10.363 -0.7841 -0.2714  0.4632
  388TMC3    O1 5861   2.195   3.595  10.500 -0.4581  0.0659 -0.2096
  388TMC3    O2 5862   2.124   4.216  10.310  0.1961 -0.2385 -0.0998
  389MPD2     C 5863   0.948   1.983  11.554  0.0507 -0.2192  0.1502
  389MPD2    C1 5864   0.956   1.899  11.448  0.1501 -0.5284  0.1207
  389MPD2    C2 5865   0.952   1.763  11.460 -0.1460 -0.4312 -0.0117
  389MPD2    C3 5866   0.934   1.714  11.592  0.3612 -0.5665 -0.4301
  389MPD2    C4 5867   0.935   1.798  11.701  0.5342  0.3238 -0.0922
  389MPD2    C5 5868   0.948   1.928  11.675  0.5414  0.2034  0.0379
  389MPD2     H 5869   0.938   1.702  11.372 -0.7643  1.4463 -1.2065
  389MPD2    H1 5870   0.912   1.771  11.803 -1.5378 -0.7334 -0.8247
  389MPD2    H2 5871   0.962   2.090  11.545  0.6302 -0.3853 -1.0357
  389MPD2    H3 5872   0.956   1.983  11.769 -0.6981  0.5528 -0.0659
  389MPD2     N 5873   0.908   1.577  11.620  0.1470  0.1144 -0.3741
  389MPD2    H5 5874   0.883   1.551  11.715  2.1369 -1.6551 -0.3329
  389MPD2    N1 5875   0.940   1.960  11.321  0.0074 -0.0711 -0.3472
  389MPD2    H7 5876   0.924   2.060  11.316 -1.0396 -0.0503  4.0146
  390TMC3    C1 5877   0.867   1.352  11.579  0.1028 -0.1249 -0.1088
  390TMC3    C2 5878   0.823   1.258  11.488  0.7208 -0.7733  0.5018
  390TMC3    C3 5879   0.712   1.185  11.525  0.3969 -0.1045 -0.8009
  390TMC3    C4 5880   0.820   1.356  11.704  0.0451 -0.5726 -0.1841
  390TMC3    C5 5881   0.706   1.286  11.734  0.3359 -0.3457  1.2795
  390TMC3    C6 5882   0.644   1.211  11.643  0.5627  0.4870 -0.0970
  390TMC3     C 5883   0.906   1.476  11.525 -0.3295  0.1860 -0.1349
  390TMC3     O 5884   0.930   1.484  11.406  0.0208  0.0861 -0.5562
  390TMC3     H 5885   0.875   1.244  11.394 -2.1319  0.1381 -1.2206
  390TMC3    H1 5886   0.885   1.395  11.782 -0.3700 -3.2930  1.5492
  390TMC3    H2 5887   0.563   1.143  11.668  0.9947 -0.6136 -1.6722
  390TMC3    C7 5888   0.645   1.323  11.861  1.0072 -0.3845 -0.4085
  390TMC3    C8 5889   0.677   1.059  11.467  0.1937  0.7265 -0.1600
  390TMC3    O1 5890   0.694   1.422  11.913 -0.2325  0.6723  0.2145
  390TMC3    O2 5891   0.614   0.980  11.534 -0.6103  0.1905 -0.1796
  391MPD2     C 5892   0.515   3.114  11.003  0.1878 -0.5934 -0.4121
  391MPD2    C1 5893   0.597   3.208  10.960  0.0768  0.0835 -0.2023
  391MPD2    C2 5894   0.598   3.262  10.835  0.2159  0.1066  0.3940
  391MPD2    C3 5895   0.510   3.214  10.742 -0.4276 -0.1177  0.4250
  391MPD2    C4 5896   0.429   3.111  10.778 -0.5278 -0.7796  0.0174
  391MPD2    C5 5897   0.426   3.065  10.910  0.4111  0.8693  0.3362
  391MPD2     H 5898   0.663   3.343  10.804  0.3386 -0.6467 -1.2980
  391MPD2    H1 5899   0.357   3.065  10.712 -0.4420  0.0354 -0.6439
  391MPD2    H2 5900   0.504   3.066  11.100 -2.3791 -4.8793 -2.8036
  391MPD2    H3 5901   0.360   2.985  10.943 -0.3834 -0.0062 -3.4544
  391MPD2     N 5902   0.505   3.263  10.608  0.0602 -0.1985 -0.0880
  391MPD2    H5 5903   0.571   3.337  10.585 -0.4152 -0.0143 -0.8481
  391MPD2    N1 5904   0.701   3.260  11.047 -0.1837  0.5693  0.3916
  391MPD2    H7 5905   0.766   3.326  11.003  1.0613 -0.5090  0.6304
  392TMC3    C1 5906   0.436   3.306  10.395 -0.5037  0.5531  0.3121
  392TMC3    C2 5907   0.328   3.322  10.317  0.2518 -0.0884  0.2199
  392TMC3    C3 5908   0.353   3.378  10.201  0.2322 -0.2139 -1.1600
  392TMC3    C4 5909   0.558   3.362  10.373 -0.0999  0.1929 -0.0608
  392TMC3    C5 5910   0.572   3.429  10.256  0.4353  0.5903 -0.1263
  392TMC3    C6 5911   0.467   3.439  10.164 -0.1833  0.6243  0.1555
  392TMC3     C 5912   0.405   3.235  10.520 -0.3175  0.2882 -0.1401
  392TMC3     O 5913   0.300   3.175  10.529 -0.3652  0.2081  0.4469
  392TMC3     H 5914   0.230   3.281  10.336 -0.3485  0.7776 -0.9955
  392TMC3    H1 5915   0.642   3.336  10.436 -0.2741  0.0502  0.1146
  392TMC3    H2 5916   0.474   3.494  10.071 -1.0954 -0.0710 -0.3284
  392TMC3    C7 5917   0.670   3.532  10.258 -0.4536  0.3695 -1.0402
  392TMC3    C8 5918   0.235   3.375  10.112 -0.7825  0.0964 -0.3359
  392TMC3    O1 5919   0.748   3.512  10.354 -0.4081  0.1102  0.1649
  392TMC3    O2 5920   0.138   3.304  10.136  0.0427  0.1020 -0.2628
  393TMC3    C1 5921   3.860   0.968  10.651  0.1076  0.3974  0.0764
  393TMC3    C2 5922   3.752   0.913  10.593  0.3265 -0.3824 -0.2726
  393TMC3    C3 5923   3.722   0.781  10.624 -0.2517 -0.1734  0.3545
  393TMC3    C4 5924   3.942   0.902  10.740 -0.5946 -0.5671  0.8013
  393TMC3    C5 5925   3.903   0.775  10.774  0.2413 -0.2269 -0.7565
  393TMC3    C6 5926   3.789   0.715  10.717  0.1527  0.0799 -0.3466
  393TMC3     C 5927   3.883   1.109  10.610  0.1761 -0.3263  0.4826
  393TMC3     O 5928   3.786   1.157  10.555 -0.1881  0.5203 -0.6506
  393TMC3     H 5929   3.684   0.960  10.524  1.2012 -2.0082 -2.2530
  393TMC3    H1 5930   4.033   0.949  10.775  0.4430 -0.0853 -2.5883
  393TMC3    H2 5931   3.760   0.618  10.756 -0.6867  0.0030 -1.1590
  393TMC3    C7 5932   3.936   0.730  10.913 -0.3793 -0.2134  0.1531
  393TMC3    C8 5933   3.616   0.714  10.557 -0.6382  0.0957 -0.3066
  393TMC3    O1 5934   3.888   0.619  10.946 -0.0222 -0.2887 -0.2221
  393TMC3    O2 5935   3.563   0.631  10.630  0.6869  0.0832  0.1659
  394TMC3    C1 5936   0.909   1.992  11.098  0.1548 -0.0364 -0.2386
  394TMC3    C2 5937   0.793   2.051  11.115 -0.5197  0.3452 -0.3427
  394TMC3    C3 5938   0.715   2.073  11.007 -0.3244  0.2823 -0.1408
  394TMC3    C4 5939   0.953   1.955  10.974 -0.4904  0.5988 -0.2516
  394TMC3    C5 5940   0.880   1.995  10.866  0.3393  0.2237  0.6928
  394TMC3    C6 5941   0.757   2.052  10.877 -0.4477  0.5969 -0.1258
  394TMC3     C 5942   0.952   1.902  11.199 -0.0945  0.0168 -0.1250
  394TMC3     O 5943   1.010   1.796  11.173  0.2292  0.2023  0.4189
  394TMC3     H 5944   0.750   2.082  11.209  0.7802  0.4796  0.2054
  394TMC3    H1 5945   1.037   1.889  10.953 -2.0842 -1.2671 -0.7868
  394TMC3    H2 5946   0.694   2.075  10.791  1.4128 -0.2252 -1.7198
  394TMC3    C7 5947   0.939   2.010  10.739  1.2006  0.1848  0.2132
  394TMC3    C8 5948   0.572   2.054  11.040 -0.1525  0.4609  0.7036
  394TMC3    O1 5949   0.894   2.103  10.670 -0.1805 -0.0474  0.0733
  394TMC3    O2 5950   0.546   2.067  11.160 -0.0307  0.4434 -0.0834
  395TMC3    C1 5951   0.692   3.374  15.055  0.5850  0.2661  0.0067
  395TMC3    C2 5952   0.678   3.270  14.966  0.7613  0.1648  0.0123
  395TMC3    C3 5953   0.761   3.267  14.861  0.3890  0.4544 -0.4951
  395TMC3    C4 5954   0.772   3.484  15.038  0.1790 -0.0367 -0.1758
  395TMC3    C5 5955   0.855   3.474  14.925 -0.2409 -0.0835 -0.4413
  395TMC3    C6 5956   0.855   3.366  14.843 -0.5845 -0.7125 -0.9695
  395TMC3     C 5957   0.630   3.355  15.188  0.0243 -0.3693 -0.5692
  395TMC3     O 5958   0.592   3.457  15.249 -0.6593 -0.4367 -0.3365
  395TMC3     H 5959   0.605   3.192  14.981 -0.7036  1.4141 -0.6941
  395TMC3    H1 5960   0.776   3.559  15.115 -2.0352 -0.1211  0.0210
  395TMC3    H2 5961   0.922   3.368  14.758  1.4867  0.5806  0.7036
  395TMC3    C7 5962   0.934   3.587  14.896  0.5028 -0.6347 -0.2302
  395TMC3    C8 5963   0.757   3.161  14.760  0.0316 -0.2545 -0.2087
  395TMC3    O1 5964   0.931   3.672  14.987 -0.6964 -0.8193 -0.2414
  395TMC3    O2 5965   0.862   3.129  14.702  0.0823  0.0867  0.2468
  396MPD2     C 5966   0.096   4.503  16.872 -1.1483  0.0885 -0.0316
  396MPD2    C1 5967   0.203   4.513  16.956 -0.4271  0.0732  0.3925
  396MPD2    C2 5968   0.302   4.603  16.930 -0.1786 -0.3016 -0.5544
  396MPD2    C3 5969   0.294   4.693  16.824  0.1726 -0.9137  0.6177
  396MPD2    C4 5970   0.172   4.684  16.749 -0.4348 -0.0484  0.7513
  396MPD2    C5 5971   0.075   4.600  16.781  0.0480 -0.4673 -0.4674
  396MPD2     H 5972   0.389   4.618  16.993 -1.4754  0.1392  1.1351
  396MPD2    H1 5973   0.146   0.022  16.672 -0.3636 -2.0139 -1.1349
  396MPD2    H2 5974   0.017   4.432  16.891 -0.3051 -1.3954 -2.1267
  396MPD2    H3 5975   4.715   4.603  16.727 -0.0683 -1.2023 -0.3079
  396MPD2     N 5976   0.394   0.057  16.813  0.5514  0.1788  0.3184
  396MPD2    H5 5977   0.463   0.069  16.887 -0.2053  4.4713  0.3131
  396MPD2    N1 5978   0.195   4.442  17.081  0.5445 -0.1023 -0.1065
  396MPD2    H7 5979   0.109   4.395  17.106  1.5280 -1.7583  0.1418
  397TMC3    C1 5980   0.264   4.327  17.280 -0.1033  0.1776 -0.0124
  397TMC3    C2 5981   0.362   4.318  17.380  0.1408 -0.5698  0.0889
  397TMC3    C3 5982   0.405   4.191  17.419  0.0856  0.4709  0.1610
  397TMC3    C4 5983   0.199   4.212  17.235 -0.0314  0.3531 -0.0241
  397TMC3    C5 5984   0.219   4.100  17.310 -0.5509  0.3334  0.2455
  397TMC3    C6 5985   0.319   4.079  17.398  0.4508 -0.3395  0.0478
  397TMC3     C 5986   0.293   4.429  17.171  0.4900  0.4151  0.4144
  397TMC3     O 5987   0.390   4.502  17.188  0.5537 -0.4026  0.3420
  397TMC3     H 5988   0.423   4.405  17.404  0.7616 -0.8575 -0.4754
  397TMC3    H1 5989   0.112   4.213  17.170  0.4841  0.5931 -0.7086
  397TMC3    H2 5990   0.340   3.983  17.444  0.1692 -0.6496 -0.4648
  397TMC3    C7 5991   0.119   3.991  17.297  0.3570  0.1321  0.6022
  397TMC3    C8 5992   0.492   4.181  17.530  0.3075 -0.7765 -0.2644
  397TMC3    O1 5993   0.074   3.983  17.179  0.2642 -0.3135  0.5709
  397TMC3    O2 5994   0.467   4.104  17.620 -0.1199 -0.5183  0.1448
  398MPD2     C 5995   3.264   0.959   0.097  0.6826 -0.2206 -0.0364
  398MPD2    C1 5996   3.369   0.876   0.136  0.2567  0.2751  0.0586
  398MPD2    C2 5997   3.481   0.935   0.188 -0.0853  0.5084  0.3556
  398MPD2    C3 5998   3.490   1.072   0.214 -0.0667  0.9370  0.4749
  398MPD2    C4 5999   3.390   1.153   0.167  0.2852  0.4010 -0.9141
  398MPD2    C5 6000   3.279   1.094   0.113  0.6022 -0.0256  0.1190
  398MPD2     H 6001   3.565   0.872   0.213  2.0186  2.4187 -1.9161
  398MPD2    H1 6002   3.392   1.258   0.194 -0.3783  0.2175 -0.1666
  398MPD2    H2 6003   3.166   0.925   0.065  0.5663  1.1246 -1.1048
  398MPD2    H3 6004   3.195   1.157   0.083 -0.2067 -1.6839 -1.0636
  398MPD2     N 6005   3.611   1.120   0.274  0.5557  0.0706  0.3672
  398MPD2    H5 6006   3.674   1.043   0.293  0.5729  0.4342  1.7837
  398MPD2    N1 6007   3.369   0.736   0.122 -0.1952  0.2807 -0.6591
  398MPD2    H7 6008   3.449   0.685   0.157 -2.3186 -1.9698  0.8445
  399TMC3    C1 6009   3.282   0.516   0.128  0.3976 -0.8666  0.4836
  399TMC3    C2 6010   3.360   0.494   0.238 -0.3285 -0.8895  0.1423
  399TMC3    C3 6011   3.406   0.365   0.253  0.5465  0.4167 -0.4418
  399TMC3    C4 6012   3.225   0.420   0.053  0.4640 -0.2464 -0.3217
  399TMC3    C5 6013   3.256   0.290   0.088  0.2250  0.0802  0.3030
  399TMC3    C6 6014   3.354   0.259   0.179 -0.4447 -0.9607  0.1718
  399TMC3     C 6015   3.261   0.660   0.087  0.6446 -0.0423  0.8178
  399TMC3     O 6016   3.158   0.694   0.029 -0.3090 -0.3362 -0.0799
  399TMC3     H 6017   3.385   0.581   0.297  1.5036 -0.7274 -0.8832
  399TMC3    H1 6018   3.147   0.439  17.716  0.3905 -0.1162 -0.2085
  399TMC3    H2 6019   3.373   0.155   0.205 -0.4412 -0.5650  1.8107
  399TMC3    C7 6020   3.180   0.180   0.029 -0.3098 -0.3631  0.6935
  399TMC3    C8 6021   3.486   0.332   0.369 -0.1444  0.6928  0.0679
  399TMC3    O1 6022   3.172   0.082   0.103  0.1269  0.5736 -0.4044
  399TMC3    O2 6023   3.517   0.435   0.432 -0.0344  0.3208 -0.4340
  400TMC3    C1 6024   1.491   3.731  17.131  0.0700  0.1228  0.9073
  400TMC3    C2 6025   1.396   3.779  17.045 -0.4601  0.9910  0.1562
  400TMC3    C3 6026   1.393   3.913  17.018 -1.1942 -0.3362  0.2468
  400TMC3    C4 6027   1.581   3.824  17.189 -0.6978 -0.3219  0.2287
  400TMC3    C5 6028   1.579   3.953  17.151  0.1752 -0.2348  0.6918
  400TMC3    C6 6029   1.483   4.002  17.067 -0.6008 -0.0034  0.2997
  400TMC3     C 6030   1.500   3.587  17.145  0.4544  0.0066 -0.2511
  400TMC3     O 6031   1.405   3.517  17.113  0.1244  0.2443 -0.0641
  400TMC3     H 6032   1.311   3.716  17.023  0.1940  0.2497 -0.2810
  400TMC3    H1 6033   1.654   3.801  17.267 -1.5294  0.9535  1.3923
  400TMC3    H2 6034   1.484   4.097  17.015 -1.5557  0.3943  0.9893
  400TMC3    C7 6035   1.689   4.037  17.180 -0.7878 -0.6593 -0.1324
  400TMC3    C8 6036   1.310   3.956  16.899 -0.0858 -0.1039  0.3163
  400TMC3    O1 6037   1.793   3.985  17.209  0.1738 -0.2162 -0.6435
  400TMC3    O2 6038   1.275   4.073  16.883 -0.1502 -0.4394 -0.0509
  401MPD2     C 6039   4.444   2.783  17.140  0.5779  0.1685 -0.1418
  401MPD2    C1 6040   4.416   2.747  17.261  0.6664  0.0060  0.3445
  401MPD2    C2 6041   4.409   2.615  17.297  0.4587 -0.3357  0.1934
  401MPD2    C3 6042   4.438   2.518  17.205  0.2850 -0.1752 -0.7201
  401MPD2    C4 6043   4.474   2.555  17.075  0.1867 -0.1466  0.1045
  401MPD2    C5 6044   4.470   2.687  17.045  0.3454  0.1373 -0.7330
  401MPD2     H 6045   4.392   2.590  17.401  0.3888  1.2529  0.5508
  401MPD2    H1 6046   4.490   2.474  17.005 -0.6930  0.0100 -0.2751
  401MPD2    H2 6047   4.454   2.889  17.119  0.4574  0.6880  2.4717
  401MPD2    H3 6048   4.471   2.727  16.944  1.4943  2.6698  0.2800
  401MPD2     N 6049   4.428   2.382  17.249 -0.5409 -0.1338 -0.9621
  401MPD2    H5 6050   4.384   2.379  17.340  0.3301 -3.2559 -0.6209
  401MPD2    N1 6051   4.399   2.843  17.362  0.3863 -0.3195  0.1109
  401MPD2    H7 6052   4.359   2.802  17.447  0.6732  0.8172  0.7950
  402TMC3    C1 6053   4.463   2.138  17.249 -0.0959 -0.2854 -0.6217
  402TMC3    C2 6054   4.450   2.139  17.382 -0.3033 -0.2794  0.0398
  402TMC3    C3 6055   4.458   2.019  17.448 -0.2036  0.6012 -0.6207
  402TMC3    C4 6056   4.483   2.019  17.178 -0.5412 -0.9518 -1.1319
  402TMC3    C5 6057   4.475   1.900  17.248 -0.2700 -0.2365 -0.1983
  402TMC3    C6 6058   4.468   1.903  17.382 -0.0415 -0.5477 -0.4125
  402TMC3     C 6059   4.473   2.265  17.175 -0.6396 -0.9095  0.3856
  402TMC3     O 6060   4.523   2.263  17.064  0.1004  0.3042 -0.1861
  402TMC3     H 6061   4.436   2.228  17.442 -1.4751  0.0927 -0.7854
  402TMC3    H1 6062   4.499   2.014  17.071  0.4105  2.1743 -1.1412
  402TMC3    H2 6063   4.474   1.812  17.441  2.1795 -0.6448 -0.7956
  402TMC3    C7 6064   4.518   1.787  17.167 -0.3675  0.0789 -0.4094
  402TMC3    C8 6065   4.435   2.004  17.591  0.1106  0.2939 -0.5953
  402TMC3    O1 6066   4.462   1.774  17.058  0.2136  0.0653 -0.8439
  402TMC3    O2 6067   4.521   1.931  17.647  0.2924  0.1288 -0.3122
  403MPD2     C 6068   3.327   0.397  13.303 -0.4714 -0.1409  1.3177
  403MPD2    C1 6069   3.254   0.480  13.379  0.3517 -0.3979  0.2986
  403MPD2    C2 6070   3.321   0.567  13.460 -0.0980 -0.8534  0.3381
  403MPD2    C3 6071   3.457   0.552  13.490  0.3585  0.2094 -0.1202
  403MPD2    C4 6072   3.529   0.461  13.410 -0.5895  0.9449 -0.4844
  403MPD2    C5 6073   3.464   0.382  13.322 -0.4620  0.3540  0.2171
  403MPD2     H 6074   3.262   0.641  13.513  1.1245  1.2535 -1.2432
  403MPD2    H1 6075   3.635   0.447  13.429 -0.8397  0.3074  0.4731
  403MPD2    H2 6076   3.292   0.324  13.231 -0.2139  0.1513  0.8961
  403MPD2    H3 6077   3.522   0.307  13.269  1.2250  1.3556  0.6359
  403MPD2     N 6078   3.519   0.618  13.601 -0.0379  0.0299 -0.3704
  403MPD2    H5 6079   3.450   0.675  13.648  1.0606  0.7426  0.3694
  403MPD2    N1 6080   3.114   0.460  13.376  0.4046 -0.1426  0.1094
  403MPD2    H7 6081   3.074   0.401  13.304  1.1961 -0.7761  0.1843
  404TMC3    C1 6082   2.891   0.459  13.460 -0.6622  0.3864  0.2927
  404TMC3    C2 6083   2.865   0.440  13.596 -0.3241 -0.2618 -0.1138
  404TMC3    C3 6084   2.851   0.315  13.642 -0.4282  0.1592  0.1819
  404TMC3    C4 6085   2.873   0.361  13.371 -0.7389 -0.0167 -0.7822
  404TMC3    C5 6086   2.840   0.238  13.419 -0.1690 -0.1112 -0.7938
  404TMC3    C6 6087   2.843   0.211  13.558  0.4882  0.7970  0.2494
  404TMC3     C 6088   3.022   0.526  13.459  0.2658 -0.4192 -0.3097
  404TMC3     O 6089   3.046   0.604  13.552  0.1272  0.3750 -0.1020
  404TMC3     H 6090   2.876   0.522  13.667  1.4770 -1.0995  0.5838
  404TMC3    H1 6091   2.876   0.390  13.267 -0.7459 -2.5872 -1.4907
  404TMC3    H2 6092   2.818   0.111  13.589  0.1037  1.7452  2.9365
  404TMC3    C7 6093   2.813   0.131  13.327  0.0307 -0.1465  0.0255
  404TMC3    C8 6094   2.850   0.298  13.788  0.3871  0.1170  0.1040
  404TMC3    O1 6095   2.818   0.018  13.369 -0.1939  0.0181  0.4361
  404TMC3    O2 6096   2.821   0.398  13.855 -0.0119 -0.1273  0.1269
  405MPD2     C 6097   3.506   1.199  15.463 -0.2092  0.7136 -0.2037
  405MPD2    C1 6098   3.504   1.116  15.357  0.3576 -0.3997 -0.0434
  405MPD2    C2 6099   3.442   1.167  15.242  0.7397 -0.2469 -0.3210
  405MPD2    C3 6100   3.370   1.288  15.244 -0.0922 -0.2455 -0.2302
  405MPD2    C4 6101   3.387   1.366  15.350 -0.5183  0.2736  0.1780
  405MPD2    C5 6102   3.454   1.324  15.454 -0.0649 -0.1212 -0.1240
  405MPD2     H 6103   3.434   1.106  15.153  0.2090 -1.3466  0.4846
  405MPD2    H1 6104   3.334   1.461  15.352  0.1559  0.6594  0.1805
  405MPD2    H2 6105   3.544   1.170  15.560 -0.8503 -1.4586 -0.6025
  405MPD2    H3 6106   3.458   1.397  15.535 -0.6400 -1.0118  0.7124
  405MPD2     N 6107   3.288   1.324  15.139  0.7068 -0.4277  0.5706
  405MPD2    H5 6108   3.260   1.249  15.077  2.6020 -1.2316  0.6883
  405MPD2    N1 6109   3.553   0.985  15.367 -0.1025  0.2716  0.0323
  405MPD2    H7 6110   3.540   0.924  15.287  1.8633 -1.0631  0.7163
  406TMC3    C1 6111   2.952   1.452  14.855  0.1964  0.3903 -0.3754
  406TMC3    C2 6112   2.922   1.320  14.825 -0.6085  0.8798  0.0727
  406TMC3    C3 6113   2.984   1.227  14.909  0.2536  0.3887 -0.7530
  406TMC3    C4 6114   3.036   1.492  14.952  0.5461 -0.2372 -0.0781
  406TMC3    C5 6115   3.097   1.394  15.027  0.5576 -0.1448 -0.2148
  406TMC3    C6 6116   3.059   1.261  15.011 -0.9539  0.1546 -0.1004
  406TMC3     C 6117   2.889   1.559  14.781 -0.5833 -0.2229 -0.1291
  406TMC3     O 6118   2.933   1.673  14.785  0.4833  0.4105 -0.3388
  406TMC3     H 6119   2.881   1.283  14.732 -0.0799 -2.2191  1.0863
  406TMC3    H1 6120   3.055   1.597  14.972 -1.9738  0.7245 -2.7612
  406TMC3    H2 6121   3.081   1.185  15.086  2.1136  1.5845  0.4576
  406TMC3    C7 6122   3.202   1.428  15.127 -0.1943  0.3409  0.2007
  406TMC3    C8 6123   2.962   1.081  14.875 -0.4425 -0.6106  1.2922
  406TMC3    O1 6124   3.226   1.544  15.162 -0.0497  0.4575  0.0529
  406TMC3    O2 6125   2.862   1.049  14.814  0.5209 -0.2601 -0.0194
  407MPD2     C 6126   1.360   3.895  10.332  0.8154 -0.2589 -0.0094
  407MPD2    C1 6127   1.471   3.930  10.249 -0.2293  0.1271 -0.2476
  407MPD2    C2 6128   1.569   3.998  10.306 -0.4435 -0.1712 -0.7759
  407MPD2    C3 6129   1.578   4.008  10.444  0.5146  0.3599  0.5189
  407MPD2    C4 6130   1.473   3.964  10.522 -0.7441 -1.3352 -0.2472
  407MPD2    C5 6131   1.361   3.909  10.469  0.0613 -0.6667 -0.3635
  407MPD2     H 6132   1.655   4.017  10.243 -1.5197 -0.6977 -2.3900
  407MPD2    H1 6133   1.467   3.982  10.629 -2.9912 -1.9697 -0.2713
  407MPD2    H2 6134   1.263   3.869  10.290  0.8602 -1.7471  0.8189
  407MPD2    H3 6135   1.274   3.893  10.531  0.3500 -2.8789 -0.5509
  407MPD2     N 6136   1.685   4.071  10.507 -0.2282 -0.1335  0.1804
  407MPD2    H5 6137   1.684   4.069  10.608  0.4019  1.1662  0.2099
  407MPD2    N1 6138   1.472   3.898  10.107  0.2453 -0.3693 -0.1388
  407MPD2    H7 6139   1.545   3.943  10.053  0.7983 -1.1726 -0.0694
  408TMC3    C1 6140   1.418   3.781   9.912  0.0437 -0.5423  0.8458
  408TMC3    C2 6141   1.464   3.882   9.834  0.5302 -0.0799 -0.1954
  408TMC3    C3 6142   1.475   3.858   9.700 -0.1066 -0.0622  0.0766
  408TMC3    C4 6143   1.394   3.655   9.870  1.0029  0.3562  0.3378
  408TMC3    C5 6144   1.397   3.628   9.733 -0.4368  0.0684  0.3879
  408TMC3    C6 6145   1.447   3.725   9.650  0.9720 -0.3492 -0.1280
  408TMC3     C 6146   1.395   3.802  10.050  0.0715 -0.9094  0.0377
  408TMC3     O 6147   1.325   3.718  10.110 -0.1002  0.4338 -0.0727
  408TMC3     H 6148   1.478   3.982   9.874 -0.2913  0.1123 -0.3823
  408TMC3    H1 6149   1.358   3.578   9.937  0.1526 -0.0942 -0.6159
  408TMC3    H2 6150   1.480   3.697   9.550 -0.6012 -1.5928 -0.3195
  408TMC3    C7 6151   1.373   3.495   9.677  0.0060  0.2730 -0.3055
  408TMC3    C8 6152   1.552   3.942   9.607  0.1248  0.3616 -0.4651
  408TMC3    O1 6153   1.399   3.467   9.560  0.3565  0.1138 -0.3297
  408TMC3    O2 6154   1.544   3.906   9.489  0.0214  1.2344  0.0100
  409MPD2     C 6155   0.370   3.675  17.263  0.5078 -0.9944 -0.3628
  409MPD2    C1 6156   0.476   3.665  17.351  0.0606  0.4814 -0.2407
  409MPD2    C2 6157   0.579   3.764  17.351 -0.5430  0.3168 -0.1901
  409MPD2    C3 6158   0.578   3.869  17.266 -0.2363 -0.3992 -0.0702
  409MPD2    C4 6159   0.479   3.871  17.173  0.0828 -0.5714 -0.7664
  409MPD2    C5 6160   0.371   3.780  17.174 -0.0696  0.5782 -0.3798
  409MPD2     H 6161   0.663   3.746  17.417  0.1574  1.8454 -0.6835
  409MPD2    H1 6162   0.479   3.945  17.095  2.8251 -0.1138 -0.3213
  409MPD2    H2 6163   0.289   3.604  17.263 -0.4182  0.0352  2.1707
  409MPD2    H3 6164   0.298   3.776  17.094  0.2886 -2.0517 -0.5875
  409MPD2     N 6165   0.687   3.955  17.257  0.2410 -0.2867  0.3527
  409MPD2    H5 6166   0.681   4.006  17.170 -0.0907 -1.5291 -0.3434
  409MPD2    N1 6167   0.509   3.547  17.417 -0.3326  0.2137  0.4872
  409MPD2    H7 6168   0.588   3.557  17.479  1.0739  1.2252 -1.4586
  410TMC3    C1 6169   0.916   4.022  17.269  0.5573 -0.5290  0.3592
  410TMC3    C2 6170   1.039   4.024  17.320 -0.4994  0.3421 -0.4797
  410TMC3    C3 6171   1.137   4.090  17.256 -0.1923  0.0229  0.4197
  410TMC3    C4 6172   0.886   4.097  17.161 -0.0593  0.8580 -0.1136
  410TMC3    C5 6173   0.979   4.165  17.096 -0.2827  0.0173 -0.1069
  410TMC3    C6 6174   1.108   4.162  17.146 -0.8302 -0.0521 -0.2387
  410TMC3     C 6175   0.796   3.964  17.345  0.1420 -0.2777  0.3832
  410TMC3     O 6176   0.816   3.922  17.457  0.1106  0.0620  0.7046
  410TMC3     H 6177   1.055   3.962  17.408  2.8187  3.1844  0.9137
  410TMC3    H1 6178   0.787   4.107  17.120  0.3296  0.4914 -1.1548
  410TMC3    H2 6179   1.187   4.208  17.088 -1.6804  0.8355 -0.6927
  410TMC3    C7 6180   0.951   4.199  16.960 -0.3718  0.1822 -0.4286
  410TMC3    C8 6181   1.266   4.119  17.322 -0.0815 -0.6589  0.0527
  410TMC3    O1 6182   0.870   4.121  16.907  0.8475 -0.2694 -0.2779
  410TMC3    O2 6183   1.330   4.215  17.279 -0.3491  0.3518  0.2775
  411MPD2     C 6184   1.149   4.420  14.416 -0.2549  0.1125  0.3860
  411MPD2    C1 6185   1.073   4.436  14.529 -0.0465  0.7254  1.1506
  411MPD2    C2 6186   0.991   4.330  14.561  1.0183 -0.7128 -0.6334
  411MPD2    C3 6187   0.987   4.211  14.481 -0.0213  0.2673  0.0534
  411MPD2    C4 6188   1.057   4.203  14.363 -0.2404 -0.2398  0.3666
  411MPD2    C5 6189   1.127   4.319  14.336  0.5965  0.5150 -0.2945
  411MPD2     H 6190   0.935   4.330  14.653 -0.1129  1.5613 -1.3141
  411MPD2    H1 6191   1.050   4.120  14.294 -0.8920  0.0840  0.0401
  411MPD2    H2 6192   1.214   4.502  14.386  0.8995 -0.9518 -0.0442
  411MPD2    H3 6193   1.175   4.315  14.239 -0.9924  1.0994 -1.1094
  411MPD2     N 6194   0.907   4.098  14.519  0.5105  0.5702  0.1528
  411MPD2    H5 6195   0.915   4.017  14.457  0.4488  1.3708 -0.9017
  411MPD2    N1 6196   1.091   4.553  14.603  0.2607  0.0966 -0.6330
  411MPD2    H7 6197   1.132   4.631  14.552 -2.3598  0.6664 -1.8998
  412TMC3    C1 6198   0.744   3.973  14.608 -0.2334  0.5199  0.0794
  412TMC3    C2 6199   0.608   3.995  14.597  0.0646  0.0189 -0.4543
  412TMC3    C3 6200   0.528   3.913  14.532  0.0516 -0.2533 -0.0195
  412TMC3    C4 6201   0.797   3.872  14.529 -0.3771 -0.3853  0.1884
  412TMC3    C5 6202   0.721   3.813  14.434 -0.5821  0.0576  0.8681
  412TMC3    C6 6203   0.584   3.827  14.439  0.1021  0.4702 -0.0856
  412TMC3     C 6204   0.816   4.091  14.618  0.7440  0.3264  0.0365
  412TMC3     O 6205   0.768   4.178  14.686 -1.1413  0.0290  0.3534
  412TMC3     H 6206   0.554   4.080  14.637  1.8178  0.2169  1.4866
  412TMC3    H1 6207   0.901   3.852  14.555 -0.0397 -1.0856 -1.7207
  412TMC3    H2 6208   0.525   3.757  14.381 -0.1561  0.3418  0.3310
  412TMC3    C7 6209   0.788   3.844  14.312  0.0240  0.3223 -0.0877
  412TMC3    C8 6210   0.397   3.966  14.492  0.1557  0.1611 -0.2192
  412TMC3    O1 6211   0.912   3.839  14.304 -0.0530 -0.2714 -0.0252
  412TMC3    O2 6212   0.387   4.088  14.486  0.3770  0.7712 -0.4325
  413MPD2     C 6213   2.313   2.775  15.577  0.9021 -0.1400 -1.0800
  413MPD2    C1 6214   2.280   2.697  15.463  0.0877  0.0346 -0.1759
  413MPD2    C2 6215   2.362   2.587  15.427 -0.2672 -0.2747  0.1107
  413MPD2    C3 6216   2.457   2.546  15.509 -0.1978  0.6975 -0.3400
  413MPD2    C4 6217   2.502   2.629  15.608  0.0271 -0.9238 -0.1454
  413MPD2    C5 6218   2.429   2.738  15.646 -0.3896  0.8790 -0.3140
  413MPD2     H 6219   2.332   2.534  15.337  1.4015 -0.1504 -0.5177
  413MPD2    H1 6220   2.595   2.608  15.660 -0.3681  1.9303  1.7763
  413MPD2    H2 6221   2.261   2.862  15.618  1.9734 -0.3317  0.6983
  413MPD2    H3 6222   2.462   2.786  15.737 -1.4156 -0.5342  0.8264
  413MPD2     N 6223   2.520   2.427  15.479  0.5496  0.4042  0.2392
  413MPD2    H5 6224   2.506   2.395  15.384  1.8246 -0.1415  0.2338
  413MPD2    N1 6225   2.171   2.729  15.383 -0.3878 -0.1555 -0.5621
  413MPD2    H7 6226   2.167   2.687  15.291  0.6451 -1.4063 -0.0536
  414TMC3    C1 6227   2.657   2.227  15.517  0.2682 -0.3611 -0.1776
  414TMC3    C2 6228   2.735   2.150  15.602  0.5325 -0.4509 -0.0454
  414TMC3    C3 6229   2.820   2.054  15.547  0.4105  0.2760  0.4565
  414TMC3    C4 6230   2.674   2.211  15.379  0.4934 -0.6467 -0.2128
  414TMC3    C5 6231   2.767   2.121  15.330  0.3463 -0.4357 -0.0601
  414TMC3    C6 6232   2.843   2.042  15.410 -0.0867 -0.2421  0.1776
  414TMC3     C 6233   2.597   2.355  15.567 -0.6758  0.3331 -0.1353
  414TMC3     O 6234   2.608   2.373  15.688 -0.0046  0.1481 -0.2671
  414TMC3     H 6235   2.725   2.161  15.710 -0.7252  0.6214 -0.2762
  414TMC3    H1 6236   2.633   2.281  15.307  2.7456  0.4008 -0.4731
  414TMC3    H2 6237   2.916   1.967  15.382 -0.0633  0.2646 -1.1424
  414TMC3    C7 6238   2.816   2.154  15.198  0.1061  0.0295  0.0349
  414TMC3    C8 6239   2.895   1.957  15.628  0.0006 -0.0588  0.3049
  414TMC3    O1 6240   2.736   2.197  15.115  0.3165  0.3994  0.1216
  414TMC3    O2 6241   3.006   1.928  15.596  0.3540  0.4043  0.0531
  415TMC3    C1 6242   3.760   0.677   9.914 -0.5342  0.1820 -0.2993
  415TMC3    C2 6243   3.882   0.711   9.967 -0.9589 -0.7979  0.4980
  415TMC3    C3 6244   3.986   0.637   9.926 -0.3343  0.2259 -0.6705
  415TMC3    C4 6245   3.735   0.564   9.846  0.1099 -0.4066  0.1370
  415TMC3    C5 6246   3.837   0.483   9.832 -0.4263  0.1471 -0.7369
  415TMC3    C6 6247   3.968   0.521   9.866  1.6659  0.0230 -0.0619
  415TMC3     C 6248   3.646   0.766   9.928 -0.5220 -0.0021 -0.1548
  415TMC3     O 6249   3.539   0.713   9.936  0.3397  0.6563 -0.3351
  415TMC3     H 6250   3.896   0.791  10.040  1.8983 -1.3375  0.5276
  415TMC3    H1 6251   3.636   0.522   9.831 -1.1094  0.8774  4.5420
  415TMC3    H2 6252   4.053   0.457   9.847  0.3375 -1.4986 -0.8692
  415TMC3    C7 6253   3.828   0.375   9.736 -0.6284  0.1144  0.1195
  415TMC3    C8 6254   4.116   0.662   9.988  0.1447  0.3157 -0.4499
  415TMC3    O1 6255   3.932   0.318   9.706 -0.1129  0.5312 -0.2599
  415TMC3    O2 6256   4.200   0.574   9.997 -0.3031  0.1013  0.3406
  416MPD2     C 6257   4.567   4.291  11.190  0.6293  0.1526 -0.2173
  416MPD2    C1 6258   4.535   4.217  11.302 -0.1046 -0.3321 -0.3933
  416MPD2    C2 6259   4.592   4.092  11.314  0.7871 -0.2127  0.4216
  416MPD2    C3 6260   4.674   4.035  11.216  0.4009 -0.8840 -0.5697
  416MPD2    C4 6261   4.701   4.107  11.100  0.1902 -0.2394 -0.5390
  416MPD2    C5 6262   4.653   4.233  11.101 -0.4393  0.1215 -0.1847
  416MPD2     H 6263   4.561   4.033  11.399 -1.7321  0.4583 -0.0300
  416MPD2    H1 6264   0.041   4.073  11.028  2.0760  0.8418  0.9121
  416MPD2    H2 6265   4.545   4.396  11.173  0.4757  0.2542  0.6123
  416MPD2    H3 6266   4.690   4.301  11.026  0.5250 -0.7158 -0.4551
  416MPD2     N 6267   4.730   3.905  11.231 -0.2816  0.0331  0.5231
  416MPD2    H5 6268   4.717   3.867  11.324 -2.4829 -3.4713 -1.2124
  416MPD2    N1 6269   4.443   4.268  11.397 -0.0884 -0.0597  0.0481
  416MPD2    H7 6270   4.415   4.364  11.381 -2.0528 -0.9883 -2.2107
  417TMC3    C1 6271   4.274   4.280  11.550  0.4703  0.4063 -0.8452
  417TMC3    C2 6272   4.252   4.252  11.680 -0.4626  0.5935 -0.8441
  417TMC3    C3 6273   4.177   4.347  11.750 -0.2013 -0.1780  0.2786
  417TMC3    C4 6274   4.227   4.391  11.485  0.8053 -0.7890  0.1868
  417TMC3    C5 6275   4.149   4.476  11.561  1.0138  0.3597 -0.3839
  417TMC3    C6 6276   4.122   4.462  11.690  0.9437  0.4572  0.1083
  417TMC3     C 6277   4.369   4.198  11.488  0.1108 -0.7075  0.4362
  417TMC3     O 6278   4.371   4.081  11.524  1.0564  0.0595  0.1903
  417TMC3     H 6279   4.273   4.155  11.722  1.7222  1.4287 -0.0119
  417TMC3    H1 6280   4.246   4.420  11.382 -1.5424 -2.2733 -0.6785
  417TMC3    H2 6281   4.073   4.536  11.750 -0.3943  0.5065 -1.0391
  417TMC3    C7 6282   4.143   4.611  11.516 -0.0559 -0.6435  0.8497
  417TMC3    C8 6283   4.167   4.338  11.893  0.4512 -0.1806  0.8994
  417TMC3    O1 6284   4.140   4.699  11.602  0.1523 -0.2934 -0.1804
  417TMC3    O2 6285   4.130   4.440  11.943  0.3896 -0.5462  0.0241
  418TMC3    C1 6286   3.986   1.132   0.370 -0.8214 -0.4939 -0.6192
  418TMC3    C2 6287   3.877   1.182   0.303  0.6039 -0.3793 -0.4139
  418TMC3    C3 6288   3.777   1.244   0.369 -0.0693 -0.1857  0.2323
  418TMC3    C4 6289   3.991   1.137   0.508 -0.5629  0.0960  0.0356
  418TMC3    C5 6290   3.886   1.196   0.574  0.4302 -0.1912 -0.1517
  418TMC3    C6 6291   3.779   1.256   0.505 -0.1797 -0.3572 -0.0940
  418TMC3     C 6292   4.103   1.094   0.290 -0.3867 -0.1162 -0.0986
  418TMC3     O 6293   4.105   1.135   0.174 -0.8546  0.0025  0.8902
  418TMC3     H 6294   3.867   1.174   0.195  0.0097  2.5377 -0.5874
  418TMC3    H1 6295   4.077   1.104   0.564 -1.4609 -0.0267  1.3410
  418TMC3    H2 6296   3.694   1.299   0.556  0.4073  2.6346 -1.6543
  418TMC3    C7 6297   3.847   1.121   0.691 -0.2872  0.1985 -0.0239
  418TMC3    C8 6298   3.645   1.248   0.308 -0.6117  0.4602  0.0715
  418TMC3    O1 6299   3.893   1.007   0.704 -0.1070 -0.1910 -0.7182
  418TMC3    O2 6300   3.578   1.350   0.308  0.7711  0.4728 -0.2108
  419MPD2     C 6301   2.027   4.135  12.094 -0.1536 -0.2082  0.8438
  419MPD2    C1 6302   2.065   4.268  12.089  0.2164 -0.0106  0.0706
  419MPD2    C2 6303   2.108   4.326  12.206 -0.0573 -0.1058  0.1459
  419MPD2    C3 6304   2.123   4.246  12.319 -0.7256 -0.4068 -0.0975
  419MPD2    C4 6305   2.095   4.108  12.315  0.0575 -1.1064  0.2164
  419MPD2    C5 6306   2.041   4.055  12.201 -0.3621  0.5081 -0.6791
  419MPD2     H 6307   2.126   4.432  12.198  0.0238  0.0081  1.8028
  419MPD2    H1 6308   2.122   4.035  12.390  0.6779 -1.6045 -0.4866
  419MPD2    H2 6309   1.978   4.085  12.011 -0.4646  2.5087 -0.6290
  419MPD2    H3 6310   2.013   3.951  12.188 -2.1718  0.8097  0.8282
  419MPD2     N 6311   2.154   4.323  12.434 -0.0883  0.1309  0.0142
  419MPD2    H5 6312   2.156   4.422  12.411 -0.4039 -0.2466 -1.6729
  419MPD2    N1 6313   2.058   4.339  11.968  0.0707 -0.1509  0.0876
  419MPD2    H7 6314   2.080   4.437  11.976 -1.1443  0.1659 -0.5387
  420TMC3    C1 6315   2.207   4.373  12.662 -0.0454  0.7004  0.1555
  420TMC3    C2 6316   2.161   4.500  12.635  0.6145 -0.1643  0.1857
  420TMC3    C3 6317   2.172   4.591  12.738  0.0386  0.5351 -0.9489
  420TMC3    C4 6318   2.259   4.333  12.781  0.0925  0.4565 -0.5069
  420TMC3    C5 6319   2.264   4.429  12.879  0.4469 -0.7728 -0.4034
  420TMC3    C6 6320   2.216   4.556  12.863  0.5340  0.4785 -1.0489
  420TMC3     C 6321   2.188   4.273  12.557 -0.2953  0.5482 -0.1038
  420TMC3     O 6322   2.199   4.156  12.586  0.0645 -0.5687  0.2147
  420TMC3     H 6323   2.140   4.535  12.535 -1.6487  1.3223  1.1723
  420TMC3    H1 6324   2.298   4.234  12.801 -1.1654  0.3616  1.5473
  420TMC3    H2 6325   2.217   4.626  12.945 -2.5843 -1.8083  0.9550
  420TMC3    C7 6326   2.356   4.394  12.987 -0.1756  0.4541  0.0850
  420TMC3    C8 6327   2.148   4.730  12.693  0.1440 -0.1177 -0.6361
  420TMC3    O1 6328   2.459   4.340  12.951  0.1725  0.4973 -0.1661
  420TMC3    O2 6329   2.185   0.031  12.582 -0.1366  1.1128  0.1137
  421TMC3    C1 6330   3.660   0.670  13.776 -0.6528 -0.2377 -0.1639
  421TMC3    C2 6331   3.691   0.803  13.753  0.8926  0.4269 -0.2643
  421TMC3    C3 6332   3.813   0.852  13.804 -0.4278 -0.1699  0.0267
  421TMC3    C4 6333   3.716   0.597  13.877 -0.0861 -0.4623  0.2638
  421TMC3    C5 6334   3.833   0.651  13.931 -0.1760 -0.9272 -0.1622
  421TMC3    C6 6335   3.883   0.776  13.892 -0.3283  1.1598 -0.2395
  421TMC3     C 6336   3.635   0.584  13.663  0.1033  0.2430 -0.6474
  421TMC3     O 6337   3.711   0.490  13.639 -0.1573  0.1495 -0.7926
  421TMC3     H 6338   3.646   0.857  13.670  2.0545  1.0250 -0.5185
  421TMC3    H1 6339   3.674   0.498  13.890  0.9930 -1.1296 -1.4940
  421TMC3    H2 6340   3.985   0.800  13.920  0.2917 -1.4190 -0.3073
  421TMC3    C7 6341   3.912   0.567  14.016 -0.0728  0.7876 -0.3212
  421TMC3    C8 6342   3.840   1.000  13.797  0.3723 -0.9192 -0.6674
  421TMC3    O1 6343   4.027   0.602  14.041 -0.0489 -0.1247  0.8165
  421TMC3    O2 6344   3.738   1.070  13.807  0.6618  0.0088 -0.0006
  422TMC3    C1 6345   0.998   2.634  12.652 -0.2776 -0.0782 -0.6684
  422TMC3    C2 6346   1.026   2.770  12.643 -0.0359 -0.1632  0.0125
  422TMC3    C3 6347   0.926   2.859  12.618  0.2075  0.2029  0.0419
  422TMC3    C4 6348   0.862   2.599  12.654  0.1077  0.0730 -0.1244
  422TMC3    C5 6349   0.765   2.690  12.636  0.7072 -0.5308 -1.0110
  422TMC3    C6 6350   0.797   2.821  12.613  0.0338  0.1626 -0.4864
  422TMC3     C 6351   1.085   2.550  12.569 -0.0852  0.3571  0.1680
  422TMC3     O 6352   1.144   2.605  12.474 -0.5767  0.4188 -0.0435
  422TMC3     H 6353   1.133   2.784  12.629 -0.1464  0.6483 -0.0329
  422TMC3    H1 6354   0.836   2.494  12.656 -1.8000  0.4676 -3.6856
  422TMC3    H2 6355   0.712   2.882  12.583 -0.0407 -1.2597 -3.1009
  422TMC3    C7 6356   0.634   2.640  12.589 -0.0737 -0.4235 -0.2042
  422TMC3    C8 6357   0.968   2.994  12.592 -0.0890  0.2601 -0.2103
  422TMC3    O1 6358   0.570   2.706  12.510  0.0996 -0.3813  0.0549
  422TMC3    O2 6359   1.085   3.012  12.620 -0.1927 -0.3636 -0.5284
  423MPD2     C 6360   2.077   2.988   0.607 -0.2332 -0.4350 -0.0466
  423MPD2    C1 6361   2.066   2.851   0.602  0.4779  0.2110 -0.7192
  423MPD2    C2 6362   2.108   2.780   0.492  0.3740  0.2145 -0.2875
  423MPD2    C3 6363   2.176   2.836   0.385  0.3303 -0.2459  0.5321
  423MPD2    C4 6364   2.180   2.975   0.383  0.4562  0.0606  0.2110
  423MPD2    C5 6365   2.126   3.044   0.493  0.5488  0.2992 -0.2847
  423MPD2     H 6366   2.087   2.674   0.496  0.7854  0.1959  1.2921
  423MPD2    H1 6367   2.206   3.028   0.292  1.9428 -1.5338 -0.2875
  423MPD2    H2 6368   2.033   3.044   0.688  0.1454  1.8592 -1.4503
  423MPD2    H3 6369   2.119   3.151   0.476  0.6847  0.4918  0.8884
  423MPD2     N 6370   2.220   2.757   0.276  0.4974 -0.4554  0.1478
  423MPD2    H5 6371   2.232   2.806   0.188  0.5774 -0.5063  0.1296
  423MPD2    N1 6372   2.016   2.770   0.711  0.1815  0.1784 -0.3419
  423MPD2    H7 6373   2.000   2.671   0.698  0.2149  0.1568 -0.2155
  424TMC3    C1 6374   1.922   2.729   0.916 -0.5767 -0.7264 -0.3246
  424TMC3    C2 6375   1.955   2.595   0.906  0.0572  0.9444 -0.1553
  424TMC3    C3 6376   1.873   2.502   0.963  0.2820 -0.4159 -0.7540
  424TMC3    C4 6377   1.823   2.774   1.004 -0.4398  0.3343  0.1465
  424TMC3    C5 6378   1.745   2.676   1.065  0.3441 -1.1613 -0.4424
  424TMC3    C6 6379   1.769   2.541   1.043  0.3476  0.3982  0.1899
  424TMC3     C 6380   1.980   2.826   0.834 -0.5480  0.2284 -0.6696
  424TMC3     O 6381   1.979   2.943   0.878  0.1593  0.2419  1.0562
  424TMC3     H 6382   2.039   2.565   0.844  0.5901 -1.5268  1.7272
  424TMC3    H1 6383   1.817   2.880   1.028  0.4258  0.5568 -0.6200
  424TMC3    H2 6384   1.702   2.471   1.090  1.5263  0.2676  1.6651
  424TMC3    C7 6385   1.675   2.702   1.189 -0.2756  0.2902 -0.0634
  424TMC3    C8 6386   1.938   2.376   1.002 -0.2513  0.2339  0.4548
  424TMC3    O1 6387   1.649   2.609   1.270  0.6090 -0.4738  0.1660
  424TMC3    O2 6388   2.014   2.323   0.924  0.7336  0.0625 -0.3527
  425MPD2     C 6389   1.462   2.521  17.534 -0.5324  0.5823  0.3511
  425MPD2    C1 6390   1.445   2.432  17.426 -0.5285  0.1504  0.2336
  425MPD2    C2 6391   1.324   2.421  17.364  0.3739 -0.0012  0.1127
  425MPD2    C3 6392   1.214   2.480  17.423 -0.3568  0.2703  0.3246
  425MPD2    C4 6393   1.230   2.555  17.539 -0.9444  0.1743  0.2174
  425MPD2    C5 6394   1.350   2.575  17.593 -0.5603 -0.5305 -0.6206
  425MPD2     H 6395   1.313   2.357  17.278  2.0793  1.9404 -1.5398
  425MPD2    H1 6396   1.144   2.600  17.588 -0.1773  1.7255  0.1580
  425MPD2    H2 6397   1.560   2.541  17.575  0.2095  0.5222 -1.3656
  425MPD2    H3 6398   1.358   2.645  17.676  0.7265 -0.6876 -0.6155
  425MPD2     N 6399   1.077   2.453  17.382  0.5405 -0.7149 -0.0879
  425MPD2    H5 6400   0.999   2.488  17.437 -0.0559  0.1891 -1.5305
  425MPD2    N1 6401   1.556   2.368  17.375 -0.2323  0.1175  0.2793
  425MPD2    H7 6402   1.624   2.344  17.446 -0.6122 -0.9973  0.2592
  426TMC3    C1 6403   1.581   2.163  17.283 -0.0660  0.3866 -0.4785
  426TMC3    C2 6404   1.548   2.089  17.175 -0.5064  0.5909 -0.5916
  426TMC3    C3 6405   1.526   1.954  17.198  0.1022  0.6170 -0.1982
  426TMC3    C4 6406   1.587   2.120  17.411 -0.7502 -0.8433  0.9337
  426TMC3    C5 6407   1.573   1.987  17.427  0.4445 -0.2488  0.6400
  426TMC3    C6 6408   1.545   1.905  17.326 -0.3322  0.1521 -1.0206
  426TMC3     C 6409   1.558   2.300  17.252 -1.3128 -0.1578 -0.2271
  426TMC3     O 6410   1.507   2.336  17.148  0.5997 -0.4388 -0.5006
  426TMC3     H 6411   1.531   2.130  17.076  3.0040  0.3977 -1.2508
  426TMC3    H1 6412   1.590   2.177  17.504  2.2338 -1.2077  1.0731
  426TMC3    H2 6413   1.513   1.804  17.349 -0.3725  0.4866  0.3901
  426TMC3    C7 6414   1.540   1.953  17.561  0.1429  0.4988 -0.0216
  426TMC3    C8 6415   1.501   1.862  17.094 -0.0163  0.2165  0.3773
  426TMC3    O1 6416   1.599   1.859  17.611 -0.1244  0.1989 -0.0559
  426TMC3    O2 6417   1.539   1.745  17.111  0.1444  0.3478 -0.0289
  427MPD2     C 6418   0.082   4.409  14.946  0.3641 -0.3888 -0.0008
  427MPD2    C1 6419   0.050   4.421  15.076  0.0201 -0.1861 -0.0074
  427MPD2    C2 6420   4.649   4.427  15.110 -0.6339  0.2686  0.1436
  427MPD2    C3 6421   4.552   4.412  15.010 -0.3913 -0.3120 -0.5585
  427MPD2    C4 6422   4.590   4.395  14.875 -0.3995  0.6397 -0.2015
  427MPD2    C5 6423   4.721   4.394  14.848  0.5244  0.8214 -0.2497
  427MPD2     H 6424   4.626   4.435  15.216 -0.2504 -1.1196  0.3303
  427MPD2    H1 6425   4.514   4.373  14.800  0.6112 -1.0188 -0.7330
  427MPD2    H2 6426   0.181   4.408  14.903  0.2734  2.3790 -0.2830
  427MPD2    H3 6427   0.015   4.375  14.745  2.7980  0.2637  0.4790
  427MPD2     N 6428   4.410   4.420  15.029  0.3793  0.1848  0.1076
  427MPD2    H5 6429   4.354   4.406  14.946  1.8998 -0.4298 -0.8002
  427MPD2    N1 6430   0.149   4.436  15.178 -0.0086 -0.1896 -0.0999
  427MPD2    H7 6431   0.106   4.461  15.267  1.3940 -0.8884  0.7775
  428TMC3    C1 6432   0.357   4.386  15.291 -0.0467  0.3306 -0.3587
  428TMC3    C2 6433   0.285   4.311  15.380 -0.3103  0.1256  0.1346
  428TMC3    C3 6434   0.352   4.281  15.498  0.0627 -0.3430  0.2616
  428TMC3    C4 6435   0.487   4.423  15.310  0.4366 -0.0214 -0.2254
  428TMC3    C5 6436   0.550   4.396  15.433 -0.0188 -0.1117  0.0839
  428TMC3    C6 6437   0.479   4.332  15.529 -0.5077 -0.2667 -0.3150
  428TMC3     C 6438   0.284   4.418  15.167  0.4464  0.5599 -0.2941
  428TMC3     O 6439   0.354   4.411  15.068 -0.1574  0.0316 -0.0358
  428TMC3     H 6440   0.203   4.249  15.346 -0.2246  0.4834 -0.7146
  428TMC3    H1 6441   0.529   4.493  15.239 -0.7240  0.6799 -0.2221
  428TMC3    H2 6442   0.530   4.314  15.623  0.2229  0.5414 -0.5562
  428TMC3    C7 6443   0.676   4.453  15.470 -0.6023 -0.7632 -0.5979
  428TMC3    C8 6444   0.315   4.164  15.571  0.0927  0.0979 -0.7681
  428TMC3    O1 6445   0.686   4.473  15.591 -0.1129  0.3325 -0.9231
  428TMC3    O2 6446   0.410   4.107  15.622  0.0945 -0.5396  0.0749
  429MPD2     C 6447   0.793   4.597   0.024  0.4177  0.1590  0.1379
  429MPD2    C1 6448   0.907   4.531   0.061  0.3847  0.1659  0.1292
  429MPD2    C2 6449   1.024   4.596   0.040 -0.9836 -0.3392  0.7991
  429MPD2    C3 6450   1.035   4.723  17.702  0.6395 -0.3180 -0.9685
  429MPD2    C4 6451   0.920   0.043  17.655  0.6371  0.0497 -0.5168
  429MPD2    C5 6452   0.800   4.717  17.689  0.0279  0.3498 -1.0615
  429MPD2     H 6453   1.114   4.560   0.089 -0.2837  0.3269  0.0099
  429MPD2    H1 6454   0.922   0.138  17.602 -0.7074 -0.8815 -2.2514
  429MPD2    H2 6455   0.694   4.554   0.036  0.1685  0.2685 -1.5016
  429MPD2    H3 6456   0.717   0.033  17.641 -1.6168 -2.2808 -0.9687
  429MPD2     N 6457   1.163   0.034  17.672 -0.6235  0.2319  0.6010
  429MPD2    H5 6458   1.241   4.706  17.694 -0.3652  0.1504 -0.5337
  429MPD2    N1 6459   0.908   4.404   0.122  0.5754  0.1465  0.1211
  429MPD2    H7 6460   0.995   4.374   0.163  0.7604 -0.0490 -0.4130
  430TMC3    C1 6461   1.339   0.133  17.552 -0.0413 -0.0450  0.4451
  430TMC3    C2 6462   1.416   0.247  17.552 -0.2891  0.0407  0.1607
  430TMC3    C3 6463   1.519   0.262  17.462  0.2208  0.0923  0.6763
  430TMC3    C4 6464   1.373   0.030  17.466 -0.4181 -0.2202  0.0091
  430TMC3    C5 6465   1.470   0.049  17.372  0.2309  0.0106 -0.4667
  430TMC3    C6 6466   1.558   0.155  17.383  0.6379 -0.2581 -0.3815
  430TMC3     C 6467   1.201   0.145  17.596 -0.0260 -0.1376  0.2940
  430TMC3     O 6468   1.128   0.223  17.536 -0.1539  0.7595 -0.0645
  430TMC3     H 6469   1.370   0.336  17.594 -0.6002  1.1227 -2.4683
  430TMC3    H1 6470   1.300   4.686  17.453  1.8811 -2.1656 -1.3188
  430TMC3    H2 6471   1.645   0.166  17.319  0.9478  1.5483  0.3641
  430TMC3    C7 6472   1.520   4.650  17.333 -0.6109  0.3657  0.0807
  430TMC3    C8 6473   1.505   0.394  17.398  1.1105 -0.4571  0.7936
  430TMC3    O1 6474   1.460   4.552  17.363  0.0229  0.6482  0.3912
  430TMC3    O2 6475   1.450   0.487  17.455  0.2498  0.4380  0.7749
  431MPD2     C 6476   2.510   0.360  11.981 -0.0057  0.7084 -0.4188
  431MPD2    C1 6477   2.439   0.277  12.069  0.5685  0.1619  0.4006
  431MPD2    C2 6478   2.389   0.156  12.026 -0.5046  0.2595 -0.2363
  431MPD2    C3 6479   2.402   0.113  11.895 -0.0543  0.1331  0.4028
  431MPD2    C4 6480   2.471   0.192  11.808 -0.2709  0.1169 -0.0426
  431MPD2    C5 6481   2.520   0.318  11.852 -1.0452  1.0737  0.3354
  431MPD2     H 6482   2.339   0.092  12.098 -2.0864  1.6541 -0.1042
  431MPD2    H1 6483   2.480   0.172  11.702 -2.2781  3.6582 -0.8446
  431MPD2    H2 6484   2.543   0.457  12.016 -1.2573  0.5111  1.3079
  431MPD2    H3 6485   2.570   0.385  11.784  0.7834 -0.3827  0.2428
  431MPD2     N 6486   2.336   4.720  11.865 -0.1677 -0.3880 -0.0646
  431MPD2    H5 6487   2.266   4.693  11.933  0.0733  0.2923  0.4467
  431MPD2    N1 6488   2.429   0.319  12.207 -0.3678  0.2133  0.3192
  431MPD2    H7 6489   2.466   0.413  12.214  0.6608 -0.3650  2.7565
  432TMC3    C1 6490   2.284   4.540  11.709 -0.5924  0.2738 -0.0711
  432TMC3    C2 6491   2.291   4.499  11.578 -0.5085 -0.7385  0.2851
  432TMC3    C3 6492   2.221   4.395  11.535 -0.1977  0.4102  0.1001
  432TMC3    C4 6493   2.200   4.475  11.793  0.2465 -0.2634  0.5083
  432TMC3    C5 6494   2.129   4.368  11.743  0.2877 -0.0261 -0.0404
  432TMC3    C6 6495   2.130   4.329  11.611 -0.1378 -0.2940 -0.9528
  432TMC3     C 6496   2.371   4.646  11.750 -0.1044  0.6459  0.1723
  432TMC3     O 6497   2.468   4.665  11.679 -0.3593 -0.0253 -0.1717
  432TMC3     H 6498   2.359   4.547  11.509  1.0225 -2.0582  0.8819
  432TMC3    H1 6499   2.182   4.529  11.885 -1.0792 -0.6161  0.4558
  432TMC3    H2 6500   2.078   4.240  11.579 -0.1292 -0.5847 -0.1495
  432TMC3    C7 6501   2.044   4.293  11.838 -0.2268  0.3190 -1.0854
  432TMC3    C8 6502   2.304   4.306  11.458  0.4856  0.0965  0.4063
  432TMC3    O1 6503   2.001   4.182  11.802  0.4639 -0.1569 -0.1894
  432TMC3    O2 6504   2.248   4.204  11.422 -0.2143 -0.5877  0.1645
  433MPD2     C 6505   1.174   3.756  10.778  0.6631  0.0617  0.2812
  433MPD2    C1 6506   1.211   3.623  10.816  0.4889  0.0467 -0.0135
  433MPD2    C2 6507   1.221   3.604  10.956  0.4034  0.5824 -0.0666
  433MPD2    C3 6508   1.188   3.704  11.050 -0.8970  0.0366 -0.0904
  433MPD2    C4 6509   1.157   3.832  11.008  0.5079 -0.4722  0.5546
  433MPD2    C5 6510   1.158   3.854  10.866 -0.3825 -0.3968  0.5629
  433MPD2     H 6511   1.229   3.506  11.002 -0.7545  0.6598  0.3151
  433MPD2    H1 6512   1.149   3.920  11.072 -0.1690 -0.0559 -0.1006
  433MPD2    H2 6513   1.180   3.776  10.671  1.0151 -1.5825 -0.0068
  433MPD2    H3 6514   1.133   3.951  10.824 -3.2030  0.6759  4.6733
  433MPD2     N 6515   1.213   3.670  11.187 -0.5880  0.2253  0.5787
  433MPD2    H5 6516   1.225   3.574  11.217 -2.2971 -0.5657 -1.2374
  433MPD2    N1 6517   1.251   3.529  10.719 -0.2065 -0.3094 -0.0627
  433MPD2    H7 6518   1.245   3.550  10.620 -0.0754  0.0557  0.0059
  434TMC3    C1 6519   1.331   3.323  10.654  0.6608 -0.1228  0.1630
  434TMC3    C2 6520   1.414   3.228  10.697  0.8888 -0.1877  0.0896
  434TMC3    C3 6521   1.423   3.116  10.613  0.1853 -0.2354 -0.1077
  434TMC3    C4 6522   1.259   3.313  10.537  0.7268 -0.0938  0.3013
  434TMC3    C5 6523   1.269   3.207  10.458 -0.5285 -0.5436  0.3936
  434TMC3    C6 6524   1.361   3.111  10.491  0.7987 -0.7615  0.8787
  434TMC3     C 6525   1.270   3.396  10.756 -0.4240  0.2446 -0.0158
  434TMC3     O 6526   1.250   3.338  10.860  0.2842 -0.7406 -0.2008
  434TMC3     H 6527   1.465   3.237  10.792 -1.2213 -1.2547  1.3023
  434TMC3    H1 6528   1.164   3.365  10.530 -0.1384 -1.7324 -0.0153
  434TMC3    H2 6529   1.374   3.019  10.435  0.7324  0.0129 -0.4208
  434TMC3    C7 6530   1.149   3.153  10.394 -0.5982  0.0822 -0.8821
  434TMC3    C8 6531   1.491   3.003  10.677 -0.2010  0.8293 -0.1024
  434TMC3    O1 6532   1.071   3.234  10.348 -0.0987  0.0826 -0.0864
  434TMC3    O2 6533   1.582   3.037  10.754 -0.0437 -0.2888  0.0938
  435MPD2     C 6534   2.912   3.066  15.536  0.2543  0.5042  0.0415
  435MPD2    C1 6535   2.867   3.041  15.661  0.3304  0.2656  0.2922
  435MPD2    C2 6536   2.955   2.983  15.751  0.0642 -0.6083  0.5441
  435MPD2    C3 6537   3.081   2.941  15.720 -0.7443  0.3594  0.3777
  435MPD2    C4 6538   3.122   2.949  15.590 -0.2495  0.7116 -0.1111
  435MPD2    C5 6539   3.042   3.017  15.501 -0.1282  0.1448 -1.3182
  435MPD2     H 6540   2.908   2.961  15.846  0.7558  0.7166  1.1914
  435MPD2    H1 6541   3.216   2.912  15.551 -0.0996  2.2107 -1.1723
  435MPD2    H2 6542   2.865   3.110  15.449 -0.9431  0.6984  0.7780
  435MPD2    H3 6543   3.072   3.027  15.398  5.1107  1.9911  0.3876
  435MPD2     N 6544   3.152   2.872  15.814  0.3622  0.0120  0.2369
  435MPD2    H5 6545   3.119   2.869  15.910 -0.2580  1.5446  0.0592
  435MPD2    N1 6546   2.734   3.070  15.699  0.6117  0.2311  0.0297
  435MPD2    H7 6547   2.706   3.034  15.790  1.3429 -1.5060 -0.4297
  436TMC3    C1 6548   2.364   3.037  15.852  1.3218 -0.4537 -0.3209
  436TMC3    C2 6549   2.489   3.071  15.812  0.0479 -0.2796 -0.5596
  436TMC3    C3 6550   2.508   3.121  15.685 -0.7206 -0.3653 -0.6107
  436TMC3    C4 6551   2.251   3.062  15.781 -0.0821 -0.1422  0.1966
  436TMC3    C5 6552   2.272   3.117  15.659 -0.1233 -0.2105 -0.1502
  436TMC3    C6 6553   2.397   3.150  15.608 -0.2983 -0.4835  0.1697
  436TMC3     C 6554   2.342   2.977  15.984 -0.5900  0.4847 -0.5605
  436TMC3     O 6555   2.391   2.867  15.997 -0.3289  0.3327  0.6258
  436TMC3     H 6556   2.563   3.044  15.886  2.5107  2.2232 -2.0785
  436TMC3    H1 6557   2.153   3.029  15.812  0.0292  1.7517  2.4732
  436TMC3    H2 6558   2.425   3.172  15.506 -0.1688  1.9878  0.7436
  436TMC3    C7 6559   2.160   3.147  15.568  0.5047  0.0295 -0.3030
  436TMC3    C8 6560   2.637   3.136  15.621  0.0693  0.0929 -1.0130
  436TMC3    O1 6561   2.052   3.155  15.622 -0.0739 -0.0387  0.2387
  436TMC3    O2 6562   2.655   3.195  15.515  0.4461 -0.4546  0.0183
  437TMC3    C1 6563   1.319   0.426  13.170  0.5347  0.0549  0.0599
  437TMC3    C2 6564   1.188   0.446  13.172  0.1896 -0.0872 -0.0109
  437TMC3    C3 6565   1.136   0.558  13.108  0.1177 -0.4345  0.2993
  437TMC3    C4 6566   1.414   0.510  13.117 -0.2387  0.3890  0.7431
  437TMC3    C5 6567   1.356   0.614  13.049  0.6446  0.4241  0.5360
  437TMC3    C6 6568   1.223   0.646  13.046  0.6822 -0.0054 -0.7476
  437TMC3     C 6569   1.376   0.321  13.252  0.3634  0.2924 -0.1672
  437TMC3     O 6570   1.490   0.333  13.303 -0.7147  0.3397  0.8116
  437TMC3     H 6571   1.117   0.388  13.230 -1.8131  1.6963 -0.6833
  437TMC3    H1 6572   1.516   0.475  13.114 -0.4951 -0.3640  0.9090
  437TMC3    H2 6573   1.187   0.734  12.993  0.0323 -0.0722 -0.4132
  437TMC3    C7 6574   1.443   0.689  12.959 -0.2056 -0.2272  0.4760
  437TMC3    C8 6575   1.000   0.545  13.063  0.2100 -0.3651 -0.4920
  437TMC3    O1 6576   1.392   0.775  12.888 -0.2361  0.0052 -0.1786
  437TMC3    O2 6577   0.930   0.457  13.116 -0.5287 -0.1307 -0.0923
  438MPD2     C 6578   3.874   1.018  16.794  0.8567 -0.7968  0.7045
  438MPD2    C1 6579   3.965   0.913  16.817  0.6784 -0.4518 -0.4062
  438MPD2    C2 6580   3.995   0.871  16.953 -0.1636 -0.4415 -0.5592
  438MPD2    C3 6581   3.943   0.952  17.054  0.6290  0.2611 -0.1679
  438MPD2    C4 6582   3.858   1.061  17.028  0.2756  0.3489 -0.1540
  438MPD2    C5 6583   3.814   1.084  16.902  0.2537  0.8694  0.7230
  438MPD2     H 6584   4.054   0.782  16.976 -1.1926 -0.9381  0.1445
  438MPD2    H1 6585   3.826   1.120  17.113  1.0754  1.0798 -0.3708
  438MPD2    H2 6586   3.840   1.055  16.698  2.4107  1.0656  0.8940
  438MPD2    H3 6587   3.734   1.155  16.887 -0.1629  0.2624  0.0478
  438MPD2     N 6588   3.976   0.926  17.189 -0.5278  0.3545 -0.1966
  438MPD2    H5 6589   3.931   0.980  17.262 -1.5079 -0.8819  0.1219
  438MPD2    N1 6590   4.041   0.845  16.713  0.1416 -0.1138  0.7058
  438MPD2    H7 6591   4.116   0.786  16.747  1.6898  1.1868 -0.4306
  439TMC3    C1 6592   4.117   0.782  16.493  0.1347  0.6493  0.4204
  439TMC3    C2 6593   4.085   0.766  16.364 -0.1645 -0.2751 -0.8303
  439TMC3    C3 6594   4.188   0.748  16.270  0.0735  0.0349  0.5972
  439TMC3    C4 6595   4.245   0.766  16.547  0.1002 -0.0002 -0.0050
  439TMC3    C5 6596   4.341   0.749  16.451  0.3584 -0.2596  0.0586
  439TMC3    C6 6597   4.316   0.731  16.318 -0.1147  0.1502  0.1427
  439TMC3     C 6598   4.016   0.857  16.578 -0.4266 -0.1623 -0.1656
  439TMC3     O 6599   3.923   0.903  16.516  0.5295  0.4092  0.2849
  439TMC3     H 6600   3.985   0.770  16.322 -1.7121 -1.5428  2.7073
  439TMC3    H1 6601   4.280   0.759  16.649  0.1780  2.2219  0.1318
  439TMC3    H2 6602   4.396   0.756  16.249 -2.3720  0.9403 -2.2225
  439TMC3    C7 6603   4.464   0.725  16.498  1.1052 -0.3402 -0.0571
  439TMC3    C8 6604   4.162   0.779  16.130 -0.1372  0.3692 -0.0262
  439TMC3    O1 6605   4.471   0.640  16.589 -0.3084 -0.1488 -0.7138
  439TMC3    O2 6606   4.061   0.838  16.107 -0.1386 -0.1205 -0.2929
  440MPD2     C 6607   2.598   1.357  15.018 -0.4150 -0.2573  0.3450
  440MPD2    C1 6608   2.651   1.463  15.084  0.0808  0.9936 -0.2396
  440MPD2    C2 6609   2.747   1.448  15.185 -0.0968 -0.8187 -0.3698
  440MPD2    C3 6610   2.798   1.321  15.215  0.4927  0.2947 -0.1012
  440MPD2    C4 6611   2.729   1.217  15.159 -1.1557  0.3472  0.5546
  440MPD2    C5 6612   2.630   1.229  15.065 -0.8690 -0.2536  0.3415
  440MPD2     H 6613   2.770   1.538  15.241 -0.5722 -0.4789 -0.7157
  440MPD2    H1 6614   2.753   1.113  15.178 -0.3725  0.3177 -0.6328
  440MPD2    H2 6615   2.535   1.368  14.931  1.5257 -1.5674 -1.2317
  440MPD2    H3 6616   2.594   1.137  15.020  0.3264 -1.7094  2.3736
  440MPD2     N 6617   2.890   1.293  15.314 -0.5964  0.2270 -0.0916
  440MPD2    H5 6618   2.901   1.195  15.337  1.6288  0.1113 -1.6717
  440MPD2    N1 6619   2.609   1.602  15.058  0.0020 -0.0790 -0.8399
  440MPD2    H7 6620   2.662   1.685  15.083 -0.1098 -0.0494 -0.7020
  441TMC3    C1 6621   3.056   1.329  15.486  0.5314  0.1464  0.2368
  441TMC3    C2 6622   3.076   1.406  15.597  0.5443  0.6173  0.0186
  441TMC3    C3 6623   3.139   1.343  15.703  0.4842  0.1118 -0.5487
  441TMC3    C4 6624   3.094   1.198  15.474  0.3274  0.2309 -0.0996
  441TMC3    C5 6625   3.159   1.136  15.587 -0.1987 -0.1906  0.1933
  441TMC3    C6 6626   3.177   1.210  15.711  0.1946 -0.5819 -0.1160
  441TMC3     C 6627   2.958   1.392  15.391  0.0176  0.9944 -0.6626
  441TMC3     O 6628   2.965   1.509  15.361 -0.2696 -0.3102  0.2261
  441TMC3     H 6629   3.049   1.510  15.583 -1.5667  0.0550  0.0037
  441TMC3    H1 6630   3.083   1.134  15.387 -1.4902  0.6511 -0.1856
  441TMC3    H2 6631   3.224   1.167  15.798  0.8029 -0.2520 -0.2750
  441TMC3    C7 6632   3.136   0.994  15.604  0.0279  0.0728  0.2368
  441TMC3    C8 6633   3.109   1.395  15.831 -0.5697  0.4589 -0.3008
  441TMC3    O1 6634   3.029   0.963  15.552  0.1296  0.0776 -0.4342
  441TMC3    O2 6635   3.088   1.331  15.936 -0.0331 -0.2224  0.2239
  442MPD2     C 6636   1.223   1.614  16.893 -0.0329 -0.5781  0.6551
  442MPD2    C1 6637   1.148   1.650  16.783  0.2086  0.2071 -0.0241
  442MPD2    C2 6638   1.150   1.564  16.675  0.1666  0.3767  0.3570
  442MPD2    C3 6639   1.237   1.454  16.658  0.2569 -0.3430  0.0205
  442MPD2    C4 6640   1.317   1.426  16.769  0.2805  0.1769  0.6535
  442MPD2    C5 6641   1.294   1.498  16.885 -0.3680 -0.3006  0.1756
  442MPD2     H 6642   1.097   1.590  16.584  1.7482  1.5439 -0.2274
  442MPD2    H1 6643   1.372   1.333  16.773 -1.8812 -1.1222  0.4798
  442MPD2    H2 6644   1.241   1.678  16.979 -0.7983  0.8825 -0.2597
  442MPD2    H3 6645   1.351   1.469  16.973  0.1146  0.7059  0.1935
  442MPD2     N 6646   1.246   1.373  16.538  0.2664  0.3527 -0.0347
  442MPD2    H5 6647   1.311   1.295  16.532 -2.7276 -2.0425 -1.2862
  442MPD2    N1 6648   1.068   1.767  16.784 -0.2849  1.1129  0.1110
  442MPD2    H7 6649   1.029   1.791  16.694 -1.1090 -0.6025  0.0117
  443TMC3    C1 6650   0.921   1.931  16.856  0.1171 -0.0542  0.6701
  443TMC3    C2 6651   0.906   1.991  16.733  0.0785  0.2411  0.2328
  443TMC3    C3 6652   0.794   2.057  16.716 -0.1351 -0.0391  1.2415
  443TMC3    C4 6653   0.817   1.937  16.948 -0.0800 -1.0096  0.1368
  443TMC3    C5 6654   0.705   2.007  16.924 -0.1376  0.1008  0.5347
  443TMC3    C6 6655   0.694   2.076  16.810  0.0672 -0.2555 -0.0926
  443TMC3     C 6656   1.043   1.854  16.890  0.9372 -0.3122 -0.4842
  443TMC3     O 6657   1.060   1.840  17.009 -0.0664 -0.0434 -0.6069
  443TMC3     H 6658   0.982   1.985  16.656 -2.7522  2.9235 -2.8115
  443TMC3    H1 6659   0.828   1.876  17.036 -0.9417 -0.3844  0.6831
  443TMC3    H2 6660   0.596   2.115  16.785  0.3640 -0.5886 -1.7813
  443TMC3    C7 6661   0.594   1.916  16.942  0.1178  0.2016 -0.2507
  443TMC3    C8 6662   0.752   2.043  16.576 -0.4610 -0.5109  0.5469
  443TMC3    O1 6663   0.617   1.797  16.925 -0.6109 -0.2711 -0.0212
  443TMC3    O2 6664   0.811   1.964  16.500  0.5497  0.4300  0.4351
  444MPD2     C 6665   1.429   1.224  17.094  1.5481 -0.0865  0.4659
  444MPD2    C1 6666   1.342   1.125  17.063 -0.0997  0.2779 -0.7046
  444MPD2    C2 6667   1.390   1.008  17.005  0.2603 -0.1004  0.4544
  444MPD2    C3 6668   1.526   0.992  16.976  0.6733  0.4185 -0.8325
  444MPD2    C4 6669   1.613   1.092  17.014 -0.7997 -0.1465 -0.3667
  444MPD2    C5 6670   1.561   1.212  17.063  0.3076  0.9545 -0.7316
  444MPD2     H 6671   1.313   0.933  16.994 -1.1963  1.7195 -1.7659
  444MPD2    H1 6672   1.721   1.091  17.008 -0.7755 -1.6534  0.3736
  444MPD2    H2 6673   1.389   1.316  17.135  2.3238 -0.0570  1.1559
  444MPD2    H3 6674   1.628   1.289  17.098 -1.3695  2.4239 -0.7885
  444MPD2     N 6675   1.569   0.866  16.926 -0.6254 -0.2762  0.6204
  444MPD2    H5 6676   1.498   0.795  16.910 -1.3302  0.9322 -1.6463
  444MPD2    N1 6677   1.207   1.129  17.099  1.0149 -0.7235  0.2323
  444MPD2    H7 6678   1.156   1.041  17.092 -0.3519 -0.0329  1.5979
  445TMC3    C1 6679   1.716   0.688  16.865 -0.6520 -0.0182 -0.6415
  445TMC3    C2 6680   1.646   0.654  16.754 -0.7633 -0.4985  0.1096
  445TMC3    C3 6681   1.703   0.571  16.662 -0.0931 -0.0155 -0.2644
  445TMC3    C4 6682   1.845   0.634  16.885 -0.3470 -0.0463 -0.3742
  445TMC3    C5 6683   1.898   0.554  16.787  0.6352 -0.0827 -0.2460
  445TMC3    C6 6684   1.829   0.522  16.676 -0.1474  0.5938 -0.1154
  445TMC3     C 6685   1.701   0.824  16.919 -0.6086 -0.6655  0.0305
  445TMC3     O 6686   1.805   0.886  16.940 -0.3032  0.1291 -0.5467
  445TMC3     H 6687   1.543   0.683  16.740 -0.1277  1.5443 -0.4114
  445TMC3    H1 6688   1.902   0.647  16.976  2.4540  1.1659 -2.2735
  445TMC3    H2 6689   1.864   0.437  16.619 -2.6206  1.2102 -2.5782
  445TMC3    C7 6690   2.023   0.485  16.809 -0.2053 -0.3442  0.8230
  445TMC3    C8 6691   1.633   0.531  16.539 -0.4643 -0.2317 -0.4408
  445TMC3    O1 6692   2.056   0.473  16.927 -0.1748 -0.1412 -0.0168
  445TMC3    O2 6693   1.679   0.431  16.488  0.4482  0.0863  0.0628
  446MPD2     C 6694   0.943   2.965  11.404 -0.9022 -0.0861  0.6222
  446MPD2    C1 6695   0.936   2.944  11.266 -0.2698  0.2420 -0.1008
  446MPD2    C2 6696   1.029   3.004  11.183  0.1365 -0.2565 -0.1017
  446MPD2    C3 6697   1.123   3.090  11.235 -0.0222 -0.5344  0.5148
  446MPD2    C4 6698   1.113   3.130  11.365 -0.4934  0.3635 -0.8367
  446MPD2    C5 6699   1.030   3.066  11.451 -0.3352  0.4239  0.3403
  446MPD2     H 6700   1.031   2.992  11.075  0.0324  3.6737 -0.5158
  446MPD2    H1 6701   1.166   3.215  11.408 -2.2304  1.3818 -0.7239
  446MPD2    H2 6702   0.876   2.921  11.477 -1.6386  0.9453  0.5670
  446MPD2    H3 6703   1.043   3.090  11.555  2.9217 -0.6467  0.1822
  446MPD2     N 6704   1.224   3.146  11.151 -1.2050  0.1651  0.4541
  446MPD2    H5 6705   1.249   3.089  11.071 -2.0133 -2.0323  1.7700
  446MPD2    N1 6706   0.832   2.858  11.210 -0.5606  0.2825 -0.3784
  446MPD2    H7 6707   0.842   2.850  11.109 -0.1635  2.1172 -0.4721
  447TMC3    C1 6708   1.423   3.268  11.099  0.0839 -0.6639 -0.2103
  447TMC3    C2 6709   1.476   3.393  11.087 -0.8189 -0.0934  0.0354
  447TMC3    C3 6710   1.613   3.405  11.077 -0.3105 -0.6467 -0.8628
  447TMC3    C4 6711   1.504   3.158  11.113  0.8206  0.1464 -0.3006
  447TMC3    C5 6712   1.642   3.173  11.102 -0.7517  0.0237  0.7182
  447TMC3    C6 6713   1.701   3.299  11.091  0.0200 -0.3640 -0.0191
  447TMC3     C 6714   1.298   3.258  11.174  0.3848  0.3887 -0.6883
  447TMC3     O 6715   1.263   3.354  11.240  0.3868  0.1749 -0.5463
  447TMC3     H 6716   1.415   3.482  11.077 -0.6415  0.0260  0.0153
  447TMC3    H1 6717   1.462   3.059  11.123  2.8839 -0.7268 -0.2380
  447TMC3    H2 6718   1.808   3.312  11.095 -0.0825  0.2447  0.8869
  447TMC3    C7 6719   1.721   3.067  11.161 -0.6843  0.1849  0.3767
  447TMC3    C8 6720   1.671   3.534  11.053 -0.0202 -0.6293 -0.0598
  447TMC3    O1 6721   1.700   2.954  11.113 -0.1184  0.3456 -0.0854
  447TMC3    O2 6722   1.593   3.621  11.022 -0.4219 -0.0157  0.1213
  448TMC3    C1 6723   3.887   2.067  16.828  0.5227  0.4679  0.1773
  448TMC3    C2 6724   3.847   2.018  16.705  0.5486 -0.3582  0.6261
  448TMC3    C3 6725   3.850   1.882  16.693 -0.1899 -0.3202 -0.9796
  448TMC3    C4 6726   3.940   1.987  16.926 -0.6471  0.3398 -0.1431
  448TMC3    C5 6727   3.951   1.850  16.894 -0.8805  0.0012 -0.1022
  448TMC3    C6 6728   3.910   1.794  16.780  0.0134  0.0561 -0.5766
  448TMC3     C 6729   3.925   2.211  16.830  0.3814  0.0399 -0.0597
  448TMC3     O 6730   3.928   2.262  16.941  0.2975 -0.0759  0.0606
  448TMC3     H 6731   3.833   2.086  16.622 -0.2341  0.4926  1.4524
  448TMC3    H1 6732   3.977   2.027  17.020  2.3653  0.1708 -1.2760
  448TMC3    H2 6733   3.917   1.686  16.769  1.7602  0.2135 -1.0257
  448TMC3    C7 6734   4.023   1.765  16.990  0.3460  0.1735  0.5049
  448TMC3    C8 6735   3.821   1.822  16.558 -0.3915  0.3861  0.7102
  448TMC3    O1 6736   4.065   1.660  16.943 -0.0402 -0.1358  0.2898
  448TMC3    O2 6737   3.883   1.718  16.543  0.3777  0.2632 -0.1918
  449MPD2     C 6738   0.874   0.396  13.812 -0.1017 -0.1933 -0.4182
  449MPD2    C1 6739   0.746   0.378  13.753  0.4524 -0.1946 -0.0875
  449MPD2    C2 6740   0.639   0.355  13.836 -0.2521  0.6141 -0.0163
  449MPD2    C3 6741   0.650   0.361  13.973  0.9244 -0.0974  0.6605
  449MPD2    C4 6742   0.779   0.383  14.025 -0.1879 -0.5334 -0.1225
  449MPD2    C5 6743   0.885   0.385  13.947  0.6743  0.5283  0.3659
  449MPD2     H 6744   0.544   0.336  13.788  1.4356 -1.2098 -2.5786
  449MPD2    H1 6745   0.789   0.385  14.132  0.7388  0.6942 -0.2287
  449MPD2    H2 6746   0.963   0.413  13.753  1.0926 -0.4748  1.2817
  449MPD2    H3 6747   0.981   0.395  13.996 -0.2310  2.1550  1.8187
  449MPD2     N 6748   0.530   0.347  14.054  0.1976  0.1515 -0.6749
  449MPD2    H5 6749   0.447   0.350  13.995 -0.2495  0.9163 -0.0104
  449MPD2    N1 6750   0.720   0.390  13.615  0.2236 -0.2757 -0.0571
  449MPD2    H7 6751   0.622   0.404  13.589  0.9469  2.8950 -1.1650
  450TMC3    C1 6752   0.739   0.456  13.397 -0.4035 -0.2802  0.1296
  450TMC3    C2 6753   0.788   0.571  13.357  0.0713 -0.1743  0.0921
  450TMC3    C3 6754   0.695   0.667  13.322 -0.2503 -0.6347 -0.3201
  450TMC3    C4 6755   0.606   0.429  13.393  0.3445  0.8574  0.9114
  450TMC3    C5 6756   0.518   0.529  13.362  1.1906 -0.5828  0.7260
  450TMC3    C6 6757   0.562   0.651  13.326  0.3146  0.2627 -0.9561
  450TMC3     C 6758   0.808   0.421  13.517  1.1259 -0.6959  0.8152
  450TMC3     O 6759   0.926   0.440  13.518  0.0433  0.5706  0.1473
  450TMC3     H 6760   0.894   0.578  13.340  0.3681  0.6976  2.2711
  450TMC3    H1 6761   0.572   0.327  13.411 -2.3401  1.6152  0.1949
  450TMC3    H2 6762   0.499   0.738  13.314 -0.6972 -0.1129  1.7298
  450TMC3    C7 6763   0.414   0.517  13.467  0.0054  0.3421  0.5045
  450TMC3    C8 6764   0.741   0.792  13.265  0.1562 -0.5722 -0.0087
  450TMC3    O1 6765   0.434   0.423  13.545 -0.3342  0.0309  0.0672
  450TMC3    O2 6766   0.660   0.848  13.193  0.2207 -0.0140 -0.3041
  451MPD2     C 6767   1.909   4.434   1.236  0.0966 -0.2446  0.0123
  451MPD2    C1 6768   1.856   4.317   1.190 -0.1878 -0.2853 -1.2436
  451MPD2    C2 6769   1.933   4.217   1.129 -0.4994  0.0090  0.5115
  451MPD2    C3 6770   2.074   4.226   1.136 -0.8469 -0.5200 -0.0270
  451MPD2    C4 6771   2.124   4.345   1.178  0.2499 -0.0747  0.7682
  451MPD2    C5 6772   2.043   4.447   1.218 -0.0048 -0.2451  0.4626
  451MPD2     H 6773   1.880   4.140   1.075  0.7782 -0.4580 -0.0661
  451MPD2    H1 6774   2.230   4.365   1.178  0.3171 -0.4188 -1.4126
  451MPD2    H2 6775   1.849   4.508   1.288  1.1667  0.2254  0.5762
  451MPD2    H3 6776   2.102   4.535   1.242  1.3783 -0.9367 -0.4190
  451MPD2     N 6777   2.167   4.131   1.076 -0.6311  0.4611 -1.1330
  451MPD2    H5 6778   2.266   4.151   1.084 -0.3954 -0.7322 -1.1600
  451MPD2    N1 6779   1.719   4.304   1.203 -0.0578  0.7464  0.2936
  451MPD2    H7 6780   1.669   4.388   1.229 -0.9144  0.7835 -1.4952
  452TMC3    C1 6781   2.234   3.915   0.978 -0.2200 -0.5909  0.1252
  452TMC3    C2 6782   2.210   3.780   0.968  0.2605 -0.3361  0.1813
  452TMC3    C3 6783   2.279   3.698   0.877  0.1927 -0.5297 -0.7264
  452TMC3    C4 6784   2.321   3.977   0.885 -0.0496  0.2258 -1.0135
  452TMC3    C5 6785   2.385   3.890   0.796  0.4628  0.1075  0.6247
  452TMC3    C6 6786   2.372   3.755   0.795  0.2283 -0.7513 -0.2669
  452TMC3     C 6787   2.129   4.004   1.028  0.0223  0.2700 -0.2856
  452TMC3     O 6788   2.021   3.954   1.039 -0.2445  0.0892 -0.2484
  452TMC3     H 6789   2.129   3.747   1.032 -0.8559 -0.1628 -1.1412
  452TMC3    H1 6790   2.324   4.084   0.870  2.3752  0.3617  0.3719
  452TMC3    H2 6791   2.426   3.693   0.723  1.3032 -1.9489  1.5629
  452TMC3    C7 6792   2.497   3.946   0.716  0.1047 -0.4310 -0.3212
  452TMC3    C8 6793   2.193   3.602   0.805 -0.3221 -0.1242 -0.0392
  452TMC3    O1 6794   2.533   3.880   0.616  0.2660 -0.0143 -0.0638
  452TMC3    O2 6795   2.183   3.621   0.684 -0.1794 -0.6735 -0.3545
  453TMC3    C1 6796   3.213   1.277  11.923  0.5096 -0.4806  0.2264
  453TMC3    C2 6797   3.158   1.147  11.931 -0.1327 -0.0108 -0.6967
  453TMC3    C3 6798   3.227   1.045  11.869  0.9079 -0.5607  0.1012
  453TMC3    C4 6799   3.316   1.301  11.834 -0.0889 -0.7879  0.3689
  453TMC3    C5 6800   3.383   1.199  11.768 -0.4696  0.1617  0.0106
  453TMC3    C6 6801   3.340   1.072  11.783  0.1657 -0.1409 -0.0400
  453TMC3     C 6802   3.198   1.379  12.032  0.6409 -0.5909  0.1222
  453TMC3     O 6803   3.241   1.488  11.996  0.1271  0.5641 -0.4251
  453TMC3     H 6804   3.071   1.121  11.990  0.2580  0.9537  0.3241
  453TMC3    H1 6805   3.360   1.400  11.829  0.8462 -1.2861 -1.4676
  453TMC3    H2 6806   3.393   0.983  11.752  0.4227 -0.4271  1.2157
  453TMC3    C7 6807   3.504   1.232  11.698  0.5812 -0.2301 -0.7230
  453TMC3    C8 6808   3.236   0.929  11.956  0.2353 -0.1137  0.8657
  453TMC3    O1 6809   3.539   1.350  11.715 -0.0188 -0.0631  0.0136
  453TMC3    O2 6810   3.189   0.948  12.068 -0.1168 -0.0358 -0.6979
  454MPD2     C 6811   2.288   0.807  16.545  0.4778  0.2784 -0.4634
  454MPD2    C1 6812   2.232   0.900  16.452 -0.3365 -0.3626  0.1775
  454MPD2    C2 6813   2.167   1.014  16.503  0.1059 -0.1364 -0.1288
  454MPD2    C3 6814   2.138   1.020  16.643 -0.3597 -0.1958  0.0889
  454MPD2    C4 6815   2.192   0.922  16.726  0.3094 -0.1887 -0.1300
  454MPD2    C5 6816   2.269   0.820  16.679 -0.8318 -0.1669  0.5367
  454MPD2     H 6817   2.126   1.086  16.434 -1.4706 -0.7615  0.1488
  454MPD2    H1 6818   2.175   0.919  16.833 -0.0323 -1.6543 -0.2197
  454MPD2    H2 6819   2.352   0.727  16.512  0.7362 -0.9926  3.0906
  454MPD2    H3 6820   2.319   0.757  16.752 -0.2194 -0.2934  0.0156
  454MPD2     N 6821   2.050   1.119  16.698  0.1697 -0.1253  0.1653
  454MPD2    H5 6822   2.028   1.106  16.796  0.1531  1.1887  0.3358
  454MPD2    N1 6823   2.239   0.880  16.318 -0.0744  0.1025 -0.3398
  454MPD2    H7 6824   2.200   0.958  16.266 -1.1509 -0.7300 -0.7828
  455TMC3    C1 6825   1.890   1.289  16.688 -0.2443  0.4595 -0.8577
  455TMC3    C2 6826   1.842   1.408  16.626 -0.5154 -0.6810  0.2480
  455TMC3    C3 6827   1.712   1.410  16.582 -0.5908  0.8400  0.0513
  455TMC3    C4 6828   1.802   1.189  16.714 -0.3727  0.3723  0.1596
  455TMC3    C5 6829   1.680   1.189  16.648 -0.1703 -0.5507 -0.2602
  455TMC3    C6 6830   1.632   1.299  16.587  0.7696 -0.2860 -1.1847
  455TMC3     C 6831   2.015   1.233  16.640  0.8937  0.2520  0.1378
  455TMC3     O 6832   2.056   1.290  16.539 -0.5628 -0.1408  0.2416
  455TMC3     H 6833   1.907   1.494  16.612 -0.6860 -0.2426  2.1920
  455TMC3    H1 6834   1.830   1.103  16.775 -2.5629 -0.7092 -0.3681
  455TMC3    H2 6835   1.529   1.305  16.554 -0.6645  0.4905  3.4304
  455TMC3    C7 6836   1.644   1.072  16.566 -0.8916 -0.0014  0.5056
  455TMC3    C8 6837   1.654   1.540  16.560  0.2085 -0.7009 -0.6986
  455TMC3    O1 6838   1.547   1.090  16.497 -0.1191 -0.1185 -0.0092
  455TMC3    O2 6839   1.588   1.540  16.455 -0.4021  0.0801  0.4355
  456MPD2     C 6840   4.529   1.423  15.654  0.2922 -0.0826 -0.0092
  456MPD2    C1 6841   4.525   1.316  15.736 -0.1808  0.0041 -0.6342
  456MPD2    C2 6842   4.409   1.293  15.810  0.3901 -0.0752 -0.4120
  456MPD2    C3 6843   4.296   1.366  15.801  0.0749 -0.1978  0.1850
  456MPD2    C4 6844   4.308   1.488  15.735  0.3113  0.3477  0.0369
  456MPD2    C5 6845   4.423   1.508  15.666  0.4131 -0.5337 -0.2413
  456MPD2     H 6846   4.410   1.204  15.871  1.2507  0.6123  0.5721
  456MPD2    H1 6847   4.229   1.563  15.729 -1.1545 -1.2847 -1.0742
  456MPD2    H2 6848   4.611   1.444  15.586 -0.0616  1.9746  0.1766
  456MPD2    H3 6849   4.425   1.603  15.614  0.0476 -0.5764 -0.3390
  456MPD2     N 6850   4.194   1.335  15.891 -0.0288  0.0449 -0.3779
  456MPD2    H5 6851   4.216   1.267  15.963 -2.8460 -1.3456 -0.8302
  456MPD2    N1 6852   4.635   1.232  15.737  0.4071 -0.0202  0.1559
  456MPD2    H7 6853   4.712   1.246  15.672  1.0093 -0.1114  0.8426
  457TMC3    C1 6854   3.992   1.347  16.021  0.4839  0.2528  0.3705
  457TMC3    C2 6855   3.856   1.385  16.025  0.3170 -0.3332  0.1889
  457TMC3    C3 6856   3.766   1.322  16.109 -0.4018  0.8192 -0.0856
  457TMC3    C4 6857   4.044   1.260  16.108 -0.0821 -0.3815 -0.8880
  457TMC3    C5 6858   3.952   1.203  16.194  0.1178  0.1995  0.2935
  457TMC3    C6 6859   3.817   1.227  16.193 -0.3223 -0.2054  0.2709
  457TMC3     C 6860   4.071   1.398  15.908 -0.8499  0.2045 -0.0351
  457TMC3     O 6861   4.026   1.489  15.841  0.1896 -0.4276 -0.1839
  457TMC3     H 6862   3.818   1.442  15.941 -0.3243 -1.9201 -0.6119
  457TMC3    H1 6863   4.149   1.248  16.130  0.3608  2.2815 -1.5127
  457TMC3    H2 6864   3.755   1.175  16.265  1.2276  0.1796  1.8946
  457TMC3    C7 6865   4.005   1.177  16.331 -0.3207  0.3573  0.2277
  457TMC3    C8 6866   3.704   1.437  16.193 -0.3195 -0.5243 -0.1018
  457TMC3    O1 6867   4.118   1.139  16.344  0.3316 -0.0768  0.3506
  457TMC3    O2 6868   3.707   1.419  16.312  0.5493 -0.3674 -0.0046
  458MPD2     C 6869   1.899   0.797  12.768 -0.1414 -0.2447  0.7017
  458MPD2    C1 6870   1.920   0.713  12.879 -0.5175 -0.1052  0.3613
  458MPD2    C2 6871   1.807   0.665  12.945  0.0421 -0.5431 -0.1494
  458MPD2    C3 6872   1.683   0.718  12.910 -0.6326  0.2956  0.1198
  458MPD2    C4 6873   1.669   0.813  12.810 -0.6928  0.6208 -0.1499
  458MPD2    C5 6874   1.781   0.856  12.740  0.4110  0.0472  0.7274
  458MPD2     H 6875   1.813   0.590  13.023  0.3668  0.4968  0.8196
  458MPD2    H1 6876   1.577   0.863  12.782 -0.5911  0.4896 -0.7322
  458MPD2    H2 6877   1.979   0.823  12.700 -0.4737  1.0814  0.8120
  458MPD2    H3 6878   1.773   0.929  12.661 -0.4918  0.3351  1.0803
  458MPD2     N 6879   1.574   0.656  12.972  0.5026  0.0412 -0.7412
  458MPD2    H5 6880   1.596   0.580  13.035  1.2303  1.1344  0.3229
  458MPD2    N1 6881   2.058   0.678  12.897 -0.1490 -0.0096 -0.5099
  458MPD2    H7 6882   2.131   0.705  12.832  0.1797 -2.2967 -1.1125
  459TMC3    C1 6883   2.240   0.592  13.030  0.2614  0.4823  0.3823
  459TMC3    C2 6884   2.331   0.683  12.981  0.0563  0.3931 -0.0404
  459TMC3    C3 6885   2.456   0.689  13.037 -0.4474  0.0328  0.3513
  459TMC3    C4 6886   2.273   0.496  13.127  0.3701 -0.0891  0.5902
  459TMC3    C5 6887   2.403   0.500  13.171  0.2347 -0.1435 -0.4975
  459TMC3    C6 6888   2.499   0.583  13.114  0.2043 -0.7426 -0.6456
  459TMC3     C 6889   2.099   0.601  13.006  0.6975  0.3583 -0.0086
  459TMC3     O 6890   2.029   0.551  13.092  0.0672 -0.2626  0.2038
  459TMC3     H 6891   2.287   0.754  12.911 -0.2334 -0.2623 -0.5275
  459TMC3    H1 6892   2.205   0.416  13.155 -1.9818  1.3063 -1.2191
  459TMC3    H2 6893   2.599   0.586  13.156 -0.5056 -1.6484  1.0789
  459TMC3    C7 6894   2.448   0.394  13.268  0.6025  0.0198 -0.0463
  459TMC3    C8 6895   2.554   0.785  12.995 -0.4587  0.1813  0.4653
  459TMC3    O1 6896   2.571   0.382  13.282 -0.1888  0.1101 -0.0677
  459TMC3    O2 6897   2.673   0.761  13.024 -0.4171 -0.4820  0.3522
  460MPD2     C 6898   2.000   3.662  11.187 -0.1803  0.4294  0.4282
  460MPD2    C1 6899   1.885   3.663  11.107  0.0899 -0.5722  0.0675
  460MPD2    C2 6900   1.868   3.764  11.016  0.2252 -0.5552  0.3020
  460MPD2    C3 6901   1.955   3.871  10.997  0.1680 -0.6396 -0.0207
  460MPD2    C4 6902   2.066   3.871  11.080 -0.2446  0.1472 -0.5613
  460MPD2    C5 6903   2.090   3.769  11.167 -0.1169 -0.0642  0.0993
  460MPD2     H 6904   1.788   3.762  10.943 -0.8828  2.4336  1.4515
  460MPD2    H1 6905   2.147   3.942  11.069  1.3286 -1.6995 -0.8630
  460MPD2    H2 6906   2.025   3.586  11.260 -0.2344  1.1677  1.2088
  460MPD2    H3 6907   2.186   3.765  11.218 -0.5027 -0.0008  0.8242
  460MPD2     N 6908   1.939   3.965  10.900 -0.3905 -0.6010 -0.2607
  460MPD2    H5 6909   1.865   3.936  10.836 -1.2601  0.8934  0.0820
  460MPD2    N1 6910   1.796   3.550  11.115 -0.0268  0.5005  0.1408
  460MPD2    H7 6911   1.819   3.476  11.180 -0.5754 -0.5722 -0.9075
  461TMC3    C1 6912   1.984   4.155  10.768  0.3443  0.2539  0.4986
  461TMC3    C2 6913   1.907   4.108  10.661 -0.0377  0.1627 -0.5519
  461TMC3    C3 6914   1.877   4.197  10.560  0.9337  0.3748  0.2134
  461TMC3    C4 6915   2.014   4.290  10.781  0.5417  0.0970 -0.6119
  461TMC3    C5 6916   1.984   4.367  10.670 -0.5551 -0.3522 -0.0317
  461TMC3    C6 6917   1.907   4.326  10.563  0.5159  0.1137  0.2756
  461TMC3     C 6918   2.007   4.082  10.886 -0.1634 -0.6734  0.8853
  461TMC3     O 6919   2.090   4.130  10.965  0.8034 -0.3618  0.5508
  461TMC3     H 6920   1.886   4.003  10.647 -0.7980  0.2952 -0.4366
  461TMC3    H1 6921   2.056   4.325  10.874  1.6418 -1.3616 -0.5663
  461TMC3    H2 6922   1.874   4.396  10.488 -1.2490 -0.9506  0.0727
  461TMC3    C7 6923   2.050   4.497  10.663  0.8605  0.0898  0.3392
  461TMC3    C8 6924   1.790   4.138  10.455  0.0313  0.6845  0.2500
  461TMC3    O1 6925   2.010   4.584  10.586 -0.5323 -0.0600  0.8023
  461TMC3    O2 6926   1.803   4.173  10.341  0.0573  0.1309 -0.1348
  462TMC3    C1 6927   0.986   3.745   0.045 -0.2132  0.0066  0.3066
  462TMC3    C2 6928   0.990   3.710  17.644 -0.1079 -0.2581 -0.1532
  462TMC3    C3 6929   1.026   3.588  17.607 -0.5540 -0.5338  0.6401
  462TMC3    C4 6930   1.020   3.653   0.145 -0.4543 -0.0844  0.0321
  462TMC3    C5 6931   1.053   3.524   0.109  0.1262 -0.8163  0.6501
  462TMC3    C6 6932   1.056   3.489  17.711  0.2542  0.0489 -0.3622
  462TMC3     C 6933   1.006   3.888   0.086  0.9872 -0.4346 -0.4636
  462TMC3     O 6934   1.055   3.908   0.194  0.7758  0.3637  0.1466
  462TMC3     H 6935   0.956   3.775  17.564  0.5143  1.8032  1.2301
  462TMC3    H1 6936   1.003   3.679   0.248  1.5252 -0.5487  0.4835
  462TMC3    H2 6937   1.066   3.383  17.688  2.3059 -0.0874  1.2051
  462TMC3    C7 6938   1.017   3.411   0.197 -0.0850 -0.3882 -0.1669
  462TMC3    C8 6939   0.949   3.545  17.489 -0.3318  0.5218  0.1853
  462TMC3    O1 6940   0.958   3.317   0.143 -0.3277  0.1843 -0.5128
  462TMC3    O2 6941   0.845   3.598  17.465  0.5894  0.7604 -0.0860
  463MPD2     C 6942   0.803   3.489   2.237  0.3607 -0.1240  0.2741
  463MPD2    C1 6943   0.855   3.418   2.128  0.0067  0.7015 -0.1806
  463MPD2    C2 6944   0.971   3.343   2.143  0.0779 -0.1478  0.1538
  463MPD2    C3 6945   1.038   3.332   2.265  1.0928 -0.0752 -0.0514
  463MPD2    C4 6946   0.975   3.384   2.375  0.7886  0.1807  0.0183
  463MPD2    C5 6947   0.870   3.469   2.357  0.3155 -0.8325  0.2252
  463MPD2     H 6948   1.010   3.284   2.061  0.5004  2.0373 -1.2326
  463MPD2    H1 6949   1.031   3.381   2.468 -1.8423 -3.8927  1.4832
  463MPD2    H2 6950   0.717   3.554   2.231  1.4728  1.3685  0.5890
  463MPD2    H3 6951   0.832   3.520   2.445  0.4893  1.1279 -0.8365
  463MPD2     N 6952   1.164   3.266   2.285 -0.3610  0.0831 -0.1508
  463MPD2    H5 6953   1.218   3.281   2.370  0.5874 -0.4296 -0.6594
  463MPD2    N1 6954   0.796   3.415   1.994 -0.7244  0.0605  0.2963
  463MPD2    H7 6955   0.848   3.371   1.919 -0.5436 -3.1586  2.3201
  464TMC3    C1 6956   0.645   3.453   1.819  0.4597  0.7947  0.6742
  464TMC3    C2 6957   0.741   3.426   1.727  0.1373 -0.3083  0.4021
  464TMC3    C3 6958   0.698   3.388   1.604 -0.5125  0.0044 -0.4802
  464TMC3    C4 6959   0.514   3.435   1.787  0.0644  1.5166  0.1135
  464TMC3    C5 6960   0.481   3.381   1.667 -0.9218  0.3218 -0.6131
  464TMC3    C6 6961   0.571   3.359   1.566  0.4772 -0.1830  0.6294
  464TMC3     C 6962   0.677   3.478   1.960 -0.5800  0.3205  0.3140
  464TMC3     O 6963   0.591   3.536   2.025 -0.6816  0.6367  0.0552
  464TMC3     H 6964   0.845   3.452   1.743  0.1924 -0.3319  0.0719
  464TMC3    H1 6965   0.433   3.460   1.854 -1.1439 -3.1692  0.3953
  464TMC3    H2 6966   0.548   3.319   1.468 -0.0505 -0.1290  0.7289
  464TMC3    C7 6967   0.348   3.315   1.648 -0.2123  0.6324  0.5149
  464TMC3    C8 6968   0.788   3.322   1.518 -0.0804 -0.3679 -0.6576
  464TMC3    O1 6969   0.262   3.352   1.726  0.1597 -0.1479  0.5664
  464TMC3    O2 6970   0.895   3.289   1.567  0.4053  0.4012  0.1899
  465MPD2     C 6971   3.612   1.629  16.987 -0.1999  0.0394  0.5802
  465MPD2    C1 6972   3.577   1.500  16.984  0.2340 -0.0770  0.4854
  465MPD2    C2 6973   3.544   1.445  16.862  0.2950 -0.2002  0.5055
  465MPD2    C3 6974   3.552   1.519  16.746 -0.1241 -0.0955 -0.2321
  465MPD2    C4 6975   3.578   1.653  16.750  0.0664  0.0021 -0.1130
  465MPD2    C5 6976   3.609   1.709  16.873 -0.1236  0.5619  0.0412
  465MPD2     H 6977   3.531   1.339  16.846  0.8332 -0.4967  1.9989
  465MPD2    H1 6978   3.567   1.716  16.663 -3.0294 -0.4809 -0.0590
  465MPD2    H2 6979   3.643   1.681  17.077 -0.0095  0.7506  0.1069
  465MPD2    H3 6980   3.630   1.815  16.880  1.1144  0.2492  1.1390
  465MPD2     N 6981   3.523   1.449  16.625  0.5875  0.1248 -0.0784
  465MPD2    H5 6982   3.498   1.351  16.632  1.2109  0.0316  0.9019
  465MPD2    N1 6983   3.570   1.426  17.100  0.3215  0.0789 -0.3287
  465MPD2    H7 6984   3.536   1.332  17.084  0.9436 -0.2275  0.1449
  466TMC3    C1 6985   3.244   1.288  16.402 -0.1385 -0.2232 -0.5360
  466TMC3    C2 6986   3.163   1.375  16.331 -0.6131 -0.3872  0.2998
  466TMC3    C3 6987   3.236   1.480  16.287 -0.3674 -0.7027 -0.4596
  466TMC3    C4 6988   3.367   1.318  16.460  0.3527 -0.6907 -0.6332
  466TMC3    C5 6989   3.427   1.430  16.410  0.4194  0.0513 -0.1566
  466TMC3    C6 6990   3.372   1.513  16.321  0.9031  0.2274  0.3227
  466TMC3     C 6991   3.181   1.175  16.471 -0.7045 -0.5478  0.6997
  466TMC3     O 6992   3.225   1.145  16.583 -0.1143  0.0499  0.1024
  466TMC3     H 6993   3.061   1.361  16.296 -1.0525 -0.7981  1.7178
  466TMC3    H1 6994   3.411   1.255  16.537  4.1345  1.3709 -1.1285
  466TMC3    H2 6995   3.411   1.607  16.284  1.9072 -0.1928  0.3140
  466TMC3    C7 6996   3.509   1.511  16.502  0.7083 -0.2202  0.3827
  466TMC3    C8 6997   3.168   1.591  16.224  0.1668 -0.0179  0.0188
  466TMC3    O1 6998   3.503   1.628  16.478  0.2378  0.0520 -0.7242
  466TMC3    O2 6999   3.232   1.649  16.141  0.2045 -0.6326 -0.1391
  467TMC3    C1 7000   4.717   4.664  13.944 -0.7280  0.0734 -0.1662
  467TMC3    C2 7001   4.643   4.693  13.837  0.2871  0.2049  0.5306
  467TMC3    C3 7002   4.513   4.654  13.835  0.2435  0.1917 -0.2035
  467TMC3    C4 7003   4.666   4.606  14.063 -0.7281  0.5100  0.1136
  467TMC3    C5 7004   4.536   4.566  14.058 -0.1341 -0.1342 -0.1798
  467TMC3    C6 7005   4.457   4.595  13.946  0.1777 -0.0415 -0.4842
  467TMC3     C 7006   0.127   4.678  13.925  0.7979 -0.3250 -0.1576
  467TMC3     O 7007   0.174   4.666  13.809  0.3878 -0.2414 -0.1967
  467TMC3     H 7008   4.699   0.011  13.760 -0.9590  2.7273  1.3257
  467TMC3    H1 7009   0.002   4.575  14.140 -0.4538  0.8244 -0.0111
  467TMC3    H2 7010   4.359   4.550  13.929  0.1696 -0.1318 -0.1938
  467TMC3    C7 7011   4.517   4.437  14.121  0.5777  0.0474 -0.2375
  467TMC3    C8 7012   4.450   4.657  13.704 -0.0534  0.7417  0.1170
  467TMC3    O1 7013   4.619   4.383  14.151 -0.2550 -0.0693 -0.2740
  467TMC3    O2 7014   4.331   4.691  13.697  0.0581 -0.3393  0.0229
  468MPD2     C 7015   2.944   3.298  10.706 -0.4000  0.4043  0.3131
  468MPD2    C1 7016   3.058   3.255  10.772 -0.2074 -0.7408 -0.0542
  468MPD2    C2 7017   3.113   3.125  10.750 -0.7113 -0.1036 -0.0724
  468MPD2    C3 7018   3.045   3.029  10.670 -0.0404  0.8718  0.4671
  468MPD2    C4 7019   2.927   3.071  10.622  0.0570  0.1545  0.1968
  468MPD2    C5 7020   2.881   3.201  10.629  0.4018  0.2340  0.2505
  468MPD2     H 7021   3.214   3.101  10.783  0.0102 -1.0980 -2.9883
  468MPD2    H1 7022   2.861   2.998  10.574 -0.8431  0.7149  0.5832
  468MPD2    H2 7023   2.888   3.389  10.721 -0.8036  0.2834 -0.4624
  468MPD2    H3 7024   2.785   3.216  10.581  0.9226  1.2559 -0.4649
  468MPD2     N 7025   3.075   2.894  10.647 -0.4525  0.0148 -0.1284
  468MPD2    H5 7026   3.012   2.841  10.587  0.9354  1.3796 -2.8396
  468MPD2    N1 7027   3.130   3.335  10.856  0.6448  0.7821 -0.3779
  468MPD2    H7 7028   3.196   3.285  10.914 -0.3480  2.1153  1.8826
  469TMC3    C1 7029   3.167   3.512  11.005  0.0654  0.2111 -0.2950
  469TMC3    C2 7030   3.285   3.455  11.034  0.1227  0.9729 -0.2413
  469TMC3    C3 7031   3.351   3.506  11.142 -0.1151 -0.3164  0.0874
  469TMC3    C4 7032   3.104   3.591  11.090  0.9132  0.2526 -0.0791
  469TMC3    C5 7033   3.166   3.634  11.204 -0.2737 -0.6223  0.4980
  469TMC3    C6 7034   3.293   3.602  11.227  0.0737  0.5563 -0.1480
  469TMC3     C 7035   3.095   3.463  10.893  1.0437 -0.0043 -0.0557
  469TMC3     O 7036   3.001   3.534  10.852 -0.1059 -0.1647  0.1561
  469TMC3     H 7037   3.336   3.380  10.974 -0.1313  0.1163  0.6178
  469TMC3    H1 7038   3.000   3.618  11.079  0.5332 -0.9308  0.5410
  469TMC3    H2 7039   3.337   3.642  11.317 -0.3860  1.7167 -0.4250
  469TMC3    C7 7040   3.099   3.723  11.294 -0.3084  0.4349 -0.0194
  469TMC3    C8 7041   3.496   3.478  11.155  0.7186 -0.4941  0.3220
  469TMC3    O1 7042   3.004   3.789  11.246 -0.0607  0.3342 -0.4675
  469TMC3    O2 7043   3.555   3.444  11.057  0.4717 -0.1063  0.5829
  470TMC3    C1 7044   0.264   3.497   0.496 -0.0994  0.3727 -0.2547
  470TMC3    C2 7045   0.289   3.629   0.541 -0.0239 -0.3206  0.6521
  470TMC3    C3 7046   0.323   3.647   0.669  0.0597  0.7799  0.1502
  470TMC3    C4 7047   0.284   3.396   0.584 -0.3695  0.2651  0.3663
  470TMC3    C5 7048   0.319   3.424   0.710  0.1234 -0.3333 -0.3240
  470TMC3    C6 7049   0.334   3.552   0.761 -0.0858  0.1416 -0.5496
  470TMC3     C 7050   0.242   3.459   0.359 -0.4617 -0.2203  0.5904
  470TMC3     O 7051   0.235   3.344   0.331 -0.0951  0.2224 -0.1779
  470TMC3     H 7052   0.284   3.707   0.465  1.5765 -0.9227 -0.0706
  470TMC3    H1 7053   0.264   3.294   0.554 -1.4197  0.0375  1.8408
  470TMC3    H2 7054   0.358   3.573   0.864 -0.3791 -0.7058 -0.3018
  470TMC3    C7 7055   0.284   3.315   0.810  0.1829 -0.8729 -0.3207
  470TMC3    C8 7056   0.365   3.777   0.717  0.5174  0.1617  0.5497
  470TMC3    O1 7057   0.289   3.199   0.769  0.1937 -0.6817  0.0910
  470TMC3    O2 7058   0.412   3.796   0.829 -0.2201 -0.4376  0.2861
  471MPD2     C 7059   1.364   0.615  16.953 -0.2494  0.3294 -0.5756
  471MPD2    C1 7060   1.429   0.496  16.925  0.2642 -0.3337 -0.3719
  471MPD2    C2 7061   1.494   0.433  17.018  0.9564  0.0320 -0.1864
  471MPD2    C3 7062   1.497   0.474  17.159 -0.0728 -0.9641 -0.2303
  471MPD2    C4 7063   1.439   0.594  17.186  0.3321 -0.1990  0.3770
  471MPD2    C5 7064   1.367   0.659  17.088 -0.3843 -0.2227 -0.0830
  471MPD2     H 7065   1.532   0.334  16.997 -1.2841 -0.7134 -0.6093
  471MPD2    H1 7066   1.451   0.645  17.281  1.9900  1.8478 -0.9219
  471MPD2    H2 7067   1.308   0.676  16.883 -1.7372  1.1597  1.3507
  471MPD2    H3 7068   1.310   0.747  17.115  0.0860 -0.3726  1.4287
  471MPD2     N 7069   1.533   0.380  17.263  0.5970 -0.0647  0.0442
  471MPD2    H5 7070   1.571   0.290  17.236  0.3941 -0.5618  1.4302
  471MPD2    N1 7071   1.409   0.426  16.805 -0.3502  0.0923  0.0683
  471MPD2    H7 7072   1.466   0.343  16.792  0.4783  0.6518  0.1332
  472TMC3    C1 7073   1.283   0.343  16.629 -1.0716 -0.5805  0.6093
  472TMC3    C2 7074   1.221   0.372  16.508 -0.8006  0.2745 -0.3987
  472TMC3    C3 7075   1.203   0.266  16.423 -0.1227 -0.7788  0.0255
  472TMC3    C4 7076   1.314   0.215  16.659  0.2700  0.6016 -0.0133
  472TMC3    C5 7077   1.270   0.111  16.585 -0.0874  0.0458  0.4238
  472TMC3    C6 7078   1.218   0.138  16.464 -0.3146  0.2242 -0.3867
  472TMC3     C 7079   1.311   0.453  16.718 -0.2542 -0.7902 -0.0293
  472TMC3     O 7080   1.255   0.561  16.698  0.0633 -0.2974  0.0035
  472TMC3     H 7081   1.212   0.476  16.478 -0.0474  0.6915  0.8247
  472TMC3    H1 7082   1.355   0.196  16.758  0.2516  0.8124  0.0344
  472TMC3    H2 7083   1.192   0.069  16.384 -1.6647 -0.1963  0.4224
  472TMC3    C7 7084   1.228   4.721  16.647  0.6627  0.0918 -0.2393
  472TMC3    C8 7085   1.081   0.281  16.348  0.0654 -0.3558  0.1663
  472TMC3    O1 7086   1.258   4.714  16.766 -0.3475 -0.2532 -0.7899
  472TMC3    O2 7087   1.091   0.296  16.229 -0.5176 -0.7531  0.1861
  473MPD2     C 7088   1.037   2.142  13.657  0.1079 -0.3244  0.0456
  473MPD2    C1 7089   0.974   2.262  13.630  0.0953  0.5431 -0.2306
  473MPD2    C2 7090   0.995   2.368  13.714 -0.6942  0.1502 -0.4853
  473MPD2    C3 7091   1.070   2.357  13.827 -0.5266 -0.6519 -0.6469
  473MPD2    C4 7092   1.121   2.235  13.861 -0.2727 -0.0655  0.6065
  473MPD2    C5 7093   1.105   2.127  13.775 -0.3403  0.3282  0.0458
  473MPD2     H 7094   0.953   2.463  13.686 -0.2597  0.1922 -0.9917
  473MPD2    H1 7095   1.181   2.221  13.950 -0.9107  0.7975  1.1728
  473MPD2    H2 7096   1.028   2.056  13.591 -1.1497 -1.2666  1.4304
  473MPD2    H3 7097   1.158   2.038  13.806 -0.0894  0.4378 -0.0696
  473MPD2     N 7098   1.096   2.466  13.914  0.0154  0.0670 -0.5645
  473MPD2    H5 7099   1.170   2.451  13.982  0.2155 -0.6463 -0.9348
  473MPD2    N1 7100   0.907   2.289  13.501  0.2552  0.4462 -0.5075
  473MPD2    H7 7101   0.873   2.384  13.494  0.2909  0.5782  1.0161
  474TMC3    C1 7102   1.061   2.684  14.012 -0.0203 -0.1200  0.3750
  474TMC3    C2 7103   0.976   2.793  14.019  0.3259 -0.6814 -1.1069
  474TMC3    C3 7104   1.003   2.894  14.108 -0.4772  0.8891  0.3534
  474TMC3    C4 7105   1.174   2.676  14.087  0.0349  0.5139 -0.0754
  474TMC3    C5 7106   1.185   2.773  14.190  0.0364  0.4957  0.5011
  474TMC3    C6 7107   1.106   2.886  14.202 -0.0891 -0.1315 -0.3968
  474TMC3     C 7108   1.021   2.582  13.915 -0.3841 -0.4493 -0.2967
  474TMC3     O 7109   0.920   2.614  13.857 -0.3541  0.0425 -0.7130
  474TMC3     H 7110   0.889   2.793  13.955 -2.7366 -0.4990  3.0887
  474TMC3    H1 7111   1.239   2.592  14.064  0.5788  1.1346 -0.8677
  474TMC3    H2 7112   1.124   2.957  14.282 -1.7314  0.3960 -0.4977
  474TMC3    C7 7113   1.300   2.757  14.277 -0.0732 -0.0887 -0.1589
  474TMC3    C8 7114   0.913   3.004  14.094  0.4226  0.4747  0.4910
  474TMC3    O1 7115   1.393   2.686  14.238  1.1675  0.0150 -0.8078
  474TMC3    O2 7116   0.815   2.993  14.021 -0.1633  0.2131 -0.3131
  475MPD2     C 7117   4.072   0.752  11.402  0.8691  0.1189  0.2710
  475MPD2    C1 7118   4.137   0.851  11.335  0.0925 -0.8208  0.2411
  475MPD2    C2 7119   4.116   0.873  11.199  0.4090  0.1111 -0.3167
  475MPD2    C3 7120   4.026   0.795  11.127  0.0201 -0.0492 -0.2155
  475MPD2    C4 7121   3.969   0.691  11.197  0.2681  0.6071 -0.3912
  475MPD2    C5 7122   3.988   0.669  11.329  0.4884 -0.1332  0.2685
  475MPD2     H 7123   4.159   0.959  11.150 -1.0685 -0.2553 -2.2489
  475MPD2    H1 7124   3.896   0.624  11.152  0.4442 -0.3599  0.7538
  475MPD2    H2 7125   4.100   0.720  11.502  1.6241 -0.0361  0.0050
  475MPD2    H3 7126   3.935   0.583  11.368 -0.3798  1.1612  1.9043
  475MPD2     N 7127   4.014   0.815  10.987 -0.5071 -0.2740  0.1362
  475MPD2    H5 7128   4.051   0.899  10.944  2.4830 -0.3426  2.5255
  475MPD2    N1 7129   4.237   0.933  11.399  0.0248  0.0935 -0.3940
  475MPD2    H7 7130   4.250   0.922  11.499 -3.8994 -0.4270  0.0577
  476TMC3    C1 7131   4.384   1.108  11.432 -0.2693  0.0672  0.2647
  476TMC3    C2 7132   4.498   1.162  11.383 -0.7549  0.0018 -0.4041
  476TMC3    C3 7133   4.517   1.294  11.414 -0.6996  0.5135  1.1453
  476TMC3    C4 7134   4.309   1.160  11.532  0.4676  0.4020 -0.1657
  476TMC3    C5 7135   4.338   1.291  11.573  0.0489 -0.7863  0.1446
  476TMC3    C6 7136   4.439   1.361  11.505 -0.3076 -0.2823  0.1055
  476TMC3     C 7137   4.317   1.024  11.339 -0.2304 -0.5641  0.4219
  476TMC3     O 7138   4.352   1.039  11.222 -1.1342 -0.7548  0.2878
  476TMC3     H 7139   4.547   1.113  11.300  1.0107 -2.5492  2.0974
  476TMC3    H1 7140   4.214   1.115  11.561  1.1976 -0.2185  1.2240
  476TMC3    H2 7141   4.477   1.459  11.531  0.5339 -0.8850  1.1780
  476TMC3    C7 7142   4.246   1.362  11.649  0.1347 -0.6916 -0.3519
  476TMC3    C8 7143   4.571   1.385  11.309  0.3936 -0.2443  0.1384
  476TMC3    O1 7144   4.156   1.306  11.705 -0.0655  0.6828  0.1161
  476TMC3    O2 7145   4.636   1.484  11.339  0.0266  0.1818  0.2725
  477MPD2     C 7146   1.993   2.559  11.888  0.0953  0.5438 -0.2812
  477MPD2    C1 7147   1.922   2.479  11.801  0.5186 -0.2374 -0.0401
  477MPD2    C2 7148   1.938   2.342  11.821  0.5870 -0.3863 -0.3022
  477MPD2    C3 7149   2.024   2.284  11.919  0.1521 -0.2079 -0.4982
  477MPD2    C4 7150   2.100   2.371  12.004  0.0960  0.0580 -0.0873
  477MPD2    C5 7151   2.074   2.508  11.991  0.1594  0.3034  0.0459
  477MPD2     H 7152   1.875   2.276  11.764 -0.2994 -0.3278  0.6068
  477MPD2    H1 7153   2.174   2.336  12.075 -0.4135  0.0130  0.4251
  477MPD2    H2 7154   1.983   2.667  11.885  1.7846  0.7093  0.0669
  477MPD2    H3 7155   2.127   2.577  12.055  1.9158  0.3921 -1.5277
  477MPD2     N 7156   2.039   2.147  11.928  0.3145  0.2150  0.4615
  477MPD2    H5 7157   2.007   2.087  11.853 -1.8677  0.2926  1.3523
  477MPD2    N1 7158   1.850   2.552  11.705  0.0215  0.1531  0.3906
  477MPD2    H7 7159   1.843   2.653  11.714  0.6887  0.3455 -1.2138
  478TMC3    C1 7160   1.688   2.571  11.524 -0.2280  0.3280  0.5921
  478TMC3    C2 7161   1.652   2.694  11.564 -0.0152  0.5709 -0.5442
  478TMC3    C3 7162   1.613   2.778  11.462  0.6298 -0.4302 -0.3069
  478TMC3    C4 7163   1.681   2.523  11.392  0.1361  0.1696 -0.4970
  478TMC3    C5 7164   1.646   2.617  11.297  0.9842 -0.3801 -0.8820
  478TMC3    C6 7165   1.601   2.740  11.330 -0.1305  0.0319  0.1770
  478TMC3     C 7166   1.781   2.487  11.598 -1.0061  0.5831  0.3325
  478TMC3     O 7167   1.782   2.369  11.566  0.4878  0.3339 -0.0966
  478TMC3     H 7168   1.646   2.720  11.669 -0.5929 -0.6886 -0.2652
  478TMC3    H1 7169   1.719   2.428  11.356 -0.1931 -0.3403  0.5093
  478TMC3    H2 7170   1.553   2.808  11.260  0.3813  1.7134  1.4435
  478TMC3    C7 7171   1.608   2.564  11.166 -0.2087 -0.8390  0.0701
  478TMC3    C8 7172   1.534   2.891  11.496  0.4998  0.5103 -0.0257
  478TMC3    O1 7173   1.593   2.445  11.166  0.4037  0.5518  0.1794
  478TMC3    O2 7174   1.534   2.994  11.428  0.4679  0.1739 -0.6343
  479MPD2     C 7175   0.929   4.581  15.248  0.4900 -0.3117 -0.3062
  479MPD2    C1 7176   0.873   4.553  15.370 -0.0040 -0.7298 -0.0287
  479MPD2    C2 7177   0.930   4.605  15.483  0.1765 -0.3739  0.5154
  479MPD2    C3 7178   1.048   4.678  15.487  0.7812  0.2107  0.5856
  479MPD2    C4 7179   1.102   4.700  15.360 -0.0923  0.6812 -1.0138
  479MPD2    C5 7180   1.044   4.661  15.243  0.1126  0.4879 -0.1891
  479MPD2     H 7181   0.881   4.585  15.577  0.6028  1.7060  1.1903
  479MPD2    H1 7182   1.191   0.024  15.339 -0.2347  1.9265  1.8790
  479MPD2    H2 7183   0.889   4.543  15.155  0.0485 -1.2962  0.2909
  479MPD2    H3 7184   1.092   4.684  15.148  1.2867 -0.9682  0.0529
  479MPD2     N 7185   1.108   0.008  15.596  0.1069  0.0692  0.0679
  479MPD2    H5 7186   1.195   0.055  15.574  0.3273 -1.3510 -2.1150
  479MPD2    N1 7187   0.748   4.491  15.362 -0.1004 -0.3762  0.1184
  479MPD2    H7 7188   0.706   4.477  15.271  0.9334 -0.8321 -0.2886
  480TMC3    C1 7189   0.786   4.643  15.913  0.1117  0.3239 -0.1043
  480TMC3    C2 7190   0.680   4.680  15.830 -0.1143  0.1117  0.4404
  480TMC3    C3 7191   0.702   0.038  15.732 -0.5714  0.8777 -0.5316
  480TMC3    C4 7192   0.913   4.660  15.877  0.6002  0.9293  0.3949
  480TMC3    C5 7193   0.928   0.012  15.766 -0.0380  0.4175  0.1287
  480TMC3    C6 7194   0.828   0.065  15.693 -0.1668  0.9122 -0.2486
  480TMC3     C 7195   0.759   4.559  16.029  0.5322 -0.3080  0.7839
  480TMC3     O 7196   0.855   4.493  16.073 -0.2624  0.2211 -0.1025
  480TMC3     H 7197   0.575   4.652  15.841  0.1093 -0.8483  0.1363
  480TMC3    H1 7198   0.995   4.616  15.933 -0.0129  0.1497  0.6702
  480TMC3    H2 7199   0.852   0.144  15.622  1.2957 -1.3584 -2.2795
  480TMC3    C7 7200   1.067   0.028  15.731  0.3337 -0.2800  0.1960
  480TMC3    C8 7201   0.596   0.052  15.634  0.2752 -0.1346 -0.2577
  480TMC3    O1 7202   1.136   0.080  15.820  0.0527 -0.1056  0.1714
  480TMC3    O2 7203   0.480   0.048  15.676  0.7297 -0.3120 -0.0862
  481MPD2     C 7204   2.624   4.139  14.251  0.4974 -0.1860  0.4533
  481MPD2    C1 7205   2.490   4.120  14.265 -0.0927 -0.2049 -0.0257
  481MPD2    C2 7206   2.446   4.073  14.378 -0.3804  0.7205  0.1227
  481MPD2    C3 7207   2.533   4.030  14.482  0.0147  0.0205  0.4015
  481MPD2    C4 7208   2.660   4.069  14.476 -0.2287 -0.1087  0.2030
  481MPD2    C5 7209   2.709   4.111  14.357 -0.4755 -0.3726 -0.1050
  481MPD2     H 7210   2.340   4.049  14.385 -0.2076 -0.5323 -1.5758
  481MPD2    H1 7211   2.734   4.042  14.550  0.0485 -0.7539 -0.3124
  481MPD2    H2 7212   2.665   4.180  14.158 -0.1463  0.4721  0.4635
  481MPD2    H3 7213   2.815   4.125  14.336 -0.6454  2.1853  0.7135
  481MPD2     N 7214   2.487   3.967  14.604 -0.1860  0.3341  0.1758
  481MPD2    H5 7215   2.558   3.956  14.676  0.6104 -1.9249 -0.9669
  481MPD2    N1 7216   2.411   4.145  14.145  0.2142  0.0112  0.0918
  481MPD2    H7 7217   2.456   4.185  14.063 -1.2894  1.1888 -0.1556
  482TMC3    C1 7218   2.228   4.163  14.011 -0.1590  0.1139  0.0845
  482TMC3    C2 7219   2.120   4.092  13.980 -0.3352 -0.6511  0.0741
  482TMC3    C3 7220   2.081   4.090  13.846 -0.3153 -0.2854 -0.5778
  482TMC3    C4 7221   2.294   4.250  13.926  0.5814  0.1530 -0.0138
  482TMC3    C5 7222   2.252   4.249  13.795 -0.0085 -0.0419 -0.3097
  482TMC3    C6 7223   2.152   4.166  13.754 -0.2569  0.3495  0.0418
  482TMC3     C 7224   2.277   4.149  14.150 -0.1945  0.2847 -0.1351
  482TMC3     O 7225   2.197   4.117  14.241 -0.3691  0.3170  0.3425
  482TMC3     H 7226   2.078   4.021  14.050  1.6429 -1.8812  0.0024
  482TMC3    H1 7227   2.374   4.314  13.963 -2.4492  3.0635  1.5614
  482TMC3    H2 7228   2.129   4.165  13.648 -0.6157  0.7990  0.1181
  482TMC3    C7 7229   2.356   4.294  13.710  0.8895 -0.0190  0.2634
  482TMC3    C8 7230   2.015   3.968  13.794 -0.1010 -0.6995 -0.0381
  482TMC3    O1 7231   2.469   4.289  13.749 -0.1796  0.0940 -0.8443
  482TMC3    O2 7232   2.029   3.860  13.852  0.1017  0.5996  0.2139
  483TMC3    C1 7233   4.399   3.049  17.491 -0.1471  0.0215 -0.6786
  483TMC3    C2 7234   4.477   3.160  17.536  0.2017  0.0472 -0.0920
  483TMC3    C3 7235   4.447   3.217  17.657  0.1712 -0.6198  0.6624
  483TMC3    C4 7236   4.277   3.020  17.544 -0.7445  0.0673 -0.3475
  483TMC3    C5 7237   4.246   3.092  17.660  0.9693  0.1584 -0.6413
  483TMC3    C6 7238   4.322   3.188  17.713 -0.3989  0.7467 -0.0735
  483TMC3     C 7239   4.444   2.976  17.369  0.1518 -1.1346 -0.4402
  483TMC3     O 7240   4.544   3.010  17.309  0.6382  0.5778 -0.1209
  483TMC3     H 7241   4.578   3.175  17.499  0.0620 -1.0326 -0.9176
  483TMC3    H1 7242   4.212   2.941  17.507  0.4129 -1.1642  0.2734
  483TMC3    H2 7243   4.283   3.241   0.065 -0.3329 -0.0493  0.4388
  483TMC3    C7 7244   4.196   3.008   0.035  0.6804 -0.0782  0.6591
  483TMC3    C8 7245   4.554   3.218   0.019 -0.2137  0.2891 -0.4076
  483TMC3    O1 7246   4.250   3.027   0.147 -0.0741  0.6208  0.4353
  483TMC3    O2 7247   4.670   3.219  17.717  0.0623  0.0927 -0.2513
  484MPD2     C 7248   2.495   1.076  12.785 -0.0809 -0.1343 -0.0460
  484MPD2    C1 7249   2.577   0.987  12.853  0.2423  0.1135 -0.1957
  484MPD2    C2 7250   2.714   1.000  12.861 -0.7394  0.1224  0.4978
  484MPD2    C3 7251   2.772   1.108  12.788 -0.0944 -0.0150  0.7053
  484MPD2    C4 7252   2.694   1.202  12.730 -0.2297 -0.2230  0.0658
  484MPD2    C5 7253   2.555   1.191  12.733  0.2383 -0.2554 -0.2465
  484MPD2     H 7254   2.776   0.921  12.901  1.3499  1.1354 -0.7262
  484MPD2    H1 7255   2.725   1.295  12.682  0.6545 -1.0710 -0.9895
  484MPD2    H2 7256   2.388   1.065  12.780 -0.1842  1.0727 -0.5946
  484MPD2    H3 7257   2.496   1.267  12.683 -0.7635 -1.5353 -0.9957
  484MPD2     N 7258   2.905   1.109  12.747  0.5204  0.8367  0.3388
  484MPD2    H5 7259   2.936   1.187  12.691  1.7541 -1.4611 -2.2237
  484MPD2    N1 7260   2.506   0.888  12.923 -0.3807  0.2814  0.2414
  484MPD2    H7 7261   2.405   0.903  12.922 -0.4226  0.0586  1.2327
  485TMC3    C1 7262   3.128   1.028  12.724  0.5236  0.9223 -0.0744
  485TMC3    C2 7263   3.218   0.930  12.774 -0.1398 -0.0401 -0.0012
  485TMC3    C3 7264   3.340   0.934  12.716  0.7387  0.5993 -0.7117
  485TMC3    C4 7265   3.149   1.114  12.625 -0.2351  0.1077  0.1948
  485TMC3    C5 7266   3.276   1.118  12.582 -0.2382 -0.0098  0.7688
  485TMC3    C6 7267   3.367   1.031  12.628 -0.7781  0.7442  0.6813
  485TMC3     C 7268   2.997   1.012  12.787 -0.0090  0.7532  0.5425
  485TMC3     O 7269   2.989   0.925  12.875 -0.0953 -0.0366 -0.0791
  485TMC3     H 7270   3.197   0.858  12.852 -2.9054  1.3625  0.5620
  485TMC3    H1 7271   3.066   1.175  12.593 -0.5649  0.1981  1.2172
  485TMC3    H2 7272   3.460   1.022  12.573 -1.2369  0.6240 -0.0669
  485TMC3    C7 7273   3.279   1.081  12.438  0.0662  0.5864  0.1126
  485TMC3    C8 7274   3.420   0.812  12.693  0.2594  0.9396  0.0993
  485TMC3    O1 7275   3.240   0.968  12.418 -0.0731  0.0352  0.0396
  485TMC3    O2 7276   3.531   0.833  12.657  0.0403  0.4026 -0.4779
  486MPD2     C 7277   0.111   0.061  12.630 -0.5548  0.6364  0.2706
  486MPD2    C1 7278   0.110   4.669  12.569  0.4658 -0.3755 -0.3636
  486MPD2    C2 7279   4.728   4.633  12.498  0.4953 -0.1916  0.1144
  486MPD2    C3 7280   4.623   4.723  12.479  0.7346  0.0065 -0.8740
  486MPD2    C4 7281   4.628   0.112  12.548 -0.0199 -0.0103 -0.5790
  486MPD2    C5 7282   0.010   0.146  12.618  0.0778  0.1499 -0.6940
  486MPD2     H 7283   4.719   4.536  12.452  1.3238 -0.5662  0.7355
  486MPD2    H1 7284   4.552   0.190  12.545 -0.8956 -0.8660 -0.7385
  486MPD2    H2 7285   0.199   0.082  12.690  1.3187 -2.1451 -1.4921
  486MPD2    H3 7286   0.015   0.247  12.656 -1.6805  0.5028 -1.4014
  486MPD2     N 7287   4.521   4.686  12.391  0.0189 -0.8418 -0.0666
  486MPD2    H5 7288   4.528   4.606  12.329 -1.1298 -1.5280  0.6887
  486MPD2    N1 7289   0.218   4.580  12.595 -0.0756  0.2561 -0.4196
  486MPD2    H7 7290   0.298   4.619  12.644  0.9202  0.4643 -2.2373
  487TMC3    C1 7291   0.324   4.382  12.647  0.5839 -0.7430 -0.5713
  487TMC3    C2 7292   0.376   4.261  12.609 -0.8960  0.5346 -0.0402
  487TMC3    C3 7293   0.434   4.184  12.704 -0.6333 -0.1531  1.4253
  487TMC3    C4 7294   0.325   4.422  12.781  0.0156  0.6667 -0.7153
  487TMC3    C5 7295   0.390   4.343  12.872 -0.8067 -0.4348 -0.1545
  487TMC3    C6 7296   0.458   4.227  12.833  0.5825  0.2439  0.1397
  487TMC3     C 7297   0.221   4.447  12.567  0.1908  0.4681 -0.1403
  487TMC3     O 7298   0.155   4.372  12.497 -0.1689 -0.5719 -0.4300
  487TMC3     H 7299   0.358   4.215  12.512  1.4657  0.1381 -0.2885
  487TMC3    H1 7300   0.278   4.513  12.814  1.5842  1.1234  0.2860
  487TMC3    H2 7301   0.489   4.157  12.910 -0.1584 -0.8694 -0.5698
  487TMC3    C7 7302   0.333   4.323  13.007 -0.3191 -0.2922  1.1667
  487TMC3    C8 7303   0.400   4.044  12.718  0.5079  0.0070  0.5758
  487TMC3    O1 7304   0.415   4.300  13.089  0.2727  0.4860 -0.6247
  487TMC3    O2 7305   0.494   3.970  12.731 -0.0021  0.2725 -0.4875
  488MPD2     C 7306   0.038   1.355  16.080  0.7512 -0.4131 -0.1746
  488MPD2    C1 7307   0.154   1.375  16.139  0.4535  0.9205  0.0307
  488MPD2    C2 7308   0.165   1.341  16.273  0.4270  0.2234  0.5741
  488MPD2    C3 7309   0.060   1.299  16.352 -0.3089  0.0972 -0.2485
  488MPD2    C4 7310   4.673   1.273  16.289 -0.7672 -0.6591  0.3987
  488MPD2    C5 7311   4.670   1.302  16.153  1.4485 -0.2236  0.0227
  488MPD2     H 7312   0.258   1.360  16.326  0.0433  0.0353  1.3154
  488MPD2    H1 7313   4.585   1.231  16.335 -1.2721 -1.1263 -0.9844
  488MPD2    H2 7314   0.005   1.378  15.979  0.0828  0.5224  0.2552
  488MPD2    H3 7315   4.577   1.288  16.099  0.5382 -0.8204  1.7329
  488MPD2     N 7316   0.077   1.286  16.495 -0.2359  0.4787  0.0981
  488MPD2    H5 7317   0.172   1.298  16.530 -0.1034 -0.3065  0.0132
  488MPD2    N1 7318   0.265   1.442  16.082  0.2306 -0.3230 -0.1441
  488MPD2    H7 7319   0.348   1.461  16.138 -0.1745 -0.7182  0.5918
  489TMC3    C1 7320   0.027   1.288  16.722 -0.0851 -0.0620 -0.4724
  489TMC3    C2 7321   0.091   1.398  16.756 -0.6569  0.3391 -0.1286
  489TMC3    C3 7322   0.171   1.394  16.872  0.2475 -0.5387  0.3256
  489TMC3    C4 7323   0.035   1.176  16.793  0.1207 -0.8125 -0.1433
  489TMC3    C5 7324   0.126   1.172  16.898 -0.6167  0.3749  0.0486
  489TMC3    C6 7325   0.197   1.280  16.947 -0.4593  0.3307 -0.4181
  489TMC3     C 7326   4.709   1.281  16.586 -0.3576  0.1114  0.9931
  489TMC3     O 7327   4.588   1.262  16.564  0.0186 -0.4137 -0.0631
  489TMC3     H 7328   0.079   1.480  16.686  0.0092  1.9722  1.6693
  489TMC3    H1 7329   4.719   1.094  16.744  3.2794 -2.1782 -1.1093
  489TMC3    H2 7330   0.263   1.285  17.033 -0.4869  1.7377 -0.4768
  489TMC3    C7 7331   0.133   1.054  16.978  0.7316 -0.2108  0.7146
  489TMC3    C8 7332   0.241   1.510  16.908  0.2047  0.1511 -0.4083
  489TMC3    O1 7333   0.183   1.060  17.088  0.2868 -0.7719  0.4408
  489TMC3    O2 7334   0.361   1.490  16.936 -0.2582 -0.5810  0.6534
  490MPD2     C 7335   1.302   1.133  17.470 -0.2734 -0.1441  0.2659
  490MPD2    C1 7336   1.228   1.070  17.570  0.1621  0.4961  0.5710
  490MPD2    C2 7337   1.206   1.140  17.688 -0.0662  0.0595  0.4686
  490MPD2    C3 7338   1.275   1.257  17.720 -0.4508 -0.3605  0.3821
  490MPD2    C4 7339   1.352   1.312  17.625 -0.5015 -0.7411  0.1246
  490MPD2    C5 7340   1.367   1.253  17.501  0.4776  0.1610  0.0154
  490MPD2     H 7341   1.158   1.092   0.037 -0.9903 -0.1529 -0.1704
  490MPD2    H1 7342   1.403   1.404  17.651 -2.6530  0.5251 -0.0606
  490MPD2    H2 7343   1.326   1.095  17.372 -0.2840  1.1054 -0.2198
  490MPD2    H3 7344   1.426   1.302  17.424  0.6199 -0.0671 -0.0227
  490MPD2     N 7345   1.275   1.313   0.114  0.3169  0.6542  0.1280
  490MPD2    H5 7346   1.313   1.407   0.119  1.2338  0.2354  0.9743
  490MPD2    N1 7347   1.158   0.946  17.545 -0.7888 -0.5260  0.1262
  490MPD2    H7 7348   1.090   0.919  17.614 -1.2974 -4.2464 -1.8729
  491TMC3    C1 7349   1.098   0.741  17.448 -0.2649 -0.6484  0.4831
  491TMC3    C2 7350   1.041   0.705  17.566  0.1394  0.5578 -0.3271
  491TMC3    C3 7351   0.984   0.579  17.573  0.0581  0.0930 -0.6677
  491TMC3    C4 7352   1.117   0.653  17.342  0.2083  0.3430  0.6893
  491TMC3    C5 7353   1.071   0.522  17.363 -0.8831  0.3948 -0.3304
  491TMC3    C6 7354   1.001   0.490  17.474 -0.7938  0.3948  0.4420
  491TMC3     C 7355   1.170   0.869  17.434 -0.6834 -0.1617 -0.1675
  491TMC3     O 7356   1.235   0.893  17.333  0.0991 -0.0305 -0.0093
  491TMC3     H 7357   1.045   0.779  17.645  0.6384 -0.0754  0.2423
  491TMC3    H1 7358   1.162   0.679  17.247  0.4596  1.6310  1.1716
  491TMC3    H2 7359   0.969   0.387  17.488  0.3695  0.3629  2.7234
  491TMC3    C7 7360   1.068   0.438  17.245  0.2436 -0.1404 -0.0628
  491TMC3    C8 7361   0.892   0.547  17.684  0.5238 -0.4179  0.1893
  491TMC3    O1 7362   1.052   0.501  17.139  0.0266 -0.3434  0.1065
  491TMC3    O2 7363   0.817   0.450  17.672  0.6251  0.5825  0.2508
  492MPD2     C 7364   1.541   1.172  10.942 -0.3988  0.2289 -0.3413
  492MPD2    C1 7365   1.462   1.064  10.920 -0.9856  0.0024  0.7112
  492MPD2    C2 7366   1.442   0.976  11.021  0.4237 -0.5301 -0.7765
  492MPD2    C3 7367   1.503   0.994  11.149 -0.4683  0.6787 -0.4315
  492MPD2    C4 7368   1.582   1.108  11.169 -0.7036 -0.7515 -0.2162
  492MPD2    C5 7369   1.579   1.206  11.067 -0.1429 -0.2043  0.7657
  492MPD2     H 7370   1.368   0.900  11.003 -0.4918  0.0911  0.3435
  492MPD2    H1 7371   1.632   1.135  11.261 -1.0015  2.8474 -1.0865
  492MPD2    H2 7372   1.567   1.243  10.864  0.1482 -1.0577 -1.3199
  492MPD2    H3 7373   1.643   1.292  11.077 -2.4696  1.4992  0.9187
  492MPD2     N 7374   1.484   0.907  11.260 -0.1969 -0.4131 -0.5823
  492MPD2    H5 7375   1.533   0.936  11.344 -1.1429 -2.5972  0.7084
  492MPD2    N1 7376   1.414   1.053  10.790  0.1158  0.6073  0.2853
  492MPD2    H7 7377   1.445   1.124  10.725 -1.6946  0.4610 -0.7313
  493TMC3    C1 7378   1.267   0.990  10.615 -0.4967  0.2410  0.3612
  493TMC3    C2 7379   1.349   1.067  10.533  0.0843  0.0691  0.2180
  493TMC3    C3 7380   1.293   1.120  10.423 -0.1304  0.5706  0.2452
  493TMC3    C4 7381   1.151   0.943  10.573  0.1365 -0.0638  0.6964
  493TMC3    C5 7382   1.099   1.001  10.461 -0.3707  0.4733 -0.3121
  493TMC3    C6 7383   1.166   1.085  10.379  0.6118  0.5295  0.0853
  493TMC3     C 7384   1.310   0.969  10.756 -0.6743  0.4081 -0.0910
  493TMC3     O 7385   1.247   0.885  10.819 -0.6810  0.6102  0.2772
  493TMC3     H 7386   1.457   1.071  10.544  0.0346 -1.7615  1.4305
  493TMC3    H1 7387   1.080   0.897  10.642  0.7461 -1.0526  0.6634
  493TMC3    H2 7388   1.123   1.121  10.286 -1.4126 -2.6178 -0.1768
  493TMC3    C7 7389   0.954   1.011  10.459  0.4553 -0.9807 -0.1877
  493TMC3    C8 7390   1.361   1.237  10.366 -0.4415 -0.6848 -0.1083
  493TMC3    O1 7391   0.899   1.119  10.433 -0.8667  0.0653 -0.6849
  493TMC3    O2 7392   1.442   1.295  10.438  0.5422  0.5343  0.3338
  494TMC3    C1 7393   1.843   2.298   0.558 -0.1063  0.4281  0.3756
  494TMC3    C2 7394   1.930   2.196   0.573 -0.0207  0.5421  0.0900
  494TMC3    C3 7395   2.010   2.168   0.460 -0.1574 -0.2455  0.8520
  494TMC3    C4 7396   1.839   2.377   0.444  0.4676 -0.4824  0.4242
  494TMC3    C5 7397   1.908   2.334   0.335 -0.5076  0.0676 -0.9731
  494TMC3    C6 7398   1.992   2.223   0.334 -0.8406 -0.1833  0.1340
  494TMC3     C 7399   1.752   2.334   0.664  0.2413 -0.6976  0.5744
  494TMC3     O 7400   1.713   2.451   0.672 -0.0543 -0.8431 -0.5448
  494TMC3     H 7401   1.963   2.159   0.669 -1.1533  0.3009  0.3919
  494TMC3    H1 7402   1.775   2.465   0.440 -1.4149 -1.7957  1.4873
  494TMC3    H2 7403   2.051   2.188   0.250  1.5638  2.0775  0.8607
  494TMC3    C7 7404   1.903   2.408   0.215 -0.5662  0.0109  0.0719
  494TMC3    C8 7405   2.085   2.045   0.452  0.7161  0.1847 -0.1057
  494TMC3    O1 7406   1.922   2.354   0.107 -0.0567  0.4552  0.1723
  494TMC3    O2 7407   2.054   1.974   0.354  0.0452 -0.4364 -0.2190
  495TMC3    C1 7408   1.000   4.716  14.738 -0.3187  0.1072 -0.3153
  495TMC3    C2 7409   0.929   0.020  14.632  0.6177 -0.5606  0.6984
  495TMC3    C3 7410   0.801   0.058  14.654 -0.4578 -0.0907 -0.7178
  495TMC3    C4 7411   0.960   0.013  14.863 -0.1502  0.0308  0.8408
  495TMC3    C5 7412   0.834   0.061  14.880 -0.7265 -0.1443  0.1772
  495TMC3    C6 7413   0.756   0.089  14.777 -0.4424 -0.2441  0.7047
  495TMC3     C 7414   1.048   4.580  14.729  0.0282 -0.4541  0.5734
  495TMC3     O 7415   1.017   4.501  14.816  1.1637  0.2739  0.4712
  495TMC3     H 7416   0.967   4.731  14.533  1.6290  1.5392  0.5984
  495TMC3    H1 7417   1.022   4.722  14.948 -1.1005  0.1837  1.5850
  495TMC3    H2 7418   0.661   0.142  14.785 -1.0947 -1.2882 -0.1387
  495TMC3    C7 7419   0.795   0.077  15.015  0.2390 -0.3512 -0.2354
  495TMC3    C8 7420   0.701   4.709  14.599 -0.4745 -0.9568 -0.2821
  495TMC3    O1 7421   0.872   0.108  15.101  0.4345  0.3615 -0.0814
  495TMC3    O2 7422   0.605   4.682  14.668 -0.4241 -0.3209 -0.9039
  496MPD2     C 7423   2.649   4.125  15.019  0.5957  0.3754  0.0480
  496MPD2    C1 7424   2.665   4.055  15.143 -0.3932  0.4606 -0.1741
  496MPD2    C2 7425   2.559   4.046  15.231 -0.7133 -0.5080  0.0171
  496MPD2    C3 7426   2.446   4.120  15.223 -0.3410 -0.0107  0.6175
  496MPD2    C4 7427   2.428   4.190  15.105 -0.3300  0.5528 -0.3536
  496MPD2    C5 7428   2.525   4.187  15.000  0.6761 -0.9925  0.1091
  496MPD2     H 7429   2.569   3.976  15.314 -0.5916 -0.8996 -0.3266
  496MPD2    H1 7430   2.341   4.251  15.084 -0.3030  1.4685  2.2127
  496MPD2    H2 7431   2.729   4.135  14.946 -1.6383  0.6193 -2.3535
  496MPD2    H3 7432   2.513   4.247  14.911 -0.7333 -0.1813  0.8433
  496MPD2     N 7433   2.351   4.135  15.326 -0.4535  0.7139  0.2864
  496MPD2    H5 7434   2.302   4.224  15.319 -1.3303  0.1125 -1.4434
  496MPD2    N1 7435   2.783   3.973  15.161  0.2063 -0.2537 -0.1694
  496MPD2    H7 7436   2.854   3.976  15.089  0.4466 -0.6410  0.0543
  497TMC3    C1 7437   2.317   4.158  15.551 -0.5674  0.0088 -0.4673
  497TMC3    C2 7438   2.355   4.290  15.538 -0.1242 -0.5705 -0.5826
  497TMC3    C3 7439   2.341   4.364  15.654 -0.2053 -0.0934 -0.0533
  497TMC3    C4 7440   2.276   4.111  15.672  1.0627 -0.5154  0.0017
  497TMC3    C5 7441   2.261   4.188  15.783 -0.0241  0.5844 -0.5108
  497TMC3    C6 7442   2.289   4.321  15.778  0.2007 -0.1621  0.0821
  497TMC3     C 7443   2.351   4.065  15.446 -0.6751 -0.4277 -0.1196
  497TMC3     O 7444   2.398   3.959  15.483  0.1531  0.0485  0.1515
  497TMC3     H 7445   2.406   4.327  15.450 -1.2996  1.8185 -0.2530
  497TMC3    H1 7446   2.242   4.007  15.671 -1.5579  0.3358 -0.7208
  497TMC3    H2 7447   2.251   4.386  15.856 -2.0787  0.1175 -1.2680
  497TMC3    C7 7448   2.234   4.117  15.901  0.3504  0.7058 -0.6825
  497TMC3    C8 7449   2.347   4.502  15.632  0.0246  0.7302  0.0458
  497TMC3    O1 7450   2.169   4.011  15.896 -0.7176  0.0860 -0.2538
  497TMC3    O2 7451   2.323   4.544  15.516 -0.0257 -0.5450  0.0862
  498MPD2     C 7452   4.494   0.995  10.105 -0.4438  0.5556  0.5803
  498MPD2    C1 7453   4.370   1.063  10.120  0.0667  0.5374 -0.6502
  498MPD2    C2 7454   4.258   0.993  10.092  0.7007  0.5254  0.3956
  498MPD2    C3 7455   4.262   0.856  10.058 -0.5860 -0.3416 -0.0032
  498MPD2    C4 7456   4.383   0.792  10.037  0.4491 -0.0491  0.1083
  498MPD2    C5 7457   4.497   0.860  10.061  0.5979 -0.2185 -0.4975
  498MPD2     H 7458   4.165   1.046  10.104  0.5974  0.7927 -1.6706
  498MPD2    H1 7459   4.391   0.687  10.012  0.2561  0.1583 -0.8319
  498MPD2    H2 7460   4.591   1.043  10.095  0.3321 -1.3730 -1.1668
  498MPD2    H3 7461   4.592   0.807  10.054  0.7412 -0.0376  0.0479
  498MPD2     N 7462   4.139   0.798  10.020 -0.1380  0.7577  0.4992
  498MPD2    H5 7463   4.063   0.863  10.006 -0.4972  0.2045 -0.1012
  498MPD2    N1 7464   4.352   1.199  10.156  0.2515 -0.2134 -0.1954
  498MPD2    H7 7465   4.256   1.233  10.157  0.6173  0.9036 -2.2627
  499TMC3    C1 7466   4.392   1.409  10.240  0.0003  0.3434  0.1922
  499TMC3    C2 7467   4.472   1.482  10.322  0.1789 -0.2920  0.3196
  499TMC3    C3 7468   4.416   1.582  10.402 -0.2876 -0.0708 -0.8201
  499TMC3    C4 7469   4.257   1.438  10.235  0.2316  0.1891  0.2168
  499TMC3    C5 7470   4.206   1.546  10.310 -0.0968 -0.3985  0.0769
  499TMC3    C6 7471   4.287   1.623  10.384 -1.0133  0.1237 -0.0055
  499TMC3     C 7472   4.452   1.292  10.178 -0.4882 -0.3163  0.3630
  499TMC3     O 7473   4.570   1.274  10.180  0.3743  0.1252 -0.2625
  499TMC3     H 7474   4.578   1.461  10.332  0.7877  2.3465 -0.6697
  499TMC3    H1 7475   4.189   1.396  10.162  0.8047  0.2745 -0.3643
  499TMC3    H2 7476   4.252   1.711  10.438  0.3733  0.3384  0.5418
  499TMC3    C7 7477   4.126   1.628  10.223 -0.3090  0.5864 -0.0453
  499TMC3    C8 7478   4.490   1.679  10.481  0.2556  0.5671  0.8510
  499TMC3    O1 7479   4.161   1.739  10.201 -0.1586  0.2086 -0.6089
  499TMC3    O2 7480   4.434   1.708  10.586  0.0320 -0.2923  0.0993
  500MPD2     C 7481   0.385   2.322  11.011  0.7651  0.7938 -0.1915
  500MPD2    C1 7482   0.440   2.354  10.890  0.0893  0.5953  0.1748
  500MPD2    C2 7483   0.352   2.368  10.785  0.2231 -0.1985 -0.2562
  500MPD2    C3 7484   0.218   2.335  10.791  0.4677  0.4409  0.8241
  500MPD2    C4 7485   0.168   2.307  10.914  0.0068 -0.1696  0.8923
  500MPD2    C5 7486   0.253   2.292  11.019 -0.0923 -0.1374 -0.1983
  500MPD2     H 7487   0.395   2.377  10.686  0.6468 -2.8943 -0.3327
  500MPD2    H1 7488   0.064   2.276  10.920 -0.3343  1.1252  1.5316
  500MPD2    H2 7489   0.447   2.302  11.097 -0.6596  0.4009  0.7404
  500MPD2    H3 7490   0.216   2.272  11.118  0.6340  0.4121  0.1902
  500MPD2     N 7491   0.134   2.333  10.676  0.3168 -0.4423  0.5350
  500MPD2    H5 7492   0.038   2.320  10.706 -0.3054  0.1556 -1.1928
  500MPD2    N1 7493   0.573   2.387  10.874  0.3624 -0.1675 -0.0679
  500MPD2    H7 7494   0.603   2.414  10.781  0.1228  0.7117  0.1076
  501TMC3    C1 7495   0.797   2.437  10.924  0.0441  0.0200  0.1113
  501TMC3    C2 7496   0.811   2.496  10.798 -0.2912  0.3824 -0.2326
  501TMC3    C3 7497   0.938   2.489  10.746 -0.2071 -0.2171  0.2621
  501TMC3    C4 7498   0.904   2.395  10.998  0.1784 -0.4266 -0.4017
  501TMC3    C5 7499   1.029   2.390  10.944  0.3532  0.3635 -0.2042
  501TMC3    C6 7500   1.045   2.434  10.815 -0.3667 -0.1781 -0.5377
  501TMC3     C 7501   0.670   2.397  10.967  0.7907  0.8700 -0.2466
  501TMC3     O 7502   0.662   2.391  11.090  0.4932  0.6090 -0.0579
  501TMC3     H 7503   0.726   2.532  10.742 -0.4954 -0.5317 -0.5114
  501TMC3    H1 7504   0.887   2.362  11.100 -0.0731  0.1580 -0.2496
  501TMC3    H2 7505   1.140   2.429  10.762 -1.5755 -1.0202 -2.5991
  501TMC3    C7 7506   1.103   2.281  10.995 -0.3652  0.4432  0.3213
  501TMC3    C8 7507   0.963   2.592  10.648 -0.1824 -1.0281  0.1318
  501TMC3    O1 7508   1.071   2.257  11.113  0.0710 -0.0424 -0.5786
  501TMC3    O2 7509   1.083   2.612  10.626 -0.5079  0.9032  0.8846
  502TMC3    C1 7510   0.209   0.710  14.747 -0.5930  0.1156 -0.3543
  502TMC3    C2 7511   0.168   0.822  14.680  0.2368  0.1741 -0.0482
  502TMC3    C3 7512   0.032   0.837  14.669 -0.3397  0.6705  0.4144
  502TMC3    C4 7513   0.113   0.625  14.804  0.4112  0.2251 -0.7508
  502TMC3    C5 7514   4.711   0.649  14.789 -0.1132  0.8547  0.3696
  502TMC3    C6 7515   4.670   0.760  14.724  0.3450 -0.6177  1.0629
  502TMC3     C 7516   0.334   0.723  14.806  0.0610  0.2773  0.3859
  502TMC3     O 7517   0.428   0.773  14.741  0.0119  0.2787 -0.3159
  502TMC3     H 7518   0.239   0.903  14.670  1.3570 -1.0536 -2.1786
  502TMC3    H1 7519   0.154   0.543  14.862  0.0829  0.3160 -0.3874
  502TMC3    H2 7520   4.565   0.788  14.724  0.6445  0.5404  0.7871
  502TMC3    C7 7521   4.621   0.552  14.851  0.2366 -0.9861 -0.0775
  502TMC3    C8 7522   4.721   0.962  14.611  0.2110 -0.7645  1.1024
  502TMC3    O1 7523   4.675   0.443  14.861  0.5078  0.3848 -0.6801
  502TMC3    O2 7524   4.618   1.006  14.654  0.3031 -0.2683  0.3674
  503MPD2     C 7525   2.237   1.621  16.676  0.4191 -0.0749  0.0200
  503MPD2    C1 7526   2.165   1.580  16.783  0.4257  0.4098 -0.2855
  503MPD2    C2 7527   2.200   1.465  16.847  0.1479  0.1952 -0.2042
  503MPD2    C3 7528   2.311   1.387  16.815 -0.7835  0.1082  0.4017
  503MPD2    C4 7529   2.385   1.432  16.711 -0.6575 -0.1730  0.3759
  503MPD2    C5 7530   2.358   1.550  16.649 -0.3796  0.4877 -0.3410
  503MPD2     H 7531   2.139   1.420  16.924 -0.8605  0.1357 -1.0256
  503MPD2    H1 7532   2.479   1.384  16.684 -0.2647  0.3994  0.7378
  503MPD2    H2 7533   2.209   1.709  16.620 -1.8797  0.0201  1.2964
  503MPD2    H3 7534   2.427   1.577  16.570 -0.9101 -2.6747 -1.8859
  503MPD2     N 7535   2.342   1.276  16.900 -0.2619  0.4230 -0.5233
  503MPD2    H5 7536   2.276   1.266  16.977 -1.6286 -0.4345 -1.8231
  503MPD2    N1 7537   2.055   1.651  16.836 -0.0814 -0.1076 -0.5252
  503MPD2    H7 7538   2.016   1.607  16.918 -0.5554  1.4443  0.0841
  504TMC3    C1 7539   2.418   1.059  16.962  0.3455 -0.3086  0.5124
  504TMC3    C2 7540   2.364   1.073  17.088 -0.0742 -0.4052 -0.4072
  504TMC3    C3 7541   2.394   0.979  17.186  0.4760  0.1685  0.3563
  504TMC3    C4 7542   2.497   0.952  16.941  0.3198 -0.1871  0.4835
  504TMC3    C5 7543   2.520   0.863  17.041  0.3031 -0.1577  0.0486
  504TMC3    C6 7544   2.478   0.873  17.166 -0.2027 -0.0498  0.3449
  504TMC3     C 7545   2.426   1.173  16.872 -0.4485 -0.7260  0.4541
  504TMC3     O 7546   2.508   1.164  16.778  0.2091  0.2970 -0.1676
  504TMC3     H 7547   2.295   1.154  17.109 -0.5359 -0.5368 -1.4231
  504TMC3    H1 7548   2.535   0.942  16.840  1.0803 -0.1535  0.7662
  504TMC3    H2 7549   2.466   0.783  17.225 -1.9604  0.1091  0.2474
  504TMC3    C7 7550   2.641   0.787  17.018  0.3320 -0.3098  0.0675
  504TMC3    C8 7551   2.314   0.983  17.305 -0.1769  0.2116 -0.1307
  504TMC3    O1 7552   2.664   0.767  16.896 -0.0262  0.3783 -0.1791
  504TMC3    O2 7553   2.235   1.075  17.317 -1.3504 -0.0308 -0.0626
  505MPD2     C 7554   2.920   0.714   9.160  0.0352  0.7642 -0.3629
  505MPD2    C1 7555   2.889   0.648   9.274 -0.6859 -0.7524 -0.7533
  505MPD2    C2 7556   2.873   0.719   9.393  0.0997  0.0067  0.2026
  505MPD2    C3 7557   2.870   0.857   9.402 -0.1355 -1.0841 -0.3545
  505MPD2    C4 7558   2.909   0.921   9.289 -0.1165  0.2867 -0.6259
  505MPD2    C5 7559   2.932   0.850   9.177  0.3465  0.5473  0.4647
  505MPD2     H 7560   2.848   0.668   9.485  1.6226 -0.1994  0.5099
  505MPD2    H1 7561   2.925   1.029   9.283  1.4991  0.0391 -0.9575
  505MPD2    H2 7562   2.953   0.663   9.070  1.2782 -2.0914  1.7048
  505MPD2    H3 7563   2.957   0.911   9.091 -3.0052  2.0032  0.5326
  505MPD2     N 7564   2.840   0.914   9.524 -0.4597 -0.1123 -0.2729
  505MPD2    H5 7565   2.803   0.840   9.584  1.7366  0.7138  2.0873
  505MPD2    N1 7566   2.890   0.506   9.270  0.3750 -0.4447 -0.2554
  505MPD2    H7 7567   2.934   0.459   9.192 -1.1742 -1.7930 -0.3169
  506TMC3    C1 7568   2.881   0.293   9.367  1.0752 -0.3748 -0.4701
  506TMC3    C2 7569   3.007   0.281   9.313 -0.7429 -0.0353  0.2031
  506TMC3    C3 7570   3.097   0.198   9.374 -0.2787  0.2471  0.2033
  506TMC3    C4 7571   2.844   0.217   9.476 -0.8528  0.3411 -0.8266
  506TMC3    C5 7572   2.941   0.152   9.542  0.8580 -0.3544  0.5768
  506TMC3    C6 7573   3.069   0.148   9.496  0.1528  0.4949 -0.4804
  506TMC3     C 7574   2.840   0.432   9.379  0.4584 -0.8365  0.1147
  506TMC3     O 7575   2.766   0.460   9.470  0.1150 -0.0121  0.5667
  506TMC3     H 7576   3.041   0.327   9.221  0.2312 -1.6123 -0.2298
  506TMC3    H1 7577   2.744   0.224   9.515 -0.5607 -0.4243  0.0566
  506TMC3    H2 7578   3.138   0.090   9.556  0.7601  1.0082 -0.6931
  506TMC3    C7 7579   2.925   0.167   9.684  0.8303  0.8552 -0.3924
  506TMC3    C8 7580   3.232   0.212   9.340  0.3237 -0.1299 -0.6717
  506TMC3    O1 7581   2.975   0.086   9.763  0.2627  0.1704 -0.7865
  506TMC3    O2 7582   3.267   0.202   9.222  0.0499  0.1898 -0.6510
  507TMC3    C1 7583   3.474   0.615  15.521  0.1159 -0.3285 -0.1819
  507TMC3    C2 7584   3.418   0.612  15.397 -0.4063 -0.5881 -0.3621
  507TMC3    C3 7585   3.484   0.675  15.297 -0.3984  0.2142  0.3990
  507TMC3    C4 7586   3.574   0.699  15.548  0.5300  0.3556 -1.1258
  507TMC3    C5 7587   3.629   0.781  15.451  0.0817 -0.3869 -0.2110
  507TMC3    C6 7588   3.591   0.753  15.326  0.0990 -0.7334  0.3993
  507TMC3     C 7589   3.471   0.480  15.584 -0.0107  0.1013  0.0989
  507TMC3     O 7590   3.415   0.396  15.514 -0.1129  0.2069  0.5377
  507TMC3     H 7591   3.328   0.553  15.385 -0.2721 -0.2469 -3.1053
  507TMC3    H1 7592   3.605   0.707  15.652 -1.2631  0.1292 -0.5826
  507TMC3    H2 7593   3.647   0.799  15.245  0.0189 -0.0273  0.7413
  507TMC3    C7 7594   3.600   0.918  15.482 -0.2635 -0.5366  0.5285
  507TMC3    C8 7595   3.402   0.727  15.187  0.4138 -0.6879 -0.6433
  507TMC3    O1 7596   3.618   0.945  15.598 -0.4547 -0.4364  0.0365
  507TMC3    O2 7597   3.437   0.833  15.147  0.0590  0.2064 -0.1544
  508MPD2     C 7598   4.501   2.946  16.088 -0.1597  0.4385 -0.9773
  508MPD2    C1 7599   4.540   3.057  16.158  0.6879 -0.1681  0.8060
  508MPD2    C2 7600   4.545   3.174  16.097  0.4059 -0.1087  0.3563
  508MPD2    C3 7601   4.517   3.192  15.961 -0.0854 -0.6236 -0.5856
  508MPD2    C4 7602   4.484   3.077  15.888  0.4153  0.0940  0.3189
  508MPD2    C5 7603   4.473   2.955  15.955  0.3157 -0.0038 -0.1597
  508MPD2     H 7604   4.584   3.256  16.156  1.6538  0.1491 -0.8221
  508MPD2    H1 7605   4.458   3.079  15.782  2.9221  0.5357 -0.2828
  508MPD2    H2 7606   4.505   2.842  16.120  0.8154  0.2170 -1.8099
  508MPD2    H3 7607   4.460   2.861  15.901 -0.1442 -0.8169  1.3420
  508MPD2     N 7608   4.514   3.319  15.903  0.9849 -0.2097 -0.5019
  508MPD2    H5 7609   4.558   3.393  15.956 -0.5962  0.6729 -0.4091
  508MPD2    N1 7610   4.588   3.047  16.288  0.4142 -0.3582  1.0579
  508MPD2    H7 7611   4.617   3.138  16.322 -1.4717  0.0821  1.4860
  509TMC3    C1 7612   4.303   3.678  15.763  0.2902  0.4128  0.7934
  509TMC3    C2 7613   4.404   3.766  15.799  0.5077 -0.4255  0.1197
  509TMC3    C3 7614   4.531   3.711  15.826 -0.1877  0.3611  0.2625
  509TMC3    C4 7615   4.325   3.549  15.735 -0.6254  0.7245  0.2761
  509TMC3    C5 7616   4.447   3.500  15.765  0.6628  0.3978  0.2250
  509TMC3    C6 7617   4.555   3.577  15.817 -0.1349 -0.0567 -0.6819
  509TMC3     C 7618   4.171   3.728  15.735  0.4640  1.0992  0.5137
  509TMC3     O 7619   4.075   3.651  15.748  0.4080 -0.1868  0.8954
  509TMC3     H 7620   4.381   3.869  15.824  1.6807 -0.4771  1.3633
  509TMC3    H1 7621   4.252   3.473  15.708  0.7101 -0.0656 -1.1452
  509TMC3    H2 7622   4.650   3.528  15.835  0.5495  1.4447 -0.1814
  509TMC3    C7 7623   4.460   3.356  15.785 -0.5262  0.3642  0.3440
  509TMC3    C8 7624   4.633   3.782  15.902  0.4823  0.0388  0.0575
  509TMC3    O1 7625   4.403   3.278  15.706  0.9132 -0.3507  0.0660
  509TMC3    O2 7626   4.719   3.726  15.962 -0.7583  0.1672 -0.2226
  510MPD2     C 7627   1.990   0.461  14.662  0.1370  0.1367  0.3109
  510MPD2    C1 7628   2.055   0.366  14.733 -0.6061  0.0914  0.3605
  510MPD2    C2 7629   2.192   0.363  14.728  0.6682 -0.6495  0.3891
  510MPD2    C3 7630   2.261   0.439  14.638 -0.4140 -0.0461  0.0657
  510MPD2    C4 7631   2.192   0.521  14.557 -0.2920 -0.1754 -0.1156
  510MPD2    C5 7632   2.056   0.532  14.577 -1.2857 -0.2839 -0.2368
  510MPD2     H 7633   2.243   0.299  14.799 -0.8811 -2.1830  0.1276
  510MPD2    H1 7634   2.242   0.576  14.478 -0.6602 -1.2467 -1.0908
  510MPD2    H2 7635   1.882   0.465  14.663  0.0787 -0.1583 -3.0116
  510MPD2    H3 7636   2.006   0.605  14.515  1.2408  0.8759 -0.9067
  510MPD2     N 7637   2.398   0.425  14.632 -0.1544  0.3682 -0.1359
  510MPD2    H5 7638   2.450   0.374  14.703 -0.9436 -1.2851 -0.7551
  510MPD2    N1 7639   1.974   0.289  14.827 -0.1641  0.3901 -0.2991
  510MPD2    H7 7640   1.881   0.316  14.855 -0.7865 -0.8907 -1.1117
  511TMC3    C1 7641   1.933   0.086  14.964  0.1410 -0.1748  0.0154
  511TMC3    C2 7642   1.850   0.157  15.045  0.0481 -1.5043  0.7422
  511TMC3    C3 7643   1.757   0.077  15.108  0.7608  0.0513  0.3283
  511TMC3    C4 7644   1.931   4.685  14.951 -0.1785  0.4709  0.3775
  511TMC3    C5 7645   1.839   4.610  15.026 -0.0905  0.3463 -0.1258
  511TMC3    C6 7646   1.743   4.680  15.097  0.7356 -0.2963 -0.9209
  511TMC3     C 7647   2.014   0.155  14.861  0.1431  0.0798 -0.2705
  511TMC3     O 7648   2.111   0.099  14.821  0.1682 -0.2929 -0.4209
  511TMC3     H 7649   1.873   0.258  15.077 -1.5572 -2.0257  3.5917
  511TMC3    H1 7650   1.999   4.646  14.876  0.3046 -0.3218  1.2266
  511TMC3    H2 7651   1.646   4.641  15.127  0.8790 -0.5212 -0.7495
  511TMC3    C7 7652   1.805   4.482  14.963 -0.3734 -0.1397 -0.0324
  511TMC3    C8 7653   1.703   0.135  15.238  0.1695  0.1841 -0.2725
  511TMC3    O1 7654   1.841   4.455  14.849  0.4649 -0.6056 -0.6091
  511TMC3    O2 7655   1.666   0.252  15.234  0.2997 -0.4322  0.1410
  512TMC3    C1 7656   1.466   3.920  13.845 -0.6561 -0.1143 -0.1876
  512TMC3    C2 7657   1.556   3.981  13.929 -0.4042 -0.1204  0.1458
  512TMC3    C3 7658   1.607   4.102  13.892 -0.2937  0.2319  0.3850
  512TMC3    C4 7659   1.429   3.966  13.723 -0.4685  0.5198  0.1544
  512TMC3    C5 7660   1.495   4.079  13.690 -0.0943 -0.2426  0.6816
  512TMC3    C6 7661   1.572   4.158  13.771 -0.2877  0.3716  0.3046
  512TMC3     C 7662   1.428   3.782  13.873  0.5791  0.2507  0.1432
  512TMC3     O 7663   1.496   3.716  13.943  0.1538  0.1302  0.0296
  512TMC3     H 7664   1.584   3.937  14.024  2.2064  0.3106 -0.4338
  512TMC3    H1 7665   1.369   3.912  13.651 -2.4845  2.2322  0.5792
  512TMC3    H2 7666   1.633   4.235  13.726 -0.2278  0.7789  1.0910
  512TMC3    C7 7667   1.453   4.135  13.560  0.0249 -0.7034 -0.1468
  512TMC3    C8 7668   1.691   4.176  13.990  0.2026  0.4338  0.0040
  512TMC3    O1 7669   1.470   4.252  13.546 -0.6312 -0.1410  0.1176
  512TMC3    O2 7670   1.741   4.110  14.080  0.2656  0.0970  0.3249
  513MPD2     C 7671   2.648   4.008  13.398 -0.0533 -0.1255 -0.7657
  513MPD2    C1 7672   2.764   4.024  13.329  0.0566 -0.2126 -0.6640
  513MPD2    C2 7673   2.884   4.036  13.402 -0.8335  0.3115 -1.0208
  513MPD2    C3 7674   2.891   4.040  13.536  0.5364 -1.0931  0.0419
  513MPD2    C4 7675   2.776   4.016  13.607 -0.1964 -0.0062 -0.3612
  513MPD2    C5 7676   2.659   4.005  13.534 -0.0291 -0.2076  0.6037
  513MPD2     H 7677   2.976   4.055  13.348  0.7873 -0.8861  1.3269
  513MPD2    H1 7678   2.773   4.009  13.715  0.3606 -0.5731 -0.3790
  513MPD2    H2 7679   2.553   4.006  13.346  0.7178 -0.8034 -2.1528
  513MPD2    H3 7680   2.570   3.980  13.590 -2.8756  2.3883 -2.7567
  513MPD2     N 7681   3.018   4.061  13.593  0.0347  0.4972 -0.5076
  513MPD2    H5 7682   3.098   4.071  13.533  1.0714 -1.4183  0.5550
  513MPD2    N1 7683   2.751   4.011  13.188  0.1096 -0.6197 -0.1680
  513MPD2    H7 7684   2.663   3.976  13.153 -1.0155  2.2441 -0.1779
  514TMC3    C1 7685   2.842   3.940  12.977  0.2799 -0.3645 -0.0072
  514TMC3    C2 7686   2.819   4.038  12.882 -0.4712 -0.4133 -0.1933
  514TMC3    C3 7687   2.877   4.037  12.755  0.5177  0.2195  0.0618
  514TMC3    C4 7688   2.938   3.851  12.941  0.4496  0.1116  0.2187
  514TMC3    C5 7689   2.995   3.852  12.819  0.1019 -0.1488 -0.6574
  514TMC3    C6 7690   2.963   3.941  12.719 -0.1849 -0.2493 -0.5768
  514TMC3     C 7691   2.865   3.986  13.109 -0.4751  0.1173 -0.4877
  514TMC3     O 7692   2.983   3.989  13.132  0.2475  0.4690 -0.2856
  514TMC3     H 7693   2.769   4.129  12.913  0.6075  0.4199 -0.8847
  514TMC3    H1 7694   2.965   3.770  13.009 -3.2942 -0.6223  0.8417
  514TMC3    H2 7695   3.011   3.935  12.622  0.0569 -2.2259 -0.3216
  514TMC3    C7 7696   3.141   3.841  12.844  0.3835  0.2411 -0.0388
  514TMC3    C8 7697   2.830   4.132  12.660  0.2711 -0.4187 -0.4647
  514TMC3    O1 7698   3.211   3.787  12.757 -0.4757 -0.0577  0.1929
  514TMC3    O2 7699   2.752   4.215  12.703 -0.1034  0.2692 -0.4683
  515MPD2     C 7700   1.064   1.226  14.581 -0.4143  0.2698  0.3964
  515MPD2    C1 7701   1.029   1.108  14.649 -0.1687  0.3550  0.3058
  515MPD2    C2 7702   1.035   1.120  14.785 -0.0717 -0.2121  1.1390
  515MPD2    C3 7703   1.063   1.240  14.855  0.0154  0.3976  0.0354
  515MPD2    C4 7704   1.104   1.350  14.786 -0.1089  1.1871 -0.2918
  515MPD2    C5 7705   1.105   1.341  14.650  0.0182  0.2882  0.1269
  515MPD2     H 7706   1.007   1.035  14.845 -1.1882 -1.2675 -0.9075
  515MPD2    H1 7707   1.130   1.443  14.836  0.9071  2.0073 -2.3226
  515MPD2    H2 7708   1.060   1.234  14.473  0.4036 -2.4079  0.1485
  515MPD2    H3 7709   1.125   1.430  14.592  2.0780 -0.3977 -0.2113
  515MPD2     N 7710   1.058   1.246  14.996  0.1127  0.7427 -0.5562
  515MPD2    H5 7711   1.108   1.328  15.027 -0.1070 -0.2764  2.4579
  515MPD2    N1 7712   0.998   0.987  14.589 -0.0200 -0.1800 -0.0819
  515MPD2    H7 7713   0.953   0.926  14.657 -0.6563  1.2894  0.8076
  516TMC3    C1 7714   0.951   0.826  14.425  0.1250  0.2213  0.5950
  516TMC3    C2 7715   0.909   0.811  14.297 -0.3407  0.0236 -0.7649
  516TMC3    C3 7716   0.809   0.725  14.270 -0.1406 -0.2972  0.7952
  516TMC3    C4 7717   0.912   0.740  14.524  0.3938 -0.4384 -0.6829
  516TMC3    C5 7718   0.816   0.650  14.492 -0.2066 -0.1989 -0.3687
  516TMC3    C6 7719   0.763   0.637  14.365  0.0760  0.1755 -0.5722
  516TMC3     C 7720   1.008   0.954  14.457  0.4459  0.1924 -0.1946
  516TMC3     O 7721   1.053   1.023  14.363  0.6121 -0.4624  0.0014
  516TMC3     H 7722   0.933   0.892  14.229  1.5631 -0.1842 -0.3434
  516TMC3    H1 7723   0.958   0.761  14.619 -1.9996  0.0553  0.3598
  516TMC3    H2 7724   0.684   0.567  14.342  0.4828 -0.1488 -0.9706
  516TMC3    C7 7725   0.740   0.584  14.604  0.7178  0.2439  0.4338
  516TMC3    C8 7726   0.726   0.754  14.159  0.1098  0.7782  0.9529
  516TMC3    O1 7727   0.781   0.613  14.715  0.2112  0.2316  0.3173
  516TMC3    O2 7728   0.600   0.738  14.179 -0.1306 -0.0001 -0.1931
  517MPD2     C 7729   0.408   2.708  17.426 -0.3296  0.1153 -0.5337
  517MPD2    C1 7730   0.511   2.652  17.495  0.7047 -0.3351 -0.7704
  517MPD2    C2 7731   0.541   2.706  17.620 -0.1412  0.5364  0.3489
  517MPD2    C3 7732   0.465   2.810  17.675 -0.2298 -0.4329  0.4500
  517MPD2    C4 7733   0.368   2.876  17.604  0.8162  0.3307 -0.2886
  517MPD2    C5 7734   0.339   2.818  17.480  0.3344 -0.4869  0.1094
  517MPD2     H 7735   0.602   2.649  17.689  0.4618  0.1506 -0.5105
  517MPD2    H1 7736   0.303   2.955  17.641 -0.7204 -1.8012  1.5554
  517MPD2    H2 7737   0.376   2.681  17.326  0.6869  0.2174 -0.8804
  517MPD2    H3 7738   0.255   2.860  17.427 -0.4195 -0.7772  1.0837
  517MPD2     N 7739   0.481   2.855   0.073 -0.7502  0.3004  0.1196
  517MPD2    H5 7740   0.423   2.934   0.102 -2.5751 -0.8798 -0.3410
  517MPD2    N1 7741   0.596   2.550  17.443 -0.2845  0.0951  0.6906
  517MPD2    H7 7742   0.681   2.536  17.495 -1.7226 -1.6035  2.6067
  518TMC3    C1 7743   0.680   2.388  17.311  0.2304 -0.1013 -0.8276
  518TMC3    C2 7744   0.640   2.255  17.280  0.7161 -0.0634 -0.2221
  518TMC3    C3 7745   0.745   2.164  17.264 -0.1924 -0.0952  0.2261
  518TMC3    C4 7746   0.811   2.423  17.306 -0.0528  0.5860 -0.4015
  518TMC3    C5 7747   0.906   2.327  17.279  0.1362 -0.1514 -0.2380
  518TMC3    C6 7748   0.877   2.198  17.265  0.1020 -0.0104 -0.5737
  518TMC3     C 7749   0.577   2.486  17.324 -0.2843  0.8521 -0.3186
  518TMC3     O 7750   0.464   2.465  17.269  0.3635  0.2213  0.0650
  518TMC3     H 7751   0.540   2.220  17.257  1.0486 -0.7818 -0.5722
  518TMC3    H1 7752   0.831   2.530  17.308  0.6156  0.5052 -2.8347
  518TMC3    H2 7753   0.954   2.124  17.246 -2.2812 -2.5766 -0.3263
  518TMC3    C7 7754   1.043   2.359  17.284  0.5883  0.6606  0.9806
  518TMC3    C8 7755   0.723   2.020  17.269 -0.3036 -0.6168  0.1055
  518TMC3    O1 7756   1.115   2.286  17.220  0.0267 -0.1083 -0.8972
  518TMC3    O2 7757   0.822   1.952  17.298  0.1475  0.1692  0.5467
  519MPD2     C 7758   2.359   0.990  14.372 -0.5815 -0.1797  0.6016
  519MPD2    C1 7759   2.450   1.080  14.318 -0.1621 -0.2316  0.1261
  519MPD2    C2 7760   2.561   1.042  14.254  0.2885  0.5273  0.1963
  519MPD2    C3 7761   2.583   0.904  14.235  0.0210 -0.0764  0.5180
  519MPD2    C4 7762   2.497   0.813  14.296 -0.1251 -1.0088 -0.1188
  519MPD2    C5 7763   2.387   0.855  14.364  0.9176  0.3477  0.0068
  519MPD2     H 7764   2.634   1.118  14.228 -0.4565  1.3606  0.5509
  519MPD2    H1 7765   2.511   0.709  14.268  0.2577 -1.3403  1.3116
  519MPD2    H2 7766   2.270   1.032  14.419 -0.6739 -0.4325  0.6562
  519MPD2    H3 7767   2.314   0.780  14.394  1.3250 -0.3137 -0.6633
  519MPD2     N 7768   2.695   0.854  14.164 -0.5164  0.2167 -1.0470
  519MPD2    H5 7769   2.694   0.753  14.151  1.0312  0.0998 -0.2960
  519MPD2    N1 7770   2.435   1.222  14.325  0.1821  0.2879  0.2732
  519MPD2    H7 7771   2.523   1.266  14.298  1.0106 -0.5087  1.6673
  520TMC3    C1 7772   2.863   0.858  14.000 -0.1851 -0.0238 -0.0685
  520TMC3    C2 7773   2.861   0.922  13.878  0.0245  0.7627  0.1497
  520TMC3    C3 7774   2.948   0.877  13.785  0.1412  0.5798 -0.3265
  520TMC3    C4 7775   2.948   0.758  14.030  0.9589  0.4137 -0.4266
  520TMC3    C5 7776   3.011   0.708  13.918 -0.1737 -0.3994  0.6213
  520TMC3    C6 7777   3.028   0.768  13.800  0.2027  0.5682 -0.5111
  520TMC3     C 7778   2.799   0.929  14.115 -0.1512 -1.0516 -0.3178
  520TMC3     O 7779   2.804   1.049  14.097  0.1494 -0.0327  0.2094
  520TMC3     H 7780   2.798   1.008  13.860 -0.5564  0.4978  0.9164
  520TMC3    H1 7781   2.928   0.708  14.124  2.1814  0.9397  0.1173
  520TMC3    H2 7782   3.081   0.726  13.715  0.2020 -0.1226 -0.1737
  520TMC3    C7 7783   3.073   0.581  13.935  0.0124 -0.0404 -0.0295
  520TMC3    C8 7784   2.928   0.926  13.646  0.7735  0.2865  0.1828
  520TMC3    O1 7785   3.086   0.566  14.056 -0.0359  0.0833 -0.1310
  520TMC3    O2 7786   3.013   0.919  13.558 -0.4103  0.2339 -0.5798
  521MPD2     C 7787   3.084   3.571  17.607  0.5355  0.3484 -0.2817
  521MPD2    C1 7788   3.055   3.549  17.470 -0.0556  0.0752 -1.2046
  521MPD2    C2 7789   3.157   3.512  17.376  0.1637 -0.3513  0.6100
  521MPD2    C3 7790   3.283   3.494  17.428  0.4753  0.0498 -0.5201
  521MPD2    C4 7791   3.312   3.507  17.570 -0.4061  0.3554  0.3864
  521MPD2    C5 7792   3.207   3.546  17.659 -0.2713  0.1543  0.4932
  521MPD2     H 7793   3.132   3.495  17.272  2.0081 -2.4343  0.5175
  521MPD2    H1 7794   3.410   3.489  17.614  0.0396 -0.0891 -0.7824
  521MPD2    H2 7795   3.007   3.592  17.681 -0.3865 -0.0189 -1.1276
  521MPD2    H3 7796   3.218   3.561   0.031 -0.2227  1.2570  0.3285
  521MPD2     N 7797   3.386   3.479  17.326 -0.0612 -0.5957 -0.7286
  521MPD2    H5 7798   3.360   3.468  17.228 -1.7903  0.0491 -0.3424
  521MPD2    N1 7799   2.913   3.566  17.442 -0.4445 -0.0806  0.7249
  521MPD2    H7 7800   2.858   3.595  17.522  0.5238  0.5243  1.1770
  522TMC3    C1 7801   3.599   3.412  17.247  0.3139  0.2347 -1.1260
  522TMC3    C2 7802   3.723   3.367  17.267 -0.3521 -0.8703 -0.3358
  522TMC3    C3 7803   3.807   3.365  17.159 -0.2927 -0.2980  0.0622
  522TMC3    C4 7804   3.566   3.469  17.122 -0.1579 -0.5854  0.5634
  522TMC3    C5 7805   3.646   3.450  17.012  0.3557  0.5927 -0.4186
  522TMC3    C6 7806   3.776   3.406  17.030  0.3236 -0.4762 -0.3335
  522TMC3     C 7807   3.516   3.444  17.359  0.0215 -0.3814  0.0895
  522TMC3     O 7808   3.568   3.424  17.472  0.3405 -0.2248  0.0897
  522TMC3     H 7809   3.746   3.331  17.367 -0.6675 -1.5113 -0.4968
  522TMC3    H1 7810   3.470   3.520  17.110  0.1935 -0.0275  0.1108
  522TMC3    H2 7811   3.861   3.414  16.963  2.4184 -2.2105  2.0895
  522TMC3    C7 7812   3.626   3.531  16.897 -0.4882  1.2095 -0.0285
  522TMC3    C8 7813   3.941   3.355  17.198  0.7766  0.3026  0.4572
  522TMC3    O1 7814   3.736   3.558  16.845 -0.2867  0.3668  0.1817
  522TMC3    O2 7815   3.956   3.400  17.309 -0.2156 -0.1019  0.1764
  523MPD2     C 7816   2.336   4.610  10.862  0.1029 -0.2332  0.4142
  523MPD2    C1 7817   2.232   4.626  10.775  0.0473  0.3116  0.0075
  523MPD2    C2 7818   2.211   0.010  10.714 -0.4312  0.3619 -0.0904
  523MPD2    C3 7819   2.294   0.118  10.732 -1.0629  0.1062  0.2862
  523MPD2    C4 7820   2.398   0.101  10.813 -0.5637  0.9316 -0.7770
  523MPD2    C5 7821   2.421   4.716  10.877  0.1370 -0.3506 -0.1999
  523MPD2     H 7822   2.121   0.021  10.655 -0.2892  0.4617 -0.2868
  523MPD2    H1 7823   2.478   0.171  10.833 -0.3631  1.0197 -1.8879
  523MPD2    H2 7824   2.369   4.515  10.901  2.4820  0.3089 -0.2610
  523MPD2    H3 7825   2.502   4.720  10.949 -0.3178 -1.1149  0.3536
  523MPD2     N 7826   2.282   0.252  10.683 -0.8168  0.0518  0.0301
  523MPD2    H5 7827   2.351   0.314  10.725  0.0832 -1.4812  0.8352
  523MPD2    N1 7828   2.159   4.509  10.746 -0.2370  0.4760 -0.2480
  523MPD2    H7 7829   2.189   4.437  10.811  0.2779 -1.0957 -2.1982
  524TMC3    C1 7830   2.169   0.459  10.625  0.3627  0.1137  0.3708
  524TMC3    C2 7831   2.244   0.525  10.723 -0.0282 -0.7381 -0.6359
  524TMC3    C3 7832   2.242   0.663  10.709 -0.1398  0.1809 -0.6743
  524TMC3    C4 7833   2.116   0.523  10.517 -0.5396  0.3467 -0.2585
  524TMC3    C5 7834   2.135   0.657  10.503 -0.2508 -0.1738  0.9792
  524TMC3    C6 7835   2.196   0.729  10.598  0.2068 -0.3888  0.2691
  524TMC3     C 7836   2.178   0.308  10.610  0.5361 -0.3115  0.5381
  524TMC3     O 7837   2.101   0.242  10.540  0.0070 -0.4710 -0.4104
  524TMC3     H 7838   2.255   0.489  10.824 -2.9907 -2.3088 -0.8635
  524TMC3    H1 7839   2.065   0.454  10.452 -2.1752  1.1335  0.2085
  524TMC3    H2 7840   2.208   0.837  10.586  0.2640 -0.4332 -0.0735
  524TMC3    C7 7841   2.039   0.725  10.423 -0.1169 -0.1858 -0.1573
  524TMC3    C8 7842   2.363   0.716  10.765  0.1625  0.2381  0.3370
  524TMC3    O1 7843   2.032   0.844  10.442 -0.1952  0.2368 -0.4517
  524TMC3    O2 7844   2.445   0.643  10.821 -0.0736 -0.0052 -0.1914
  525MPD2     C 7845   3.534   0.503  14.181  0.5508 -0.0228  0.3167
  525MPD2    C1 7846   3.632   0.540  14.266 -0.5727  0.3256  0.3054
  525MPD2    C2 7847   3.680   0.674  14.257  0.7561  0.2337  0.7910
  525MPD2    C3 7848   3.608   0.761  14.176  0.0930  0.0912 -0.1154
  525MPD2    C4 7849   3.498   0.718  14.102  0.0025 -0.0285  0.1089
  525MPD2    C5 7850   3.471   0.589  14.099 -0.1583  0.3930 -0.3861
  525MPD2     H 7851   3.761   0.703  14.323  1.7224  0.3957 -0.4586
  525MPD2    H1 7852   3.436   0.789  14.048 -1.3250 -1.3696 -0.1437
  525MPD2    H2 7853   3.489   0.405  14.185  0.9859 -0.2581 -0.5191
  525MPD2    H3 7854   3.379   0.552  14.054 -0.1293 -1.5547  1.1662
  525MPD2     N 7855   3.635   0.895  14.159  0.4763 -0.1008 -0.2755
  525MPD2    H5 7856   3.585   0.952  14.091 -2.1642  0.7237  2.3370
  525MPD2    N1 7857   3.673   0.460  14.378 -0.0304  0.1005  0.4350
  525MPD2    H7 7858   3.752   0.494  14.432 -0.1144  0.1931  0.4999
  526TMC3    C1 7859   3.697   0.261  14.514 -0.8189  0.4387 -0.8269
  526TMC3    C2 7860   3.632   0.168  14.592  0.9540  0.0448 -0.4382
  526TMC3    C3 7861   3.710   0.112  14.689 -0.3766  0.1131  0.0935
  526TMC3    C4 7862   3.829   0.284  14.509  0.2517  0.4390  0.0288
  526TMC3    C5 7863   3.909   0.206  14.589  0.2978  0.3942  0.6387
  526TMC3    C6 7864   3.846   0.134  14.693  0.4936 -0.6665 -0.1390
  526TMC3     C 7865   3.623   0.334  14.410 -0.5672  0.1010 -0.1084
  526TMC3     O 7866   3.515   0.285  14.383 -0.1190  0.4035  0.2596
  526TMC3     H 7867   3.524   0.158  14.588  1.1499 -1.5312 -1.5486
  526TMC3    H1 7868   3.872   0.345  14.430 -0.2295  3.3282  2.0096
  526TMC3    H2 7869   3.916   0.094  14.765  0.3102 -2.6388 -1.0584
  526TMC3    C7 7870   4.049   0.238  14.604  0.4242  0.0304 -0.7932
  526TMC3    C8 7871   3.652   0.094  14.822 -0.3820  0.4464 -0.3475
  526TMC3    O1 7872   4.086   0.358  14.589  0.7881  0.0949  0.5395
  526TMC3    O2 7873   3.733   0.075  14.909 -0.1292  0.1221 -0.3803
  527MPD2     C 7874   1.472   3.009   1.545 -0.1911 -1.1273 -0.0642
  527MPD2    C1 7875   1.481   3.077   1.429 -0.1437 -0.1380  0.2162
  527MPD2    C2 7876   1.518   3.008   1.314  0.1795 -0.6701 -0.1381
  527MPD2    C3 7877   1.589   2.892   1.325  0.3171 -0.5905 -0.3692
  527MPD2    C4 7878   1.601   2.833   1.451  1.1363 -1.1616 -0.3504
  527MPD2    C5 7879   1.527   2.882   1.554 -1.0437  0.0201 -0.7093
  527MPD2     H 7880   1.510   3.054   1.217  1.8085  0.3339  0.2053
  527MPD2    H1 7881   1.647   2.736   1.468  1.1443 -0.4101  3.9140
  527MPD2    H2 7882   1.422   3.054   1.629 -0.1279 -2.7199  0.8126
  527MPD2    H3 7883   1.542   2.835   1.651  0.9589 -1.8695 -1.9260
  527MPD2     N 7884   1.633   2.829   1.201 -0.1474 -0.0192  0.2026
  527MPD2    H5 7885   1.630   2.885   1.116 -1.7383 -1.3039 -0.5984
  527MPD2    N1 7886   1.420   3.204   1.407 -0.4767 -0.1779 -0.5910
  527MPD2    H7 7887   1.414   3.237   1.311 -0.6766 -1.1824 -0.9188
  528TMC3    C1 7888   1.260   3.379   1.436  0.1875  0.0354 -0.3779
  528TMC3    C2 7889   1.269   3.409   1.297 -0.0610  0.0554  0.1423
  528TMC3    C3 7890   1.186   3.509   1.243 -0.5240 -0.1123  0.1275
  528TMC3    C4 7891   1.163   3.442   1.506 -0.3225 -0.4150  0.4699
  528TMC3    C5 7892   1.087   3.544   1.450 -0.0009 -0.0261 -0.4040
  528TMC3    C6 7893   1.100   3.579   1.318 -0.0137 -0.1780 -0.3188
  528TMC3     C 7894   1.348   3.279   1.498 -0.4020 -0.3022 -0.3019
  528TMC3     O 7895   1.343   3.272   1.619 -0.0116 -0.2186  0.0939
  528TMC3     H 7896   1.320   3.337   1.234 -0.2743  0.4052 -0.4349
  528TMC3    H1 7897   1.154   3.422   1.612  1.1148  1.7018  0.9837
  528TMC3    H2 7898   1.060   3.674   1.286  2.3998  1.0330  0.2479
  528TMC3    C7 7899   1.002   3.625   1.528  0.4071 -0.4903 -0.8265
  528TMC3    C8 7900   1.187   3.530   1.099  0.0812 -0.2577  0.2989
  528TMC3    O1 7901   0.914   3.688   1.469 -0.3441 -0.3027 -0.0738
  528TMC3    O2 7902   1.264   3.454   1.038  0.5665 -0.8369 -0.0824
  529MPD2     C 7903   4.038   1.997   0.956 -0.3199  0.2398  0.2707
  529MPD2    C1 7904   4.029   1.874   0.894 -0.0613 -0.2651 -0.3803
  529MPD2    C2 7905   4.017   1.867   0.761  0.3441 -0.4937  0.2574
  529MPD2    C3 7906   4.006   1.979   0.681  0.2585  0.0727  0.5770
  529MPD2    C4 7907   4.006   2.101   0.747  0.0372 -0.8472  0.0102
  529MPD2    C5 7908   4.041   2.110   0.879 -0.7414  0.1589  0.3404
  529MPD2     H 7909   4.008   1.770   0.713 -1.7405 -0.3971  0.4215
  529MPD2    H1 7910   4.007   2.195   0.694  1.0711 -0.5299  0.5940
  529MPD2    H2 7911   4.071   2.008   1.058 -1.1846 -0.6331  0.6442
  529MPD2    H3 7912   4.058   2.208   0.922  1.2747  0.3177 -0.8177
  529MPD2     N 7913   4.006   1.984   0.535  0.3280 -0.0530 -0.3017
  529MPD2    H5 7914   3.979   2.065   0.480  0.8353 -0.0787 -0.5865
  529MPD2    N1 7915   4.042   1.755   0.971 -0.4683  0.4349 -0.2946
  529MPD2    H7 7916   4.050   1.668   0.920  0.3053  0.3704 -0.0661
  530TMC3    C1 7917   4.103   1.626   1.175 -0.4625  0.2625  0.8431
  530TMC3    C2 7918   4.172   1.529   1.101 -0.2306 -0.4521  0.1359
  530TMC3    C3 7919   4.213   1.419   1.171  0.2820  0.1256 -0.0488
  530TMC3    C4 7920   4.070   1.605   1.310  0.1900  0.3140  0.6568
  530TMC3    C5 7921   4.116   1.497   1.374 -0.3113 -0.5936  0.7020
  530TMC3    C6 7922   4.181   1.394   1.303  0.0161 -0.5603  0.1426
  530TMC3     C 7923   4.050   1.749   1.111 -0.1098  0.8747 -0.3285
  530TMC3     O 7924   4.011   1.834   1.191 -0.1997  0.6360  0.2985
  530TMC3     H 7925   4.202   1.541   0.997  2.0363  1.3620  0.9938
  530TMC3    H1 7926   3.999   1.673   1.355  1.5630  0.9727  1.8354
  530TMC3    H2 7927   4.224   1.316   1.365  1.0642  0.6586  0.9396
  530TMC3    C7 7928   4.024   1.449   1.480 -0.3062  0.4983 -0.5343
  530TMC3    C8 7929   4.333   1.359   1.116  0.3744  0.2748 -0.2557
  530TMC3    O1 7930   3.955   1.531   1.541 -0.0101 -0.2069  0.1264
  530TMC3    O2 7931   4.394   1.419   1.027 -0.2185  0.3139  0.3272
  531MPD2     C 7932   3.538   3.851  13.177 -0.3159  0.4504  0.2006
  531MPD2    C1 7933   3.430   3.902  13.237 -0.1034  0.9403 -0.3220
  531MPD2    C2 7934   3.314   3.914  13.165 -0.8129  0.2308  0.5167
  531MPD2    C3 7935   3.304   3.872  13.038 -0.0035  0.0291 -0.5281
  531MPD2    C4 7936   3.414   3.825  12.982  0.2231 -0.0818 -0.4392
  531MPD2    C5 7937   3.527   3.805  13.046 -0.4684 -0.5462  0.1867
  531MPD2     H 7938   3.225   3.954  13.213 -2.8529 -2.0453 -1.3051
  531MPD2    H1 7939   3.405   3.774  12.886 -0.2859 -0.5327 -0.1527
  531MPD2    H2 7940   3.633   3.862  13.228  0.1935  1.9045 -1.0473
  531MPD2    H3 7941   3.608   3.750  12.999 -2.7138 -2.0467 -1.9453
  531MPD2     N 7942   3.180   3.883  12.970 -0.4241  0.1241  0.0406
  531MPD2    H5 7943   3.111   3.933  13.026 -1.4630 -1.8512  0.5452
  531MPD2    N1 7944   3.452   3.959  13.365  0.5878 -0.1149 -0.0952
  531MPD2    H7 7945   3.545   3.945  13.404 -0.1496 -2.0012  0.9759
  532TMC3    C1 7946   3.367   4.038  13.585 -0.2840 -0.6250  0.4034
  532TMC3    C2 7947   3.262   4.106  13.636 -0.2186 -0.1799  0.8266
  532TMC3    C3 7948   3.198   4.062  13.749  0.0837  0.4937 -0.1957
  532TMC3    C4 7949   3.414   3.924  13.642  0.1622 -0.8781  0.3700
  532TMC3    C5 7950   3.369   3.898  13.770  0.3504 -0.0894  0.4363
  532TMC3    C6 7951   3.250   3.959  13.825  1.1730  0.4024 -0.5121
  532TMC3     C 7952   3.356   4.031  13.436 -0.6226  0.1510 -0.2869
  532TMC3     O 7953   3.247   4.061  13.396 -0.0759  0.4213 -0.4715
  532TMC3     H 7954   3.219   4.185  13.576  2.3534 -1.6607 -2.9249
  532TMC3    H1 7955   3.497   3.872  13.597  0.6857  0.6090 -0.3841
  532TMC3    H2 7956   3.203   3.922  13.915 -0.7858 -0.6316 -1.9620
  532TMC3    C7 7957   3.414   3.775  13.838 -0.2443  0.3807 -0.5594
  532TMC3    C8 7958   3.051   4.034  13.722  0.0010 -0.2768  0.1317
  532TMC3    O1 7959   3.339   3.730  13.927 -0.0723  0.4289  0.4452
  532TMC3    O2 7960   2.974   3.993  13.813 -0.1267  0.5695 -0.2437
  533TMC3    C1 7961   3.728   1.104  14.209  0.4007 -0.0610  0.0264
  533TMC3    C2 7962   3.835   1.181  14.212 -0.4756  0.3325  0.2591
  533TMC3    C3 7963   3.820   1.304  14.262  0.1954 -0.1243 -0.0792
  533TMC3    C4 7964   3.605   1.146  14.246  0.4268  0.6488  0.5233
  533TMC3    C5 7965   3.600   1.267  14.318  0.0423  0.6044  0.1364
  533TMC3    C6 7966   3.708   1.350  14.315 -0.1483 -0.0081 -0.1634
  533TMC3     C 7967   3.747   0.955  14.212  0.6649  0.7697 -0.4487
  533TMC3     O 7968   3.858   0.906  14.234  0.5820 -0.0003 -0.5579
  533TMC3     H 7969   3.932   1.149  14.176 -1.2505  0.2702 -1.7815
  533TMC3    H1 7970   3.517   1.084  14.257 -1.0513  2.7161  0.4334
  533TMC3    H2 7971   3.686   1.446  14.361 -0.6167  0.2914 -1.0112
  533TMC3    C7 7972   3.551   1.234  14.445 -0.3040 -0.1662  0.1535
  533TMC3    C8 7973   3.925   1.397  14.231 -0.0912 -0.3628 -0.6842
  533TMC3    O1 7974   3.475   1.139  14.456  0.1860 -0.1749  0.2929
  533TMC3    O2 7975   4.038   1.353  14.205  0.6607  1.0540 -0.0226
  534MPD2     C 7976   0.125   3.138   1.606 -0.7045 -0.2494 -0.8000
  534MPD2    C1 7977   0.233   3.126   1.532 -0.1823 -0.4700 -0.2466
  534MPD2    C2 7978   0.240   3.032   1.432 -0.4506  0.5698 -0.2395
  534MPD2    C3 7979   0.136   2.949   1.398  0.5089 -0.0056 -0.0307
  534MPD2    C4 7980   0.023   2.972   1.467  0.3912 -0.7863  0.4076
  534MPD2    C5 7981   0.016   3.054   1.575  0.0656  0.1285 -0.3417
  534MPD2     H 7982   0.334   3.020   1.379  0.2414 -1.2873  1.3912
  534MPD2    H1 7983   4.668   2.915   1.443  0.8826 -1.0346 -0.8174
  534MPD2    H2 7984   0.098   3.211   1.682  3.4043  0.1665  0.2678
  534MPD2    H3 7985   4.660   3.058   1.635  0.3261  1.0437 -0.0195
  534MPD2     N 7986   0.136   2.853   1.287 -0.2978 -0.1830 -0.1078
  534MPD2    H5 7987   0.046   2.807   1.280 -1.8847  3.1231 -1.2775
  534MPD2    N1 7988   0.345   3.215   1.556 -0.0332 -0.4256  0.0776
  534MPD2    H7 7989   0.428   3.189   1.504 -0.9425 -1.4744 -0.8692
  535TMC3    C1 7990   0.198   2.753   1.081 -0.1057  0.0176 -0.2291
  535TMC3    C2 7991   0.071   2.704   1.077 -0.1857  0.0876  0.5967
  535TMC3    C3 7992   0.039   2.633   0.964  0.1917 -0.2752  0.2306
  535TMC3    C4 7993   0.284   2.748   0.976  0.6407 -0.0711  0.2710
  535TMC3    C5 7994   0.237   2.686   0.860 -0.1659 -0.1956  0.8619
  535TMC3    C6 7995   0.119   2.628   0.858  0.2088 -0.0322 -0.0786
  535TMC3     C 7996   0.238   2.828   1.195  0.0930 -0.2102  0.2496
  535TMC3     O 7997   0.355   2.853   1.213  0.0644  0.3920  0.1601
  535TMC3     H 7998   0.004   2.698   1.161 -0.8648 -0.1927  0.0314
  535TMC3    H1 7999   0.378   2.801   0.986  0.3488  0.3126  1.0019
  535TMC3    H2 8000   0.082   2.571   0.774 -3.2419 -0.4284  1.7043
  535TMC3    C7 8001   0.344   2.647   0.769 -0.6740 -0.4004 -0.1065
  535TMC3    C8 8002   4.693   2.512   0.976 -0.1663  0.7468 -0.2304
  535TMC3    O1 8003   0.451   2.653   0.823  0.8313 -0.2666 -0.6611
  535TMC3    O2 8004   4.640   2.473   0.875  0.1096  0.0890 -0.4588
  536MPD2     C 8005   0.856   0.564  16.161  1.0830  0.4963  0.2038
  536MPD2    C1 8006   0.726   0.543  16.204 -1.0155  0.3442 -0.2073
  536MPD2    C2 8007   0.622   0.575  16.116  0.1190 -0.2877  0.1218
  536MPD2    C3 8008   0.646   0.636  15.996  0.4837  0.2649  0.5665
  536MPD2    C4 8009   0.778   0.669  15.961  0.0128 -0.8602 -0.2943
  536MPD2    C5 8010   0.885   0.628  16.041  0.4601  0.1017  0.2572
  536MPD2     H 8011   0.522   0.567  16.157 -1.7893  0.2308 -4.3288
  536MPD2    H1 8012   0.797   0.721  15.868 -3.5635  2.0967  0.6233
  536MPD2    H2 8013   0.939   0.540  16.227  1.2359  2.3199  0.6795
  536MPD2    H3 8014   0.984   0.664  16.016  1.3391 -1.5405  1.3968
  536MPD2     N 8015   0.538   0.676  15.911 -0.2146  0.0208  0.1401
  536MPD2    H5 8016   0.567   0.724  15.826  0.3158 -0.3060  0.1403
  536MPD2    N1 8017   0.708   0.491  16.334  0.0945  0.4647  0.0018
  536MPD2    H7 8018   0.786   0.490  16.400  2.0877  0.7313 -2.3299
  537TMC3    C1 8019   0.595   0.393  16.526  0.7190 -0.5961 -0.4038
  537TMC3    C2 8020   0.710   0.380  16.591 -0.2242  0.1504 -0.3126
  537TMC3    C3 8021   0.715   0.304  16.709  0.4282  0.0911  0.3587
  537TMC3    C4 8022   0.488   0.321  16.573 -0.2659 -0.2958  0.2882
  537TMC3    C5 8023   0.499   0.248  16.686  0.8709  0.4885  0.4518
  537TMC3    C6 8024   0.612   0.234  16.759  0.2144 -0.3847  0.7476
  537TMC3     C 8025   0.588   0.446  16.392 -0.0887  0.6992  0.7887
  537TMC3     O 8026   0.476   0.446  16.341 -0.0252 -0.3358  0.1105
  537TMC3     H 8027   0.799   0.439  16.569 -0.3153 -0.0515 -1.2346
  537TMC3    H1 8028   0.403   0.318  16.505 -0.6135  2.6846  0.6124
  537TMC3    H2 8029   0.608   0.187  16.857  1.3266  0.2337  1.0881
  537TMC3    C7 8030   0.402   0.135  16.695 -0.0767 -0.2388  0.1673
  537TMC3    C8 8031   0.848   0.288  16.774  0.2632  0.2228  0.0783
  537TMC3    O1 8032   0.325   0.131  16.599 -0.1618 -0.3425 -0.5527
  537TMC3    O2 8033   0.932   0.378  16.772 -0.6680 -0.2924  0.1824
  538TMC3    C1 8034   1.830   4.185  11.247 -0.4803 -0.3608 -0.2781
  538TMC3    C2 8035   1.948   4.257  11.246  0.6722  0.9311  0.1883
  538TMC3    C3 8036   1.950   4.360  11.159 -0.2182 -0.4654  0.4239
  538TMC3    C4 8037   1.731   4.208  11.154 -0.0739 -0.2995  0.0455
  538TMC3    C5 8038   1.750   4.306  11.058 -0.0597  0.6375  0.1417
  538TMC3    C6 8039   1.858   4.386  11.064 -0.0754 -0.8699 -0.2863
  538TMC3     C 8040   1.824   4.061  11.328 -0.0798 -0.8377 -0.4446
  538TMC3     O 8041   1.718   4.005  11.345  0.3600  0.3357  0.9945
  538TMC3     H 8042   2.021   4.244  11.325 -1.0342 -2.3549  1.2371
  538TMC3    H1 8043   1.650   4.136  11.156 -0.8351  0.5260 -1.5450
  538TMC3    H2 8044   1.891   4.452  10.985 -0.4975 -0.2778  0.0341
  538TMC3    C7 8045   1.679   4.289  10.936  1.0109 -0.2734  0.8010
  538TMC3    C8 8046   2.077   4.423  11.139 -0.4237  0.4996 -0.1132
  538TMC3    O1 8047   1.620   4.182  10.931  0.1379 -0.2210  0.2538
  538TMC3    O2 8048   2.079   4.547  11.127 -0.3041 -0.9358 -0.4029
  539MPD2     C 8049   1.285   2.909  11.771 -0.4827  0.2515 -0.5010
  539MPD2    C1 8050   1.363   2.962  11.668 -0.2251 -0.2454  0.6258
  539MPD2    C2 8051   1.343   3.093  11.619  0.4121  0.3250  0.8939
  539MPD2    C3 8052   1.262   3.174  11.693 -0.1586 -0.5000 -0.0832
  539MPD2    C4 8053   1.184   3.122  11.797  0.3625 -0.3623 -0.0454
  539MPD2    C5 8054   1.200   2.992  11.841  0.6968  0.0224  0.1651
  539MPD2     H 8055   1.398   3.130  11.533 -0.2856  0.6503  0.5909
  539MPD2    H1 8056   1.114   3.184  11.852  1.3880  0.1123  0.7141
  539MPD2    H2 8057   1.298   2.810  11.813  0.5101  0.2772 -0.7355
  539MPD2    H3 8058   1.149   2.956  11.929  0.7486  1.0954  0.6311
  539MPD2     N 8059   1.234   3.308  11.666 -0.3679 -0.1662 -0.0288
  539MPD2    H5 8060   1.153   3.346  11.715 -0.2652 -0.8561  0.6737
  539MPD2    N1 8061   1.459   2.869  11.608  1.2253 -0.0873 -0.2818
  539MPD2    H7 8062   1.475   2.775  11.644 -0.0292 -1.4359 -3.3012
  540TMC3    C1 8063   1.256   3.517  11.564 -0.0309  0.4925 -0.0387
  540TMC3    C2 8064   1.273   3.577  11.443  1.3429 -0.2170  0.6700
  540TMC3    C3 8065   1.213   3.700  11.422  0.5909 -0.1678  0.3963
  540TMC3    C4 8066   1.197   3.576  11.669  0.4907 -0.2023  0.5833
  540TMC3    C5 8067   1.128   3.691  11.645  0.0090  0.4264 -0.2192
  540TMC3    C6 8068   1.137   3.755  11.520 -0.1644  0.3121 -0.1672
  540TMC3     C 8069   1.297   3.380  11.569 -0.4219 -0.0025 -0.6189
  540TMC3     O 8070   1.399   3.349  11.508 -0.5967 -0.0378 -0.0169
  540TMC3     H 8071   1.333   3.527  11.367 -1.1299 -0.7709 -0.9177
  540TMC3    H1 8072   1.187   3.525  11.764 -0.1329 -0.3600  0.4278
  540TMC3    H2 8073   1.108   3.860  11.518  1.1815  0.6486 -1.8056
  540TMC3    C7 8074   1.083   3.764  11.765 -0.2136  0.0102  0.3005
  540TMC3    C8 8075   1.220   3.763  11.293 -0.6091 -0.0103 -0.1187
  540TMC3    O1 8076   1.143   3.865  11.790 -0.3725  0.1385 -0.4332
  540TMC3    O2 8077   1.211   3.884  11.294  0.5583 -0.1347 -0.8793
  541MPD2     C 8078   4.181   4.393  13.370 -0.2181  0.5397 -0.3451
  541MPD2    C1 8079   4.245   4.323  13.270  0.6942 -0.0615 -0.1896
  541MPD2    C2 8080   4.241   4.373  13.139 -0.4705 -0.9209  0.6605
  541MPD2    C3 8081   4.185   4.500  13.117  0.6209 -0.3417  0.1479
  541MPD2    C4 8082   4.122   4.571  13.221 -0.7750 -0.8157  0.2587
  541MPD2    C5 8083   4.123   4.514  13.348  0.6645 -0.4075  0.0430
  541MPD2     H 8084   4.279   4.320  13.053 -1.0789 -0.4343  0.0932
  541MPD2    H1 8085   4.078   4.669  13.207  1.4866 -0.0059 -1.2125
  541MPD2    H2 8086   4.153   4.360  13.469  1.4557 -0.2204 -0.1250
  541MPD2    H3 8087   4.081   4.553  13.440 -0.0075 -1.5498  0.2247
  541MPD2     N 8088   4.172   4.561  12.990 -0.0206  0.2340  0.5219
  541MPD2    H5 8089   4.113   4.643  12.983  0.6755  0.7165  0.2588
  541MPD2    N1 8090   4.287   4.192  13.303  0.5218 -0.5818  0.5702
  541MPD2    H7 8091   4.281   4.166  13.401  1.1141  0.4419  0.8811
  542TMC3    C1 8092   4.208   4.583  12.759 -0.2391 -0.3879 -0.5758
  542TMC3    C2 8093   4.220   4.510  12.649  0.0064  0.1779  0.0945
  542TMC3    C3 8094   4.124   4.530  12.551 -0.1179 -0.0372  0.0346
  542TMC3    C4 8095   4.141   4.698  12.770  0.2480 -0.4459  0.3318
  542TMC3    C5 8096   4.048   4.718  12.668 -0.0105  0.6198 -0.1144
  542TMC3    C6 8097   4.035   4.625  12.566 -0.0207 -0.2504 -0.4226
  542TMC3     C 8098   4.248   4.515  12.885 -0.8508  0.6922  0.2550
  542TMC3     O 8099   4.346   4.441  12.871 -0.8927  0.5684  0.5595
  542TMC3     H 8100   4.278   4.419  12.654 -0.5493 -0.1231  1.1022
  542TMC3    H1 8101   4.164   0.030  12.853  0.4347 -0.0474 -0.0363
  542TMC3    H2 8102   3.960   4.648  12.491  1.5568 -0.2559 -1.9959
  542TMC3    C7 8103   4.013   0.123  12.629 -0.1992  0.2328 -0.1945
  542TMC3    C8 8104   4.121   4.460  12.425  0.2824  0.2063  0.3729
  542TMC3    O1 8105   3.897   0.151  12.617 -0.0694 -0.2692  0.1200
  542TMC3    O2 8106   4.056   4.505  12.334  0.1415 -0.4402 -0.4050
  543TMC3    C1 8107   4.087   0.825  17.379  0.2062  0.1067 -0.1813
  543TMC3    C2 8108   4.115   0.708  17.440 -0.2368 -0.2346  0.6632
  543TMC3    C3 8109   4.105   0.699  17.577 -0.1430  0.1866 -0.3700
  543TMC3    C4 8110   4.062   0.948  17.445  0.1831 -0.6089 -0.4183
  543TMC3    C5 8111   4.039   0.932  17.577  0.0579  0.6625  0.5038
  543TMC3    C6 8112   4.064   0.812  17.642 -0.0137 -0.3608  0.2259
  543TMC3     C 8113   4.048   0.818  17.237 -0.0507  0.7402 -0.1380
  543TMC3     O 8114   4.089   0.721  17.175 -0.1899  0.8623 -0.0898
  543TMC3     H 8115   4.116   0.616  17.382  3.8438 -0.1607  0.5877
  543TMC3    H1 8116   4.085   1.044  17.400  0.4219  0.5281  2.1482
  543TMC3    H2 8117   4.046   0.814   0.014 -0.4207  0.7652  0.1333
  543TMC3    C7 8118   3.957   1.028  17.646  0.1614 -0.8295  0.0936
  543TMC3    C8 8119   4.076   0.567  17.627 -0.5660  0.5093 -0.4438
  543TMC3    O1 8120   3.893   0.995   0.008  0.3887 -0.5389 -0.0343
  543TMC3    O2 8121   4.077   0.475  17.546 -0.4149 -0.5266 -0.4034
  544MPD2     C 8122   3.860   0.248   0.240 -0.1816 -0.1120 -0.1874
  544MPD2    C1 8123   3.887   0.230   0.104  0.4655  0.0329  0.8673
  544MPD2    C2 8124   3.936   0.338   0.033 -0.2211 -0.7378  0.0776
  544MPD2    C3 8125   3.966   0.459   0.094  0.7044 -0.3530 -0.2128
  544MPD2    C4 8126   3.933   0.483   0.227 -0.4506 -0.8026 -0.4464
  544MPD2    C5 8127   3.875   0.377   0.297 -0.1700 -0.0978  0.0180
  544MPD2     H 8128   3.956   0.325  17.662 -0.8788  0.8894 -0.2507
  544MPD2    H1 8129   3.951   0.575   0.281  2.7104 -1.3088 -0.6665
  544MPD2    H2 8130   3.840   0.167   0.309 -0.6648  1.5429  1.6211
  544MPD2    H3 8131   3.846   0.385   0.401  0.2022 -0.5993  0.1578
  544MPD2     N 8132   4.014   0.573   0.015 -0.2346 -0.1468  0.4893
  544MPD2    H5 8133   4.014   0.662   0.063 -0.6151  0.1865 -0.1286
  544MPD2    N1 8134   3.855   0.102   0.054 -0.7958  0.5525 -0.2988
  544MPD2    H7 8135   3.833   0.026   0.117 -1.2862  1.1906  0.3062
  545TMC3    C1 8136   3.845   4.669  17.629  0.5534 -0.7734 -0.4555
  545TMC3    C2 8137   3.880   4.633  17.500 -0.3061 -0.5495 -0.4972
  545TMC3    C3 8138   3.853   4.502  17.460  0.6101 -0.1716 -1.0305
  545TMC3    C4 8139   3.813   4.581  17.728 -0.2542 -0.1533 -0.3531
  545TMC3    C5 8140   3.815   4.444  17.695  0.4686  0.1127  0.2349
  545TMC3    C6 8141   3.838   4.409  17.564 -1.0300 -0.5738  0.2517
  545TMC3     C 8142   3.856   0.079  17.659  0.7169  0.3217 -0.9160
  545TMC3     O 8143   3.872   0.152  17.564 -0.5104 -0.0296  0.2534
  545TMC3     H 8144   3.908   4.712  17.431 -3.5407  1.0675  0.0278
  545TMC3    H1 8145   3.789   4.605   0.095  1.9945  0.0361  0.1282
  545TMC3    H2 8146   3.843   4.302  17.547 -0.8232 -0.4312 -0.5797
  545TMC3    C7 8147   3.740   4.353   0.041  0.1256 -0.0427  0.6213
  545TMC3    C8 8148   3.941   4.459  17.360  0.1635  0.3123 -0.5535
  545TMC3    O1 8149   3.674   4.268  17.715 -0.0508  0.3150  0.3910
  545TMC3    O2 8150   3.902   4.460  17.247  0.4856 -0.1882 -0.1143
  546MPD2     C 8151   0.508   0.562  17.483  0.3291 -0.3946 -0.2753
  546MPD2    C1 8152   0.527   0.607  17.352  0.4706 -0.7039 -0.4265
  546MPD2    C2 8153   0.614   0.715  17.333 -0.7295 -0.3563  0.2887
  546MPD2    C3 8154   0.678   0.771  17.438  0.3562  0.3702 -0.3506
  546MPD2    C4 8155   0.640   0.740  17.565  0.0556 -0.3413 -0.2989
  546MPD2    C5 8156   0.561   0.634  17.590 -0.1119 -0.0033 -0.0162
  546MPD2     H 8157   0.638   0.754  17.234 -0.2034  0.5537  0.7827
  546MPD2    H1 8158   0.691   0.788  17.648  2.2690 -2.5961 -0.3479
  546MPD2    H2 8159   0.459   0.475  17.525  3.1345 -1.6358  0.4575
  546MPD2    H3 8160   0.537   0.614  17.693 -1.2355  1.6719  0.0502
  546MPD2     N 8161   0.758   0.884  17.413  0.2432  0.8823  0.2057
  546MPD2    H5 8162   0.760   0.954  17.488 -3.2348 -2.0320  2.9906
  546MPD2    N1 8163   0.460   0.542  17.243  0.0045 -0.3097 -0.2717
  546MPD2    H7 8164   0.410   0.457  17.267 -1.4882 -0.0529 -2.5047
  547TMC3    C1 8165   0.357   0.512  17.036 -0.2835 -0.6738 -0.3917
  547TMC3    C2 8166   0.322   0.564  16.916  0.6256  0.2324 -0.4013
  547TMC3    C3 8167   0.251   0.485  16.826 -1.0261 -0.6716  0.0203
  547TMC3    C4 8168   0.320   0.381  17.075  0.9401  0.5081  0.2739
  547TMC3    C5 8169   0.233   0.308  16.993  0.5622 -0.2869 -0.7057
  547TMC3    C6 8170   0.202   0.356  16.864  0.8029 -0.2534 -1.2998
  547TMC3     C 8171   0.428   0.604  17.125  0.0685 -0.2530 -0.8787
  547TMC3     O 8172   0.451   0.719  17.093  0.0653  0.0648  0.0674
  547TMC3     H 8173   0.350   0.665  16.890 -0.6647  0.8586  0.5992
  547TMC3    H1 8174   0.356   0.329  17.163 -1.3283 -1.8706 -0.2047
  547TMC3    H2 8175   0.150   0.297  16.790  0.6867 -0.1146 -1.3294
  547TMC3    C7 8176   0.146   0.207  17.055 -0.7868  0.8224  0.5425
  547TMC3    C8 8177   0.204   0.533  16.693 -1.0495 -0.2083  0.0983
  547TMC3    O1 8178   0.155   0.184  17.173  0.1884 -0.5204  0.0350
  547TMC3    O2 8179   0.109   0.467  16.649 -0.1087 -0.4134 -0.0287
  548MPD2     C 8180   4.672   1.296  12.585  0.3515  0.3815 -0.0014
  548MPD2    C1 8181   4.626   1.174  12.555 -0.4751  0.4023  0.1931
  548MPD2    C2 8182   4.705   1.084  12.489  0.3565 -0.5863 -0.3545
  548MPD2    C3 8183   0.106   1.115  12.469 -0.0076 -0.0640  0.0764
  548MPD2    C4 8184   0.149   1.244  12.500  0.5497 -0.0126 -1.3060
  548MPD2    C5 8185   0.066   1.331  12.559 -0.3986 -0.6518  0.6490
  548MPD2     H 8186   4.670   0.987  12.456 -1.1326 -0.8184  1.8874
  548MPD2    H1 8187   0.247   1.285  12.480 -0.4006  1.8711 -2.1194
  548MPD2    H2 8188   4.597   1.363  12.624 -0.3376  0.0177 -0.7130
  548MPD2    H3 8189   0.094   1.434  12.581 -1.0960 -0.2822 -0.2013
  548MPD2     N 8190   0.192   1.013  12.418  0.5900  0.3414 -0.1687
  548MPD2    H5 8191   0.153   0.920  12.409  1.6397 -0.1406  0.3657
  548MPD2    N1 8192   4.491   1.146  12.577 -0.3539  0.6721 -0.1279
  548MPD2    H7 8193   4.444   1.227  12.617  0.8903  1.1390  0.4011
  549TMC3    C1 8194   4.272   1.042  12.517 -0.2994  0.1301 -0.0286
  549TMC3    C2 8195   4.206   1.156  12.540  0.0529 -0.0367 -0.4612
  549TMC3    C3 8196   4.080   1.174  12.477 -0.5652  0.1249  0.1054
  549TMC3    C4 8197   4.214   0.942  12.440  0.8827  1.1301  0.4924
  549TMC3    C5 8198   4.093   0.963  12.381  0.3992 -0.8567  0.3627
  549TMC3    C6 8199   4.023   1.077  12.405  0.0968 -0.2099 -0.0695
  549TMC3     C 8200   4.419   1.033  12.540 -0.3849 -0.1461  0.1822
  549TMC3     O 8201   4.460   0.924  12.500  0.1109  0.3151  0.3172
  549TMC3     H 8202   4.244   1.229  12.611 -0.1202 -0.4827  0.0854
  549TMC3    H1 8203   4.269   0.861  12.395 -0.6314  0.6442 -0.4738
  549TMC3    H2 8204   3.932   1.103  12.354 -0.6843 -1.4724  0.6764
  549TMC3    C7 8205   4.051   0.881  12.266 -0.2146  0.5616  0.3390
  549TMC3    C8 8206   4.011   1.310  12.480 -0.2141 -0.2806  0.7359
  549TMC3    O1 8207   4.016   0.952  12.170 -0.2405  0.3248 -0.6584
  549TMC3    O2 8208   3.884   1.313  12.467  0.4604 -0.2303  0.3218
  550TMC3    C1 8209   3.907   4.171  12.376  0.4422  0.0083  0.4026
  550TMC3    C2 8210   3.864   4.138  12.503  0.2673 -0.3189  0.1135
  550TMC3    C3 8211   3.790   4.224  12.573  0.5000  0.6085  0.4092
  550TMC3    C4 8212   3.869   4.285  12.314 -0.2416  0.0936 -0.5301
  550TMC3    C5 8213   3.793   4.373  12.395 -0.5071 -0.4710 -0.6264
  550TMC3    C6 8214   3.740   4.337  12.517 -0.9499 -0.1950  0.1593
  550TMC3     C 8215   3.948   4.059  12.296  0.7995  0.2268  0.0151
  550TMC3     O 8216   4.009   3.969  12.353  0.0983  0.3377  0.4007
  550TMC3     H 8217   3.892   4.052  12.564 -3.1846 -1.3752  0.1980
  550TMC3    H1 8218   3.906   4.309  12.215 -1.1205  1.4006 -0.5422
  550TMC3    H2 8219   3.690   4.416  12.573  0.7960  0.7625  0.3699
  550TMC3    C7 8220   3.725   4.479  12.319 -0.2643 -0.9769 -0.6905
  550TMC3    C8 8221   3.720   4.178  12.695  0.4127  0.0643 -0.6998
  550TMC3    O1 8222   3.623   4.531  12.363  0.2588  0.1908 -0.2362
  550TMC3    O2 8223   3.765   4.087  12.754  0.3971  0.3303 -0.2780
  551TMC3    C1 8224   1.512   1.791  13.282  0.2769  0.7961 -0.6332
  551TMC3    C2 8225   1.626   1.771  13.211 -0.2773 -0.5472  0.2030
  551TMC3    C3 8226   1.729   1.851  13.239  0.5895  0.2762  0.4958
  551TMC3    C4 8227   1.508   1.874  13.386  0.4119 -0.0189  0.0910
  551TMC3    C5 8228   1.617   1.942  13.427 -0.3099  0.0676 -0.2178
  551TMC3    C6 8229   1.735   1.929  13.355  0.0313  1.1900  0.1683
  551TMC3     C 8230   1.384   1.764  13.220 -0.4730  0.7630 -0.2864
  551TMC3     O 8231   1.288   1.826  13.259 -0.1414 -0.7246 -0.0211
  551TMC3     H 8232   1.627   1.718  13.116 -0.9330 -0.4359  0.1374
  551TMC3    H1 8233   1.412   1.880  13.435  0.9101  1.5854  0.8653
  551TMC3    H2 8234   1.820   1.991  13.384 -0.4381  1.1406  1.6498
  551TMC3    C7 8235   1.627   2.041  13.538 -0.8678  0.2580  0.7194
  551TMC3    C8 8236   1.768   1.921  13.114  0.0422  0.1825  1.1880
  551TMC3    O1 8237   1.739   2.061  13.580  0.3297  0.2855 -0.1377
  551TMC3    O2 8238   1.794   1.846  13.023  0.2900  0.2421 -0.1472
  552MPD2     C 8239   3.429   3.824  14.189 -0.5235 -0.0206  0.6715
  552MPD2    C1 8240   3.434   3.697  14.238  0.5524  0.7323  0.1500
  552MPD2    C2 8241   3.539   3.650  14.313  0.4620  0.3009 -0.8042
  552MPD2    C3 8242   3.642   3.735  14.353  0.1876 -0.2838 -0.2968
  552MPD2    C4 8243   3.640   3.867  14.300  0.2330 -0.0798  0.2654
  552MPD2    C5 8244   3.535   3.910  14.221 -0.4457  0.2401  0.8823
  552MPD2     H 8245   3.531   3.549  14.350 -0.3796  0.2902 -1.0304
  552MPD2    H1 8246   3.726   3.930  14.321 -1.1579  1.4621  1.3533
  552MPD2    H2 8247   3.340   3.862  14.140  0.7510  1.0721 -0.7969
  552MPD2    H3 8248   3.545   4.002  14.165 -0.9796  0.0365  0.4465
  552MPD2     N 8249   3.739   3.698  14.441  0.0584 -0.5844 -0.0167
  552MPD2    H5 8250   3.785   3.771  14.494  0.4957 -0.5294 -0.4761
  552MPD2    N1 8251   3.329   3.614  14.197  0.3539 -0.4266 -0.0377
  552MPD2    H7 8252   3.262   3.661  14.137 -0.0169  1.6080  1.9502
  553TMC3    C1 8253   3.180   3.419  14.184  0.1255  0.3270  0.2449
  553TMC3    C2 8254   3.157   3.444  14.048 -0.4144  0.2899  0.2401
  553TMC3    C3 8255   3.125   3.334  13.965 -0.0151  0.2118 -0.6394
  553TMC3    C4 8256   3.178   3.289  14.232 -0.2419 -0.3369  0.0699
  553TMC3    C5 8257   3.169   3.181  14.143 -0.2992  0.2443 -0.0583
  553TMC3    C6 8258   3.140   3.205  14.011  1.1740  0.2748  0.3352
  553TMC3     C 8259   3.298   3.489  14.244  0.3206  0.2079 -0.1696
  553TMC3     O 8260   3.349   3.422  14.335  0.0171 -0.8108 -0.6501
  553TMC3     H 8261   3.165   3.547  14.013  0.2919  1.4809  3.8245
  553TMC3    H1 8262   3.189   3.270  14.339  2.4294  0.4124 -0.0773
  553TMC3    H2 8263   3.142   3.122  13.941 -1.6170  0.2852  0.2502
  553TMC3    C7 8264   3.278   3.094  14.150 -0.0151 -1.1696  0.6849
  553TMC3    C8 8265   3.166   3.342  13.824 -0.0072  0.4549 -0.3490
  553TMC3    O1 8266   3.269   2.984  14.101  0.1658  0.1658 -0.0913
  553TMC3    O2 8267   3.192   3.241  13.761  0.3892 -0.1414 -0.4397
  554TMC3    C1 8268   0.830   3.397  11.475 -0.2203 -0.4961  0.1057
  554TMC3    C2 8269   0.814   3.287  11.397 -0.6573 -0.1689 -0.0885
  554TMC3    C3 8270   0.816   3.307  11.259  0.5763 -0.5980 -0.5876
  554TMC3    C4 8271   0.852   3.527  11.424  0.9192 -0.3246 -0.2817
  554TMC3    C5 8272   0.877   3.532  11.286  0.6828  0.1779 -0.2225
  554TMC3    C6 8273   0.862   3.423  11.198 -0.5423 -0.4216 -0.4476
  554TMC3     C 8274   0.860   3.377  11.616  0.5123  0.3516 -0.0969
  554TMC3     O 8275   0.935   3.456  11.678  0.4124  0.3128  0.2530
  554TMC3     H 8276   0.796   3.187  11.432 -0.1561  0.0313  0.7419
  554TMC3    H1 8277   0.848   3.604  11.500  0.9053 -0.2654 -0.3426
  554TMC3    H2 8278   0.883   3.426  11.091  0.2938 -0.2485 -0.2806
  554TMC3    C7 8279   0.855   3.659  11.219 -0.3193  0.1463 -0.1444
  554TMC3    C8 8280   0.718   3.227  11.186  0.4349  0.1866  0.0976
  554TMC3    O1 8281   0.859   3.662  11.101 -0.3859 -0.0386 -0.1436
  554TMC3    O2 8282   0.646   3.161  11.260 -0.2680 -0.3542  0.3625
  555TMC3    C1 8283   4.129   2.451  15.165  0.4217 -0.0396 -0.3550
  555TMC3    C2 8284   4.052   2.508  15.262 -0.3438  0.3923  0.2321
  555TMC3    C3 8285   4.067   2.456  15.387  0.2621  0.8975  0.3029
  555TMC3    C4 8286   4.211   2.340  15.185 -0.1360  0.1669  0.6411
  555TMC3    C5 8287   4.209   2.279  15.306 -0.1206  0.0724 -0.7137
  555TMC3    C6 8288   4.140   2.334  15.411  0.1855 -0.8996  0.1212
  555TMC3     C 8289   4.148   2.531  15.049  0.2610  0.3939  0.1438
  555TMC3     O 8290   4.253   2.539  14.987  0.3875 -0.1098 -0.7526
  555TMC3     H 8291   4.008   2.606  15.242  1.3577  0.8642 -1.2541
  555TMC3    H1 8292   4.241   2.285  15.096  0.4222  0.9156  0.3637
  555TMC3    H2 8293   4.155   2.286  15.507 -2.2447  3.5649  2.7569
  555TMC3    C7 8294   4.231   2.135  15.309 -0.2160  0.0531 -0.9700
  555TMC3    C8 8295   4.063   2.555  15.496  0.3053 -0.2965  0.2109
  555TMC3    O1 8296   4.186   2.083  15.408 -0.3301  0.0190 -0.0621
  555TMC3    O2 8297   4.040   2.669  15.453 -0.3076  0.4580 -0.8984
  556MPD2     C 8298   2.801   0.119  10.801 -0.3903  0.6824 -0.2260
  556MPD2    C1 8299   2.762   0.035  10.903  0.0735  0.3076 -0.3166
  556MPD2    C2 8300   2.785   4.634  10.890 -0.9480  0.3842  0.3242
  556MPD2    C3 8301   2.819   4.579  10.768  0.6100  0.3025 -0.3701
  556MPD2    C4 8302   2.830   4.662  10.659  0.6704 -0.0584  0.5634
  556MPD2    C5 8303   2.834   0.064  10.679  0.1397 -0.3328 -0.8800
  556MPD2     H 8304   2.759   4.573  10.976 -1.8074  1.4259  0.8110
  556MPD2    H1 8305   2.855   4.620  10.562  0.6195  0.3549  0.3689
  556MPD2    H2 8306   2.800   0.227  10.804 -1.8203  0.6474  0.7632
  556MPD2    H3 8307   2.857   0.116  10.587 -2.2736 -1.1799 -1.9684
  556MPD2     N 8308   2.810   4.438  10.756 -0.1518  0.2382 -0.7027
  556MPD2    H5 8309   2.796   4.395  10.847  0.1420  0.8692 -0.3531
  556MPD2    N1 8310   2.728   0.077  11.036 -0.5155  0.3979 -0.2179
  556MPD2    H7 8311   2.713   0.006  11.106 -1.7639  0.3591 -0.5140
  557TMC3    C1 8312   2.817   4.217  10.667  0.0915 -0.1972 -0.1802
  557TMC3    C2 8313   2.763   4.144  10.562 -0.2790  0.0401  0.1595
  557TMC3    C3 8314   2.681   4.038  10.597 -0.4347 -0.7072  0.4964
  557TMC3    C4 8315   2.785   4.184  10.794  0.6839  0.0457 -0.4188
  557TMC3    C5 8316   2.713   4.074  10.829 -0.1530 -0.7295 -0.4256
  557TMC3    C6 8317   2.663   3.998  10.730  0.4344 -0.2750  0.4025
  557TMC3     C 8318   2.834   4.361  10.639 -0.5742 -0.3229  0.8017
  557TMC3     O 8319   2.857   4.397  10.523 -0.1031 -0.4548 -0.3385
  557TMC3     H 8320   2.787   4.165  10.459 -1.1266 -0.7832 -0.2012
  557TMC3    H1 8321   2.858   4.224  10.864  0.4594 -1.7411  0.8264
  557TMC3    H2 8322   2.604   3.911  10.756  1.0713  0.1559  3.2307
  557TMC3    C7 8323   2.616   4.097  10.933  0.2426 -0.7530 -0.0444
  557TMC3    C8 8324   2.613   3.952  10.502 -0.0751  0.3389 -0.0381
  557TMC3    O1 8325   2.515   4.028  10.940 -0.5302  0.0257 -0.0573
  557TMC3    O2 8326   2.577   3.841  10.531  0.2404 -0.4613  0.2873
  558TMC3    C1 8327   0.055   2.280  10.460 -0.5877 -0.0059 -0.1017
  558TMC3    C2 8328   4.664   2.274  10.516  0.0805 -0.1053 -0.1689
  558TMC3    C3 8329   4.568   2.194  10.458 -0.6144  0.9697 -0.1876
  558TMC3    C4 8330   0.078   2.211  10.345  0.0677  0.1113  0.2384
  558TMC3    C5 8331   4.711   2.149  10.277  0.6031  0.7176 -0.3219
  558TMC3    C6 8332   4.597   2.132  10.340 -0.5554  0.4682  0.7687
  558TMC3     C 8333   0.167   2.330  10.538  0.2755 -0.3088 -0.1760
  558TMC3     O 8334   0.278   2.317  10.488 -0.1294 -0.2434 -0.1817
  558TMC3     H 8335   4.636   2.330  10.604 -0.7666 -1.2480  0.2839
  558TMC3    H1 8336   0.174   2.199  10.297  0.1269  0.9915  0.1317
  558TMC3    H2 8337   4.521   2.070  10.294 -0.3054 -0.7732  2.0492
  558TMC3    C7 8338   4.718   2.148  10.127 -0.0431  0.9419 -0.7112
  558TMC3    C8 8339   4.435   2.187  10.519 -0.5250 -0.2216  0.2186
  558TMC3    O1 8340   0.081   2.195  10.070  0.3774  0.1072  0.6214
  558TMC3    O2 8341   4.334   2.157  10.458 -0.7242 -0.7665 -0.2300
  559MPD2     C 8342   0.140   2.842  10.495  0.0086 -0.1178 -0.3745
  559MPD2    C1 8343   0.083   2.765  10.596  0.0990 -0.2198  0.4894
  559MPD2    C2 8344   0.159   2.712  10.699 -0.1417 -0.8742 -0.0335
  559MPD2    C3 8345   0.293   2.742  10.709  0.9960  0.4048 -0.0337
  559MPD2    C4 8346   0.349   2.820  10.610 -0.1899  0.1282  0.6872
  559MPD2    C5 8347   0.278   2.862  10.501  0.2674 -0.7076  0.6987
  559MPD2     H 8348   0.104   2.662  10.778 -2.2696  1.0138 -0.3105
  559MPD2    H1 8349   0.450   2.857  10.627 -0.0502 -0.0730  0.2850
  559MPD2    H2 8350   0.081   2.878  10.411 -1.5653  0.8477  1.1484
  559MPD2    H3 8351   0.330   2.926  10.430 -1.1588 -0.6219 -0.2594
  559MPD2     N 8352   0.362   2.716  10.828  0.1159 -0.3705  0.2062
  559MPD2    H5 8353   0.304   2.692  10.908  0.1991  1.8860  0.9493
  559MPD2    N1 8354   4.674   2.760  10.594 -0.0398  0.0103 -0.0179
  559MPD2    H7 8355   4.627   2.838  10.548  0.3415 -1.0135 -2.1633
  560TMC3    C1 8356   0.512   2.705  10.998 -0.3431 -0.0503 -0.1145
  560TMC3    C2 8357   0.412   2.650  11.068 -0.2288 -0.7934 -0.2848
  560TMC3    C3 8358   0.430   2.631  11.204  0.2789  0.3412  0.1607
  560TMC3    C4 8359   0.628   2.736  11.058 -0.0481  0.5726 -0.3622
  560TMC3    C5 8360   0.639   2.717  11.194 -0.0903 -0.1832 -0.8040
  560TMC3    C6 8361   0.540   2.669  11.270  0.0772  0.1306  0.5155
  560TMC3     C 8362   0.498   2.717  10.855  0.5136 -0.6232  0.0579
  560TMC3     O 8363   0.588   2.756  10.785 -0.1584  0.4211 -0.1572
  560TMC3     H 8364   0.315   2.619  11.032 -0.8684  1.7050 -0.7078
  560TMC3    H1 8365   0.707   2.785  11.002 -0.7082  0.4525 -1.3924
  560TMC3    H2 8366   0.545   2.659  11.378 -1.9896  0.3395  0.6412
  560TMC3    C7 8367   0.742   2.783  11.275  0.0292  0.2624  0.0532
  560TMC3    C8 8368   0.324   2.548  11.260  0.5225 -0.2008 -0.9652
  560TMC3    O1 8369   0.741   2.746  11.393 -0.0081  0.1395 -0.2240
  560TMC3    O2 8370   0.217   2.554  11.205  0.2055 -0.2857 -0.7979
  561TMC3    C1 8371   2.436   1.802  10.833 -0.0007  0.7427 -0.1625
  561TMC3    C2 8372   2.396   1.702  10.918 -0.4264  0.4470 -0.2731
  561TMC3    C3 8373   2.370   1.746  11.047 -0.4525  0.2035  0.1598
  561TMC3    C4 8374   2.449   1.934  10.874  0.7010  0.0737 -0.1208
  561TMC3    C5 8375   2.428   1.969  11.004  0.0638 -0.7522 -0.0274
  561TMC3    C6 8376   2.385   1.879  11.096  0.5537 -0.4145 -0.1357
  561TMC3     C 8377   2.415   1.766  10.692 -0.2908 -1.4699 -0.7020
  561TMC3     O 8378   2.358   1.660  10.669 -0.1201 -0.2230 -0.2777
  561TMC3     H 8379   2.381   1.601  10.882 -1.7541  0.7005 -0.4258
  561TMC3    H1 8380   2.466   2.018  10.808 -1.7050  0.1450 -0.6680
  561TMC3    H2 8381   2.371   1.914  11.197 -0.4071 -1.0574 -0.0512
  561TMC3    C7 8382   2.482   2.099  11.042  0.1841 -0.0535 -0.1453
  561TMC3    C8 8383   2.289   1.655  11.126 -0.2073 -0.9183  0.2111
  561TMC3    O1 8384   2.450   2.136  11.154  0.7441 -0.4400  0.2881
  561TMC3    O2 8385   2.269   1.544  11.082  0.0675 -0.2767 -0.2606
  562TMC3    C1 8386   3.782   2.332  16.419 -1.0094  0.2967  0.0315
  562TMC3    C2 8387   3.783   2.466  16.384  0.2272 -0.4623 -0.0403
  562TMC3    C3 8388   3.826   2.498  16.261  0.4773  0.6895  0.2249
  562TMC3    C4 8389   3.833   2.236  16.333 -0.7564  0.0679  0.4862
  562TMC3    C5 8390   3.894   2.277  16.218  0.0852  0.3339 -0.1673
  562TMC3    C6 8391   3.898   2.406  16.180 -0.1889  0.1562  0.4222
  562TMC3     C 8392   3.687   2.289  16.516  0.8057  0.0930  0.9084
  562TMC3     O 8393   3.637   2.178  16.494 -0.1112  0.3182  0.3091
  562TMC3     H 8394   3.718   2.533  16.439 -1.0019  0.3122 -2.4506
  562TMC3    H1 8395   3.833   2.131  16.361  0.2820  0.3145  1.4260
  562TMC3    H2 8396   3.939   2.418  16.080 -0.7990 -1.0407  0.0203
  562TMC3    C7 8397   3.961   2.178  16.133 -0.0294  0.0889 -0.6223
  562TMC3    C8 8398   3.794   2.639  16.211 -0.3841  0.3502 -0.2831
  562TMC3    O1 8399   4.006   2.221  16.030  0.3461  0.2748 -0.3215
  562TMC3    O2 8400   3.754   2.724  16.290  0.2460 -0.1760 -0.5903
  563MPD2     C 8401   1.409   4.255  15.850 -0.0162  0.6173  0.5114
  563MPD2    C1 8402   1.444   4.280  15.979 -0.0625  0.6237 -0.4465
  563MPD2    C2 8403   1.540   4.198  16.034 -0.3284  0.1466  0.0004
  563MPD2    C3 8404   1.611   4.102  15.969  0.2438  0.2798 -0.2530
  563MPD2    C4 8405   1.576   4.086  15.838  0.2569  0.2986 -0.2699
  563MPD2    C5 8406   1.465   4.150  15.785  0.1609 -0.5186  0.0584
  563MPD2     H 8407   1.568   4.209  16.138 -1.4043  2.4350  0.0373
  563MPD2    H1 8408   1.611   3.997  15.786  0.3724  0.0821  0.1795
  563MPD2    H2 8409   1.324   4.309  15.809  0.7410  0.8524 -0.7557
  563MPD2    H3 8410   1.422   4.127  15.688 -0.9118 -0.7419  0.5902
  563MPD2     N 8411   1.703   4.011  16.034  0.2369 -0.0749  0.3471
  563MPD2    H5 8412   1.717   4.030  16.133 -2.8232 -1.2502  0.9975
  563MPD2    N1 8413   1.362   4.372  16.037  0.0464 -0.2580  0.1299
  563MPD2    H7 8414   1.272   4.403  16.000 -0.1545  1.6980  2.2939
  564TMC3    C1 8415   1.253   4.393  16.239  0.2790 -0.8579 -0.1182
  564TMC3    C2 8416   1.139   4.365  16.168 -0.0678 -0.7490 -0.3016
  564TMC3    C3 8417   1.065   4.252  16.203 -0.2716 -0.1548 -0.6120
  564TMC3    C4 8418   1.289   4.321  16.350  0.5464 -0.2822  0.2628
  564TMC3    C5 8419   1.216   4.205  16.379  0.1063  0.3538 -0.1461
  564TMC3    C6 8420   1.091   4.178  16.320 -0.6851 -0.1469 -0.3845
  564TMC3     C 8421   1.374   4.427  16.162  0.4822 -0.5410  0.1723
  564TMC3     O 8422   1.479   4.448  16.222  0.0088  0.7142 -0.2263
  564TMC3     H 8423   1.116   4.416  16.075  2.4978 -0.5366 -0.8161
  564TMC3    H1 8424   1.387   4.327  16.395  0.7700  1.8484 -0.5145
  564TMC3    H2 8425   1.052   4.078  16.336  1.3860 -1.2858 -2.4378
  564TMC3    C7 8426   1.307   4.086  16.378  0.6318 -0.2015 -0.1721
  564TMC3    C8 8427   1.000   4.167  16.111  0.0813  0.1858 -0.1121
  564TMC3    O1 8428   1.379   4.056  16.474 -0.5886 -0.0770 -0.0190
  564TMC3    O2 8429   0.926   4.079  16.161  0.5897  0.2753  0.5599
  565TMC3    C1 8430   2.197   2.080   9.376 -0.2032  0.2898  0.8296
  565TMC3    C2 8431   2.236   1.978   9.466  0.0689  0.7516 -0.1774
  565TMC3    C3 8432   2.183   1.852   9.455  0.3939 -0.0988 -0.0594
  565TMC3    C4 8433   2.108   2.058   9.278  0.2169 -0.3267 -0.8349
  565TMC3    C5 8434   2.062   1.925   9.274  0.3486  0.4978  0.8174
  565TMC3    C6 8435   2.090   1.832   9.364 -0.0733 -0.1014  0.8545
  565TMC3     C 8436   2.246   2.214   9.394  1.1019  0.1345  0.5312
  565TMC3     O 8437   2.214   2.292   9.307 -0.5573 -0.0533  0.1651
  565TMC3     H 8438   2.314   1.992   9.540 -0.9914  1.9341  0.7177
  565TMC3    H1 8439   2.095   2.136   9.204 -1.0441  0.5532  0.3081
  565TMC3    H2 8440   2.070   1.729   9.336  0.3087 -0.2522  1.1387
  565TMC3    C7 8441   1.974   1.895   9.163 -0.2796 -0.4543  0.2289
  565TMC3    C8 8442   2.208   1.749   9.563  0.1164 -0.3394  0.0946
  565TMC3    O1 8443   1.943   1.780   9.138 -0.3841 -0.3051 -0.2771
  565TMC3    O2 8444   2.300   1.770   9.642 -0.6510 -0.5847  0.9183
  566MPD2     C 8445   3.520   2.350  14.398 -0.4843  0.2587  0.0488
  566MPD2    C1 8446   3.591   2.419  14.294 -0.5228 -0.5182 -0.7761
  566MPD2    C2 8447   3.557   2.396  14.164 -0.2834  0.3070 -0.4592
  566MPD2    C3 8448   3.445   2.323  14.128  0.8516 -0.0442 -0.6984
  566MPD2    C4 8449   3.379   2.258  14.228  0.3841 -0.0366 -0.0506
  566MPD2    C5 8450   3.413   2.275  14.361  0.2300 -0.2410 -0.0724
  566MPD2     H 8451   3.632   2.426  14.092  0.8310  2.0060  1.4305
  566MPD2    H1 8452   3.295   2.197  14.198  0.0440 -0.5551  1.9517
  566MPD2    H2 8453   3.537   2.367  14.503  2.2534  0.3163 -0.3983
  566MPD2    H3 8454   3.350   2.222  14.432 -0.5323  0.8443  0.0705
  566MPD2     N 8455   3.403   2.308  13.994  0.7561  0.5641  1.1501
  566MPD2    H5 8456   3.329   2.241  13.973  1.2388  0.3422  0.1722
  566MPD2    N1 8457   3.695   2.503  14.334  0.7768  0.0319  0.2452
  566MPD2    H7 8458   3.729   2.490  14.428  1.6929 -2.6463 -0.4689
  567TMC3    C1 8459   3.874   2.651  14.307  0.4501  0.3196  0.1763
  567TMC3    C2 8460   3.914   2.764  14.239 -0.4980 -0.4812  0.4697
  567TMC3    C3 8461   4.043   2.809  14.258 -0.3861  0.0581 -0.0560
  567TMC3    C4 8462   3.950   2.588  14.399 -0.2564 -0.4261  0.3064
  567TMC3    C5 8463   4.070   2.641  14.417 -0.4264  0.6794  0.2333
  567TMC3    C6 8464   4.127   2.749  14.349 -0.2372  0.6871 -0.1868
  567TMC3     C 8465   3.750   2.602  14.255 -0.1333 -0.0742 -0.3992
  567TMC3     O 8466   3.707   2.650  14.150 -0.5963 -0.1077  0.0383
  567TMC3     H 8467   3.842   2.828  14.189  0.5600 -0.7226 -1.3792
  567TMC3    H1 8468   3.920   2.493  14.442  0.6768 -1.3036 -0.9530
  567TMC3    H2 8469   4.230   2.770  14.377 -0.3347  0.2235  0.5184
  567TMC3    C7 8470   4.163   2.559  14.496 -0.1396 -0.3366 -0.2938
  567TMC3    C8 8471   4.104   2.866  14.135 -0.6162 -0.0499 -0.6171
  567TMC3    O1 8472   4.280   2.563  14.461 -0.0992 -0.4058 -0.1321
  567TMC3    O2 8473   4.028   2.878  14.038  0.7313  0.3117 -0.1994
  568MPD2     C 8474   0.673   2.839  16.295  0.3368  0.0084  0.2118
  568MPD2    C1 8475   0.772   2.870  16.380 -0.1395 -0.4687  0.1167
  568MPD2    C2 8476   0.838   2.986  16.355  0.4654 -0.1110  0.0471
  568MPD2    C3 8477   0.819   3.061  16.240  0.1207  1.0826  0.0877
  568MPD2    C4 8478   0.715   3.031  16.154  0.1888 -0.4478 -0.9375
  568MPD2    C5 8479   0.645   2.920  16.192 -0.0296 -0.6497 -0.0008
  568MPD2     H 8480   0.911   3.021  16.427 -0.6333  0.4647  0.8811
  568MPD2    H1 8481   0.695   3.085  16.062  2.7958  2.3279  0.0957
  568MPD2    H2 8482   0.626   2.741  16.303 -2.5802  1.2516 -1.8657
  568MPD2    H3 8483   0.564   2.890  16.126  0.0391 -1.3837  0.2553
  568MPD2     N 8484   0.913   3.164  16.227 -0.4719  0.0858 -0.4555
  568MPD2    H5 8485   0.973   3.176  16.308  2.2080  1.4386 -2.6647
  568MPD2    N1 8486   0.802   2.784  16.495 -0.1388 -0.3021  0.1192
  568MPD2    H7 8487   0.751   2.696  16.497 -0.5620 -0.0434  0.6956
  569TMC3    C1 8488   1.045   3.332  16.116  0.2948 -0.2137 -0.1525
  569TMC3    C2 8489   1.065   3.391  16.239  0.0690  0.6146  0.4867
  569TMC3    C3 8490   1.158   3.497  16.226  0.6865 -0.0747  0.0314
  569TMC3    C4 8491   1.093   3.369  15.996 -0.1065 -0.2055 -0.2042
  569TMC3    C5 8492   1.168   3.483  15.985  0.7206  0.8020 -0.3905
  569TMC3    C6 8493   1.206   3.538  16.104  0.5718  0.2390  0.4682
  569TMC3     C 8494   0.933   3.239  16.110  0.1211 -0.4224  0.2739
  569TMC3     O 8495   0.871   3.236  16.006 -0.0336 -0.4068  0.3092
  569TMC3     H 8496   0.995   3.371  16.319 -0.8220  1.7582 -0.0143
  569TMC3    H1 8497   1.070   3.322  15.902 -1.8581 -2.5388  1.3982
  569TMC3    H2 8498   1.267   3.627  16.111  0.9758 -0.2056  2.6095
  569TMC3    C7 8499   1.149   3.583  15.878  0.3097  0.5616  0.3056
  569TMC3    C8 8500   1.123   3.627  16.293  0.1820 -0.2514  1.0429
  569TMC3    O1 8501   1.179   3.552  15.762  0.0212 -0.2998 -0.2444
  569TMC3    O2 8502   1.093   3.721  16.219  0.3727 -0.4056  0.0906
  570TMC3    C1 8503   0.394   1.571  15.927  0.1858  0.4899  0.6058
  570TMC3    C2 8504   0.419   1.620  15.794 -0.4146  0.3918  0.2641
  570TMC3    C3 8505   0.500   1.727  15.779 -0.5147  0.4028 -0.3827
  570TMC3    C4 8506   0.451   1.636  16.040  0.2665  0.6916 -0.7147
  570TMC3    C5 8507   0.529   1.741  16.012 -0.5025 -0.2074 -0.0547
  570TMC3    C6 8508   0.561   1.784  15.883  0.0688 -0.2667  0.1733
  570TMC3     C 8509   0.272   1.491  15.951 -0.0539  0.1102  0.4179
  570TMC3     O 8510   0.193   1.466  15.863 -0.7805 -0.3515  0.4053
  570TMC3     H 8511   0.365   1.570  15.715 -0.4561  0.9930 -0.0876
  570TMC3    H1 8512   0.437   1.604  16.142 -0.9560 -0.5326 -1.2654
  570TMC3    H2 8513   0.626   1.871  15.879 -0.7523  0.3736  0.7128
  570TMC3    C7 8514   0.563   1.825  16.122  0.2511 -0.6049 -0.0227
  570TMC3    C8 8515   0.538   1.775  15.644 -0.3838  0.4411  0.2421
  570TMC3    O1 8516   0.601   1.766  16.226 -0.8128 -0.0934 -0.7505
  570TMC3    O2 8517   0.621   1.862  15.634 -0.5247 -0.0804  0.3570
  571MPD2     C 8518   2.545   3.317   0.258  0.1650  0.2485 -0.2006
  571MPD2    C1 8519   2.536   3.273   0.389 -0.3482 -0.7878  0.4711
  571MPD2    C2 8520   2.581   3.355   0.488 -0.2487 -0.7181 -0.3323
  571MPD2    C3 8521   2.621   3.487   0.464  0.1577  0.1948  0.0356
  571MPD2    C4 8522   2.616   3.536   0.338  0.3115 -0.4938  0.2920
  571MPD2    C5 8523   2.578   3.453   0.235 -0.1205  0.0709  0.3662
  571MPD2     H 8524   2.583   3.309   0.587 -0.4433  1.5316  0.7188
  571MPD2    H1 8525   2.657   3.634   0.317 -2.2755  0.4202 -0.4733
  571MPD2    H2 8526   2.510   3.256   0.175  0.4679 -2.5495  1.7238
  571MPD2    H3 8527   2.581   3.490   0.133 -0.5810 -0.8890 -0.0046
  571MPD2     N 8528   2.658   3.576   0.568 -0.3666  1.1370 -0.5315
  571MPD2    H5 8529   2.687   3.672   0.549  3.3309 -0.0131 -0.6463
  571MPD2    N1 8530   2.511   3.135   0.399 -0.4439  0.3445  0.7312
  571MPD2    H7 8531   2.512   3.082   0.312 -0.4897 -0.2100  1.0751
  572TMC3    C1 8532   2.729   3.635   0.782  0.3766 -0.6632 -0.4562
  572TMC3    C2 8533   2.676   3.648   0.906  0.1131 -0.0061  0.0871
  572TMC3    C3 8534   2.705   3.766   0.971  0.6074 -0.4097 -0.3459
  572TMC3    C4 8535   2.823   3.722   0.728 -0.3355 -0.1128 -0.6883
  572TMC3    C5 8536   2.859   3.825   0.801  0.2932  0.1333  0.0187
  572TMC3    C6 8537   2.805   3.849   0.924 -0.1374 -0.5589  0.2822
  572TMC3     C 8538   2.679   3.530   0.697  0.1618  0.6582 -0.3507
  572TMC3     O 8539   2.627   3.431   0.759 -0.3163 -0.1130  0.1342
  572TMC3     H 8540   2.592   3.586   0.935  0.0437 -0.2404 -0.6080
  572TMC3    H1 8541   2.876   3.691   0.639  1.5487 -2.0265  1.1138
  572TMC3    H2 8542   2.825   3.943   0.974  0.5710 -0.3597 -0.3815
  572TMC3    C7 8543   2.962   3.907   0.743 -0.7553 -0.6674  0.0249
  572TMC3    C8 8544   2.620   3.828   1.077 -0.0277 -0.1523  0.2047
  572TMC3    O1 8545   2.977   3.895   0.624 -0.2764  0.1707  0.0076
  572TMC3    O2 8546   2.635   3.946   1.105  0.2665  0.2359  0.3341
  573MPD2     C 8547   4.052   4.320   1.717 -0.0090  1.0877 -0.6905
  573MPD2    C1 8548   3.934   4.340   1.645 -0.3305  0.2025 -0.1729
  573MPD2    C2 8549   3.935   4.342   1.508  0.1659  0.3051 -0.1785
  573MPD2    C3 8550   4.051   4.312   1.441 -0.1197  0.0731 -0.5647
  573MPD2    C4 8551   4.163   4.283   1.508  0.3939  0.7650  0.0597
  573MPD2    C5 8552   4.163   4.285   1.643 -0.0808 -1.2283  0.2413
  573MPD2     H 8553   3.845   4.367   1.454 -0.1246 -2.5132 -0.9927
  573MPD2    H1 8554   4.254   4.264   1.452 -0.1327 -2.0261  0.1461
  573MPD2    H2 8555   4.053   4.320   1.825  3.8297 -0.9675 -0.7448
  573MPD2    H3 8556   4.254   4.262   1.696 -0.6937 -0.7017  1.5182
  573MPD2     N 8557   4.049   4.298   1.300 -0.2391 -0.1585 -0.5753
  573MPD2    H5 8558   4.147   4.302   1.271 -0.5784  0.0049 -1.6807
  573MPD2    N1 8559   3.820   4.381   1.715  0.2404  0.0153 -0.0619
  573MPD2    H7 8560   3.836   4.412   1.811 -0.9939 -1.3733  0.6002
  574TMC3    C1 8561   3.996   4.272   1.074  0.2510 -0.1346 -0.4114
  574TMC3    C2 8562   3.909   4.239   0.976  0.5110 -0.2469  0.3334
  574TMC3    C3 8563   3.949   4.247   0.847 -0.3852 -0.1319 -0.5505
  574TMC3    C4 8564   4.122   4.301   1.043  0.2011  0.5984  0.2069
  574TMC3    C5 8565   4.166   4.300   0.913  0.2029 -0.2994  0.4313
  574TMC3    C6 8566   4.081   4.277   0.812 -0.8193 -0.6507  0.1284
  574TMC3     C 8567   3.945   4.300   1.206 -1.1160 -0.2892  0.3556
  574TMC3     O 8568   3.826   4.325   1.222 -0.1627  0.3666  0.4726
  574TMC3     H 8569   3.804   4.221   0.997 -0.2464  2.7984 -0.8203
  574TMC3    H1 8570   4.191   4.338   1.118  2.4779 -0.5222 -1.3702
  574TMC3    H2 8571   4.101   4.278   0.706  2.3867  0.0760  0.7476
  574TMC3    C7 8572   4.297   4.366   0.879 -0.4539  0.2246 -0.0305
  574TMC3    C8 8573   3.862   4.198   0.744 -0.0530 -0.6884 -0.1826
  574TMC3    O1 8574   4.367   4.405   0.970 -0.2078  0.3314 -0.6522
  574TMC3    O2 8575   3.782   4.119   0.786 -0.3906  0.2484 -0.0404
  575TMC3    C1 8576   2.720   1.232  10.042 -0.8634 -0.0802  0.9602
  575TMC3    C2 8577   2.674   1.121  10.110  0.0685 -0.0183  0.1827
  575TMC3    C3 8578   2.544   1.081  10.090 -0.1257  0.2261 -0.0938
  575TMC3    C4 8579   2.636   1.305   9.968  0.3207  0.0394 -0.4665
  575TMC3    C5 8580   2.507   1.259   9.939  0.2145  0.3356  0.2627
  575TMC3    C6 8581   2.457   1.154  10.015 -0.7257  0.3539  0.3043
  575TMC3     C 8582   2.858   1.279  10.057 -0.1453 -0.0184  0.1845
  575TMC3     O 8583   2.927   1.221  10.144  0.3354 -0.7490 -0.3873
  575TMC3     H 8584   2.737   1.073  10.184  0.1163  0.7503  0.6380
  575TMC3    H1 8585   2.671   1.397   9.923  0.4723 -0.2012 -0.8397
  575TMC3    H2 8586   2.357   1.122   9.992 -0.1606 -1.6638  0.6397
  575TMC3    C7 8587   2.428   1.344   9.852 -0.1472 -0.4003  0.0036
  575TMC3    C8 8588   2.523   0.940  10.112  0.8461  0.8730 -0.0136
  575TMC3    O1 8589   2.483   1.437   9.794 -0.0998 -0.0902  0.2276
  575TMC3    O2 8590   2.617   0.865  10.143  0.1152 -0.0868  0.5128
  576MPD2     C 8591   1.857   1.662  12.538 -0.2730 -0.6100 -0.6593
  576MPD2    C1 8592   1.861   1.785  12.485  0.1809 -0.1270  0.1993
  576MPD2    C2 8593   1.801   1.896  12.545 -0.1770  0.6804 -0.3266
  576MPD2    C3 8594   1.714   1.880  12.650 -0.3974 -0.3456  0.0927
  576MPD2    C4 8595   1.715   1.752  12.703  0.0168 -0.7750  0.1895
  576MPD2    C5 8596   1.793   1.646  12.654 -0.0871  0.3367 -0.2415
  576MPD2     H 8597   1.815   1.997  12.507  1.7236  0.8503  0.8522
  576MPD2    H1 8598   1.660   1.727  12.794  0.6241 -0.5663  0.6104
  576MPD2    H2 8599   1.913   1.575  12.506  1.9837  0.7140 -0.2654
  576MPD2    H3 8600   1.802   1.555  12.712 -1.8436 -0.3094 -0.9841
  576MPD2     N 8601   1.631   1.983  12.686  0.1366  0.1947 -0.4147
  576MPD2    H5 8602   1.639   2.069  12.633  1.2694  0.1849 -0.2709
  576MPD2    N1 8603   1.925   1.805  12.359  0.0338 -0.0905 -0.2925
  576MPD2    H7 8604   1.931   1.901  12.329 -0.9845 -0.6307 -2.2043
  577TMC3    C1 8605   2.034   1.745  12.159  0.5012 -0.1107 -0.6420
  577TMC3    C2 8606   2.018   1.673  12.037  0.4304 -0.3101  0.5781
  577TMC3    C3 8607   2.051   1.737  11.924  0.6465 -0.2469 -0.1911
  577TMC3    C4 8608   2.084   1.876  12.154 -0.8067  0.1890 -0.2143
  577TMC3    C5 8609   2.095   1.943  12.036  0.4361  0.9284 -0.5225
  577TMC3    C6 8610   2.082   1.872  11.915 -0.2307 -0.2531  0.7100
  577TMC3     C 8611   1.960   1.701  12.270 -0.2790  0.1539  0.8662
  577TMC3     O 8612   1.952   1.579  12.275 -0.1508 -0.4645  0.7723
  577TMC3     H 8613   1.975   1.574  12.043 -2.9924  1.3320  3.0957
  577TMC3    H1 8614   2.096   1.937  12.242 -1.2023  0.2270 -0.1848
  577TMC3    H2 8615   2.087   1.923  11.820  0.0214  0.3494  1.0480
  577TMC3    C7 8616   2.091   2.089  12.042  1.4058 -0.5180  0.6132
  577TMC3    C8 8617   2.028   1.656  11.805 -0.8978  0.5110 -0.5771
  577TMC3    O1 8618   2.110   2.132  12.154  0.8483 -0.0432  0.2457
  577TMC3    O2 8619   1.966   1.552  11.812  0.1990  0.1396 -0.2053
  578MPD2     C 8620   4.203   2.231   0.044 -0.4002  0.0876 -0.0243
  578MPD2    C1 8621   4.300   2.128   0.027 -0.0534 -0.2300 -0.1391
  578MPD2    C2 8622   4.352   2.078   0.146  0.0687 -0.2533  0.1575
  578MPD2    C3 8623   4.308   2.120   0.272 -0.0536 -0.1736  0.0622
  578MPD2    C4 8624   4.204   2.214   0.283  0.0775  0.4968  0.9244
  578MPD2    C5 8625   4.162   2.271   0.165  1.0710 -0.3824  0.6868
  578MPD2     H 8626   4.414   1.989   0.142 -0.6400 -0.8108  1.4167
  578MPD2    H1 8627   4.156   2.250   0.372  0.3933  0.0668  1.2705
  578MPD2    H2 8628   4.156   2.286  17.699 -2.2332 -0.3524  0.7313
  578MPD2    H3 8629   4.086   2.348   0.168  1.9998  0.4944  2.0939
  578MPD2     N 8630   4.355   2.056   0.387 -0.3252 -0.1725 -0.5920
  578MPD2    H5 8631   4.418   1.978   0.372 -0.6700 -0.6549  0.4169
  578MPD2    N1 8632   4.335   2.090  17.631  0.0704 -0.5552 -0.5122
  578MPD2    H7 8633   4.283   2.141  17.560 -0.5147 -2.7050 -1.6047
  579TMC3    C1 8634   4.372   1.987   0.616 -0.7188 -0.3411 -0.0235
  579TMC3    C2 8635   4.342   2.006   0.745 -0.5312 -0.5968  0.0604
  579TMC3    C3 8636   4.347   1.908   0.838 -0.2055  0.8591 -0.7461
  579TMC3    C4 8637   4.416   1.868   0.570 -0.2590  0.0926  0.1163
  579TMC3    C5 8638   4.412   1.768   0.661 -0.1717  0.4878  0.5896
  579TMC3    C6 8639   4.376   1.782   0.793  0.4547  0.1242  0.0796
  579TMC3     C 8640   4.326   2.084   0.518  0.0413 -0.6174  0.6209
  579TMC3     O 8641   4.252   2.171   0.557 -0.4226 -0.2369  0.0371
  579TMC3     H 8642   4.303   2.102   0.777  0.2349 -0.2450 -0.0491
  579TMC3    H1 8643   4.427   1.844   0.465 -1.3071 -0.6604  0.1807
  579TMC3    H2 8644   4.377   1.699   0.864  2.3343 -0.7386 -0.9595
  579TMC3    C7 8645   4.416   1.638   0.601  0.4225 -0.1838  0.5268
  579TMC3    C8 8646   4.375   1.944   0.978  0.0698  0.7074  0.1494
  579TMC3    O1 8647   4.473   1.617   0.492 -0.1957 -0.1247 -0.0999
  579TMC3    O2 8648   4.366   1.858   1.063  0.2178  0.0711 -0.0535
  580TMC3    C1 8649   4.476   1.077  12.192  0.5464 -0.4645  0.4469
  580TMC3    C2 8650   4.605   1.110  12.195  0.1834 -0.2723  0.2063
  580TMC3    C3 8651   4.695   1.013  12.142 -0.1829 -0.4278  0.0033
  580TMC3    C4 8652   4.433   0.953  12.151 -0.3701  0.4169  0.0733
  580TMC3    C5 8653   4.527   0.864  12.102 -0.6508 -0.2514  0.1175
  580TMC3    C6 8654   4.656   0.895  12.088  0.3667 -0.0718 -0.3022
  580TMC3     C 8655   4.380   1.182  12.213 -0.2357  0.2091 -0.4558
  580TMC3     O 8656   4.428   1.281  12.261  0.4560 -0.0254 -0.2459
  580TMC3     H 8657   4.624   1.203  12.248 -3.7202  0.7156 -0.1267
  580TMC3    H1 8658   4.328   0.928  12.161 -0.0617 -0.4812  1.0983
  580TMC3    H2 8659   4.733   0.828  12.053  0.7414 -0.2398  0.8276
  580TMC3    C7 8660   4.476   0.736  12.059  0.1117 -0.4165  0.4711
  580TMC3    C8 8661   0.102   1.056  12.115 -0.5385  0.2569 -0.1214
  580TMC3    O1 8662   4.369   0.698  12.095 -0.2028  0.0730  0.1046
  580TMC3    O2 8663   0.175   0.985  12.054  0.3691  0.9395  0.2010
  581MPD2     C 8664   2.560   0.687  15.010 -0.3336 -0.6227  0.1402
  581MPD2    C1 8665   2.452   0.602  15.016  0.5351  0.2311 -0.1490
  581MPD2    C2 8666   2.333   0.653  14.969  0.2008  0.0501  0.7840
  581MPD2    C3 8667   2.320   0.784  14.925  0.7346  0.2498 -0.5436
  581MPD2    C4 8668   2.424   0.868  14.941  0.0264  0.6027  0.0535
  581MPD2    C5 8669   2.544   0.818  14.983  0.7664 -0.0416  0.0039
  581MPD2     H 8670   2.247   0.587  14.966  0.0292  0.3147 -0.4072
  581MPD2    H1 8671   2.419   0.976  14.932 -0.0441  0.7403  1.7541
  581MPD2    H2 8672   2.662   0.658  15.030 -1.1048 -2.6834  1.0562
  581MPD2    H3 8673   2.630   0.884  14.984  0.0051  0.9490  1.5925
  581MPD2     N 8674   2.190   0.823  14.881  0.0845  0.0119  0.2149
  581MPD2    H5 8675   2.120   0.750  14.887  2.8350 -2.6901 -0.7306
  581MPD2    N1 8676   2.475   0.468  15.044  0.8923 -0.0120  0.0706
  581MPD2    H7 8677   2.568   0.436  15.071  0.6742 -0.2675  0.5306
  582TMC3    C1 8678   2.422   0.236  15.061 -0.4360 -0.7694 -1.1485
  582TMC3    C2 8679   2.531   0.209  15.144 -0.0910  0.0077 -0.5820
  582TMC3    C3 8680   2.513   0.113  15.243 -0.7357  0.6686  0.2681
  582TMC3    C4 8681   2.309   0.160  15.077 -0.6241 -0.5703 -0.2956
  582TMC3    C5 8682   2.295   0.064  15.178 -0.7962 -0.0073 -0.0697
  582TMC3    C6 8683   2.396   0.040  15.263  0.0736 -0.2745  0.1705
  582TMC3     C 8684   2.373   0.373  15.051  0.1922 -0.0734  0.0707
  582TMC3     O 8685   2.252   0.389  15.047  0.3249 -0.0902  0.2433
  582TMC3     H 8686   2.615   0.276  15.149  1.6548 -2.2784  1.0589
  582TMC3    H1 8687   2.240   0.178  14.996  2.2632 -0.9145 -2.8226
  582TMC3    H2 8688   2.380   4.722  15.356 -1.1111 -2.6426 -1.3386
  582TMC3    C7 8689   2.172   0.083  15.255 -0.1064  0.1208  0.2030
  582TMC3    C8 8690   2.585   0.134  15.364  0.1073  0.0391  0.2061
  582TMC3    O1 8691   2.150   0.001  15.345  0.1241  0.3945 -0.0323
  582TMC3    O2 8692   2.614   0.244  15.409 -0.4495  0.3698 -0.4530
  583MPD2     C 8693   2.203   2.036  16.662 -0.4709  0.2384  0.0521
  583MPD2    C1 8694   2.194   2.163  16.611 -0.0203  0.2457  0.0939
  583MPD2    C2 8695   2.148   2.271  16.688  0.0791  0.5048 -0.8180
  583MPD2    C3 8696   2.119   2.253  16.821  0.2336  0.5909  1.1575
  583MPD2    C4 8697   2.146   2.130  16.872 -0.4321  1.0523  0.2336
  583MPD2    C5 8698   2.179   2.021  16.792 -0.3552  0.6413 -0.0855
  583MPD2     H 8699   2.143   2.374  16.654  0.6916  1.0330  0.7044
  583MPD2    H1 8700   2.125   2.113  16.977 -0.0631  3.0810  0.6332
  583MPD2    H2 8701   2.265   1.955  16.626 -0.0944  0.2347  0.7031
  583MPD2    H3 8702   2.196   1.923  16.834  0.7339  0.6684 -0.4758
  583MPD2     N 8703   2.083   2.360  16.904 -0.2255  0.7684  0.3043
  583MPD2    H5 8704   2.075   2.450  16.858  1.4375 -0.1782 -1.8386
  583MPD2    N1 8705   2.251   2.205  16.492  0.1740  0.4905 -0.0612
  583MPD2    H7 8706   2.249   2.303  16.465 -0.0566 -0.3019 -2.9557
  584TMC3    C1 8707   2.010   2.481  17.104 -0.3781  0.7055  0.0841
  584TMC3    C2 8708   1.995   2.600  17.028  0.3568 -0.1574 -0.8049
  584TMC3    C3 8709   1.979   2.714  17.100  0.5727  0.3887  0.8214
  584TMC3    C4 8710   2.011   2.481  17.246 -0.1028 -1.1736  0.1735
  584TMC3    C5 8711   2.007   2.604  17.309 -0.2995  0.0296 -0.1472
  584TMC3    C6 8712   1.973   2.722  17.239 -0.6213  0.4601  0.4231
  584TMC3     C 8713   2.047   2.357  17.039  0.8283 -0.0558 -0.0171
  584TMC3     O 8714   2.056   2.262  17.120  0.3641 -0.0023 -0.1006
  584TMC3     H 8715   1.993   2.598  16.920  0.3925  0.3460 -0.8153
  584TMC3    H1 8716   2.026   2.388  17.299 -1.2615 -1.3759  0.1382
  584TMC3    H2 8717   1.957   2.817  17.288 -0.5726 -0.6586  2.5818
  584TMC3    C7 8718   2.001   2.595  17.452 -0.0661  0.1820  0.0910
  584TMC3    C8 8719   2.003   2.828  17.016 -0.0466  0.1191 -0.3685
  584TMC3    O1 8720   2.030   2.484  17.497 -0.0679 -0.2397  0.3710
  584TMC3    O2 8721   1.983   2.813  16.893  0.4512  0.1082 -0.3699
  585MPD2     C 8722   0.848   1.933   0.693  0.0407  0.6733  0.3666
  585MPD2    C1 8723   0.970   1.972   0.645  0.0078  0.3906  0.0307
  585MPD2    C2 8724   1.062   1.880   0.596  0.3511  0.3297 -0.0080
  585MPD2    C3 8725   1.035   1.746   0.595  0.2179  0.5489  0.0902
  585MPD2    C4 8726   0.916   1.708   0.656 -0.3456 -0.1474  0.0437
  585MPD2    C5 8727   0.829   1.801   0.702  0.9583  0.1791 -0.0407
  585MPD2     H 8728   1.149   1.918   0.544  1.4464 -0.5086  1.2226
  585MPD2    H1 8729   0.889   1.603   0.652  0.4070 -0.3213 -0.4585
  585MPD2    H2 8730   0.770   2.006   0.709 -3.0972 -1.9842 -2.6341
  585MPD2    H3 8731   0.728   1.769   0.725  0.7494 -0.0727 -1.3515
  585MPD2     N 8732   1.121   1.648   0.538  0.5271 -0.2231 -0.5161
  585MPD2    H5 8733   1.089   1.553   0.547 -1.1384  0.2745 -1.3408
  585MPD2    N1 8734   0.988   2.112   0.630 -0.2906 -0.5382  0.1224
  585MPD2    H7 8735   0.904   2.166   0.646 -0.2681 -0.7922  1.0742
  586TMC3    C1 8736   1.301   1.555   0.420 -0.2138 -0.6400  0.0478
  586TMC3    C2 8737   1.439   1.547   0.408 -0.2359  0.2233 -0.3896
  586TMC3    C3 8738   1.497   1.434   0.367 -0.0075 -0.7910  0.7671
  586TMC3    C4 8739   1.233   1.446   0.376  0.0439 -0.0852  0.4182
  586TMC3    C5 8740   1.294   1.327   0.340 -0.6602 -0.1200 -0.6714
  586TMC3    C6 8741   1.422   1.324   0.326  0.1810 -0.9384 -0.9328
  586TMC3     C 8742   1.244   1.678   0.483  0.0683 -0.4188  0.4970
  586TMC3     O 8743   1.311   1.779   0.495  0.2212  0.0590  0.5297
  586TMC3     H 8744   1.493   1.633   0.447  0.7546 -0.8976  0.7034
  586TMC3    H1 8745   1.125   1.454   0.369  0.1663  1.2382  0.1838
  586TMC3    H2 8746   1.470   1.228   0.308 -0.0422 -1.0638 -0.8548
  586TMC3    C7 8747   1.229   1.258   0.234 -0.2368  0.2343 -0.2551
  586TMC3    C8 8748   1.606   1.456   0.276 -0.8398  0.5277  0.0955
  586TMC3    O1 8749   1.178   1.153   0.266  0.0844 -0.0978 -0.4810
  586TMC3    O2 8750   1.658   1.568   0.264 -0.1983 -0.1345  0.2275
  587TMC3    C1 8751   3.724   4.384  16.263 -0.3070 -0.0567  0.1049
  587TMC3    C2 8752   3.738   4.454  16.386 -0.6011  0.6860  0.2592
  587TMC3    C3 8753   3.863   4.446  16.438 -0.0933 -0.6154  0.2226
  587TMC3    C4 8754   3.822   4.307  16.212 -0.5454 -0.8398  0.4002
  587TMC3    C5 8755   3.939   4.290  16.283  0.3490  0.8092  0.0869
  587TMC3    C6 8756   3.970   4.365  16.392 -0.3141 -0.0088 -0.4082
  587TMC3     C 8757   3.602   4.409  16.186  0.2827  0.2826 -0.1983
  587TMC3     O 8758   3.619   4.444  16.069  0.3763  0.1790  0.1570
  587TMC3     H 8759   3.664   4.519  16.432 -2.1685 -1.0764  0.2301
  587TMC3    H1 8760   3.795   4.258  16.119  2.3254  0.6867 -1.2478
  587TMC3    H2 8761   4.066   4.369  16.441 -0.5034 -1.0877  0.0639
  587TMC3    C7 8762   4.013   4.168  16.253  0.6513  0.4297 -0.2285
  587TMC3    C8 8763   3.904   4.546  16.540  0.3211 -0.3430 -0.0035
  587TMC3    O1 8764   3.944   4.079  16.201  0.3798 -0.3075  0.0820
  587TMC3    O2 8765   3.996   4.508  16.606 -0.1470  0.9438  0.2011
  588TMC3    C1 8766   1.659   3.086   9.888 -0.2829 -0.0876 -0.5467
  588TMC3    C2 8767   1.612   2.966   9.830 -0.0726 -0.2261 -0.2710
  588TMC3    C3 8768   1.669   2.853   9.875  0.1508 -0.3795  0.3514
  588TMC3    C4 8769   1.748   3.081   9.990 -0.5174  0.1928  1.0473
  588TMC3    C5 8770   1.806   2.967  10.030  0.5803 -0.4287 -0.0069
  588TMC3    C6 8771   1.772   2.849   9.973  0.5547 -0.4295  0.0825
  588TMC3     C 8772   1.646   3.210   9.814 -0.5666 -0.3216 -0.1796
  588TMC3     O 8773   1.643   3.199   9.692 -0.0250  0.2021  0.5995
  588TMC3     H 8774   1.547   2.971   9.743  2.0802  2.0793 -1.7812
  588TMC3    H1 8775   1.784   3.175  10.032 -1.5918  0.8969  0.4054
  588TMC3    H2 8776   1.825   2.756   9.994  0.8465 -0.5423 -1.1725
  588TMC3    C7 8777   1.922   2.974  10.122 -0.3308  0.0608  0.2734
  588TMC3    C8 8778   1.626   2.728   9.803  0.8805 -0.2439  0.1162
  588TMC3    O1 8779   1.946   2.874  10.184 -0.0810 -0.0803  0.4036
  588TMC3    O2 8780   1.553   2.736   9.706  0.3471 -0.0430 -0.4303
  589TMC3    C1 8781   0.151   4.566   1.202  0.3112 -0.2304 -0.4820
  589TMC3    C2 8782   0.245   4.540   1.291 -0.0001  0.0192 -0.5684
  589TMC3    C3 8783   0.355   4.467   1.254  0.3381 -0.2911  0.4387
  589TMC3    C4 8784   0.151   4.512   1.075 -0.1782  0.5251 -0.1200
  589TMC3    C5 8785   0.259   4.432   1.047  0.4619 -0.7621 -0.4922
  589TMC3    C6 8786   0.355   4.400   1.137 -0.2712 -0.2323 -0.2258
  589TMC3     C 8787   0.034   4.652   1.229 -0.0638 -0.0049 -0.0347
  589TMC3     O 8788   4.678   4.660   1.143  0.0069  0.2666  0.0074
  589TMC3     H 8789   0.241   4.568   1.396  1.1207  2.0829 -1.0874
  589TMC3    H1 8790   0.075   4.517   0.997  0.2638  0.7359 -0.5373
  589TMC3    H2 8791   0.428   4.325   1.110 -0.7282 -0.5269 -0.6489
  589TMC3    C7 8792   0.272   4.396   0.905  0.7150 -0.5946  0.4916
  589TMC3    C8 8793   0.467   4.472   1.343  1.0470  0.5262 -0.6184
  589TMC3    O1 8794   0.206   4.470   0.832 -0.0646 -0.3460 -0.5958
  589TMC3    O2 8795   0.447   4.519   1.452 -0.3992  0.0214 -0.1247
  590MPD2     C 8796   0.292   3.385  16.898 -0.5977  0.2760  0.1861
  590MPD2    C1 8797   0.274   3.365  16.768  0.4788 -0.0914 -0.5182
  590MPD2    C2 8798   0.355   3.423  16.670  0.1082  0.3020  0.0289
  590MPD2    C3 8799   0.456   3.505  16.713  0.0154 -0.3499 -0.1215
  590MPD2    C4 8800   0.475   3.522  16.850  0.1047 -0.3873  0.5430
  590MPD2    C5 8801   0.393   3.464  16.940  0.5025  0.4318 -0.0186
  590MPD2     H 8802   0.350   3.396  16.566  1.6655 -1.1174  0.3319
  590MPD2    H1 8803   0.547   3.592  16.890 -0.5673 -0.9208  2.6884
  590MPD2    H2 8804   0.218   3.344  16.966 -1.0953  1.1962  0.1923
  590MPD2    H3 8805   0.424   3.466  17.043 -1.6266 -2.7801  0.6930
  590MPD2     N 8806   0.530   3.560  16.606 -0.3790  0.6073  1.0641
  590MPD2    H5 8807   0.494   3.563  16.511  3.0650  0.3089 -0.2648
  590MPD2    N1 8808   0.166   3.281  16.740  0.0710 -0.4257 -0.8182
  590MPD2    H7 8809   0.125   3.227  16.816  1.0095 -0.0372 -0.0362
  591TMC3    C1 8810   0.669   3.716  16.515 -0.2038 -0.1069 -0.1458
  591TMC3    C2 8811   0.706   3.655  16.398 -0.5712 -0.3677  0.0187
  591TMC3    C3 8812   0.727   3.731  16.287 -0.0890 -0.0430  0.4550
  591TMC3    C4 8813   0.670   3.852  16.527 -0.2231  0.4472 -0.6975
  591TMC3    C5 8814   0.683   3.927  16.417  0.3787 -0.0687  0.6862
  591TMC3    C6 8815   0.712   3.869  16.294  0.6659 -0.2188  0.5275
  591TMC3     C 8816   0.628   3.653  16.632  0.1331  0.1046 -0.2628
  591TMC3     O 8817   0.670   3.692  16.742 -0.3184 -0.1135 -0.6620
  591TMC3     H 8818   0.699   3.547  16.389 -1.4891 -0.4998  2.2544
  591TMC3    H1 8819   0.638   3.905  16.617  1.8052  1.4021 -0.5509
  591TMC3    H2 8820   0.731   3.933  16.209 -0.9651 -1.2346 -0.5873
  591TMC3    C7 8821   0.622   4.055  16.426 -0.1299  0.7828  0.0509
  591TMC3    C8 8822   0.753   3.667  16.168 -0.0617 -0.0504 -0.0295
  591TMC3    O1 8823   0.543   4.073  16.515  0.0145  0.3667 -0.5086
  591TMC3    O2 8824   0.787   3.548  16.177  0.3117  0.0933 -0.7112
  592MPD2     C 8825   0.789   0.237  11.457 -0.3454 -0.4753  0.8018
  592MPD2    C1 8826   0.709   0.317  11.528 -0.6237 -0.3979 -0.1058
  592MPD2    C2 8827   0.589   0.263  11.568  0.2281  0.3160 -0.0970
  592MPD2    C3 8828   0.561   0.127  11.553  0.0736 -0.0717  0.6735
  592MPD2    C4 8829   0.661   0.049  11.503  0.0940 -0.3395 -0.0241
  592MPD2    C5 8830   0.771   0.106  11.452  0.4628  0.2213 -0.0742
  592MPD2     H 8831   0.517   0.319  11.626 -1.5198 -1.0434 -0.9749
  592MPD2    H1 8832   0.656   4.676  11.492 -1.0040 -0.3995  1.0917
  592MPD2    H2 8833   0.880   0.270  11.408 -0.9925  1.1454  0.7125
  592MPD2    H3 8834   0.842   0.053  11.389 -1.1505  0.7500 -2.3469
  592MPD2     N 8835   0.435   0.080  11.598  0.0707 -0.2365  0.0587
  592MPD2    H5 8836   0.366   0.153  11.614 -0.1065 -0.0428 -1.6124
  592MPD2    N1 8837   0.746   0.452  11.544  0.1671  0.9734 -0.3003
  592MPD2    H7 8838   0.838   0.484  11.516 -0.5849  1.7837 -1.8020
  593TMC3    C1 8839   0.731   0.664  11.648 -0.4282 -0.1990  0.6998
  593TMC3    C2 8840   0.702   0.736  11.762 -0.1442 -0.6167  0.4802
  593TMC3    C3 8841   0.786   0.843  11.794 -0.0384  0.1254  0.0952
  593TMC3    C4 8842   0.837   0.699  11.563  0.7666  0.1762  0.4008
  593TMC3    C5 8843   0.901   0.823  11.588 -0.1112  0.2854  0.2181
  593TMC3    C6 8844   0.882   0.895  11.705 -0.4510  0.7012 -0.8925
  593TMC3     C 8845   0.666   0.534  11.628  0.6142 -0.6928  0.5712
  593TMC3     O 8846   0.560   0.524  11.691 -0.0739  0.1976 -0.6384
  593TMC3     H 8847   0.632   0.695  11.833 -0.0468 -4.1529 -1.4466
  593TMC3    H1 8848   0.851   0.652  11.467 -0.0577  0.7306  0.0088
  593TMC3    H2 8849   0.932   0.991  11.716 -0.6815  0.9811 -2.2456
  593TMC3    C7 8850   1.005   0.860  11.491  0.1891 -0.0338 -0.3425
  593TMC3    C8 8851   0.754   0.911  11.920 -0.2703 -0.1518 -0.2829
  593TMC3    O1 8852   1.027   0.765  11.421  0.6771  0.2240 -0.1860
  593TMC3    O2 8853   0.650   0.890  11.976 -0.1901 -0.2420 -0.0644
  594MPD2     C 8854   4.541   3.602  14.703  0.8250  0.2996  0.0448
  594MPD2    C1 8855   4.429   3.686  14.682  0.3381  0.1568 -0.7830
  594MPD2    C2 8856   4.453   3.814  14.633  0.6901  0.5975  0.3154
  594MPD2    C3 8857   4.579   3.861  14.600 -0.3509  0.4612  0.1340
  594MPD2    C4 8858   4.688   3.778  14.619  0.1028  0.3990  0.1200
  594MPD2    C5 8859   4.663   3.654  14.662  0.1221  0.1556 -0.0008
  594MPD2     H 8860   4.379   3.891  14.611 -1.5394 -0.6563  3.4694
  594MPD2    H1 8861   0.052   3.802  14.578  1.1590 -2.1749  1.1436
  594MPD2    H2 8862   4.524   3.506  14.751  0.7244 -0.0549 -0.7009
  594MPD2    H3 8863   0.015   3.589  14.674  1.1040  1.0105 -2.5045
  594MPD2     N 8864   4.586   4.000  14.558 -0.2585 -0.2384 -0.3628
  594MPD2    H5 8865   4.498   4.046  14.537  0.2118  1.0190  0.4252
  594MPD2    N1 8866   4.295   3.637  14.707 -0.4878  0.3316  0.2756
  594MPD2    H7 8867   4.290   3.539  14.732  0.1107  0.4400  0.7896
  595TMC3    C1 8868   0.109   4.396  14.467 -0.0957 -0.3490  0.4620
  595TMC3    C2 8869   0.096   4.262  14.474  0.3675 -0.5169  0.3251
  595TMC3    C3 8870   4.705   4.206  14.494 -0.9598 -0.4706 -0.8293
  595TMC3    C4 8871   4.734   4.476  14.472 -0.1664  0.4380 -0.1972
  595TMC3    C5 8872   4.616   4.417  14.502 -0.0394  0.3765 -0.3597
  595TMC3    C6 8873   4.592   4.281  14.506 -0.1872 -0.0175 -0.7377
  595TMC3     C 8874   0.242   4.451  14.469 -0.0529 -0.2388 -0.5605
  595TMC3     O 8875   0.264   4.537  14.556 -0.3187  0.0398 -0.2308
  595TMC3     H 8876   0.184   4.203  14.497  1.2911  1.2328  1.2768
  595TMC3    H1 8877   0.021   4.583  14.468  0.1010  0.4852  2.4323
  595TMC3    H2 8878   4.489   4.245  14.502 -0.2364  0.0973 -0.5286
  595TMC3    C7 8879   4.504   4.502  14.552  0.1774  0.6873  0.2660
  595TMC3    C8 8880   4.708   4.066  14.551  0.1357 -0.3744  0.4860
  595TMC3    O1 8881   4.394   4.452  14.571 -0.1857 -0.9469  0.3053
  595TMC3    O2 8882   0.087   4.030  14.583 -0.6043 -0.1769  0.0962
  596MPD2     C 8883   3.153   1.945  16.714  0.0714 -0.0337 -0.7670
  596MPD2    C1 8884   3.158   2.062  16.637  0.0648 -0.1430  0.6768
  596MPD2    C2 8885   3.207   2.063  16.504 -0.7604  0.2920  0.8833
  596MPD2    C3 8886   3.262   1.947  16.451 -0.6276  0.1294  0.0677
  596MPD2    C4 8887   3.259   1.833  16.530 -0.2320 -0.6710  0.9168
  596MPD2    C5 8888   3.215   1.834  16.657  0.2086  0.3530  0.5223
  596MPD2     H 8889   3.200   2.154  16.445 -1.3795 -0.6392 -0.4846
  596MPD2    H1 8890   3.292   1.737  16.491  0.9674  0.7197 -1.4806
  596MPD2    H2 8891   3.130   1.941  16.820  0.9400 -0.9879 -0.6042
  596MPD2    H3 8892   3.215   1.741  16.712  0.8469 -0.4365 -0.8015
  596MPD2     N 8893   3.309   1.937  16.315  0.2682  0.1971  0.2494
  596MPD2    H5 8894   3.321   1.845  16.273  0.5162  0.0890  0.5601
  596MPD2    N1 8895   3.107   2.180  16.694 -0.3048 -0.4496  0.2967
  596MPD2    H7 8896   3.125   2.269  16.647  0.4601 -0.7237  0.0627
  597TMC3    C1 8897   2.987   2.315  16.846  0.2745  0.7481  0.0440
  597TMC3    C2 8898   3.059   2.417  16.803 -0.0731  0.4651 -0.2540
  597TMC3    C3 8899   3.012   2.544  16.841  0.1515 -0.1155  0.0180
  597TMC3    C4 8900   2.872   2.325  16.921  0.9509 -0.4012 -0.6717
  597TMC3    C5 8901   2.839   2.455  16.958  0.1018  0.2460  0.4579
  597TMC3    C6 8902   2.908   2.565  16.925  0.5549  0.2262 -0.6692
  597TMC3     C 8903   3.020   2.186  16.802 -0.9214  0.1083  1.1335
  597TMC3     O 8904   2.962   2.091  16.858 -1.2055  0.3552  0.0498
  597TMC3     H 8905   3.154   2.408  16.752 -0.4574  0.5543 -0.9777
  597TMC3    H1 8906   2.816   2.242  16.963 -2.9508  3.1040  1.1044
  597TMC3    H2 8907   2.891   2.671  16.935 -0.7307 -0.0836  0.5011
  597TMC3    C7 8908   2.729   2.476  17.050  0.1179  0.5592  0.2628
  597TMC3    C8 8909   3.106   2.650  16.842  0.6073  0.4506 -0.0875
  597TMC3    O1 8910   2.706   2.377  17.121 -0.3449 -0.0267  0.4611
  597TMC3    O2 8911   3.097   2.741  16.923 -0.3771  0.1908  0.6475
  598TMC3    C1 8912   1.362   3.750  15.469  0.0728  0.0100 -0.3998
  598TMC3    C2 8913   1.279   3.650  15.422 -0.3698  0.6638  0.3418
  598TMC3    C3 8914   1.198   3.665  15.312 -0.5861  0.1184  0.5973
  598TMC3    C4 8915   1.372   3.867  15.392 -0.2858  0.1578  0.3959
  598TMC3    C5 8916   1.298   3.877  15.277 -0.2981  0.4704  0.6061
  598TMC3    C6 8917   1.207   3.783  15.241  0.0175  0.3897 -0.2831
  598TMC3     C 8918   1.479   3.726  15.559 -0.3913  0.0206 -0.1934
  598TMC3     O 8919   1.571   3.804  15.549  0.7493  0.3423  0.3973
  598TMC3     H 8920   1.299   3.555  15.471  1.7251  1.3177  0.7217
  598TMC3    H1 8921   1.439   3.947  15.421  0.4835  0.0949 -1.1795
  598TMC3    H2 8922   1.138   3.794  15.157 -0.6392 -0.4231  0.1414
  598TMC3    C7 8923   1.372   3.929  15.164  0.3955  0.1613 -0.4259
  598TMC3    C8 8924   1.181   3.541  15.230 -0.5277  0.1852  0.5012
  598TMC3    O1 8925   1.327   3.872  15.064 -0.3214 -0.4357  0.2614
  598TMC3    O2 8926   1.157   3.436  15.288 -0.2613 -0.0166  0.3692
  599MPD2     C 8927   1.949   1.304  16.074  1.0699 -0.1697 -0.3768
  599MPD2    C1 8928   1.895   1.178  16.060  0.3254 -0.0966 -0.5633
  599MPD2    C2 8929   1.770   1.148  16.105 -0.3600  0.2250 -0.2398
  599MPD2    C3 8930   1.686   1.247  16.151  0.2481 -0.1268 -0.5963
  599MPD2    C4 8931   1.733   1.375  16.156  0.0534  0.4387  0.5424
  599MPD2    C5 8932   1.865   1.406  16.118  0.0512  0.5273 -0.2622
  599MPD2     H 8933   1.739   1.045  16.119 -1.2103  0.5209 -0.0000
  599MPD2    H1 8934   1.666   1.452  16.193 -1.6733 -0.4655 -0.6947
  599MPD2    H2 8935   2.051   1.325  16.046  0.6059  2.5811  0.0434
  599MPD2    H3 8936   1.901   1.508  16.129 -0.5296  0.6377  0.6430
  599MPD2     N 8937   1.552   1.233  16.195 -0.1159  0.2226 -0.3368
  599MPD2    H5 8938   1.506   1.316  16.230 -1.0662 -0.6625  0.5146
  599MPD2    N1 8939   1.984   1.075  16.019  0.8183  0.1188 -0.7172
  599MPD2    H7 8940   2.083   1.095  16.012  0.9580  0.8150  3.4472
  600TMC3    C1 8941   1.344   1.128  16.257 -0.0892 -0.3901  0.2004
  600TMC3    C2 8942   1.243   1.039  16.232  0.0159 -0.9587  0.3164
  600TMC3    C3 8943   1.118   1.074  16.251 -0.7215 -0.0582  0.4149
  600TMC3    C4 8944   1.313   1.241  16.325 -0.0298 -0.3139 -0.2326
  600TMC3    C5 8945   1.189   1.271  16.343  0.1953 -0.2276 -0.5156
  600TMC3    C6 8946   1.083   1.195  16.297  0.0426  0.6722  0.1494
  600TMC3     C 8947   1.472   1.112  16.190 -0.1727  0.2576  0.1341
  600TMC3     O 8948   1.498   1.005  16.135  0.4348 -0.3989  0.1388
  600TMC3     H 8949   1.255   0.955  16.164  2.3173 -0.2407 -0.1627
  600TMC3    H1 8950   1.389   1.316  16.344  0.4738 -0.7221 -0.6500
  600TMC3    H2 8951   0.986   1.210  16.343  0.6795  3.2369  0.6219
  600TMC3    C7 8952   1.161   1.387  16.429 -1.0856 -0.6607  0.0092
  600TMC3    C8 8953   1.016   0.977  16.275 -0.1994  0.1771  0.8022
  600TMC3    O1 8954   1.060   1.454  16.405 -0.0890 -0.4354  0.2378
  600TMC3    O2 8955   1.040   0.889  16.361  0.3120  0.4359 -0.1519
  601MPD2     C 8956   3.330   4.272   0.729 -0.4795  0.3709  0.4584
  601MPD2    C1 8957   3.262   4.213   0.625  0.2897  0.2195  0.4436
  601MPD2    C2 8958   3.159   4.123   0.657  0.1246  0.5015 -0.4163
  601MPD2    C3 8959   3.131   4.086   0.792  0.2581 -0.0379 -0.0762
  601MPD2    C4 8960   3.207   4.147   0.890 -0.8102  0.4259  0.8186
  601MPD2    C5 8961   3.310   4.227   0.855 -0.3041  0.5710  0.2886
  601MPD2     H 8962   3.101   4.087   0.573  1.1396  0.8213 -1.2578
  601MPD2    H1 8963   3.190   4.115   0.991 -1.6365 -0.2120  0.4677
  601MPD2    H2 8964   3.415   4.339   0.722  1.7335 -2.6692 -1.9571
  601MPD2    H3 8965   3.355   4.275   0.941 -0.6966  0.9903  0.2574
  601MPD2     N 8966   3.037   3.984   0.833  0.0505  0.5332  0.5401
  601MPD2    H5 8967   3.023   3.965   0.931 -1.1894  0.1635  0.2944
  601MPD2    N1 8968   3.285   4.250   0.491 -0.0011 -0.9865 -0.2377
  601MPD2    H7 8969   3.237   4.193   0.423  0.2767  1.2502 -2.3043
  602TMC3    C1 8970   3.393   4.333   0.307 -0.2564  0.5402 -0.1086
  602TMC3    C2 8971   3.439   4.455   0.267 -0.1465 -0.5119 -0.0171
  602TMC3    C3 8972   3.395   4.503   0.146  0.9943  0.0510  0.0424
  602TMC3    C4 8973   3.293   4.272   0.235  0.1701  0.0868 -0.0380
  602TMC3    C5 8974   3.251   4.323   0.116  0.3505 -0.3719  0.5702
  602TMC3    C6 8975   3.299   4.442   0.067  0.1971  0.4137  0.6431
  602TMC3     C 8976   3.386   4.320   0.450 -0.1072  0.3911  0.2617
  602TMC3     O 8977   3.487   4.369   0.504 -0.5609  0.4318  0.1654
  602TMC3     H 8978   3.512   4.513   0.321 -1.7983  2.3610 -0.8625
  602TMC3    H1 8979   3.265   4.168   0.250  0.2893  0.3637  2.1731
  602TMC3    H2 8980   3.242   4.482  17.720 -1.0864  0.7342  1.7004
  602TMC3    C7 8981   3.169   4.235   0.035  0.4823  0.6121 -1.0486
  602TMC3    C8 8982   3.462   4.617   0.090 -0.4014 -0.0295 -0.4837
  602TMC3    O1 8983   3.086   4.158   0.084 -0.3247  0.6709 -0.3149
  602TMC3    O2 8984   3.510   4.702   0.166  0.3756 -0.2706 -0.1485
  603TMC3    C1 8985   2.238   1.143  11.513  0.5335 -0.7368 -0.4230
  603TMC3    C2 8986   2.178   1.043  11.583 -0.1577 -0.4637 -0.1528
  603TMC3    C3 8987   2.076   0.974  11.524 -0.0457 -0.5489  0.3089
  603TMC3    C4 8988   2.175   1.182  11.399 -0.1189  0.1866  0.2758
  603TMC3    C5 8989   2.079   1.112  11.338  0.1710 -0.3537 -0.2997
  603TMC3    C6 8990   2.029   0.992  11.396 -0.6641 -0.3503  0.3718
  603TMC3     C 8991   2.321   1.241  11.581 -0.9387 -0.1267  0.1396
  603TMC3     O 8992   2.350   1.235  11.699 -0.5740  0.9892 -0.9358
  603TMC3     H 8993   2.221   1.023  11.680  2.2098 -0.8275 -1.2538
  603TMC3    H1 8994   2.202   1.273  11.345  0.3692  0.6556  1.3052
  603TMC3    H2 8995   1.939   0.936  11.372 -0.8487  0.1563 -0.1181
  603TMC3    C7 8996   2.026   1.162  11.209  0.2131  0.0057 -0.1451
  603TMC3    C8 8997   1.995   0.893  11.605 -0.2850  0.3991 -0.2077
  603TMC3    O1 8998   2.083   1.254  11.153 -0.1098 -0.0107  0.0164
  603TMC3    O2 8999   1.915   0.813  11.551  0.5884  0.9955 -0.4569
  604MPD2     C 9000   2.040   2.929  16.389  0.7039 -0.4201 -0.1348
  604MPD2    C1 9001   2.007   3.048  16.333  0.8925  0.0709  0.9572
  604MPD2    C2 9002   2.078   3.083  16.219  0.1640 -0.5328  0.5305
  604MPD2    C3 9003   2.176   2.997  16.166  0.4049  0.7865 -0.1302
  604MPD2    C4 9004   2.205   2.875  16.219  0.0970 -0.0862  0.5864
  604MPD2    C5 9005   2.141   2.846  16.339 -0.6661  0.8772  0.0934
  604MPD2     H 9006   2.062   3.184  16.183 -1.3603 -0.5971  1.0377
  604MPD2    H1 9007   2.275   2.803  16.178 -0.2291  0.6084 -1.2117
  604MPD2    H2 9008   1.992   2.901  16.482  1.6420 -1.6281 -0.0144
  604MPD2    H3 9009   2.166   2.753  16.390  0.4127  0.9525 -0.3038
  604MPD2     N 9010   2.242   3.046  16.049  0.2101  0.1349 -0.1043
  604MPD2    H5 9011   2.206   3.132  16.009 -0.4760 -0.1732 -0.1551
  604MPD2    N1 9012   1.927   3.133  16.406 -0.2032  0.7265  0.1343
  604MPD2    H7 9013   1.901   3.117  16.503  0.2280  0.6917  0.2418
  605TMC3    C1 9014   1.813   3.335  16.440  0.3977 -0.1383 -0.0743
  605TMC3    C2 9015   1.883   3.356  16.550  0.3260 -0.2855  0.2173
  605TMC3    C3 9016   1.837   3.445  16.649  0.0255  0.3713 -0.1322
  605TMC3    C4 9017   1.705   3.409  16.411  0.2170  0.1968 -0.3673
  605TMC3    C5 9018   1.666   3.508  16.504  0.0786  0.4783  0.2624
  605TMC3    C6 9019   1.725   3.517  16.628 -0.2483  0.2140 -0.8466
  605TMC3     C 9020   1.870   3.246  16.348  0.6754 -0.4107  0.2251
  605TMC3     O 9021   1.849   3.270  16.230 -0.3610 -0.0053 -1.1723
  605TMC3     H 9022   1.981   3.312  16.565  0.2861 -0.5554 -0.3053
  605TMC3    H1 9023   1.650   3.389  16.320 -0.0600 -0.9398  0.0567
  605TMC3    H2 9024   1.703   3.596  16.699  1.9656  0.9406 -0.9587
  605TMC3    C7 9025   1.593   3.626  16.462 -0.0814  0.4195 -0.4463
  605TMC3    C8 9026   1.929   3.499  16.747 -1.0084  0.7545 -0.3077
  605TMC3    O1 9027   1.565   3.707  16.550 -0.0819  0.1596 -0.1557
  605TMC3    O2 9028   1.879   3.553  16.844 -0.5142  0.0037 -0.9827
  606TMC3    C1 9029   3.097   2.318  17.395 -0.7234 -0.0926  0.2887
  606TMC3    C2 9030   3.146   2.296  17.521  0.7236  0.1261 -0.3255
  606TMC3    C3 9031   3.174   2.168  17.562  0.1517  0.0875 -0.2666
  606TMC3    C4 9032   3.060   2.215  17.320  0.3489  0.4091  0.7031
  606TMC3    C5 9033   3.094   2.087  17.366  0.2956 -0.6318 -0.2972
  606TMC3    C6 9034   3.141   2.057  17.489  0.4340 -0.8525 -0.9771
  606TMC3     C 9035   3.044   2.451  17.359  1.2305 -0.1221  0.8365
  606TMC3     O 9036   3.016   2.474  17.243 -0.0058 -0.0192 -0.6888
  606TMC3     H 9037   3.184   2.382  17.576  0.8804 -0.3221  0.2624
  606TMC3    H1 9038   3.023   2.241  17.222  0.3219  2.2359  1.1913
  606TMC3    H2 9039   3.181   1.960  17.515  0.9937 -0.2407  0.4061
  606TMC3    C7 9040   3.142   2.008  17.254 -0.0831 -0.2455 -0.2539
  606TMC3    C8 9041   3.275   2.146  17.672  0.8999 -0.5448  0.1115
  606TMC3    O1 9042   3.186   2.068  17.158 -0.2712 -0.2924  0.1246
  606TMC3    O2 9043   3.340   2.038  17.673  0.4638 -0.5787  0.6557
  607MPD2     C 9044   1.308   0.062  11.481 -0.1056 -0.7577 -0.6935
  607MPD2    C1 9045   1.223   0.167  11.507  0.1831  0.3258 -0.2641
  607MPD2    C2 9046   1.108   0.142  11.576  0.3080  0.1829 -0.4146
  607MPD2    C3 9047   1.081   0.013  11.616 -0.3131  0.5243 -0.2901
  607MPD2    C4 9048   1.159   4.634  11.590  0.6741 -0.6109  0.6382
  607MPD2    C5 9049   1.263   4.667  11.509 -0.0115  0.4169 -0.4227
  607MPD2     H 9050   1.047   0.226  11.606 -0.2222 -0.6908  0.9750
  607MPD2    H1 9051   1.129   4.532  11.611  1.9209 -1.9032 -3.8694
  607MPD2    H2 9052   1.406   0.081  11.437 -0.1613 -2.6941 -1.6670
  607MPD2    H3 9053   1.329   4.591  11.471  0.3555 -0.8508  2.7278
  607MPD2     N 9054   0.969   0.003  11.701  0.6188 -0.6504  0.5440
  607MPD2    H5 9055   0.927   0.093  11.721 -1.3772 -2.0199  2.4792
  607MPD2    N1 9056   1.256   0.301  11.483  0.3411  0.7049  0.2438
  607MPD2    H7 9057   1.183   0.366  11.511  2.0229  2.2439  1.0513
  608TMC3    C1 9058   1.389   0.489  11.453  0.1074 -0.1073  0.2718
  608TMC3    C2 9059   1.319   0.537  11.567  0.0581 -0.1801  0.1103
  608TMC3    C3 9060   1.306   0.673  11.584 -0.4738 -0.5490 -0.3501
  608TMC3    C4 9061   1.416   0.575  11.349 -0.0512  0.8583  1.0841
  608TMC3    C5 9062   1.407   0.708  11.374  0.2484  0.5673  0.1215
  608TMC3    C6 9063   1.356   0.757  11.492  0.0472  0.5963  0.0115
  608TMC3     C 9064   1.373   0.347  11.421 -0.3183 -0.7397 -0.3994
  608TMC3     O 9065   1.454   0.294  11.346  0.3446  0.1842  0.2171
  608TMC3     H 9066   1.306   0.472  11.653  2.4558 -0.4126  0.2826
  608TMC3    H1 9067   1.451   0.547  11.251 -0.7945  1.8059  0.5459
  608TMC3    H2 9068   1.339   0.864  11.501  1.4529  0.8177 -0.0824
  608TMC3    C7 9069   1.411   0.794  11.254  0.6416 -0.7656  0.4200
  608TMC3    C8 9070   1.236   0.718  11.695 -0.5638  0.2289 -0.2917
  608TMC3    O1 9071   1.347   0.745  11.158 -0.4810 -1.1443  0.1226
  608TMC3    O2 9072   1.254   0.830  11.740  0.5684  0.4904 -0.0389
  609TMC3    C1 9073   3.653   4.575   9.530  0.2301  1.1236 -0.4054
  609TMC3    C2 9074   3.541   4.566   9.451  0.1506 -0.2020  0.1596
  609TMC3    C3 9075   3.551   4.546   9.323 -0.3270 -0.1928 -0.5383
  609TMC3    C4 9076   3.774   4.542   9.482  0.5191 -0.2087 -0.0232
  609TMC3    C5 9077   3.788   4.522   9.347 -0.0067  0.3195  0.0685
  609TMC3    C6 9078   3.674   4.529   9.261 -0.5468  0.4402 -0.6762
  609TMC3     C 9079   3.626   4.550   9.680  0.2643  0.5337 -0.0522
  609TMC3     O 9080   3.543   4.611   9.747  0.3329  0.9518 -0.4108
  609TMC3     H 9081   3.452   4.600   9.504  0.8644  0.1080  1.1678
  609TMC3    H1 9082   3.860   4.555   9.547  1.0317  0.9483 -0.9459
  609TMC3    H2 9083   3.672   4.542   9.153 -2.2011  2.0175 -0.4703
  609TMC3    C7 9084   3.914   4.491   9.293  1.1173 -0.3363  0.4653
  609TMC3    C8 9085   3.450   4.597   9.239 -0.2701 -0.3902  0.3954
  609TMC3    O1 9086   4.015   4.510   9.361 -0.0537  0.1666  0.1441
  609TMC3    O2 9087   3.482   4.655   9.135  0.2619  0.6148  0.0899
  610TMC3    C1 9088   2.115   0.742  12.217 -0.1939 -0.3325  0.2550
  610TMC3    C2 9089   2.136   0.708  12.086 -0.0366  0.2067 -0.0127
  610TMC3    C3 9090   2.127   0.571  12.052  0.5643 -0.2521  0.3201
  610TMC3    C4 9091   2.070   0.657  12.313  0.3672  0.6773 -0.3024
  610TMC3    C5 9092   2.076   0.521  12.275  0.3514 -0.3445  0.3418
  610TMC3    C6 9093   2.113   0.475  12.147  0.0374  0.7473  0.3520
  610TMC3     C 9094   2.123   0.886  12.254  0.1730  0.2245 -0.7206
  610TMC3     O 9095   2.072   0.919  12.361  0.3583  0.3382  0.0888
  610TMC3     H 9096   2.150   0.782  12.009 -0.9301  1.5469  1.0993
  610TMC3    H1 9097   2.026   0.699  12.403 -2.7078  2.6167 -2.6826
  610TMC3    H2 9098   2.104   0.371  12.121 -1.5778  0.7161  1.0466
  610TMC3    C7 9099   2.049   0.416  12.376 -0.3835 -0.2684  0.5576
  610TMC3    C8 9100   2.126   0.529  11.913  0.6389  0.2169  0.1243
  610TMC3    O1 9101   2.094   0.307  12.340  0.5188 -0.3275  0.0661
  610TMC3    O2 9102   2.067   0.428  11.871  0.7210  0.0748  0.0502
  611MPD2     C 9103   1.110   0.081  10.369 -0.2239 -0.5638 -0.7677
  611MPD2    C1 9104   1.072   0.202  10.422 -0.1060  0.3483 -0.0278
  611MPD2    C2 9105   1.171   0.300  10.437  0.0971 -0.1945  0.3684
  611MPD2    C3 9106   1.300   0.276  10.401 -0.3215 -0.1695  0.1943
  611MPD2    C4 9107   1.338   0.151  10.356  0.1215 -0.6758 -0.0104
  611MPD2    C5 9108   1.243   0.053  10.335  0.3101  0.3615 -0.2493
  611MPD2     H 9109   1.137   0.400  10.463  1.1269  0.1444  0.4094
  611MPD2    H1 9110   1.441   0.128  10.335  1.0726  1.2164  2.5854
  611MPD2    H2 9111   1.034   0.015  10.331 -1.5179  1.1768 -1.2009
  611MPD2    H3 9112   1.260   4.691  10.288 -0.9342 -0.5900  1.2379
  611MPD2     N 9113   1.402   0.369  10.420 -0.1268  0.0051 -0.6973
  611MPD2    H5 9114   1.496   0.332  10.407  0.5023  0.5319  2.3619
  611MPD2    N1 9115   0.938   0.217  10.463  0.3336  0.3264  0.3728
  611MPD2    H7 9116   0.884   0.134  10.440 -1.6560  1.3658  1.2679
  612TMC3    C1 9117   1.516   0.529  10.535 -0.4859  0.0096 -0.3167
  612TMC3    C2 9118   1.548   0.663  10.549 -0.3738  0.8987  0.0044
  612TMC3    C3 9119   1.663   0.690  10.617  0.1826  1.0932 -0.2291
  612TMC3    C4 9120   1.589   0.431  10.592  0.2801 -0.3283  0.2060
  612TMC3    C5 9121   1.695   0.460  10.678  0.6314 -0.2640 -0.1197
  612TMC3    C6 9122   1.734   0.592  10.682 -0.0732  0.2885  0.3893
  612TMC3     C 9123   1.393   0.494  10.466  0.1407 -1.1479 -0.6212
  612TMC3     O 9124   1.298   0.569  10.466  0.3552  0.2817 -0.7679
  612TMC3     H 9125   1.487   0.746  10.517 -0.2935  0.5010 -1.1877
  612TMC3    H1 9126   1.555   0.328  10.598  1.5897 -0.6593  2.0130
  612TMC3    H2 9127   1.839   0.605  10.704  0.5022 -1.6640 -1.2246
  612TMC3    C7 9128   1.777   0.349  10.726 -0.6267 -0.3174 -1.1215
  612TMC3    C8 9129   1.707   0.825  10.638 -0.7107  0.1815  0.7540
  612TMC3    O1 9130   1.734   0.241  10.690 -0.2798 -0.0438  0.4421
  612TMC3    O2 9131   1.662   0.916  10.567 -0.1717 -0.4119  0.3516
  613MPD2     C 9132   4.334   2.241  16.825 -0.1760  0.3472  0.2839
  613MPD2    C1 9133   4.359   2.191  16.697  0.6886  0.5161  0.3697
  613MPD2    C2 9134   4.344   2.056  16.665 -0.1710  1.1441 -0.1098
  613MPD2    C3 9135   4.314   1.965  16.756 -0.8567  0.2996  0.4638
  613MPD2    C4 9136   4.300   2.007  16.887  0.1180 -0.0330 -0.7312
  613MPD2    C5 9137   4.297   2.143  16.921  0.9238  0.5238  0.6263
  613MPD2     H 9138   4.355   2.023  16.562 -1.2391 -0.9732  0.4571
  613MPD2    H1 9139   4.272   1.942  16.969  0.5876  0.9560  0.2154
  613MPD2    H2 9140   4.340   2.345  16.855 -0.8157  0.8952 -1.4761
  613MPD2    H3 9141   4.266   2.163  17.023  0.7516  0.0462  0.6665
  613MPD2     N 9142   4.293   1.828  16.731  0.2471 -0.7231 -0.9501
  613MPD2    H5 9143   4.311   1.761  16.805  1.1043  0.2733 -0.2580
  613MPD2    N1 9144   4.422   2.266  16.600  0.6032 -0.0207  0.1034
  613MPD2    H7 9145   4.448   2.209  16.520 -3.3389 -2.4159  0.5375
  614TMC3    C1 9146   4.522   2.421  16.464 -0.0612  0.2151  0.5772
  614TMC3    C2 9147   4.590   2.312  16.415  0.4920 -0.7468  0.3030
  614TMC3    C3 9148   4.584   2.274  16.282 -0.2137  0.3463  0.7623
  614TMC3    C4 9149   4.447   2.493  16.376  0.0993  0.6539  0.8380
  614TMC3    C5 9150   4.434   2.456  16.249 -0.6719 -0.6430 -1.2543
  614TMC3    C6 9151   4.503   2.351  16.199  0.4065 -0.2739  0.9645
  614TMC3     C 9152   4.454   2.400  16.592 -0.2200 -0.5317 -0.1041
  614TMC3     O 9153   4.422   2.497  16.661  0.4864 -0.0070  0.1605
  614TMC3     H 9154   4.646   2.250  16.485  3.0217  0.4093 -0.7338
  614TMC3    H1 9155   4.397   2.578  16.421 -2.6905  0.7018 -2.3496
  614TMC3    H2 9156   4.484   2.321  16.097 -2.9979  0.2768  1.4149
  614TMC3    C7 9157   4.349   2.538  16.168  0.0127  1.1380  1.0645
  614TMC3    C8 9158   4.570   2.128  16.267 -0.7745 -0.1770 -0.3508
  614TMC3    O1 9159   4.316   2.641  16.226 -0.1646  0.5346 -0.1568
  614TMC3    O2 9160   4.560   2.069  16.374  0.4302  0.6257  0.2227
  615MPD2     C 9161   4.324   3.566  16.293  0.4692 -0.1875 -0.1787
  615MPD2    C1 9162   4.200   3.627  16.317 -0.4683  0.2984  0.1983
  615MPD2    C2 9163   4.092   3.581  16.249 -0.9760 -0.5287  1.0647
  615MPD2    C3 9164   4.119   3.495  16.140  0.2247 -0.0130  0.3008
  615MPD2    C4 9165   4.244   3.455  16.108 -0.3274 -0.2815  0.0515
  615MPD2    C5 9166   4.349   3.483  16.189 -0.1617  0.0660 -1.1537
  615MPD2     H 9167   3.990   3.614  16.269 -0.3055  0.7199  2.4495
  615MPD2    H1 9168   4.271   3.402  16.017  0.2961  0.1646 -0.0203
  615MPD2    H2 9169   4.414   3.587  16.350  1.3691  2.1930 -2.4754
  615MPD2    H3 9170   4.447   3.439  16.174 -0.5428 -0.8385 -0.9906
  615MPD2     N 9171   4.016   3.434  16.068  1.0713 -0.2305  0.3660
  615MPD2    H5 9172   4.041   3.387  15.982 -0.7061 -0.1014 -0.2325
  615MPD2    N1 9173   4.190   3.729  16.410 -0.0745 -0.9105  0.2530
  615MPD2    H7 9174   4.100   3.774  16.408  1.8481  2.8748 -0.1968
  616TMC3    C1 9175   4.249   3.902  16.561  0.0686  0.0263  0.0543
  616TMC3    C2 9176   4.345   3.996  16.586  0.0451 -0.0573  0.1455
  616TMC3    C3 9177   4.301   4.117  16.643  0.3816  0.7899  0.1668
  616TMC3    C4 9178   4.118   3.921  16.592 -0.1786 -0.5517 -0.1031
  616TMC3    C5 9179   4.087   4.042  16.640 -0.4780 -0.4588 -0.2282
  616TMC3    C6 9180   4.172   4.139  16.667  0.0517 -0.2548  0.0454
  616TMC3     C 9181   4.288   3.780  16.499  0.6039 -0.3143  0.2662
  616TMC3     O 9182   4.401   3.744  16.531  0.5981 -0.2229  0.2581
  616TMC3     H 9183   4.448   3.997  16.551 -0.0523  3.1348 -0.0752
  616TMC3    H1 9184   4.041   3.847  16.572 -0.8323  0.0950  0.0221
  616TMC3    H2 9185   4.141   4.240  16.690 -0.0562 -0.0661 -0.9513
  616TMC3    C7 9186   3.943   4.067  16.637 -0.3240  0.4431  0.1497
  616TMC3    C8 9187   4.370   4.237  16.590 -0.0965 -0.0565 -0.1329
  616TMC3    O1 9188   3.873   4.002  16.561  0.3643  0.5832  0.1879
  616TMC3    O2 9189   4.304   4.336  16.566  0.2058  0.0078  0.1521
  617MPD2     C 9190   2.371   2.377  13.895  0.0861  0.1992 -0.1013
  617MPD2    C1 9191   2.394   2.326  14.023  0.2717  0.8097  0.6322
  617MPD2    C2 9192   2.300   2.242  14.088 -0.1048  0.3904  0.0195
  617MPD2    C3 9193   2.179   2.215  14.026 -0.0750  0.1611 -0.5818
  617MPD2    C4 9194   2.161   2.272  13.900 -0.0684 -0.2403  0.0536
  617MPD2    C5 9195   2.250   2.358  13.840  0.2505  0.2951 -0.4005
  617MPD2     H 9196   2.313   2.204  14.188  2.0108  1.2352  0.0603
  617MPD2    H1 9197   2.075   2.235  13.846 -0.0682 -1.2531  0.7423
  617MPD2    H2 9198   2.444   2.437  13.843  1.5766 -0.8699  0.7476
  617MPD2    H3 9199   2.237   2.395  13.739  2.7383  2.2145 -0.0269
  617MPD2     N 9200   2.073   2.126  14.065  0.3451 -0.1333 -0.0767
  617MPD2    H5 9201   2.001   2.107  13.996  0.0196  0.5408  0.0839
  617MPD2    N1 9202   2.518   2.330  14.081 -0.5742 -0.1511 -0.2081
  617MPD2    H7 9203   2.537   2.266  14.157 -0.2046 -1.2917 -1.2547
  618TMC3    C1 9204   2.754   2.376  14.100  0.5531 -0.4033  0.5430
  618TMC3    C2 9205   2.762   2.282  14.189  0.2154 -0.5905  0.3831
  618TMC3    C3 9206   2.879   2.225  14.225 -0.2039 -0.9744  0.3192
  618TMC3    C4 9207   2.862   2.427  14.038 -0.3234  0.3429  1.0531
  618TMC3    C5 9208   2.989   2.369  14.074 -0.4347 -0.2806 -0.6492
  618TMC3    C6 9209   2.992   2.271  14.170 -0.4561  0.0003  0.0054
  618TMC3     C 9210   2.619   2.407  14.038 -0.4586 -0.7230  0.1025
  618TMC3     O 9211   2.620   2.486  13.948 -0.3388  0.0497  0.1811
  618TMC3     H 9212   2.677   2.245  14.245 -0.7085 -4.1568 -3.4168
  618TMC3    H1 9213   2.854   2.501  13.959  0.1368 -0.1359  0.5657
  618TMC3    H2 9214   3.088   2.222  14.179 -1.7497 -2.0785  2.3205
  618TMC3    C7 9215   3.080   2.348  13.963  0.1241 -0.0164 -0.3705
  618TMC3    C8 9216   2.876   2.097  14.285 -0.4151 -0.1901  0.3714
  618TMC3    O1 9217   3.131   2.236  13.948  0.1964  0.3739 -0.3508
  618TMC3    O2 9218   2.797   2.067  14.376  0.0217 -0.2649 -0.1604
  619MPD2     C 9219   3.593   2.878  13.754 -0.2126  0.0017 -0.0353
  619MPD2    C1 9220   3.522   2.937  13.650  0.3166  0.5984 -0.5124
  619MPD2    C2 9221   3.384   2.928  13.658  0.0898  0.7859 -0.3260
  619MPD2    C3 9222   3.311   2.871  13.762 -0.0504 -0.0240  0.0149
  619MPD2    C4 9223   3.382   2.796  13.852  0.5445  0.2689 -0.6663
  619MPD2    C5 9224   3.520   2.799  13.842  0.0418  0.1708 -0.6823
  619MPD2     H 9225   3.331   2.976  13.577 -1.8358  0.1609  0.5695
  619MPD2    H1 9226   3.332   2.746  13.934 -0.3202  2.0268 -0.1085
  619MPD2    H2 9227   3.701   2.893  13.757 -0.1084 -0.8802  0.5135
  619MPD2    H3 9228   3.566   2.749  13.927 -1.5120  0.2964  0.2288
  619MPD2     N 9229   3.171   2.892  13.777 -0.7800  0.0691  0.1844
  619MPD2    H5 9230   3.133   2.858  13.864  1.4923 -0.0274  1.1436
  619MPD2    N1 9231   3.579   3.015  13.545  0.1896  0.5381  0.3451
  619MPD2    H7 9232   3.525   3.034  13.462  0.1099  0.3766  0.3597
  620TMC3    C1 9233   3.761   3.145  13.452  0.3129 -0.2000 -0.3871
  620TMC3    C2 9234   3.667   3.203  13.375 -0.4227 -0.0365 -0.3304
  620TMC3    C3 9235   3.693   3.328  13.326 -0.1842  0.0762 -0.8997
  620TMC3    C4 9236   3.880   3.213  13.496 -0.1080  0.0657  0.0940
  620TMC3    C5 9237   3.894   3.342  13.451  0.1196 -0.4393  0.5116
  620TMC3    C6 9238   3.816   3.382  13.341  0.1455  0.5911 -0.2544
  620TMC3     C 9239   3.704   3.069  13.563 -0.6597 -0.1394  0.1449
  620TMC3     O 9240   3.764   3.094  13.668  0.2440 -0.5299  0.0961
  620TMC3     H 9241   3.571   3.157  13.352  0.0217 -0.8781 -0.5159
  620TMC3    H1 9242   3.946   3.180  13.575  2.0925 -0.4438 -1.9604
  620TMC3    H2 9243   3.829   3.486  13.312 -1.8660  0.7210 -0.7143
  620TMC3    C7 9244   3.870   3.444  13.551  0.1787  0.0438  0.2505
  620TMC3    C8 9245   3.589   3.423  13.331  0.2618 -0.3268  0.2272
  620TMC3    O1 9246   3.863   3.564  13.525 -0.9536 -0.0083 -0.2875
  620TMC3    O2 9247   3.600   3.524  13.265  0.0418 -0.4406  0.2971
  621MPD2     C 9248   4.129   3.129  10.605 -0.3495  0.3175  0.4198
  621MPD2    C1 9249   4.100   3.154  10.470 -0.7516 -0.1042 -0.0949
  621MPD2    C2 9250   4.175   3.251  10.405 -0.4094  0.4611 -0.0803
  621MPD2    C3 9251   4.271   3.315  10.476  0.4294 -0.2596 -0.3033
  621MPD2    C4 9252   4.284   3.296  10.611  0.0511 -0.1137  0.2273
  621MPD2    C5 9253   4.215   3.204  10.674 -0.6096 -0.1675  0.3115
  621MPD2     H 9254   4.160   3.270  10.299  3.2047 -1.2476 -0.8995
  621MPD2    H1 9255   4.359   3.340  10.675  1.4088  0.1237 -1.5528
  621MPD2    H2 9256   4.069   3.054  10.655 -0.8965 -0.2543 -1.0858
  621MPD2    H3 9257   4.241   3.189  10.778 -0.4333 -1.8473  0.0162
  621MPD2     N 9258   4.367   3.398  10.417 -0.4254 -0.2574  0.0799
  621MPD2    H5 9259   4.432   3.432  10.488 -1.0719 -0.4701  0.7737
  621MPD2    N1 9260   4.007   3.079  10.391 -0.9150  0.0024  0.8531
  621MPD2    H7 9261   3.992   3.104  10.294  0.0273  0.1058  0.7372
  622TMC3    C1 9262   3.858   2.894  10.346 -0.4915 -0.1368  0.1530
  622TMC3    C2 9263   3.753   2.818  10.386 -0.2234 -0.8740  0.7725
  622TMC3    C3 9264   3.707   2.721  10.301  0.3688 -0.6217  0.5090
  622TMC3    C4 9265   3.905   2.884  10.216  0.8796  0.0513 -0.1101
  622TMC3    C5 9266   3.859   2.781  10.139  0.4876 -0.5393  0.1337
  622TMC3    C6 9267   3.760   2.701  10.180 -0.3395 -0.1470  0.3002
  622TMC3     C 9268   3.927   2.973  10.445  0.3672  0.3752  0.5976
  622TMC3     O 9269   3.903   2.948  10.564  0.0893 -0.0360  0.3679
  622TMC3     H 9270   3.727   2.826  10.491 -1.2882  3.1773  0.1864
  622TMC3    H1 9271   3.992   2.938  10.181  1.6490 -0.8230  0.4551
  622TMC3    H2 9272   3.714   2.637  10.106  0.3126 -0.3569  0.0765
  622TMC3    C7 9273   3.865   2.803   9.990 -0.4311 -0.2718 -0.4842
  622TMC3    C8 9274   3.562   2.734  10.289 -0.7453 -0.0511 -0.2258
  622TMC3    O1 9275   3.835   2.703   9.931 -0.3494  0.0190  0.4861
  622TMC3    O2 9276   3.506   2.650  10.218  0.1793  0.2588 -0.5602
  623MPD2     C 9277   2.437   3.802  15.838  0.5466  0.2968 -0.4600
  623MPD2    C1 9278   2.383   3.728  15.937 -0.4572  0.1059 -0.6450
  623MPD2    C2 9279   2.473   3.702  16.043  0.6107 -0.0516  0.0777
  623MPD2    C3 9280   2.596   3.759  16.051  0.1282 -0.0145 -0.2050
  623MPD2    C4 9281   2.646   3.843  15.954 -0.7715 -0.0922 -0.7364
  623MPD2    C5 9282   2.566   3.862  15.849 -0.2456 -0.2452  0.2742
  623MPD2     H 9283   2.442   3.644  16.129 -0.6833  0.3419 -0.1254
  623MPD2    H1 9284   2.745   3.887  15.958 -1.0861  0.8055 -2.6621
  623MPD2    H2 9285   2.383   3.837  15.751 -1.8701  0.9195  1.2993
  623MPD2    H3 9286   2.604   3.930  15.774 -0.6220  0.1864  0.4736
  623MPD2     N 9287   2.656   3.742  16.175  0.4661  0.2605 -0.0429
  623MPD2    H5 9288   2.609   3.678  16.239  0.6918  0.6576  0.5266
  623MPD2    N1 9289   2.239   3.702  15.946 -0.1158 -0.2773 -0.4407
  623MPD2    H7 9290   2.179   3.748  15.878 -1.1189 -2.3197 -0.9404
  624TMC3    C1 9291   2.892   3.687  16.549 -0.2086 -0.6150  0.5343
  624TMC3    C2 9292   2.776   3.679  16.619  0.5945 -0.2744  0.3372
  624TMC3    C3 9293   2.663   3.725  16.567  0.0497 -0.6052 -0.4719
  624TMC3    C4 9294   2.899   3.731  16.420  0.2410  0.5656  0.1752
  624TMC3    C5 9295   2.781   3.778  16.371 -0.2775 -0.2839  0.0793
  624TMC3    C6 9296   2.660   3.770  16.436 -0.0295  0.0259  0.1298
  624TMC3     C 9297   3.021   3.667  16.625  0.0392 -0.2099  0.7416
  624TMC3     O 9298   3.020   3.624  16.743  0.3952 -0.0326 -0.2542
  624TMC3     H 9299   2.789   3.644  16.720 -0.6868  0.3855  0.7228
  624TMC3    H1 9300   2.992   3.741  16.366 -0.1194 -0.0836 -0.5613
  624TMC3    H2 9301   2.571   3.810  16.389 -0.0553  1.0447  1.0337
  624TMC3    C7 9302   2.774   3.790  16.225 -0.6202 -0.2433  0.2690
  624TMC3    C8 9303   2.538   3.659  16.606  0.3397 -0.2819  0.4288
  624TMC3    O1 9304   2.864   3.859  16.184 -0.0109  0.2596  0.5787
  624TMC3    O2 9305   2.475   3.621  16.509  0.0986  0.3657 -0.2979
  625MPD2     C 9306   3.061   0.274   0.393 -0.6313 -1.3467 -0.0501
  625MPD2    C1 9307   3.033   0.381   0.468  0.3913  0.7420 -0.1979
  625MPD2    C2 9308   3.100   0.400   0.585 -0.5548 -0.4499  0.5983
  625MPD2    C3 9309   3.204   0.321   0.620  0.7200  0.3462  0.6267
  625MPD2    C4 9310   3.241   0.210   0.544  0.3873  0.5401 -0.2466
  625MPD2    C5 9311   3.169   0.188   0.430 -0.2073 -0.0070  0.1254
  625MPD2     H 9312   3.063   0.477   0.652  0.8872 -1.5746  2.6772
  625MPD2    H1 9313   3.311   0.131   0.571  2.7056  2.7793  0.2165
  625MPD2    H2 9314   3.012   0.251   0.299  0.6355 -0.8039 -0.8409
  625MPD2    H3 9315   3.185   0.099   0.370  1.5602  0.2267  0.2592
  625MPD2     N 9316   3.270   0.354   0.738  0.0312  0.2261  0.1552
  625MPD2    H5 9317   3.246   0.444   0.779 -4.8617 -1.3102  0.6798
  625MPD2    N1 9318   2.925   0.472   0.450  0.2518 -0.5977 -0.6771
  625MPD2    H7 9319   2.903   0.535   0.527  1.8362 -0.4752 -0.3143
  626TMC3    C1 9320   2.738   0.581   0.363  0.7186  0.4351  0.4836
  626TMC3    C2 9321   2.697   0.647   0.254  0.7428  0.0153  0.4191
  626TMC3    C3 9322   2.578   0.714   0.253 -0.3084 -0.5687  0.2634
  626TMC3    C4 9323   2.654   0.567   0.474  0.0623 -0.1733 -0.6052
  626TMC3    C5 9324   2.538   0.636   0.474  0.4112  0.7396  0.0963
  626TMC3    C6 9325   2.495   0.710   0.359 -0.2995 -0.4592 -0.5110
  626TMC3     C 9326   2.850   0.492   0.338  0.0192 -0.8701 -0.3698
  626TMC3     O 9327   2.859   0.435   0.229  0.4085 -0.8301  0.0626
  626TMC3     H 9328   2.761   0.639   0.167  0.1664 -4.1504  0.3819
  626TMC3    H1 9329   2.690   0.510   0.559  0.4858 -0.7135 -1.1386
  626TMC3    H2 9330   2.412   0.779   0.372  1.3821  1.3524  0.6077
  626TMC3    C7 9331   2.501   0.675   0.600  0.0346 -0.4797 -0.1461
  626TMC3    C8 9332   2.524   0.748   0.122  0.6986  0.1505 -0.8205
  626TMC3    O1 9333   2.456   0.785   0.626  0.3089  0.2527  0.1294
  626TMC3    O2 9334   2.607   0.752   0.029  0.2349  0.0025  0.4039
  627MPD2     C 9335   1.775   0.809  14.265 -0.9310 -0.6378 -0.0505
  627MPD2    C1 9336   1.765   0.746  14.387  0.5652 -1.0210  0.8643
  627MPD2    C2 9337   1.699   0.628  14.387 -0.1792 -0.1626 -0.2783
  627MPD2    C3 9338   1.665   0.558  14.273  0.2224 -0.2643  0.1479
  627MPD2    C4 9339   1.685   0.624  14.152  0.6338 -1.0133 -0.3514
  627MPD2    C5 9340   1.736   0.748  14.150  0.1257 -0.0264 -0.1500
  627MPD2     H 9341   1.671   0.588  14.484  0.9882  2.5855  1.1774
  627MPD2    H1 9342   1.649   0.586  14.058  1.9945 -1.8722 -0.5294
  627MPD2    H2 9343   1.813   0.910  14.259 -0.4582 -0.8823 -1.1173
  627MPD2    H3 9344   1.743   0.796  14.053  3.6909  0.8835  0.5632
  627MPD2     N 9345   1.608   0.428  14.290 -0.5013  0.0894 -0.3179
  627MPD2    H5 9346   1.606   0.392  14.385  1.2679  0.2161 -0.2304
  627MPD2    N1 9347   1.806   0.795  14.510 -1.3238 -0.1935  0.5546
  627MPD2    H7 9348   1.773   0.747  14.593 -0.3413  0.4405  1.3022
  628TMC3    C1 9349   1.868   0.948  14.664 -0.0829  0.0400 -0.7159
  628TMC3    C2 9350   1.961   0.882  14.738 -0.4746 -0.5280 -0.7323
  628TMC3    C3 9351   2.005   0.943  14.849  0.1124 -0.0133  0.2269
  628TMC3    C4 9352   1.807   1.067  14.697 -0.3326 -0.0485 -0.4605
  628TMC3    C5 9353   1.849   1.116  14.815  0.2076  0.1432  0.0207
  628TMC3    C6 9354   1.947   1.057  14.896 -0.3610 -0.3469  0.5810
  628TMC3     C 9355   1.871   0.917  14.525 -0.1745  0.1658  0.4553
  628TMC3     O 9356   1.929   0.988  14.447  0.0485 -0.6202  0.1391
  628TMC3     H 9357   2.018   0.799  14.697 -0.3285 -0.1708 -1.2462
  628TMC3    H1 9358   1.735   1.106  14.626 -1.3256  1.1704  1.2157
  628TMC3    H2 9359   2.001   1.117  14.968  2.1283 -0.5453 -1.1260
  628TMC3    C7 9360   1.828   1.251  14.850 -0.6619  0.2280  0.2284
  628TMC3    C8 9361   2.145   0.951  14.850  0.1160 -0.4251 -1.1497
  628TMC3    O1 9362   1.856   1.298  14.959 -0.3364  0.0599 -0.2640
  628TMC3    O2 9363   2.206   1.057  14.862 -0.2101 -0.6974 -0.5012
  629MPD2     C 9364   0.055   4.502  16.463 -0.2439 -0.2817  0.7600
  629MPD2    C1 9365   0.106   4.382  16.518  0.2817 -0.5795  0.3901
  629MPD2    C2 9366   0.007   4.279  16.565  0.1674 -0.1150 -0.2910
  629MPD2    C3 9367   4.604   4.308  16.544  0.2963 -0.0140 -0.7782
  629MPD2    C4 9368   4.571   4.425  16.482  0.0073  0.7691 -0.1337
  629MPD2    C5 9369   4.659   4.523  16.435  0.0552  0.6617 -0.5147
  629MPD2     H 9370   0.026   4.191  16.625  1.9805  0.0814 -0.5806
  629MPD2    H1 9371   4.466   4.446  16.469 -0.2759 -0.5980 -0.1081
  629MPD2    H2 9372   0.127   4.582  16.454  1.5397 -1.7508  1.7121
  629MPD2    H3 9373   4.634   4.618  16.390 -1.1715 -0.1778 -1.6259
  629MPD2     N 9374   4.508   4.224  16.595 -0.0508  0.6952  0.6705
  629MPD2    H5 9375   4.534   4.130  16.623 -1.7910  0.0239 -0.0021
  629MPD2    N1 9376   0.238   4.385  16.563  0.1901 -0.6301  0.3012
  629MPD2    H7 9377   0.285   4.473  16.544 -0.5306  0.1776  2.1837
  630TMC3    C1 9378   0.428   4.332  16.685  0.1340 -0.3049 -0.5210
  630TMC3    C2 9379   0.484   4.443  16.627  0.5317 -0.1225 -0.3237
  630TMC3    C3 9380   0.577   4.511  16.699  0.2918 -0.6479 -0.5462
  630TMC3    C4 9381   0.485   4.268  16.790 -0.6668  0.7042 -0.0135
  630TMC3    C5 9382   0.573   4.337  16.865 -0.0280  0.1550  0.2662
  630TMC3    C6 9383   0.619   4.461  16.819 -0.2567 -0.4259 -0.6282
  630TMC3     C 9384   0.294   4.294  16.644  0.1430  0.2618 -0.0520
  630TMC3     O 9385   0.242   4.205  16.705  0.6227  0.1536  0.4934
  630TMC3     H 9386   0.460   4.476  16.527  0.0475 -0.0391 -0.1831
  630TMC3    H1 9387   0.432   4.185  16.836  0.4058 -1.7208 -3.0919
  630TMC3    H2 9388   0.680   4.532  16.873 -1.7044  0.6694 -0.4152
  630TMC3    C7 9389   0.594   4.300  17.005 -0.0413 -0.4894 -0.1185
  630TMC3    C8 9390   0.645   4.628  16.639  0.1171  0.1564  0.2130
  630TMC3    O1 9391   0.557   4.188  17.043  0.5953  0.0310 -0.4709
  630TMC3    O2 9392   0.734   4.676  16.705 -0.6058  0.2390 -0.0571
  631MPD2     C 9393   3.004   3.454  15.726 -0.1500 -0.0759 -0.1960
  631MPD2    C1 9394   3.103   3.489  15.648 -0.1138 -0.2465 -1.0624
  631MPD2    C2 9395   3.235   3.453  15.678 -0.4469  0.2109  0.0027
  631MPD2    C3 9396   3.264   3.374  15.789 -0.5489 -0.2048  0.2877
  631MPD2    C4 9397   3.156   3.324  15.866 -0.6562 -0.3093 -0.5653
  631MPD2    C5 9398   3.033   3.367  15.832 -0.4062 -0.2925  0.3469
  631MPD2     H 9399   3.310   3.505  15.620 -0.7452  0.0244 -0.5564
  631MPD2    H1 9400   3.166   3.255  15.948 -1.9474 -1.4318 -1.3647
  631MPD2    H2 9401   2.904   3.485  15.697 -0.5563 -0.1296  1.1762
  631MPD2    H3 9402   2.953   3.323  15.890 -0.8704  2.2574  1.6406
  631MPD2     N 9403   3.398   3.344  15.808  0.5042  0.4150  0.2318
  631MPD2    H5 9404   3.457   3.375  15.731  0.4523 -0.8018 -0.2942
  631MPD2    N1 9405   3.073   3.562  15.527 -0.3068 -0.6110  0.9396
  631MPD2    H7 9406   2.979   3.598  15.519  0.0031 -0.2487 -0.9634
  632TMC3    C1 9407   3.110   3.688  15.329  0.5525 -0.1871 -0.5864
  632TMC3    C2 9408   2.977   3.730  15.342  0.3554  0.4909  0.6341
  632TMC3    C3 9409   2.944   3.832  15.260 -0.0875 -0.4552  0.3077
  632TMC3    C4 9410   3.200   3.732  15.238 -0.4354  0.3046 -0.0290
  632TMC3    C5 9411   3.157   3.834  15.161  0.3183  0.1811 -0.1788
  632TMC3    C6 9412   3.036   3.889  15.176 -0.1242 -0.6200 -0.0336
  632TMC3     C 9413   3.158   3.584  15.424  0.1445  0.3748  0.3437
  632TMC3     O 9414   3.267   3.528  15.398  0.2428  0.4804 -0.3053
  632TMC3     H 9415   2.907   3.701  15.420 -1.0703  2.5376  0.0937
  632TMC3    H1 9416   3.301   3.691  15.238 -0.1149  1.1102 -0.6856
  632TMC3    H2 9417   3.015   3.985  15.130 -2.8212 -1.7459 -1.1678
  632TMC3    C7 9418   3.249   3.909  15.078 -0.3793 -0.3089  0.0675
  632TMC3    C8 9419   2.811   3.886  15.269 -0.1002  0.0153 -0.1961
  632TMC3    O1 9420   3.227   3.919  14.958  0.8142 -0.0097  0.1641
  632TMC3    O2 9421   2.750   3.877  15.376  0.1274  0.0291  0.0517
  633MPD2     C 9422   2.382   1.645  17.151 -0.1751 -0.7990 -0.4656
  633MPD2    C1 9423   2.491   1.647  17.068 -0.2125  0.3693  0.1032
  633MPD2    C2 9424   2.575   1.539  17.073  0.2080  0.5802 -0.5698
  633MPD2    C3 9425   2.552   1.434  17.154 -0.2834  0.1030  0.1236
  633MPD2    C4 9426   2.439   1.422  17.235  0.2886 -0.2091  0.4808
  633MPD2    C5 9427   2.353   1.528  17.223 -1.0286 -0.0516  0.2030
  633MPD2     H 9428   2.655   1.541  16.999  0.2574  1.9424 -0.4916
  633MPD2    H1 9429   2.422   1.344  17.309 -0.6071 -1.9640 -1.5837
  633MPD2    H2 9430   2.311   1.727  17.152 -0.3763 -0.9720 -0.4532
  633MPD2    H3 9431   2.260   1.529  17.279 -1.5572 -0.8368 -0.6467
  633MPD2     N 9432   2.646   1.333  17.142 -0.2019  0.1601  0.2479
  633MPD2    H5 9433   2.717   1.360  17.075  0.5551 -1.0086  0.5637
  633MPD2    N1 9434   2.529   1.754  16.979 -0.5046  0.4084  0.4381
  633MPD2    H7 9435   2.603   1.731  16.913  0.3060 -1.1885  1.8981
  634TMC3    C1 9436   2.505   1.955  16.855  0.1362  0.0276 -0.5872
  634TMC3    C2 9437   2.565   1.883  16.759  0.1832  0.3515  0.1584
  634TMC3    C3 9438   2.630   1.960  16.667  0.3106 -0.1728 -0.4500
  634TMC3    C4 9439   2.499   2.090  16.865  0.4760 -0.3530 -0.8496
  634TMC3    C5 9440   2.570   2.160  16.780  0.5888  0.1076  0.2383
  634TMC3    C6 9441   2.644   2.092  16.688  0.5274 -0.4359  0.2945
  634TMC3     C 9442   2.467   1.875  16.975  0.2061  1.1675  0.2012
  634TMC3     O 9443   2.380   1.923  17.049 -0.2072 -0.2867  0.1627
  634TMC3     H 9444   2.536   1.779  16.747  1.1456  0.0029  0.8660
  634TMC3    H1 9445   2.435   2.127  16.944  0.7205 -0.8056 -0.4394
  634TMC3    H2 9446   2.708   2.153  16.626 -1.4599  1.0745 -0.2722
  634TMC3    C7 9447   2.516   2.286  16.721  0.2515  0.1203 -0.2915
  634TMC3    C8 9448   2.714   1.888  16.576 -0.4750 -0.2049  0.0275
  634TMC3    O1 9449   2.558   2.308  16.607 -0.1859  0.1727 -0.3113
  634TMC3    O2 9450   2.700   1.769  16.564  0.0216 -0.1938 -0.1630
  635TMC3    C1 9451   2.487   2.923   0.510  0.7578  0.8242 -0.5152
  635TMC3    C2 9452   2.561   2.863   0.413  0.5938 -0.4505 -0.0097
  635TMC3    C3 9453   2.585   2.729   0.422  0.1827 -0.2686 -0.2850
  635TMC3    C4 9454   2.437   2.849   0.613  0.2815  0.2936  0.3183
  635TMC3    C5 9455   2.468   2.714   0.623 -0.0182 -0.2123 -0.6968
  635TMC3    C6 9456   2.548   2.650   0.528 -0.6298 -0.2989 -0.8438
  635TMC3     C 9457   2.492   3.065   0.516 -0.2167 -0.3839  0.2121
  635TMC3     O 9458   2.479   3.115   0.627  0.0266  0.3995  0.2693
  635TMC3     H 9459   2.608   2.923   0.336 -0.4472 -0.3948 -0.5989
  635TMC3    H1 9460   2.376   2.906   0.682  1.2170 -0.4169  1.7298
  635TMC3    H2 9461   2.566   2.543   0.524 -1.7056 -0.5727  1.1556
  635TMC3    C7 9462   2.404   2.632   0.720  0.3004 -0.5005 -0.9328
  635TMC3    C8 9463   2.614   2.666   0.290  0.1816 -0.2018  0.0254
  635TMC3    O1 9464   2.419   2.510   0.723 -0.3356  0.2507 -0.1945
  635TMC3    O2 9465   2.649   2.736   0.197  0.1348  0.3223 -0.3639
  636MPD2     C 9466   4.073   1.926  15.995 -0.4006 -0.3816  0.1493
  636MPD2    C1 9467   4.027   1.942  16.126  0.3127 -0.3161 -0.2018
  636MPD2    C2 9468   4.041   1.832  16.211 -0.5519 -1.5608 -0.4981
  636MPD2    C3 9469   4.107   1.713  16.176  0.0355 -0.5274  0.0182
  636MPD2    C4 9470   4.148   1.699  16.041 -0.7478  0.4713  0.4338
  636MPD2    C5 9471   4.130   1.805  15.957 -0.2055  0.5080  0.1742
  636MPD2     H 9472   4.021   1.839  16.317 -0.2458  0.9869 -0.6015
  636MPD2    H1 9473   4.208   1.615  16.010 -1.6811  0.2727 -0.8397
  636MPD2    H2 9474   4.070   2.008  15.925 -1.0790 -0.5308  0.0048
  636MPD2    H3 9475   4.161   1.804  15.853 -0.4535  1.5757  0.0878
  636MPD2     N 9476   4.121   1.622  16.285 -0.3128  0.8995  0.6736
  636MPD2    H5 9477   4.096   1.655  16.378 -0.8095  0.3101  0.7448
  636MPD2    N1 9478   3.963   2.056  16.182 -0.2832  0.1100  0.7937
  636MPD2    H7 9479   3.932   2.048  16.278 -2.8539 -0.3811 -0.0771
  637TMC3    C1 9480   4.237   1.475  16.417 -0.0960 -0.3863  0.3500
  637TMC3    C2 9481   4.183   1.570  16.505  0.4629 -0.3013 -0.8251
  637TMC3    C3 9482   4.271   1.640  16.590  0.1071  0.2621  0.2026
  637TMC3    C4 9483   4.375   1.453  16.414  0.4890 -0.2415  0.2848
  637TMC3    C5 9484   4.458   1.532  16.489  0.6405 -0.4285  0.8383
  637TMC3    C6 9485   4.403   1.615  16.585  0.0389 -0.3764  0.9937
  637TMC3     C 9486   4.202   1.514  16.285 -0.2344 -0.1946 -0.0291
  637TMC3     O 9487   4.269   1.461  16.196 -0.0937  0.5425 -0.2120
  637TMC3     H 9488   4.077   1.593  16.516  0.3152 -1.3362 -0.1192
  637TMC3    H1 9489   4.417   1.385  16.340 -0.2158 -2.0129  1.5323
  637TMC3    H2 9490   4.466   1.687  16.636  0.0600  0.8170 -0.7179
  637TMC3    C7 9491   4.546   1.607  16.399 -0.6195 -0.5238 -0.4095
  637TMC3    C8 9492   4.239   1.781  16.610  0.1760  0.4347 -0.1047
  637TMC3    O1 9493   4.630   1.678  16.448 -0.2710  0.2765 -0.4466
  637TMC3    O2 9494   4.168   1.847  16.535 -0.9236  0.0699 -0.1669
  638MPD2     C 9495   3.638   1.367  14.774  0.7687 -0.0693  0.1012
  638MPD2    C1 9496   3.619   1.272  14.683 -0.1536  0.3341 -0.2778
  638MPD2    C2 9497   3.615   1.137  14.717  0.3415  0.0030  0.1010
  638MPD2    C3 9498   3.648   1.104  14.852 -0.0590 -0.0223 -0.6057
  638MPD2    C4 9499   3.660   1.200  14.947  0.6765 -0.1340 -0.1224
  638MPD2    C5 9500   3.651   1.334  14.908 -0.3691 -0.6849 -0.4698
  638MPD2     H 9501   3.615   1.062  14.640  0.0781  0.7774 -0.6521
  638MPD2    H1 9502   3.666   1.170  15.051 -2.2502 -1.0042 -0.1996
  638MPD2    H2 9503   3.654   1.471  14.750 -0.0902 -0.1344 -0.7493
  638MPD2    H3 9504   3.661   1.408  14.987 -0.0904 -0.5126 -0.6683
  638MPD2     N 9505   3.657   0.968  14.874  0.4994  0.2442  0.2535
  638MPD2    H5 9506   3.629   0.911  14.795 -1.4963 -1.6440  2.3312
  638MPD2    N1 9507   3.604   1.314  14.545  0.3881 -0.5097 -0.1356
  638MPD2    H7 9508   3.637   1.405  14.516 -0.1339 -0.6828 -1.2671
  639TMC3    C1 9509   3.708   0.770  14.974  0.0645  0.1272  0.2201
  639TMC3    C2 9510   3.599   0.710  14.909  0.3578 -0.4445 -0.3487
  639TMC3    C3 9511   3.606   0.576  14.886 -0.1596  0.5044 -0.2492
  639TMC3    C4 9512   3.818   0.703  15.026 -0.0056 -0.5008 -0.0577
  639TMC3    C5 9513   3.807   0.569  15.007  0.0081  0.4329  0.3373
  639TMC3    C6 9514   3.715   0.508  14.930 -0.3072 -0.3296  0.0451
  639TMC3     C 9515   3.709   0.916  14.984  0.1651  0.2783 -0.3351
  639TMC3     O 9516   3.778   0.963  15.074 -0.4253  0.0999  0.0671
  639TMC3     H 9517   3.523   0.775  14.866 -0.4778 -1.3032 -0.1650
  639TMC3    H1 9518   3.897   0.748  15.086 -2.2951  0.9509  1.8423
  639TMC3    H2 9519   3.708   0.400  14.922  0.1328 -0.2885 -0.7921
  639TMC3    C7 9520   3.918   0.494  15.045 -0.5915 -0.2784 -0.3796
  639TMC3    C8 9521   3.516   0.507  14.801 -0.2979  0.1451 -0.8145
  639TMC3    O1 9522   3.894   0.385  15.081  0.5551  0.2762 -0.0957
  639TMC3    O2 9523   3.570   0.426  14.727 -0.0696 -0.2347  0.0518
  640MPD2     C 9524   0.268   0.687  10.077  0.6599 -0.4230  0.2168
  640MPD2    C1 9525   0.152   0.644  10.131 -0.1341  0.1840  0.6631
  640MPD2    C2 9526   0.079   0.723  10.219  0.8016  0.4600  0.1884
  640MPD2    C3 9527   0.139   0.836  10.267  0.3565 -0.4634  0.1488
  640MPD2    C4 9528   0.255   0.882  10.208  0.1138  0.0834  0.6208
  640MPD2    C5 9529   0.323   0.801  10.115  0.4308  0.1074  0.3803
  640MPD2     H 9530   4.721   0.689  10.264  1.9618 -0.7203  1.6276
  640MPD2    H1 9531   0.294   0.975  10.246 -0.1119  0.9618 -1.3111
  640MPD2    H2 9532   0.310   0.622  10.001  0.5614  0.0347 -0.2368
  640MPD2    H3 9533   0.410   0.845  10.068 -1.0448  1.5313 -0.9879
  640MPD2     N 9534   0.075   0.920  10.351 -0.2143  0.4939 -1.1581
  640MPD2    H5 9535   0.100   1.018  10.346 -0.5939  0.6837  0.4554
  640MPD2    N1 9536   0.109   0.515  10.093 -0.6548  0.0315  0.4002
  640MPD2    H7 9537   0.171   0.448  10.050  0.6844  3.0443 -2.4042
  641TMC3    C1 9538   4.684   0.346  10.030  1.0124  0.4110  0.2219
  641TMC3    C2 9539   0.048   0.250  10.030  0.2277 -0.7499  0.1806
  641TMC3    C3 9540   4.732   0.127   9.991 -0.6266 -0.0597  0.4960
  641TMC3    C4 9541   4.556   0.332   9.992 -0.5611  0.0412 -0.6724
  641TMC3    C5 9542   4.518   0.205   9.955  0.2749 -0.2395 -0.0145
  641TMC3    C6 9543   4.606   0.103   9.954  0.1935 -0.2771 -0.7473
  641TMC3     C 9544   4.709   0.471  10.104 -0.3824  0.7290 -0.0237
  641TMC3     O 9545   4.611   0.540  10.131  0.5599  0.5831  0.0162
  641TMC3     H 9546   0.143   0.258  10.082 -0.1292  1.8183  0.4267
  641TMC3    H1 9547   4.493   0.420   9.994 -0.8897 -0.1696 -1.4043
  641TMC3    H2 9548   4.577   0.002   9.927 -1.4621  0.0814 -0.2741
  641TMC3    C7 9549   4.375   0.165   9.939  0.4647  0.3811  0.4298
  641TMC3    C8 9550   0.100   0.030   9.952 -0.1832 -0.4619  0.8472
  641TMC3    O1 9551   4.355   0.053   9.897 -0.1823  0.2253  0.3791
  641TMC3    O2 9552   0.211   0.028  10.003 -0.0757  0.2075  0.3172
  642TMC3    C1 9553   0.392   0.899  12.365  0.6476  0.1503 -0.4237
  642TMC3    C2 9554   0.526   0.895  12.390 -0.4736  0.1727  0.4939
  642TMC3    C3 9555   0.596   0.809  12.305  0.0078  0.1693 -0.4430
  642TMC3    C4 9556   0.328   0.816  12.277  0.5462  0.3957 -0.2303
  642TMC3    C5 9557   0.401   0.739  12.195  0.4871 -0.2541 -0.0669
  642TMC3    C6 9558   0.533   0.735  12.210  0.6590 -0.5509  0.1921
  642TMC3     C 9559   0.332   1.019  12.416  0.3604 -0.0069 -0.8642
  642TMC3     O 9560   0.402   1.109  12.456 -0.2154  0.3798  0.2355
  642TMC3     H 9561   0.579   0.966  12.454 -1.0441  0.6944  0.3845
  642TMC3    H1 9562   0.223   0.836  12.258  0.0991 -0.0959  1.7372
  642TMC3    H2 9563   0.584   0.668  12.141  0.8283 -0.7196  0.4786
  642TMC3    C7 9564   0.336   0.620  12.140  0.2928 -0.6400 -0.3491
  642TMC3    C8 9565   0.729   0.754  12.349 -0.6027 -0.0029  0.2191
  642TMC3    O1 9566   0.402   0.545  12.070 -0.0299 -0.3364 -0.1296
  642TMC3    O2 9567   0.725   0.636  12.348  0.3079  0.2991  0.0846
  643TMC3    C1 9568   4.427   0.151  17.626  0.7716 -0.4688 -0.2420
  643TMC3    C2 9569   4.304   0.181  17.571 -0.3017  0.1931 -0.1704
  643TMC3    C3 9570   4.251   0.087  17.484 -0.4500  0.5647 -0.5819
  643TMC3    C4 9571   4.494   0.041  17.581 -0.0855  0.4656 -0.5611
  643TMC3    C5 9572   4.443   4.683  17.494  0.5143  0.7308 -0.3814
  643TMC3    C6 9573   4.313   4.701  17.452 -0.4531 -0.2067  0.1875
  643TMC3     C 9574   4.481   0.227   0.004 -0.4981 -0.4881 -0.0557
  643TMC3     O 9575   4.431   0.339   0.011 -0.0952 -0.0073  0.2735
  643TMC3     H 9576   4.243   0.261  17.610 -1.1662 -0.2456 -0.6220
  643TMC3    H1 9577   4.596   0.027  17.616 -0.5467 -0.5617  0.3488
  643TMC3    H2 9578   4.275   4.637  17.373 -0.9860  0.8658 -0.4178
  643TMC3    C7 9579   4.542   4.664  17.388  0.1208 -0.9651 -0.3196
  643TMC3    C8 9580   4.198   0.144  17.362 -0.2721  0.7972  0.5678
  643TMC3    O1 9581   4.663   4.690  17.406 -0.6814  0.0866 -0.2045
  643TMC3    O2 9582   4.139   0.062  17.288  0.1214  0.0822 -0.5451
  644MPD2     C 9583   0.768   0.451  10.157 -0.4048 -0.3502  0.7823
  644MPD2    C1 9584   0.813   0.348  10.081  0.4014  0.0802 -0.9353
  644MPD2    C2 9585   0.715   0.269  10.012 -0.4703  0.5647 -0.2535
  644MPD2    C3 9586   0.578   0.309  10.011  0.0083  0.3402  0.3487
  644MPD2    C4 9587   0.546   0.417  10.090 -0.0897  0.3841  1.1780
  644MPD2    C5 9588   0.636   0.486  10.160  0.8665 -0.5300 -0.6080
  644MPD2     H 9589   0.736   0.187   9.945 -0.2738 -0.6952  1.3566
  644MPD2    H1 9590   0.445   0.457  10.091  0.3662  1.5306  0.1168
  644MPD2    H2 9591   0.839   0.515  10.210 -0.7116  0.7414 -0.1354
  644MPD2    H3 9592   0.602   0.563  10.229 -0.5474 -1.6104 -0.1097
  644MPD2     N 9593   0.500   0.261   9.900 -0.5575 -0.2217  0.2676
  644MPD2    H5 9594   0.537   0.193   9.835 -1.9758 -2.7674  2.1171
  644MPD2    N1 9595   0.950   0.335  10.076  0.3144  0.2889 -0.1189
  644MPD2    H7 9596   1.004   0.408  10.120 -0.1076  0.1559  0.6189
  645TMC3    C1 9597   0.302   0.256   9.767 -0.0308 -0.6313  0.1977
  645TMC3    C2 9598   0.188   0.312   9.732  0.6004  0.0729  0.2986
  645TMC3    C3 9599   0.117   0.262   9.627 -0.7898 -0.5725  0.4435
  645TMC3    C4 9600   0.358   0.163   9.686 -0.2333 -0.1553  0.2018
  645TMC3    C5 9601   0.289   0.107   9.579  0.5882  0.7936 -1.0976
  645TMC3    C6 9602   0.160   0.150   9.550  0.2856 -0.1449 -0.3115
  645TMC3     C 9603   0.369   0.309   9.883  0.5362 -0.1670  0.5525
  645TMC3     O 9604   0.307   0.394   9.941  0.6084  0.3481  0.2113
  645TMC3     H 9605   0.125   0.373   9.795 -1.2076 -0.8035 -0.6808
  645TMC3    H1 9606   0.458   0.128   9.708 -0.1607  0.3877  0.7496
  645TMC3    H2 9607   0.104   0.108   9.467  0.6999 -0.2992 -0.5143
  645TMC3    C7 9608   0.353   0.007   9.498  0.6853 -0.6969  0.4153
  645TMC3    C8 9609   4.710   0.284   9.615 -0.3227  0.1091 -0.0003
  645TMC3    O1 9610   0.301   4.719   9.389 -0.0935 -0.0260 -0.6103
  645TMC3    O2 9611   4.651   0.190   9.556 -0.6110  0.1407  0.0222
  646MPD2     C 9612   4.028   4.487  14.584 -0.4181 -0.2292 -0.1910
  646MPD2    C1 9613   3.942   4.508  14.683  0.3756 -0.9304 -0.2885
  646MPD2    C2 9614   3.813   4.522  14.653 -0.3620  0.1684 -0.3811
  646MPD2    C3 9615   3.774   4.558  14.522  0.6531  0.5241  0.9130
  646MPD2    C4 9616   3.870   4.560  14.423 -0.2187  0.3399 -0.0697
  646MPD2    C5 9617   4.000   4.524  14.458  0.2911  0.0999 -0.4924
  646MPD2     H 9618   3.736   4.496  14.724 -1.1421  0.6688 -1.0480
  646MPD2    H1 9619   3.845   4.562  14.317 -0.4603  4.4747  0.0581
  646MPD2    H2 9620   4.131   4.462  14.607 -1.1031 -1.6315  1.3401
  646MPD2    H3 9621   4.076   4.514  14.381 -0.0541 -1.0291 -0.6856
  646MPD2     N 9622   3.638   4.571  14.491  1.1433  0.4664  0.1511
  646MPD2    H5 9623   3.567   4.556  14.562 -0.7525 -0.2877 -1.9117
  646MPD2    N1 9624   3.996   4.492  14.812 -0.3542 -0.3870  0.5354
  646MPD2    H7 9625   4.095   4.469  14.822  0.7402  3.6532 -1.0391
  647TMC3    C1 9626   4.000   4.463  15.039 -0.5495  0.4057  0.5042
  647TMC3    C2 9627   3.937   4.425  15.153  0.0743  0.0811 -0.0058
  647TMC3    C3 9628   4.015   4.408  15.267  0.2392 -0.8263  0.1171
  647TMC3    C4 9629   4.135   4.490  15.045  0.3728 -1.0162 -0.1867
  647TMC3    C5 9630   4.208   4.452  15.151  0.0944  1.0797 -0.3253
  647TMC3    C6 9631   4.152   4.409  15.267  1.3903  0.0859 -0.3120
  647TMC3     C 9632   3.916   4.498  14.924 -0.0160  0.3872  0.7439
  647TMC3     O 9633   3.796   4.500  14.941  0.7541  0.7783 -0.6860
  647TMC3     H 9634   3.832   4.399  15.147  0.2936 -1.0026  0.8841
  647TMC3    H1 9635   4.192   4.537  14.966 -0.0508 -2.1464 -1.1734
  647TMC3    H2 9636   4.212   4.397  15.356  0.8645  1.0552  0.1848
  647TMC3    C7 9637   4.350   4.437  15.153 -0.1088  0.6458  0.0907
  647TMC3    C8 9638   3.942   4.324  15.367 -0.5631 -0.1201 -0.3972
  647TMC3    O1 9639   4.399   4.415  15.262 -0.4206  0.0261  0.4287
  647TMC3    O2 9640   3.818   4.324  15.357 -0.7836 -0.3500 -0.7054
  648TMC3    C1 9641   3.320   2.026  16.093 -0.2554  0.4010  0.7919
  648TMC3    C2 9642   3.343   1.908  16.034  0.3082  0.1787  0.1047
  648TMC3    C3 9643   3.309   1.891  15.900 -0.2500  0.1454 -0.1743
  648TMC3    C4 9644   3.261   2.133  16.019  0.1923  1.0241  0.7215
  648TMC3    C5 9645   3.227   2.111  15.887 -0.1107 -0.3505 -0.3178
  648TMC3    C6 9646   3.251   1.989  15.824  0.4583  0.1943  0.0646
  648TMC3     C 9647   3.328   2.050  16.237 -0.4118 -0.0573 -0.0202
  648TMC3     O 9648   3.333   2.170  16.272 -0.6471 -0.4062 -0.0211
  648TMC3     H 9649   3.400   1.836  16.092  0.2576 -1.7746 -2.2765
  648TMC3    H1 9650   3.253   2.235  16.058  1.1191  1.6317 -0.6885
  648TMC3    H2 9651   3.232   1.975  15.718 -1.8814 -2.6987  0.8767
  648TMC3    C7 9652   3.151   2.211  15.812  0.1904 -0.1259 -0.0572
  648TMC3    C8 9653   3.389   1.791  15.831  0.4082  0.3971 -0.4093
  648TMC3    O1 9654   3.165   2.198  15.693  0.1654  0.2721  0.2690
  648TMC3    O2 9655   3.410   1.796  15.710 -0.4250 -0.2703  0.6827
  649TMC3    C1 9656   2.173   3.369  12.990  0.0801  0.5497  0.4033
  649TMC3    C2 9657   2.303   3.381  13.025 -0.1106 -0.0891  0.2667
  649TMC3    C3 9658   2.349   3.315  13.131 -0.3190 -0.5301 -0.0689
  649TMC3    C4 9659   2.092   3.272  13.044  0.4495 -0.7889 -0.1099
  649TMC3    C5 9660   2.139   3.217  13.162 -0.2331 -0.6466 -0.0045
  649TMC3    C6 9661   2.265   3.239  13.206  0.1121  0.2139  0.2238
  649TMC3     C 9662   2.116   3.450  12.883  0.5246 -0.2724 -0.9035
  649TMC3     O 9663   2.171   3.557  12.853  0.6088 -0.0582 -0.2745
  649TMC3     H 9664   2.374   3.444  12.974 -1.5468  2.7172  1.7399
  649TMC3    H1 9665   1.984   3.271  13.036  0.2956 -0.5308  2.1766
  649TMC3    H2 9666   2.311   3.167  13.273 -1.2998  0.7143  1.7526
  649TMC3    C7 9667   2.051   3.158  13.255 -0.7047 -0.0235 -0.1122
  649TMC3    C8 9668   2.431   3.393  13.219 -0.3473 -0.0952  0.3676
  649TMC3    O1 9669   2.072   3.189  13.371  0.2510 -0.3188 -0.1992
  649TMC3    O2 9670   2.388   3.375  13.334  0.9350  0.2774 -0.3292
  650TMC3    C1 9671   4.322   4.717  12.269  0.4493  0.0364 -0.8167
  650TMC3    C2 9672   4.195   0.040  12.281 -0.7611 -0.4981 -0.2119
  650TMC3    C3 9673   4.138   0.093  12.166 -1.0512 -0.2587  0.4933
  650TMC3    C4 9674   4.398   4.717  12.151  0.3680  0.0316  0.4464
  650TMC3    C5 9675   4.336   0.042  12.049 -0.0086 -0.0585  0.1573
  650TMC3    C6 9676   4.210   0.096  12.049  0.4183 -0.0647  0.2966
  650TMC3     C 9677   4.399   0.014  12.384  0.0901 -0.3546  0.5536
  650TMC3     O 9678   4.359   0.113  12.436 -0.1437 -0.1170  0.1130
  650TMC3     H 9679   4.150   0.042  12.380  1.1530 -1.1255  0.6617
  650TMC3    H1 9680   4.503   4.690  12.143 -0.2625 -2.4465  0.6612
  650TMC3    H2 9681   4.167   0.111  11.951 -2.1177  1.1004  1.5690
  650TMC3    C7 9682   4.417   0.104  11.950 -0.3290  0.3413  1.0748
  650TMC3    C8 9683   4.072   0.221  12.187  0.0734 -0.5433 -0.4374
  650TMC3    O1 9684   4.483   0.039  11.870  0.8277  0.0594 -0.4085
  650TMC3    O2 9685   4.055   0.251  12.302  0.0256 -0.1144 -0.4297
  651MPD2     C 9686   3.693   2.364  10.431  0.0721 -0.6655  0.0272
  651MPD2    C1 9687   3.669   2.467  10.523  0.1663  0.1713 -0.4334
  651MPD2    C2 9688   3.781   2.536  10.574 -0.0747  0.8045  0.1011
  651MPD2    C3 9689   3.907   2.498  10.550  0.0622  0.5930  0.4336
  651MPD2    C4 9690   3.926   2.397  10.455  1.0093 -0.0367  0.6496
  651MPD2    C5 9691   3.823   2.336  10.391 -0.2240 -0.7563 -0.3339
  651MPD2     H 9692   3.755   2.619  10.638  2.0165  0.9827  0.7085
  651MPD2    H1 9693   4.021   2.355  10.425  1.4153  1.3382  0.0087
  651MPD2    H2 9694   3.617   2.311  10.376 -1.3049  2.0760 -0.7405
  651MPD2    H3 9695   3.847   2.263  10.314  1.2645 -0.1669 -0.4126
  651MPD2     N 9696   4.011   2.562  10.626 -0.4419 -0.7778  0.1954
  651MPD2    H5 9697   3.993   2.615  10.711 -1.9853 -0.5911 -0.2454
  651MPD2    N1 9698   3.541   2.509  10.553 -0.7372  0.0857  0.1251
  651MPD2    H7 9699   3.533   2.598  10.603 -1.5588  0.7585 -1.2301
  652TMC3    C1 9700   4.455   2.689  10.662 -0.4693  0.5158  0.0872
  652TMC3    C2 9701   4.359   2.592  10.644  0.6987 -0.1629 -0.4380
  652TMC3    C3 9702   4.233   2.628  10.670  0.1411 -0.0125  0.1082
  652TMC3    C4 9703   4.428   2.820  10.702  0.3119 -0.4118 -0.0581
  652TMC3    C5 9704   4.298   2.853  10.735 -0.2000  0.1239 -0.9739
  652TMC3    C6 9705   4.199   2.753  10.714  0.1049 -0.4100 -0.7654
  652TMC3     C 9706   4.595   2.662  10.661 -0.0574 -0.1441  0.0635
  652TMC3     O 9707   4.630   2.552  10.702 -0.1003 -0.3701 -0.2050
  652TMC3     H 9708   4.378   2.492  10.606 -0.6437 -0.4194 -0.4343
  652TMC3    H1 9709   4.515   2.877  10.733  0.1342  0.3652 -0.9761
  652TMC3    H2 9710   4.096   2.779  10.735 -0.5193 -0.9941 -3.1174
  652TMC3    C7 9711   4.290   2.913  10.872 -0.2185  0.4936 -0.9357
  652TMC3    C8 9712   4.143   2.556  10.590 -0.0449  0.1461  0.5016
  652TMC3    O1 9713   4.189   2.890  10.938 -0.9107 -0.0535 -0.1413
  652TMC3    O2 9714   4.195   2.513  10.489  0.6533  0.1138  0.3995
  653MPD2     C 9715   2.073   2.002  17.666  0.2368 -0.2345 -0.5385
  653MPD2    C1 9716   2.112   2.109  17.582 -0.2349  0.1041 -0.1320
  653MPD2    C2 9717   2.046   2.118  17.461  0.4350  0.2238 -0.7143
  653MPD2    C3 9718   1.965   2.013  17.407 -0.1410  0.8905  0.3731
  653MPD2    C4 9719   1.940   1.908  17.493 -0.0210  0.8267 -0.8491
  653MPD2    C5 9720   1.994   1.903  17.617  0.2242  0.1334 -0.4772
  653MPD2     H 9721   2.062   2.202  17.394 -0.3379  0.7531 -0.2406
  653MPD2    H1 9722   1.874   1.825  17.471 -1.3445  1.6596 -0.0662
  653MPD2    H2 9723   2.102   1.982   0.033  0.7105 -0.5413 -0.7360
  653MPD2    H3 9724   1.971   1.821  17.684 -0.3807 -0.2193 -1.1138
  653MPD2     N 9725   1.922   2.018  17.269  0.0268 -0.5649  0.0294
  653MPD2    H5 9726   1.960   2.096  17.215 -0.3518  0.6896  1.5822
  653MPD2    N1 9727   2.203   2.208  17.622 -0.2275  0.0960  0.3856
  653MPD2    H7 9728   2.221   2.287  17.561 -1.4800  0.2981  0.2705
  654TMC3    C1 9729   1.871   1.929  17.056  0.0177 -0.0640 -0.2063
  654TMC3    C2 9730   1.826   2.054  17.010  0.6964  0.1626  0.0656
  654TMC3    C3 9731   1.815   2.054  16.869 -0.9859  0.1648 -0.3853
  654TMC3    C4 9732   1.899   1.816  16.980  0.8533 -0.0639 -0.5438
  654TMC3    C5 9733   1.898   1.828  16.844 -0.4925 -0.1362 -0.3804
  654TMC3    C6 9734   1.855   1.952  16.787 -0.3216  0.4539  0.4460
  654TMC3     C 9735   1.874   1.908  17.201  0.8681  0.1832  0.0069
  654TMC3     O 9736   1.821   1.807  17.242  0.1605  0.5811 -0.1917
  654TMC3     H 9737   1.804   2.141  17.072  1.8996 -0.4178  1.3109
  654TMC3    H1 9738   1.922   1.723  17.030 -0.8104  0.6813  1.6013
  654TMC3    H2 9739   1.861   1.948  16.679 -0.1066  0.2115  0.4668
  654TMC3    C7 9740   1.981   1.742  16.761 -1.0673  0.4656  0.5603
  654TMC3    C8 9741   1.715   2.144  16.812 -0.7684  0.3497 -0.1539
  654TMC3    O1 9742   1.999   1.763  16.645 -0.0178  0.2472  0.0436
  654TMC3    O2 9743   1.651   2.217  16.884 -0.4189 -0.2319  0.1384
  655MPD2     C 9744   3.710   2.183  15.865  0.2028  0.0501  0.0992
  655MPD2    C1 9745   3.675   2.287  15.778  0.6151  0.1951 -0.8917
  655MPD2    C2 9746   3.723   2.276  15.648 -0.3220 -0.2739  0.8086
  655MPD2    C3 9747   3.779   2.159  15.597  0.2072 -0.2758 -0.2540
  655MPD2    C4 9748   3.804   2.058  15.687 -0.4470 -0.2783  0.1971
  655MPD2    C5 9749   3.767   2.069  15.818 -0.2232 -0.9909 -1.1941
  655MPD2     H 9750   3.694   2.361  15.587  0.2566 -0.3359  0.4434
  655MPD2    H1 9751   3.846   1.966  15.649  3.4994  1.2242  0.9949
  655MPD2    H2 9752   3.671   2.178  15.966  0.5925 -1.5152  0.1801
  655MPD2    H3 9753   3.796   1.985  15.880  2.2074  0.8526  0.1630
  655MPD2     N 9754   3.811   2.125  15.464 -0.1063  0.6978 -0.0359
  655MPD2    H5 9755   3.861   2.038  15.449 -0.6498  0.8229 -2.5488
  655MPD2    N1 9756   3.591   2.393  15.811  0.5173 -0.0175 -0.0124
  655MPD2    H7 9757   3.570   2.457  15.735  2.1427  1.0636  0.4577
  656TMC3    C1 9758   3.441   2.527  15.950 -0.0276  0.0893 -0.6507
  656TMC3    C2 9759   3.374   2.518  16.067 -0.1771  0.0742 -0.7168
  656TMC3    C3 9760   3.272   2.602  16.099  0.1840  0.0672  0.3707
  656TMC3    C4 9761   3.421   2.631  15.859  0.1558  0.8446  0.4305
  656TMC3    C5 9762   3.317   2.712  15.893  0.5290 -0.7535  0.4603
  656TMC3    C6 9763   3.238   2.699  16.007 -0.2398  0.5456  0.1034
  656TMC3     C 9764   3.554   2.423  15.937  0.6481 -0.2475 -0.8201
  656TMC3     O 9765   3.591   2.373  16.042  0.9455  0.5511 -0.7140
  656TMC3     H 9766   3.408   2.449  16.144 -1.5058 -0.3022 -0.4702
  656TMC3    H1 9767   3.482   2.646  15.771 -0.5954  1.4727  0.0106
  656TMC3    H2 9768   3.144   2.749  16.029 -0.2170  0.4659  0.3897
  656TMC3    C7 9769   3.278   2.811  15.792  0.4445  0.1151 -0.0480
  656TMC3    C8 9770   3.168   2.541  16.177  0.7667  0.2203  0.0985
  656TMC3    O1 9771   3.355   2.830  15.697  0.1433  0.5893 -0.2152
  656TMC3    O2 9772   3.144   2.422  16.167 -0.0912  0.0471  0.0120
  657TMC3    C1 9773   2.460   1.773  15.014 -1.1509  0.6295  0.9215
  657TMC3    C2 9774   2.456   1.816  15.142 -0.3621 -0.5715 -0.4618
  657TMC3    C3 9775   2.401   1.940  15.167 -0.1969 -0.5040  0.2866
  657TMC3    C4 9776   2.384   1.831  14.918  0.4466  0.6721  0.2329
  657TMC3    C5 9777   2.318   1.950  14.948 -0.4732 -0.6773  0.9549
  657TMC3    C6 9778   2.333   2.008  15.074  0.4844  0.6115  0.4353
  657TMC3     C 9779   2.489   1.632  14.995  0.4971  0.4331 -0.0907
  657TMC3     O 9780   2.395   1.558  14.962 -0.4319  0.1798 -0.0200
  657TMC3     H 9781   2.502   1.752  15.217 -1.0149 -2.0463 -1.3177
  657TMC3    H1 9782   2.382   1.799  14.815 -0.2073 -0.4891  0.6017
  657TMC3    H2 9783   2.305   2.112  15.085 -1.2526  0.2647 -0.6498
  657TMC3    C7 9784   2.266   2.032  14.837  0.1394  0.4588  0.0659
  657TMC3    C8 9785   2.403   1.991  15.304 -0.3420  0.0328 -0.3414
  657TMC3    O1 9786   2.282   1.987  14.723 -0.3716 -0.1149  0.1183
  657TMC3    O2 9787   2.462   1.924  15.388 -0.5727  0.5883 -0.6648
  658MPD2     C 9788   4.218   2.178  14.832  0.2408  0.4419  0.0217
  658MPD2    C1 9789   4.085   2.218  14.836 -0.1080 -0.0573 -0.3629
  658MPD2    C2 9790   4.058   2.336  14.774 -0.6256  0.0841  0.3903
  658MPD2    C3 9791   4.152   2.396  14.684  0.1609  0.3705 -0.4951
  658MPD2    C4 9792   4.276   2.350  14.671 -0.0867  0.1424  0.2657
  658MPD2    C5 9793   4.307   2.239  14.744 -0.0955 -0.0736  0.9210
  658MPD2     H 9794   3.964   2.386  14.791 -0.1998  1.3512 -1.0472
  658MPD2    H1 9795   4.350   2.390  14.603 -0.4894 -2.8375 -1.9626
  658MPD2    H2 9796   4.242   2.095  14.897 -2.9424 -0.8678 -0.4625
  658MPD2    H3 9797   4.412   2.211  14.745 -0.1274 -0.2833 -1.4235
  658MPD2     N 9798   4.093   2.496  14.600 -0.1668  0.1813 -0.3405
  658MPD2    H5 9799   4.000   2.526  14.626 -1.1382 -3.0530 -0.1681
  658MPD2    N1 9800   3.992   2.146  14.911  1.2486  0.2375  0.6081
  658MPD2    H7 9801   4.023   2.086  14.988 -0.6477  1.6491  2.4841
  659TMC3    C1 9802   3.785   2.129  15.007 -0.5994  0.5866 -0.4176
  659TMC3    C2 9803   3.838   2.170  15.124 -0.2385  0.5476 -1.0947
  659TMC3    C3 9804   3.773   2.126  15.241  0.0125 -0.1984 -0.3355
  659TMC3    C4 9805   3.672   2.064  14.984  0.1226 -0.4157  0.1466
  659TMC3    C5 9806   3.598   2.048  15.095  0.1760  0.7122 -0.1709
  659TMC3    C6 9807   3.646   2.073  15.221  0.4738  1.1268  0.0824
  659TMC3     C 9808   3.856   2.169  14.892 -0.3563 -0.6662 -0.3653
  659TMC3     O 9809   3.797   2.217  14.798  0.1553  0.0299 -0.4087
  659TMC3     H 9810   3.930   2.226  15.133  0.0187 -0.5130  2.7626
  659TMC3    H1 9811   3.629   2.043  14.886  1.0106 -1.6451  0.0223
  659TMC3    H2 9812   3.585   2.050  15.308 -0.6994  0.9425 -0.7878
  659TMC3    C7 9813   3.455   2.034  15.086 -0.2864 -0.2864 -0.8215
  659TMC3    C8 9814   3.789   2.205  15.358 -0.1840 -0.8017  0.2283
  659TMC3    O1 9815   3.397   1.980  15.178 -0.0807 -0.0178  0.5198
  659TMC3    O2 9816   3.742   2.315  15.353  0.4776 -0.3604  0.0680
  660MPD2     C 9817   1.901   1.260  12.547  0.4578  0.1485  0.3069
  660MPD2    C1 9818   1.776   1.299  12.600 -0.7005  0.4309  1.2052
  660MPD2    C2 9819   1.751   1.264  12.733  0.0537 -0.0483 -0.1090
  660MPD2    C3 9820   1.845   1.188  12.806 -0.1407  0.0162  0.3515
  660MPD2    C4 9821   1.972   1.155  12.750 -0.3247 -0.0972 -0.4750
  660MPD2    C5 9822   1.996   1.192  12.622 -0.3815 -0.3635  0.4513
  660MPD2     H 9823   1.655   1.297  12.772  0.4782  0.9759  0.0748
  660MPD2    H1 9824   2.047   1.092  12.797 -0.3920 -0.2098 -0.5202
  660MPD2    H2 9825   1.915   1.277  12.441 -2.8048  0.6660 -0.0303
  660MPD2    H3 9826   2.085   1.151  12.574 -0.4844 -2.1512  1.7641
  660MPD2     N 9827   1.822   1.140  12.936  0.5743 -0.3258  0.2691
  660MPD2    H5 9828   1.890   1.073  12.971  1.5977  0.0740 -0.9540
  660MPD2    N1 9829   1.683   1.364  12.523 -0.5794  0.4648  0.3519
  660MPD2    H7 9830   1.700   1.367  12.423 -0.9694 -1.8093  0.2172
  661TMC3    C1 9831   1.484   1.472  12.452 -0.5607 -0.1695  0.6198
  661TMC3    C2 9832   1.558   1.498  12.342  0.2725  0.5278 -0.2157
  661TMC3    C3 9833   1.484   1.496  12.226  0.0031  0.1527  0.0276
  661TMC3    C4 9834   1.350   1.432  12.446 -0.2340 -0.3342 -0.0220
  661TMC3    C5 9835   1.289   1.420  12.329  0.1846  0.7919  0.2637
  661TMC3    C6 9836   1.355   1.446  12.218  0.5746 -0.3363  0.3184
  661TMC3     C 9837   1.562   1.410  12.563 -0.1773 -0.1659 -0.2199
  661TMC3     O 9838   1.491   1.386  12.659 -0.0887  0.3533  0.4199
  661TMC3     H 9839   1.658   1.541  12.345  0.8125 -0.7671  0.3723
  661TMC3    H1 9840   1.301   1.395  12.535 -0.4872  0.2533  0.0816
  661TMC3    H2 9841   1.298   1.456  12.126  0.7868 -2.5672 -0.0710
  661TMC3    C7 9842   1.153   1.375  12.330  0.1992  0.6193 -0.2962
  661TMC3    C8 9843   1.529   1.567  12.115  0.4918 -0.2904  0.3563
  661TMC3    O1 9844   1.092   1.392  12.432 -0.7568  0.3423  0.2997
  661TMC3    O2 9845   1.490   1.526  12.006  0.1970  0.0267  0.3489
  662MPD2     C 9846   1.849   1.336  17.568  0.1529  0.6675 -0.1564
  662MPD2    C1 9847   1.748   1.246  17.594  0.1831 -0.1615 -0.8272
  662MPD2    C2 9848   1.670   1.256  17.707  0.1811  0.4718 -0.6233
  662MPD2    C3 9849   1.698   1.358   0.068 -0.0860 -0.9286  0.4608
  662MPD2    C4 9850   1.818   1.434   0.046  0.7320 -0.0984  0.2300
  662MPD2    C5 9851   1.879   1.433  17.657 -0.8437 -0.0627 -0.0477
  662MPD2     H 9852   1.580   1.198  17.725 -0.7792  1.6897 -1.5640
  662MPD2    H1 9853   1.846   1.505   0.123  0.3265 -0.3124  0.5747
  662MPD2    H2 9854   1.897   1.358  17.473 -1.2821  0.5736 -0.9017
  662MPD2    H3 9855   1.957   1.505  17.636  0.4249 -1.4403 -0.0252
  662MPD2     N 9856   1.612   1.359   0.177  0.0056 -0.0961 -0.5440
  662MPD2    H5 9857   1.534   1.294   0.178  0.7054 -0.9139  0.0830
  662MPD2    N1 9858   1.708   1.145  17.504 -0.4154  0.2730  0.0100
  662MPD2    H7 9859   1.639   1.078  17.535  1.6277 -2.0729 -0.4841
  663TMC3    C1 9860   1.711   0.995  17.320  0.1349 -0.3836 -0.5001
  663TMC3    C2 9861   1.591   0.956  17.377  0.3969 -0.2895  0.2159
  663TMC3    C3 9862   1.579   0.830  17.436 -0.3823 -0.4755  0.6515
  663TMC3    C4 9863   1.805   0.896  17.295  0.5723  0.0547  0.1106
  663TMC3    C5 9864   1.787   0.773  17.348 -0.1555 -0.0602  0.2132
  663TMC3    C6 9865   1.688   0.745  17.433  0.6341 -1.6847  0.2473
  663TMC3     C 9866   1.768   1.114  17.385 -0.6325  0.2786 -0.3861
  663TMC3     O 9867   1.857   1.168  17.324 -0.0482  0.6174  0.1515
  663TMC3     H 9868   1.515   1.033  17.391  1.1424  0.1278  1.9626
  663TMC3    H1 9869   1.903   0.920  17.256 -0.0821 -1.1755 -2.3141
  663TMC3    H2 9870   1.679   0.653  17.490 -0.0793 -1.9080 -0.2184
  663TMC3    C7 9871   1.887   0.674  17.314 -0.2203 -0.3505 -0.2667
  663TMC3    C8 9872   1.515   0.844  17.562  0.0638  0.0691 -0.3215
  663TMC3    O1 9873   1.973   0.712  17.236 -0.0305 -0.5847 -0.6739
  663TMC3    O2 9874   1.544   0.949  17.619  0.0659 -0.0627  0.5756
  664MPD2     C 9875   4.617   3.804  17.357 -0.6116  0.3504  0.8049
  664MPD2    C1 9876   4.702   3.860  17.449  0.4865  0.6750  0.1195
  664MPD2    C2 9877   4.690   3.811  17.576  0.4868  0.5162 -0.3295
  664MPD2    C3 9878   4.603   3.710  17.616 -0.4445  0.2252  0.2445
  664MPD2    C4 9879   4.512   3.661  17.525 -0.1958 -0.6955  0.3640
  664MPD2    C5 9880   4.528   3.703  17.397  0.2491  0.6167  0.7673
  664MPD2     H 9881   0.019   3.849  17.656 -0.9433  0.0243  1.0341
  664MPD2    H1 9882   4.435   3.585  17.538 -0.8041 -0.5166 -2.0375
  664MPD2    H2 9883   4.621   3.826  17.251  2.1824  1.1685  1.0814
  664MPD2    H3 9884   4.458   3.675  17.320  1.2190  1.7626 -0.5328
  664MPD2     N 9885   4.596   3.675   0.018 -0.1839  0.7048 -0.2773
  664MPD2    H5 9886   4.657   3.724   0.083 -0.7395 -1.0909  1.5886
  664MPD2    N1 9887   0.072   3.952  17.424  0.8969 -0.2690 -0.2961
  664MPD2    H7 9888   0.114   4.003  17.501  0.0587 -0.2612  0.1550
  665TMC3    C1 9889   4.523   3.596   0.230  0.1519 -0.2058  0.2426
  665TMC3    C2 9890   4.409   3.581   0.303 -0.1850 -0.2575 -0.9687
  665TMC3    C3 9891   4.404   3.616   0.433 -0.0470 -0.4113  0.1440
  665TMC3    C4 9892   4.639   3.636   0.287  0.1492 -0.2019  0.0971
  665TMC3    C5 9893   4.637   3.653   0.422  0.0450 -0.3216 -0.1918
  665TMC3    C6 9894   4.517   3.666   0.487 -0.5256 -0.2380  0.2497
  665TMC3     C 9895   4.512   3.588   0.084 -0.0037  0.2856  0.6837
  665TMC3     O 9896   4.409   3.540   0.039 -0.0001 -0.5461 -0.1275
  665TMC3     H 9897   4.321   3.546   0.250  0.2518  0.6996 -2.3232
  665TMC3    H1 9898   0.002   3.638   0.239 -0.2912  0.7530 -0.7219
  665TMC3    H2 9899   4.513   3.686   0.594 -2.5803  1.4606 -0.1345
  665TMC3    C7 9900   4.723   3.763   0.452  0.9121 -0.1706  0.4823
  665TMC3    C8 9901   4.273   3.633   0.497  0.0091  0.1118 -0.0244
  665TMC3    O1 9902   0.023   3.837   0.363 -0.0496 -0.6770 -0.4676
  665TMC3    O2 9903   4.280   3.641   0.620 -0.3559 -0.0527  0.1705
  666TMC3    C1 9904   4.487   3.534  10.263 -0.0221  0.2011  0.5463
  666TMC3    C2 9905   4.599   3.496  10.334 -0.2144  0.8047  0.0006
  666TMC3    C3 9906   4.698   3.586  10.326 -0.3683 -0.3373  0.1183
  666TMC3    C4 9907   4.476   3.630  10.170 -0.2901  0.7226 -0.5291
  666TMC3    C5 9908   4.586   3.716  10.170  0.4279  0.1866 -0.1362
  666TMC3    C6 9909   4.688   3.701  10.255 -0.0519 -0.2392 -0.0487
  666TMC3     C 9910   4.364   3.450  10.291 -0.4832  0.7592  0.2204
  666TMC3     O 9911   4.270   3.449  10.215 -0.1583  0.1100 -0.2632
  666TMC3     H 9912   4.610   3.414  10.404  0.4995  0.1462 -0.8803
  666TMC3    H1 9913   4.379   3.662  10.134 -0.9771 -0.3899  0.3691
  666TMC3    H2 9914   0.020   3.785  10.272  1.8710 -1.5521 -0.9791
  666TMC3    C7 9915   4.560   3.852  10.127  0.1437 -0.0647 -0.2181
  666TMC3    C8 9916   0.075   3.571  10.432 -0.6563  0.2375 -0.1421
  666TMC3    O1 9917   4.445   3.882  10.151  0.5562 -0.2256 -0.4966
  666TMC3    O2 9918   0.072   3.472  10.503  0.7256 -0.6898 -0.5485
  667MPD2     C 9919   1.207   3.912  14.598  0.0200 -0.7708 -0.0129
  667MPD2    C1 9920   1.153   3.928  14.728 -0.3382  0.3954 -0.2419
  667MPD2    C2 9921   1.082   3.826  14.783  1.0719 -0.4543  0.3936
  667MPD2    C3 9922   1.074   3.704  14.723 -0.0136 -0.4431  0.2091
  667MPD2    C4 9923   1.113   3.685  14.592  0.3877  0.0593 -0.3119
  667MPD2    C5 9924   1.184   3.791  14.535  0.1240 -1.0127  0.2476
  667MPD2     H 9925   1.044   3.834  14.884 -1.5007 -2.2651 -0.4313
  667MPD2    H1 9926   1.096   3.590  14.543 -3.8745  0.1611  0.9900
  667MPD2    H2 9927   1.236   4.005  14.550 -0.7035 -0.7596 -0.4268
  667MPD2    H3 9928   1.214   3.793  14.431 -0.7155 -0.7081  0.0068
  667MPD2     N 9929   1.003   3.595  14.776  0.0720 -0.4675 -0.6853
  667MPD2    H5 9930   0.991   3.513  14.717  0.8297 -2.0341  1.3319
  667MPD2    N1 9931   1.171   4.038  14.812 -0.3621  0.2310 -0.2184
  667MPD2    H7 9932   1.125   4.024  14.902 -1.3196 -1.8867 -1.0432
  668TMC3    C1 9933   1.236   4.251  14.891 -0.3516 -0.1753 -0.1156
  668TMC3    C2 9934   1.297   4.376  14.869 -0.5206  0.2353 -0.3813
  668TMC3    C3 9935   1.307   4.461  14.976 -0.5217  0.0214  0.3189
  668TMC3    C4 9936   1.172   4.223  15.011 -0.6099 -0.0777  0.5361
  668TMC3    C5 9937   1.180   4.317  15.113  0.1532 -0.8778  0.1842
  668TMC3    C6 9938   1.263   4.426  15.100  0.2754 -0.2654  0.4537
  668TMC3     C 9939   1.231   4.159  14.780 -0.6857 -0.4824 -0.9416
  668TMC3     O 9940   1.271   4.196  14.667 -0.0308  0.6315 -0.0039
  668TMC3     H 9941   1.326   4.409  14.770 -1.6172  0.5329 -0.6112
  668TMC3    H1 9942   1.104   4.139  15.022 -0.5705 -0.0006  1.3796
  668TMC3    H2 9943   1.267   4.497  15.182  1.6046  1.0929 -0.7911
  668TMC3    C7 9944   1.118   4.284  15.237 -0.1394 -0.2424 -0.2395
  668TMC3    C8 9945   1.365   4.595  14.953 -0.0453 -0.1669 -0.2978
  668TMC3    O1 9946   1.184   4.305  15.340 -0.3794 -0.0657  0.3177
  668TMC3    O2 9947   1.325   4.680  15.037  0.3673 -0.8944  0.4515
  669TMC3    C1 9948   3.963   3.427  14.757 -0.5192 -0.2359 -0.1842
  669TMC3    C2 9949   3.856   3.445  14.673  0.0632  0.2708 -0.0625
  669TMC3    C3 9950   3.861   3.557  14.591  0.4780 -0.2906  0.6699
  669TMC3    C4 9951   4.074   3.513  14.759 -0.0343  0.1990  0.0563
  669TMC3    C5 9952   4.070   3.612  14.667 -0.2508  0.3272  0.2471
  669TMC3    C6 9953   3.967   3.640  14.581  0.1540  0.1660  0.3934
  669TMC3     C 9954   3.956   3.316  14.852  0.6910  0.2245  0.4646
  669TMC3     O 9955   3.849   3.260  14.863 -0.0647  0.4614  0.2248
  669TMC3     H 9956   3.768   3.382  14.664  0.1090 -0.1864  2.9306
  669TMC3    H1 9957   4.147   3.514  14.839  1.2048  1.7611 -1.0884
  669TMC3    H2 9958   3.992   3.703  14.497 -1.1547  1.3618  0.9167
  669TMC3    C7 9959   4.184   3.703  14.670  0.0874  0.1869 -0.3463
  669TMC3    C8 9960   3.759   3.571  14.490  0.2507  0.1052 -0.1941
  669TMC3    O1 9961   4.168   3.802  14.603 -0.0450  1.2176 -0.0829
  669TMC3    O2 9962   3.706   3.470  14.452 -0.5330  0.8233 -0.1738
  670MPD2     C 9963   2.798   1.403  13.609  0.2442  0.2521  0.5301
  670MPD2    C1 9964   2.782   1.532  13.643  0.3599 -0.0168  0.1694
  670MPD2    C2 9965   2.723   1.568  13.760  0.3458  0.0415 -0.4415
  670MPD2    C3 9966   2.666   1.479  13.842  0.6638  0.1531  0.1601
  670MPD2    C4 9967   2.673   1.343  13.808 -0.3384  0.4815  0.4947
  670MPD2    C5 9968   2.749   1.310  13.694 -0.0340 -0.0270  0.1777
  670MPD2     H 9969   2.711   1.672  13.789 -2.6118 -0.7746  1.2862
  670MPD2    H1 9970   2.629   1.264  13.868 -0.2919 -0.2170 -0.3903
  670MPD2    H2 9971   2.851   1.365  13.522  0.0977  2.9218 -0.7099
  670MPD2    H3 9972   2.771   1.207  13.671  1.8663  0.3377  0.3514
  670MPD2     N 9973   2.600   1.520  13.958  0.4557  0.6302 -0.1971
  670MPD2    H5 9974   2.580   1.620  13.958 -0.5031  0.4349 -0.0967
  670MPD2    N1 9975   2.840   1.642  13.568 -0.2140 -0.0352  0.4136
  670MPD2    H7 9976   2.849   1.736  13.606 -0.2893  0.2826 -0.3509
  671TMC3    C1 9977   2.476   1.512  14.156  0.0056  0.6638 -1.0522
  671TMC3    C2 9978   2.471   1.467  14.285  0.3587  0.2619  0.1239
  671TMC3    C3 9979   2.352   1.437  14.342 -0.2189  1.1502  0.0742
  671TMC3    C4 9980   2.360   1.538  14.085  0.4830 -0.6607  0.5405
  671TMC3    C5 9981   2.236   1.515  14.143  0.2256  0.6790  0.2910
  671TMC3    C6 9982   2.237   1.470  14.273  0.0474 -0.2131 -0.3339
  671TMC3     C 9983   2.562   1.442  14.064  0.2297  0.3857 -0.2502
  671TMC3     O 9984   2.579   1.325  14.086 -0.4551  0.0589  0.2018
  671TMC3     H 9985   2.566   1.439  14.330  1.2619  3.4934  0.2099
  671TMC3    H1 9986   2.361   1.568  13.981  0.3473 -1.9848  0.1681
  671TMC3    H2 9987   2.139   1.442  14.310 -0.4586  1.3417 -0.4953
  671TMC3    C7 9988   2.160   1.435  14.050 -0.0909  0.8643  0.2313
  671TMC3    C8 9989   2.337   1.293  14.378  0.0314  0.5030 -0.4469
  671TMC3    O1 9990   2.173   1.461  13.933 -0.4220  0.5598  0.1186
  671TMC3    O2 9991   2.224   1.256  14.413 -0.3375  0.5675  0.2464
  672MPD2     C 9992   2.862   1.921   0.474  0.1006 -0.0101  0.1390
  672MPD2    C1 9993   2.784   1.807   0.487 -0.0767 -0.4097  1.1734
  672MPD2    C2 9994   2.726   1.781   0.611  1.0591  0.1926  0.7558
  672MPD2    C3 9995   2.749   1.868   0.719  0.7276  0.2686  0.0770
  672MPD2    C4 9996   2.841   1.973   0.698 -0.7989 -0.5688 -0.2129
  672MPD2    C5 9997   2.903   2.001   0.580 -0.0887  0.9883  0.1444
  672MPD2     H 9998   2.655   1.700   0.623  0.3482  0.7837  0.5315
  672MPD2    H1 9999   2.856   2.047   0.776  0.6783 -0.5305 -0.5230
  672MPD2    H210000   2.910   1.943   0.379  1.6442  0.0550  0.9390
  672MPD2    H310001   2.955   2.093   0.558  2.2375 -0.3079  0.2713
  672MPD2     N10002   2.694   1.853   0.848  0.4383 -0.3674 -0.4471
  672MPD2    H510003   2.717   1.928   0.912  3.1248  1.4992 -3.6118
  672MPD2    N110004   2.739   1.729   0.384  0.3151 -0.0953  0.3570
  672MPD2    H710005   2.669   1.657   0.396  0.3119 -0.1519  0.0013
  673TMC3    C110006   2.718   1.629   0.182  0.3560  0.1208  0.2394
  673TMC3    C210007   2.797   1.517   0.193 -0.0710 -0.5575 -0.3500
  673TMC3    C310008   2.734   1.398   0.235  0.1933 -0.2365 -0.0373
  673TMC3    C410009   2.582   1.620   0.214  0.4865  0.0816 -0.2913
  673TMC3    C510010   2.533   1.504   0.262  0.6694 -0.4322  0.4849
  673TMC3    C610011   2.602   1.388   0.263 -0.0792 -0.1203  0.7530
  673TMC3     C10012   2.791   1.730   0.252 -0.3067 -0.7591 -0.4220
  673TMC3     O10013   2.892   1.776   0.202 -0.1750  0.8897 -0.2634
  673TMC3     H10014   2.904   1.533   0.187 -0.0710  0.6793  3.0049
  673TMC3    H110015   2.525   1.712   0.207 -1.7539 -1.5612 -3.7112
  673TMC3    H210016   2.560   1.293   0.294  2.7354 -0.5436  3.2684
  673TMC3    C710017   2.455   1.523   0.380  0.4396  0.1594  0.4371
  673TMC3    C810018   2.828   1.292   0.252 -0.2889 -0.7367 -0.4438
  673TMC3    O110019   2.464   1.438   0.465  0.0072 -0.1118 -0.1084
  673TMC3    O210020   2.936   1.301   0.199  0.6275 -0.1346  0.7719
  674MPD2     C10021   1.693   2.120   0.141 -0.0228  0.1376 -0.2968
  674MPD2    C110022   1.649   2.084   0.266  0.3391 -0.3431  0.3035
  674MPD2    C210023   1.541   2.150   0.318  0.2362  0.0700  0.0928
  674MPD2    C310024   1.471   2.239   0.242 -0.0962  0.3282  0.0522
  674MPD2    C410025   1.513   2.275   0.114 -0.3474 -0.4066 -0.2736
  674MPD2    C510026   1.624   2.213   0.067 -0.3648  0.7837 -0.2969
  674MPD2     H10027   1.503   2.135   0.419  0.7108  1.0061  0.4196
  674MPD2    H110028   1.462   2.353   0.058 -0.6631  1.2967  2.3671
  674MPD2    H210029   1.786   2.085   0.096 -0.4533 -2.5276  0.8499
  674MPD2    H310030   1.668   2.247  17.709 -1.2377  0.6617 -0.7622
  674MPD2     N10031   1.339   2.274   0.283 -0.1915 -0.6483  0.3491
  674MPD2    H510032   1.299   2.222   0.360  0.2729 -2.1690 -0.4485
  674MPD2    N110033   1.724   1.991   0.342  0.2667 -0.1199  0.2768
  674MPD2    H710034   1.812   1.964   0.299  0.3319  1.8079 -0.8000
  675TMC3    C110035   1.794   1.849   0.510 -0.5064 -0.2707  0.3206
  675TMC3    C210036   1.807   1.823   0.648  0.2579 -0.7170 -0.2721
  675TMC3    C310037   1.877   1.720   0.697  0.1972  0.3302 -0.4794
  675TMC3    C410038   1.845   1.753   0.424  0.7921 -1.0212  0.1977
  675TMC3    C510039   1.926   1.656   0.478  0.7659 -0.3147 -0.3566
  675TMC3    C610040   1.951   1.642   0.607 -0.4717 -0.2181 -0.9534
  675TMC3     C10041   1.692   1.935   0.465 -0.1334  0.4501 -0.1484
  675TMC3     O10042   1.608   1.972   0.544 -0.2737 -0.2954  0.0771
  675TMC3     H10043   1.760   1.892   0.718 -0.0437 -1.0746 -0.1233
  675TMC3    H110044   1.821   1.755   0.318  0.7950 -0.3778  0.2070
  675TMC3    H210045   2.023   1.571   0.646  0.7417  1.3830 -0.3069
  675TMC3    C710046   2.016   1.587   0.386 -0.6360  0.3188 -0.3467
  675TMC3    C810047   1.910   1.735   0.840  0.2734  0.3328  0.3655
  675TMC3    O110048   2.053   1.474   0.421  0.5419 -0.4440 -0.0504
  675TMC3    O210049   1.887   1.848   0.892  0.1090 -0.4883  0.3802
  676MPD2     C10050   0.554   0.056  10.778  0.0679 -0.2965 -0.3807
  676MPD2    C110051   0.466   0.007  10.868 -0.7928 -0.2356  0.4294
  676MPD2    C210052   0.409   4.614  10.862  0.0023 -0.2018 -0.3778
  676MPD2    C310053   0.439   4.537  10.749 -0.7148 -0.1186 -0.3120
  676MPD2    C410054   0.524   4.591  10.658  0.4244  0.4212 -0.3518
  676MPD2    C510055   0.572   4.720  10.666 -0.3117 -0.0160  0.6867
  676MPD2     H10056   0.334   4.576  10.930  0.3132 -1.1510 -0.5705
  676MPD2    H110057   0.562   4.533  10.575 -0.6936  0.1799 -0.6944
  676MPD2    H210058   0.609   0.148  10.792  0.8424 -0.8383  0.1344
  676MPD2    H310059   0.650   0.016  10.596 -1.1579  1.0094  0.1800
  676MPD2     N10060   0.366   4.428  10.709 -0.0685 -0.5004  0.7339
  676MPD2    H510061   0.386   4.392  10.617 -1.1406  3.1330 -0.9498
  676MPD2    N110062   0.428   0.083  10.982  0.4290 -0.0654 -0.1489
  676MPD2    H710063   0.347   0.045  11.029  0.4921  0.2640  0.2203
  677TMC3    C110064   0.437   0.234  11.158  0.2065 -0.1458  0.2905
  677TMC3    C210065   0.310   0.206  11.200 -0.0855 -0.3246 -0.3398
  677TMC3    C310066   0.243   0.289  11.290  0.0551  0.1795  0.9531
  677TMC3    C410067   0.500   0.345  11.211  0.0206 -0.1848  0.0640
  677TMC3    C510068   0.428   0.428  11.295 -0.2849 -0.6494  0.3563
  677TMC3    C610069   0.303   0.408  11.336 -0.2883  0.2794  0.1535
  677TMC3     C10070   0.503   0.189  11.041 -0.5492  0.1868 -0.3680
  677TMC3     O10071   0.613   0.239  11.011 -0.2184  0.4264 -0.2298
  677TMC3     H10072   0.243   0.150  11.135  0.4753  0.2531 -1.4192
  677TMC3    H110073   0.608   0.352  11.198 -0.1088  0.9015 -0.4026
  677TMC3    H210074   0.250   0.480  11.397  4.0915  1.4730  2.5554
  677TMC3    C710075   0.486   0.562  11.322 -0.1471 -0.2440  0.0180
  677TMC3    C810076   0.112   0.252  11.336 -0.3631  0.1630  0.1938
  677TMC3    O110077   0.445   0.634  11.410  0.2909  0.1818 -0.5467
  677TMC3    O210078   0.073   0.336  11.415 -0.5893  0.5318 -0.0553
  678MPD2     C10079   0.962   4.393   1.464 -0.0068  0.1147  0.5041
  678MPD2    C110080   0.934   4.347   1.336  0.2415  0.1124 -0.4032
  678MPD2    C210081   0.812   4.349   1.290  0.4451 -0.2090 -0.1760
  678MPD2    C310082   0.708   4.408   1.362  0.3220 -0.3470 -0.2333
  678MPD2    C410083   0.739   4.451   1.484 -0.0482  0.3200  0.3693
  678MPD2    C510084   0.862   4.446   1.536  0.9892  0.1721  0.2145
  678MPD2     H10085   0.790   4.305   1.194  0.4649 -0.6892  0.0350
  678MPD2    H110086   0.662   4.509   1.533 -1.4875 -1.5389  0.2954
  678MPD2    H210087   1.064   4.402   1.500 -0.9048  0.4404  2.9336
  678MPD2    H310088   0.879   4.499   1.629  0.7525 -1.2372  1.0530
  678MPD2     N10089   0.582   4.411   1.294  0.5121 -0.4741  0.4688
  678MPD2    H510090   0.584   4.382   1.197  1.1687 -0.1472  0.3847
  678MPD2    N110091   1.038   4.293   1.247  0.2210  0.0404 -0.3984
  678MPD2    H710092   1.002   4.274   1.154 -2.1559 -0.7529  0.6648
  679TMC3    C110093   1.502   4.245   1.147 -0.8194  0.4305 -0.0017
  679TMC3    C210094   1.387   4.198   1.208 -0.2990  0.7153  0.1719
  679TMC3    C310095   1.266   4.248   1.170 -0.5639  0.5186 -0.3593
  679TMC3    C410096   1.491   4.323   1.037 -0.3786  0.0556 -1.1815
  679TMC3    C510097   1.369   4.365   0.998 -0.0919  0.1692  0.5745
  679TMC3    C610098   1.250   4.324   1.060  0.2743  0.2682  0.1814
  679TMC3     C10099   1.634   4.198   1.179  0.0449 -0.3040 -0.0226
  679TMC3     O10100   1.654   4.076   1.172  0.5563  0.1904 -0.0627
  679TMC3     H10101   1.380   4.124   1.287 -2.3217  0.5534 -0.1620
  679TMC3    H110102   1.582   4.368   0.998  0.1751  0.6161  0.7283
  679TMC3    H210103   1.153   4.369   1.041 -0.5554 -2.1027 -1.2236
  679TMC3    C710104   1.358   4.430   0.869 -0.9455 -0.2972 -0.1515
  679TMC3    C810105   1.168   4.258   1.278  0.3998 -0.6570 -0.2714
  679TMC3    O110106   1.250   4.486   0.857 -0.0800  0.7062 -0.6780
  679TMC3    O210107   1.215   4.266   1.393  0.7906 -0.1297  0.4049
  680MPD2     C10108   1.663   3.729  13.504 -0.1336  0.1134  0.6759
  680MPD2    C110109   1.706   3.700  13.635  0.0715  0.2564 -0.3750
  680MPD2    C210110   1.804   3.777  13.697 -0.5488 -0.7449 -0.0995
  680MPD2    C310111   1.830   3.895  13.637 -0.0729 -0.1168  0.4768
  680MPD2    C410112   1.770   3.935  13.519 -0.1940 -0.0271  0.7784
  680MPD2    C510113   1.685   3.850  13.456 -0.0302  0.3046  0.2011
  680MPD2     H10114   1.841   3.753  13.796 -1.7937 -2.5362 -0.0603
  680MPD2    H110115   1.792   4.034  13.481  2.6977 -1.5544 -1.5776
  680MPD2    H210116   1.618   3.656  13.438 -0.4006  1.4596 -0.6235
  680MPD2    H310117   1.648   3.876  13.357  0.1832 -0.0699  0.0243
  680MPD2     N10118   1.929   3.992  13.692 -0.1397 -0.3522 -0.0390
  680MPD2    H510119   1.932   4.086  13.653 -3.1902 -0.3828 -0.3565
  680MPD2    N110120   1.678   3.578  13.695 -0.3230 -0.2934 -0.4252
  680MPD2    H710121   1.730   3.557  13.780  0.4937  0.7458 -0.6560
  681TMC3    C110122   1.558   3.381  13.745 -0.1535 -0.4085  0.5914
  681TMC3    C210123   1.602   3.375  13.872 -0.0820  0.1959  0.0544
  681TMC3    C310124   1.579   3.257  13.934  0.0781  0.3930  0.0302
  681TMC3    C410125   1.531   3.267  13.669  0.6385 -0.9686  0.7834
  681TMC3    C510126   1.524   3.148  13.740 -0.5695 -0.5172  1.0889
  681TMC3    C610127   1.536   3.145  13.873 -0.6950  0.1720  0.1465
  681TMC3     C10128   1.570   3.500  13.660  0.5126 -0.3748 -0.3973
  681TMC3     O10129   1.510   3.511  13.558 -0.2791  0.1593  0.1714
  681TMC3     H10130   1.633   3.462  13.929  1.6070 -0.3948  0.0317
  681TMC3    H110131   1.507   3.278  13.564  0.1167  1.2401  1.1222
  681TMC3    H210132   1.552   3.047  13.917  0.6207 -0.4537 -1.6901
  681TMC3    C710133   1.561   3.031  13.666  0.2249 -0.8534  0.5725
  681TMC3    C810134   1.589   3.250  14.078  0.6781 -0.9712 -0.0723
  681TMC3    O110135   1.514   2.921  13.693  0.0163 -0.3009 -0.2108
  681TMC3    O210136   1.555   3.145  14.127  0.3061 -0.8014  0.0211
  682MPD2     C10137   4.222   0.346  10.542 -0.4453 -0.2105 -0.5535
  682MPD2    C110138   4.115   0.271  10.504  0.2467  0.1032 -0.1922
  682MPD2    C210139   3.996   0.287  10.565 -0.0711 -0.5227  0.8363
  682MPD2    C310140   3.990   0.366  10.683  0.3812 -0.4537  0.8087
  682MPD2    C410141   4.099   0.446  10.721  0.2586  0.4107  0.2382
  682MPD2    C510142   4.212   0.430  10.648 -0.6290 -0.6430  0.1030
  682MPD2     H10143   3.918   0.221  10.529  0.5358 -0.2749 -0.9754
  682MPD2    H110144   4.108   0.509  10.809 -1.7100  2.2596 -0.8822
  682MPD2    H210145   4.317   0.350  10.492  0.2532 -1.8322  0.6416
  682MPD2    H310146   4.304   0.474  10.686 -0.0128 -0.5840 -1.4600
  682MPD2     N10147   3.882   0.385  10.776 -0.4176 -0.0076  0.0049
  682MPD2    H510148   3.898   0.435  10.862 -1.3926 -1.4995  1.0548
  682MPD2    N110149   4.123   0.163  10.409  0.2507  0.8330  0.3899
  682MPD2    H710150   4.034   0.137  10.367  1.0563  0.0579 -0.8327
  683TMC3    C110151   3.602   0.343  11.076 -0.1309  0.3261  0.3647
  683TMC3    C210152   3.507   0.245  11.059  0.2239  0.2351 -0.6285
  683TMC3    C310153   3.481   0.201  10.930  0.7685  0.4773  0.3005
  683TMC3    C410154   3.689   0.385  10.978 -0.3565  0.0716 -1.4937
  683TMC3    C510155   3.652   0.344  10.852  0.2471 -0.1521  0.3033
  683TMC3    C610156   3.551   0.255  10.826  0.5538  0.4038 -0.7022
  683TMC3     C10157   3.650   0.365  11.216  0.4471  0.5905 -0.4905
  683TMC3     O10158   3.670   0.480  11.251  0.1544  0.3971  0.1308
  683TMC3     H10159   3.434   0.233  11.139  0.0531  1.3530 -0.6151
  683TMC3    H110160   3.780   0.436  11.007 -0.4753 -0.0228 -0.9651
  683TMC3    H210161   3.531   0.214  10.728 -0.5330  0.7631 -0.6347
  683TMC3    C710162   3.757   0.339  10.747  0.4722 -0.5537 -0.3571
  683TMC3    C810163   3.427   0.066  10.913  0.1867 -0.3670  0.8402
  683TMC3    O110164   3.719   0.309  10.633  0.1263 -0.2596 -0.4099
  683TMC3    O210165   3.388   0.047  10.799 -0.0687  0.2327 -0.7044
  684MPD2     C10166   2.050   3.864  16.634  0.4102 -0.0834  0.1286
  684MPD2    C110167   2.019   3.925  16.515 -0.9801  0.1649  0.0424
  684MPD2    C210168   2.068   4.058  16.504 -0.3630  0.0372 -0.3796
  684MPD2    C310169   2.135   4.125  16.605 -0.1316  0.1763  0.4112
  684MPD2    C410170   2.150   4.063  16.725  0.3878 -0.2312 -1.1733
  684MPD2    C510171   2.109   3.933  16.738 -0.3275 -0.4499  0.4754
  684MPD2     H10172   2.062   4.107  16.408  0.4505  0.9591  0.0475
  684MPD2    H110173   2.201   4.099  16.814 -2.7959  0.1784  0.4831
  684MPD2    H210174   2.017   3.767  16.669 -1.3158  0.6310  0.4979
  684MPD2    H310175   2.134   3.885  16.832 -1.5669 -1.1235  0.4611
  684MPD2     N10176   2.167   4.258  16.603  0.4404 -0.2258 -0.3505
  684MPD2    H510177   2.197   4.289  16.695 -0.4602  1.2189 -0.5505
  684MPD2    N110178   1.945   3.872  16.405 -0.7694 -0.0080  0.0437
  684MPD2    H710179   1.931   3.945  16.336 -0.0823  0.6416  0.5831
  685TMC3    C110180   1.897   3.713  16.258 -0.2495  0.0941 -0.0703
  685TMC3    C210181   1.839   3.816  16.187  0.5102  0.3520 -0.8706
  685TMC3    C310182   1.874   3.841  16.051 -0.4439  0.2080  0.0649
  685TMC3    C410183   1.996   3.637  16.194 -0.5145 -0.1597  0.5423
  685TMC3    C510184   2.034   3.656  16.064  0.1379 -0.7087 -0.0395
  685TMC3    C610185   1.977   3.763  15.996  0.7713 -0.1218  0.3987
  685TMC3     C10186   1.936   3.742  16.389 -0.3483  0.1169 -0.2113
  685TMC3     O10187   1.957   3.647  16.459  0.2490 -0.4010  0.3858
  685TMC3     H10188   1.746   3.853  16.229  0.3092 -0.9566 -0.1752
  685TMC3    H110189   2.032   3.550  16.247 -0.5330 -1.4426 -1.5265
  685TMC3    H210190   1.998   3.779  15.891 -1.2809 -1.6767 -0.2624
  685TMC3    C710191   2.175   3.630  16.046 -0.5747  0.0074  0.2408
  685TMC3    C810192   1.785   3.917  15.969 -0.2165  0.1314  0.1951
  685TMC3    O110193   2.233   3.555  16.124  0.5124 -0.7291  0.0480
  685TMC3    O210194   1.801   3.896  15.848  0.1999 -0.5193 -0.5908
  686MPD2     C10195   3.472   3.770  15.474 -0.9948  0.0622 -0.1602
  686MPD2    C110196   3.476   3.778  15.610  0.6019 -0.4409 -0.2515
  686MPD2    C210197   3.582   3.711  15.668  0.0311  0.1855 -0.1591
  686MPD2    C310198   3.675   3.635  15.601 -0.0644  0.6949  0.1595
  686MPD2    C410199   3.672   3.641  15.464 -0.2157 -0.6573  0.6694
  686MPD2    C510200   3.571   3.718  15.400 -0.0642  0.2858 -0.6999
  686MPD2     H10201   3.591   3.706  15.776  0.4915 -2.2233 -0.3043
  686MPD2    H110202   3.734   3.583  15.397  0.3101  0.5056  0.1584
  686MPD2    H210203   3.402   3.831  15.418 -0.8282 -3.1552 -3.9428
  686MPD2    H310204   3.571   3.720  15.292  0.3838  1.3421 -0.6868
  686MPD2     N10205   3.755   3.548  15.674 -0.0326 -0.4111  0.3640
  686MPD2    H510206   3.772   3.573  15.771 -1.3269 -2.4017  1.0983
  686MPD2    N110207   3.375   3.847  15.676  0.5829 -0.8796 -0.0162
  686MPD2    H710208   3.314   3.898  15.613  0.2763 -1.7414 -0.4157
  687TMC3    C110209   3.769   3.339  15.757  0.3393 -0.5376  0.3586
  687TMC3    C210210   3.646   3.279  15.780 -0.3344 -0.1496  0.5100
  687TMC3    C310211   3.600   3.274  15.910 -0.5217  0.2030  0.5487
  687TMC3    C410212   3.856   3.379  15.857  0.6611 -0.4702 -0.7517
  687TMC3    C510213   3.802   3.381  15.984  0.0587 -0.7555  0.0878
  687TMC3    C610214   3.679   3.325  16.012  0.6052  0.1017 -0.1881
  687TMC3     C10215   3.764   3.415  15.637 -0.9149 -0.1622 -0.3266
  687TMC3     O10216   3.722   3.354  15.540  0.0391 -0.5031 -0.1212
  687TMC3     H10217   3.586   3.226  15.707 -0.8573 -0.0614  0.8798
  687TMC3    H110218   3.944   3.435  15.827 -0.0162  0.4170 -1.1055
  687TMC3    H210219   3.639   3.335  16.112  1.5199 -0.1143  0.2006
  687TMC3    C710220   3.881   3.433  16.094 -0.4046  0.3802  0.7751
  687TMC3    C810221   3.453   3.290  15.919 -0.0911  0.0828  0.0466
  687TMC3    O110222   3.827   3.466  16.197 -0.4794 -0.1160 -0.3254
  687TMC3    O210223   3.396   3.270  16.026 -0.4536  0.0244  0.8046
  688MPD2     C10224   2.423   2.802  17.307 -0.0889 -0.2535 -0.1391
  688MPD2    C110225   2.463   2.674  17.333  0.0614 -0.4980 -0.0310
  688MPD2    C210226   2.543   2.608  17.243 -0.1103  0.1045 -0.0378
  688MPD2    C310227   2.583   2.660  17.126 -0.4943  0.4124  0.3216
  688MPD2    C410228   2.534   2.782  17.094 -0.0489  0.0898  0.3538
  688MPD2    C510229   2.462   2.853  17.187  0.5296  0.1058 -0.5090
  688MPD2     H10230   2.587   2.515  17.276  0.4142  0.0365 -0.9285
  688MPD2    H110231   2.552   2.841  17.004  0.9704 -0.8266 -0.0502
  688MPD2    H210232   2.360   2.857  17.376  0.3911  1.1216 -0.7987
  688MPD2    H310233   2.449   2.957  17.159  0.2387  0.3631  0.5821
  688MPD2     N10234   2.672   2.599  17.034  0.0315  0.2329 -0.0188
  688MPD2    H510235   2.704   2.666  16.965  1.0676  1.0582  1.2541
  688MPD2    N110236   2.439   2.609  17.462 -0.4514 -0.3432  0.4219
  688MPD2    H710237   2.474   2.514  17.476  2.2392  0.4665 -0.7958
  689TMC3    C110238   2.334   2.571  17.667 -0.2726  0.2579 -0.3612
  689TMC3    C210239   2.321   2.627   0.056  0.6620  0.5727  0.2917
  689TMC3    C310240   2.269   2.554   0.156  0.0324  0.5399  0.1812
  689TMC3    C410241   2.326   2.433  17.654  0.4326  0.1939 -0.0953
  689TMC3    C510242   2.316   2.358   0.033  0.2739 -0.7747 -0.2123
  689TMC3    C610243   2.286   2.416   0.161  0.3605  0.0122 -0.3189
  689TMC3     C10244   2.362   2.666  17.560  0.8174 -0.0174 -0.1645
  689TMC3     O10245   2.317   2.779  17.570  0.3316 -0.8968 -0.2568
  689TMC3     H10246   2.353   2.730   0.073 -0.8220  0.8061  1.7111
  689TMC3    H110247   2.343   2.385  17.558 -0.3817  3.6048 -1.9697
  689TMC3    H210248   2.284   2.361   0.254  0.4387 -1.5794 -1.2697
  689TMC3    C710249   2.260   2.220   0.016 -0.7374  0.2198  0.2220
  689TMC3    C810250   2.238   2.618   0.283 -0.7125 -0.7691 -0.0459
  689TMC3    O110251   2.245   2.161   0.121  0.6802  0.6756  0.0553
  689TMC3    O210252   2.229   2.546   0.386 -0.1464 -0.1623  0.3785
  690MPD2     C10253   4.425   0.359  15.788 -0.2767  0.1041 -0.0149
  690MPD2    C110254   4.539   0.289  15.822 -0.0988  0.0142  0.7296
  690MPD2    C210255   4.650   0.308  15.747 -0.5041  0.2598  0.1739
  690MPD2    C310256   4.648   0.382  15.626  0.8757  0.5965  0.4231
  690MPD2    C410257   4.529   0.441  15.593 -0.4013  0.5232 -0.2852
  690MPD2    C510258   4.424   0.441  15.676  0.2146  0.2854 -0.7874
  690MPD2     H10259   0.009   0.263  15.781  1.2380  2.7661 -1.2938
  690MPD2    H110260   4.520   0.491  15.497 -0.1200 -0.3770 -0.7812
  690MPD2    H210261   4.337   0.364  15.852 -1.0172  1.6822 -1.1284
  690MPD2    H310262   4.332   0.495  15.656  0.1674  0.0186 -1.3026
  690MPD2     N10263   0.029   0.385  15.549 -0.0146 -0.5693  0.2123
  690MPD2    H510264   0.109   0.331  15.582 -0.8224 -1.9263 -0.0617
  690MPD2    N110265   4.555   0.194  15.932 -0.2890 -0.0514  0.1242
  690MPD2    H710266   4.648   0.168  15.962  0.4115  1.1313 -1.0660
  691TMC3    C110267   4.506   0.068  16.122  0.0232 -0.3736  1.1690
  691TMC3    C210268   4.393   0.022  16.187 -0.2482 -0.1315  0.4740
  691TMC3    C310269   4.371   4.623  16.203 -0.1315 -0.5174  0.3150
  691TMC3    C410270   4.603   4.708  16.081 -0.8692  0.3194  0.0897
  691TMC3    C510271   4.581   4.578  16.114 -0.0278 -0.3164  1.0018
  691TMC3    C610272   4.469   4.531  16.183  0.1697 -0.4636  0.0776
  691TMC3     C10273   4.454   0.161  16.022  0.0994  0.2722  0.2824
  691TMC3     O10274   4.333   0.166  16.012  0.1144 -0.3496 -0.1613
  691TMC3     H10275   4.326   0.097  16.227 -2.3308 -2.2786  1.0082
  691TMC3    H110276   4.694   4.732  16.027 -0.9784  0.5904  0.0284
  691TMC3    H210277   4.456   4.425  16.197 -0.4425 -0.2732  0.9485
  691TMC3    C710278   4.688   4.490  16.083 -0.0375 -0.1513  0.0175
  691TMC3    C810279   4.249   4.565  16.170 -0.2346  0.4518  0.4971
  691TMC3    O110280   0.069   4.532  16.094  0.1384 -0.2464  0.6079
  691TMC3    O210281   4.234   4.450  16.208 -0.1892 -0.0436 -0.5359
  692TMC3    C110282   2.061   0.869  15.967 -0.5534  0.6273  0.0432
  692TMC3    C210283   2.158   0.883  16.066  0.1777  0.0966 -0.3343
  692TMC3    C310284   2.230   0.768  16.108  0.3115 -0.1311  0.5318
  692TMC3    C410285   2.036   0.752  15.909 -0.1381 -0.0788 -0.4343
  692TMC3    C510286   2.104   0.638  15.957  0.0523  0.2646  0.2367
  692TMC3    C610287   2.195   0.644  16.054  0.0485  0.0243  0.0583
  692TMC3     C10288   1.943   0.955  15.971 -0.8633 -0.0575  0.5503
  692TMC3     O10289   1.847   0.939  15.897  0.6959 -0.1767  0.3212
  692TMC3     H10290   2.202   0.982  16.078 -0.3671  0.5579 -2.2690
  692TMC3    H110291   1.960   0.739  15.833 -0.7746  0.3212  0.1343
  692TMC3    H210292   2.264   0.563  16.069 -0.8523 -0.2475  2.5865
  692TMC3    C710293   2.054   0.508  15.922  0.0782  0.2722  0.5782
  692TMC3    C810294   2.270   0.765  16.250 -0.1296 -0.4694 -0.0195
  692TMC3    O110295   1.997   0.485  15.814 -0.2213 -0.5566  0.2642
  692TMC3    O210296   2.296   0.658  16.303 -0.1497 -0.6449  0.5500
  693MPD2     C10297   1.442   4.451  10.519  0.0258  0.6497  0.3690
  693MPD2    C110298   1.412   4.343  10.599  0.2405 -0.3330 -0.2169
  693MPD2    C210299   1.498   4.309  10.701  0.4455  0.5220  0.0823
  693MPD2    C310300   1.608   4.395  10.731 -0.2311 -0.7634 -0.1053
  693MPD2    C410301   1.636   4.502  10.649 -0.6537 -0.6168 -0.0135
  693MPD2    C510302   1.561   4.520  10.537  0.8742  0.4947 -0.0505
  693MPD2     H10303   1.482   4.223  10.765 -1.4521  0.4103 -0.5440
  693MPD2    H110304   1.719   4.570  10.667 -1.3338  0.4127 -0.7618
  693MPD2    H210305   1.384   4.470  10.430  1.2123 -2.3011 -1.0240
  693MPD2    H310306   1.577   4.605  10.471 -0.4380 -0.6493 -1.8514
  693MPD2     N10307   1.680   4.389  10.846  0.1535 -0.0962 -0.0853
  693MPD2    H510308   1.731   4.473  10.870  0.7049 -0.2423 -0.7488
  693MPD2    N110309   1.289   4.273  10.579  0.1181  0.1844 -0.4157
  693MPD2    H710310   1.225   4.295  10.503 -2.0269  0.1043  1.3644
  694TMC3    C110311   1.097   4.188  10.658  0.1986 -0.2946 -0.6123
  694TMC3    C210312   1.061   4.135  10.536 -0.2300 -0.0918  0.5254
  694TMC3    C310313   0.933   4.082  10.536  0.2142 -1.0890  0.7342
  694TMC3    C410314   1.030   4.179  10.779  0.0490 -0.0854  0.9959
  694TMC3    C510315   0.906   4.129  10.767 -0.1909  0.1676 -0.1300
  694TMC3    C610316   0.859   4.081  10.649  0.2676 -0.0890  0.4896
  694TMC3     C10317   1.240   4.190  10.675 -0.6250  1.0118 -0.4958
  694TMC3     O10318   1.276   4.161  10.782 -0.2124  0.2429 -0.8954
  694TMC3     H10319   1.129   4.132  10.452  0.5870  2.1050  1.1229
  694TMC3    H110320   1.082   4.216  10.866  1.6293  0.7919 -0.3008
  694TMC3    H210321   0.761   4.036  10.637  0.9055 -1.5563  0.7612
  694TMC3    C710322   0.848   4.061  10.878  0.4864 -0.3003 -0.1640
  694TMC3    C810323   0.923   3.958  10.458  0.3291  0.0710  0.0824
  694TMC3    O110324   0.792   3.957  10.856  0.6221  0.6882 -0.3010
  694TMC3    O210325   0.860   3.869  10.517  0.2323  0.7198  0.5195
  695MPD2     C10326   2.784   0.957  13.387 -0.2684  0.4903 -0.3196
  695MPD2    C110327   2.724   0.958  13.512 -0.1005  0.2046  1.1842
  695MPD2    C210328   2.591   0.980  13.526 -0.5103 -0.2671  0.1431
  695MPD2    C310329   2.504   1.000  13.422  0.1354  0.4491 -0.3759
  695MPD2    C410330   2.564   0.982  13.296 -0.1215  0.7134  0.1202
  695MPD2    C510331   2.698   0.973  13.278  0.4020 -0.6866  0.1822
  695MPD2     H10332   2.552   0.982  13.627  0.9648  0.3650  0.7048
  695MPD2    H110333   2.512   0.981  13.201 -3.4616  0.5511  1.9648
  695MPD2    H210334   2.890   0.950  13.370 -0.1285  0.9420  0.3484
  695MPD2    H310335   2.742   0.966  13.180 -0.2150 -2.9381  0.0676
  695MPD2     N10336   2.373   1.034  13.441 -0.2062 -0.4501  0.3006
  695MPD2    H510337   2.349   1.069  13.534 -1.5677 -0.5339 -0.0136
  695MPD2    N110338   2.796   0.948  13.631  0.2620 -0.8584 -0.4059
  695MPD2    H710339   2.739   0.940  13.715 -3.1055 -0.8167 -2.7087
  696TMC3    C110340   2.150   1.112  13.375 -0.1261  0.2944  0.0326
  696TMC3    C210341   2.096   1.072  13.491 -0.2140 -0.0782 -0.0009
  696TMC3    C310342   1.966   1.118  13.510  0.0351 -0.0919  0.4583
  696TMC3    C410343   2.087   1.181  13.269 -0.1619  0.0444  0.3674
  696TMC3    C510344   1.967   1.239  13.300  0.4198  0.4860  0.2582
  696TMC3    C610345   1.905   1.199  13.419 -0.0803  0.2788 -0.2219
  696TMC3     C10346   2.282   1.062  13.340  0.4195 -0.3011  0.1617
  696TMC3     O10347   2.286   1.038  13.219  0.5590  0.2099  0.4286
  696TMC3     H10348   2.150   1.004  13.556 -1.5381 -0.0951  1.0753
  696TMC3    H110349   2.136   1.226  13.183 -2.3005 -1.8483 -1.8335
  696TMC3    H210350   1.809   1.246  13.437 -1.3757 -1.9631 -1.2386
  696TMC3    C710351   1.971   1.383  13.286 -0.5036  0.3430  0.0494
  696TMC3    C810352   1.953   1.153  13.646 -0.3571 -0.3354 -0.0638
  696TMC3    O110353   1.993   1.440  13.180 -0.2845 -0.2376  0.2076
  696TMC3    O210354   1.944   1.276  13.657 -0.3029 -0.2519  0.3519
  697MPD2     C10355   0.856   2.764  15.366  0.1811 -0.8190 -0.2384
  697MPD2    C110356   0.911   2.724  15.248 -0.1598  0.3801  0.1314
  697MPD2    C210357   1.020   2.795  15.193  0.1832  0.0272  0.4425
  697MPD2    C310358   1.073   2.912  15.259  0.5310  0.0351 -0.3217
  697MPD2    C410359   1.003   2.959  15.368 -0.3921 -0.1334  0.0910
  697MPD2    C510360   0.907   2.875  15.426  0.2546  0.0325  0.7665
  697MPD2     H10361   1.049   2.777  15.090 -2.1250 -1.7794  0.0967
  697MPD2    H110362   1.013   3.059  15.409 -0.6964  0.5711 -1.5646
  697MPD2    H210363   0.781   2.709  15.423 -1.8976  2.2725 -0.0345
  697MPD2    H310364   0.849   2.907  15.513  0.7170 -0.3173  1.2030
  697MPD2     N10365   1.190   2.972  15.202  0.1568 -0.8528 -0.4326
  697MPD2    H510366   1.221   2.936  15.112  0.5646  0.5906 -0.8654
  697MPD2    N110367   0.874   2.607  15.178 -0.0135 -0.1038  0.8447
  697MPD2    H710368   0.907   2.609  15.082  1.9799 -0.0455  1.5211
  698TMC3    C110369   1.376   3.110  15.203 -0.3518  0.2892  0.0319
  698TMC3    C210370   1.439   3.217  15.265  0.0681  0.2155 -0.9463
  698TMC3    C310371   1.539   3.280  15.194  0.7653  0.1329  0.1070
  698TMC3    C410372   1.409   3.073  15.078 -0.1054  0.4185  0.2724
  698TMC3    C510373   1.499   3.146  15.013  0.6602 -0.4435  0.7946
  698TMC3    C610374   1.573   3.250  15.064  0.1976 -0.1712  0.1443
  698TMC3     C10375   1.265   3.068  15.273 -1.0182 -0.7278  0.2183
  698TMC3     O10376   1.237   3.109  15.387 -0.3722 -0.6010 -0.3146
  698TMC3     H10377   1.411   3.273  15.353  0.1201 -0.8163 -0.2810
  698TMC3    H110378   1.387   2.973  15.042 -1.3161  0.6926  0.2336
  698TMC3    H210379   1.630   3.321  15.005 -0.0514 -0.4785 -0.4661
  698TMC3    C710380   1.551   3.093  14.885  0.1000  0.1292  0.3334
  698TMC3    C810381   1.582   3.414  15.249 -0.5354 -0.1361 -0.3865
  698TMC3    O110382   1.664   3.134  14.862  0.0582 -0.6783 -0.3267
  698TMC3    O210383   1.499   3.464  15.324 -0.0847  0.0373  0.4933
  699TMC3    C110384   1.700   1.090  13.130  1.0453 -0.4516 -0.1369
  699TMC3    C210385   1.795   0.996  13.166 -0.0381  1.0132 -0.3011
  699TMC3    C310386   1.741   0.892  13.238  0.8004  0.5971 -0.0148
  699TMC3    C410387   1.574   1.099  13.182  0.7346  0.3548  0.4967
  699TMC3    C510388   1.520   0.985  13.235 -0.1272  0.0576 -0.4632
  699TMC3    C610389   1.604   0.885  13.271  0.2884  0.6607 -0.0267
  699TMC3     C10390   1.716   1.173  13.010 -0.0927 -0.0024 -0.9466
  699TMC3     O10391   1.633   1.255  12.989  0.0603  0.4151 -0.4116
  699TMC3     H10392   1.900   1.010  13.142  0.4128 -0.1143  1.0018
  699TMC3    H110393   1.508   1.182  13.161  2.1978  1.5381  0.5901
  699TMC3    H210394   1.561   0.793  13.308  0.6566  0.0488 -1.1269
  699TMC3    C710395   1.381   0.963  13.257  0.1485  0.2056  0.1050
  699TMC3    C810396   1.817   0.795  13.312  0.1977  0.1396 -0.2761
  699TMC3    O110397   1.347   0.872  13.335  0.1460  0.1864  0.3878
  699TMC3    O210398   1.753   0.727  13.392 -0.2022 -0.6240 -0.6960
  700TMC3    C110399   0.486   3.323  17.494  0.2084 -0.8686  0.6819
  700TMC3    C210400   0.532   3.208  17.431  0.3162 -0.0230  0.4178
  700TMC3    C310401   0.602   3.119  17.503 -0.0708 -0.5806  0.5815
  700TMC3    C410402   0.528   3.353  17.620 -0.0501 -0.4555  0.4221
  700TMC3    C510403   0.584   3.257  17.694 -0.3891  0.5077 -0.1481
  700TMC3    C610404   0.637   3.145  17.637  0.1069 -0.0497  0.3613
  700TMC3     C10405   0.450   3.425  17.392  0.2647 -0.0556  0.0514
  700TMC3     O10406   0.371   3.381  17.307 -0.2286  0.3653  0.1267
  700TMC3     H10407   0.512   3.194  17.326  2.5535 -2.8496  0.3799
  700TMC3    H110408   0.479   3.438  17.665 -1.3523 -1.2061  0.4326
  700TMC3    H210409   0.681   3.068  17.699 -1.6708 -0.2049  1.4250
  700TMC3    C710410   0.604   3.277   0.102  1.1761  0.0621 -0.0067
  700TMC3    C810411   0.672   3.010  17.425 -0.4529 -0.1269  0.7550
  700TMC3    O110412   0.598   3.175   0.169  0.0833  0.1457  0.0044
  700TMC3    O210413   0.626   2.979  17.321  0.3564 -0.1289  0.4372
  701TMC3    C110414   0.116   2.353  15.613  0.1797 -1.2326 -0.2157
  701TMC3    C210415   0.130   2.310  15.484 -0.7771  0.0118 -0.3052
  701TMC3    C310416   0.178   2.402  15.390 -0.2119  0.5913  0.3252
  701TMC3    C410417   0.148   2.483  15.650 -0.7164 -0.6351  0.1744
  701TMC3    C510418   0.195   2.575  15.554 -0.7126  0.2226 -0.0372
  701TMC3    C610419   0.205   2.532  15.423 -1.0052  0.0192 -0.3347
  701TMC3     C10420   0.125   2.260  15.726 -0.3414  0.5258  0.5673
  701TMC3     O10421   0.185   2.303  15.821  0.0726  0.3147  0.1797
  701TMC3     H10422   0.108   2.206  15.462 -0.5069  0.0681 -0.8222
  701TMC3    H110423   0.137   2.525  15.749 -2.5382 -0.9630  0.1019
  701TMC3    H210424   0.247   2.595  15.345  0.7503 -1.2838 -0.4406
  701TMC3    C710425   0.318   2.644  15.595  1.1213 -0.0325  0.7071
  701TMC3    C810426   0.236   2.342  15.270 -0.1437 -0.2732 -0.2065
  701TMC3    O110427   0.352   2.741  15.533  0.0520 -0.5953  0.2170
  701TMC3    O210428   0.342   2.401  15.238 -0.4203 -0.5636  0.5366
  702MPD2     C10429   4.710   0.008  10.331 -0.6828 -0.4072  0.5107
  702MPD2    C110430   0.091   4.671  10.346 -0.6207  0.0981 -0.2156
  702MPD2    C210431   0.210   0.012  10.363  0.0455  0.1754 -0.2715
  702MPD2    C310432   0.199   0.149  10.376  0.0844  0.2691 -0.4355
  702MPD2    C410433   0.076   0.211  10.383 -0.2206  0.0549  0.0301
  702MPD2    C510434   4.695   0.143  10.348  0.0248 -0.6037 -0.2499
  702MPD2     H10435   0.308   4.699  10.371 -0.5638 -0.8698  0.9655
  702MPD2    H110436   0.068   0.318  10.395  0.2799  0.1518 -0.5000
  702MPD2    H210437   4.618   4.692  10.304 -0.5809  0.1759 -0.9052
  702MPD2    H310438   4.601   0.196  10.333  0.8403  1.1524  0.8159
  702MPD2     N10439   0.307   0.238  10.384  0.3061 -0.8383 -0.0505
  702MPD2    H510440   0.285   0.336  10.394 -3.2809 -1.5792 -0.8262
  702MPD2    N110441   0.071   4.530  10.350 -0.1317  0.0118 -0.3296
  702MPD2    H710442   4.709   4.499  10.350  0.3427 -1.4315 -1.4259
  703TMC3    C110443   0.527   0.291  10.463  0.8319 -0.8190  0.1420
  703TMC3    C210444   0.477   0.350  10.577 -0.1172  0.3333  0.1477
  703TMC3    C310445   0.567   0.400  10.670 -0.0690  0.7892 -0.4274
  703TMC3    C410446   0.662   0.270  10.449 -0.5762  0.2039 -0.4566
  703TMC3    C510447   0.745   0.303  10.554  0.5707 -0.2321  0.6888
  703TMC3    C610448   0.702   0.381  10.660  0.6274  0.6435  0.1447
  703TMC3     C10449   0.438   0.203  10.386  0.0273  0.4156  0.2095
  703TMC3     O10450   0.494   0.101  10.352  0.2303 -0.1967 -0.2760
  703TMC3     H10451   0.371   0.372  10.583 -0.6109 -1.9221 -0.2559
  703TMC3    H110452   0.708   0.227  10.361  0.4007  1.2540 -0.4536
  703TMC3    H210453   0.774   0.399  10.739  2.4443 -2.9927 -0.7176
  703TMC3    C710454   0.882   0.316  10.528 -0.3372  0.7069 -0.2923
  703TMC3    C810455   0.531   0.490  10.773  0.9265 -0.0090 -0.3248
  703TMC3    O110456   0.925   0.424  10.554  0.4955 -0.5092 -0.3642
  703TMC3    O210457   0.622   0.562  10.808  0.0125  0.5416 -0.6551
  704TMC3    C110458   2.305   2.742  12.679  0.1769 -0.0567 -0.3094
  704TMC3    C210459   2.432   2.797  12.663 -0.4411 -0.5856 -0.0738
  704TMC3    C310460   2.527   2.771  12.755  0.3906  0.0927  0.6433
  704TMC3    C410461   2.280   2.673  12.791  0.4673  0.2403  0.8271
  704TMC3    C510462   2.382   2.643  12.874  0.1801 -0.0113 -0.3349
  704TMC3    C610463   2.509   2.684  12.855 -0.2937  0.1132 -0.3507
  704TMC3     C10464   2.211   2.746  12.572 -0.9530 -0.1961  0.2525
  704TMC3     O10465   2.097   2.719  12.601  0.1317  0.6694 -0.2857
  704TMC3     H10466   2.454   2.880  12.597  0.0679  0.1601  1.0381
  704TMC3    H110467   2.193   2.607  12.795 -0.4676  1.5164  1.6312
  704TMC3    H210468   2.586   2.653  12.926 -4.2446 -0.5215  3.6941
  704TMC3    C710469   2.374   2.522  12.956  0.1797 -0.8962 -0.2284
  704TMC3    C810470   2.644   2.740  12.682 -0.2074 -0.4654  0.5756
  704TMC3    O110471   2.302   2.435  12.905 -0.1239 -0.0270  0.6342
  704TMC3    O210472   2.631   2.733  12.559 -0.0921  0.1931  0.2547
  705MPD2     C10473   2.491   0.325  16.672  1.1431 -0.5374  0.3139
  705MPD2    C110474   2.429   0.383  16.565 -0.0184 -0.3329  0.8963
  705MPD2    C210475   2.298   0.432  16.570  0.0981 -0.4873  0.0749
  705MPD2    C310476   2.225   0.417  16.678  0.4145  0.0859  0.7863
  705MPD2    C410477   2.288   0.355  16.785  0.3437  0.2449  0.9145
  705MPD2    C510478   2.417   0.313  16.785  0.6077 -0.4679  0.7473
  705MPD2     H10479   2.264   0.484  16.481 -2.8202 -1.0421  0.8544
  705MPD2    H110480   2.238   0.322  16.875 -2.2204  0.7431 -0.3331
  705MPD2    H210481   2.595   0.294  16.681  1.0148 -1.5056 -1.6642
  705MPD2    H310482   2.467   0.289  16.877  0.6598  0.7348  1.0347
  705MPD2     N10483   2.101   0.485  16.694 -0.3062  0.4361  0.2400
  705MPD2    H510484   2.054   0.520  16.611  0.1126 -1.1861 -0.6677
  705MPD2    N110485   2.486   0.396  16.437  0.9680  0.4106  0.0735
  705MPD2    H710486   2.426   0.430  16.363  1.1057  0.6307  0.0637
  706TMC3    C110487   2.727   0.296  16.062 -0.1858 -0.0473  0.4024
  706TMC3    C210488   2.653   0.391  15.995  0.3598  0.0133 -0.3338
  706TMC3    C310489   2.583   0.486  16.058 -0.5870  0.1447  0.4083
  706TMC3    C410490   2.721   0.292  16.199  0.6386  0.0525  0.1488
  706TMC3    C510491   2.640   0.381  16.260  0.2938  0.6112 -0.0710
  706TMC3    C610492   2.573   0.479  16.194 -0.7924 -0.5245 -0.3162
  706TMC3     C10493   2.757   0.175  15.998  0.1369  0.5317  0.0369
  706TMC3     O10494   2.797   0.082  16.070 -0.0367  0.1441 -0.1612
  706TMC3     H10495   2.656   0.400  15.887 -0.8869  2.1319 -0.1850
  706TMC3    H110496   2.761   0.218  16.267 -3.0033 -0.3883  1.8247
  706TMC3    H210497   2.526   0.563  16.244  0.1725  0.9723 -1.9323
  706TMC3    C710498   2.616   0.371  16.401  0.7909 -0.5627 -0.0142
  706TMC3    C810499   2.548   0.609  15.985  0.2073 -0.7286 -0.2024
  706TMC3    O110500   2.715   0.370  16.476 -0.2599  0.3214 -0.1265
  706TMC3    O210501   2.529   0.601  15.866 -0.0755  0.2266 -0.2941
  707TMC3    C110502   2.740   4.030   1.447 -0.1013 -0.0930  0.5034
  707TMC3    C210503   2.818   3.955   1.367 -0.5761  0.6856 -0.6422
  707TMC3    C310504   2.801   3.820   1.372  0.6922 -0.2866 -0.3946
  707TMC3    C410505   2.636   3.973   1.519 -1.0484  0.0773  0.4512
  707TMC3    C510506   2.607   3.838   1.508 -0.4812  0.0139  0.5295
  707TMC3    C610507   2.699   3.757   1.443  0.1788  0.3653 -0.4629
  707TMC3     C10508   2.810   4.150   1.498  0.2553 -0.7170  0.4159
  707TMC3     O10509   2.918   4.173   1.452  0.3247  0.0190 -0.3017
  707TMC3     H10510   2.901   4.002   1.315  1.6518 -1.0984  1.2674
  707TMC3    H110511   2.572   4.041   1.574  2.1860  0.7831  3.3406
  707TMC3    H210512   2.701   3.649   1.451 -1.5953  0.1706 -2.6845
  707TMC3    C710513   2.496   3.779   1.576 -0.5488  0.7557  0.0490
  707TMC3    C810514   2.882   3.738   1.272  0.5659 -0.1558 -0.2235
  707TMC3    O110515   2.444   3.839   1.672 -0.6505  0.6231 -0.1568
  707TMC3    O210516   2.831   3.634   1.236  0.2238 -0.1133 -0.3942
  708MPD2     C10517   0.756   4.175  13.917  0.1165  0.2051  0.1567
  708MPD2    C110518   0.629   4.140  13.956  0.2705 -0.2684  0.1065
  708MPD2    C210519   0.614   4.044  14.052 -0.5701  0.0529  0.0638
  708MPD2    C310520   0.722   3.987  14.120  0.5002  0.4881  0.6757
  708MPD2    C410521   0.848   4.036  14.087 -0.1677  0.0812  0.2101
  708MPD2    C510522   0.861   4.128  13.991 -0.1351 -0.1050 -0.5504
  708MPD2     H10523   0.513   4.024  14.085 -1.0183 -0.6555 -1.7460
  708MPD2    H110524   0.939   4.010  14.141  0.3382 -0.3587 -0.8567
  708MPD2    H210525   0.773   4.270  13.867  1.1666  0.0333  0.1967
  708MPD2    H310526   0.959   4.164  13.960  0.4617  0.1055  1.6297
  708MPD2     N10527   0.694   3.901  14.234 -0.1038 -0.2046  0.4362
  708MPD2    H510528   0.594   3.890  14.248  0.1292 -0.0245  2.1862
  708MPD2    N110529   0.514   4.220  13.926  0.1366 -0.0235  0.2599
  708MPD2    H710530   0.439   4.204  13.992 -0.0924  2.3155  0.5581
  709TMC3    C110531   0.381   4.385  13.828 -0.0592 -0.1751  0.5948
  709TMC3    C210532   0.315   4.348  13.717 -0.0306  0.0095 -0.0817
  709TMC3    C310533   0.183   4.332  13.736 -0.7781 -0.3991  0.3355
  709TMC3    C410534   0.330   4.378  13.950  0.6549 -0.0255 -0.2105
  709TMC3    C510535   0.202   4.331  13.967  0.6298 -0.7782  0.6661
  709TMC3    C610536   0.125   4.311  13.859 -0.2069  0.4507  0.7007
  709TMC3     C10537   0.508   4.309  13.830 -0.7032 -0.6368  1.3063
  709TMC3     O10538   0.577   4.301  13.725 -0.1261 -0.4714 -0.4186
  709TMC3     H10539   0.351   4.354  13.615  3.0190 -1.5581  0.9356
  709TMC3    H110540   0.388   4.413  14.035  2.5052 -0.1816 -1.4113
  709TMC3    H210541   0.023   4.279  13.876 -1.0505  1.3271 -2.6096
  709TMC3    C710542   0.206   4.225  14.067  0.6046 -0.1477  1.0243
  709TMC3    C810543   0.087   4.317  13.616 -0.7059 -0.0664  0.2734
  709TMC3    O110544   0.313   4.217  14.128 -0.1247  0.4352 -0.1319
  709TMC3    O210545   4.702   4.323  13.635 -0.5182 -0.0765  0.0074
  710TMC3    C110546   0.896   0.203   0.339 -1.1051 -0.2770  0.2615
  710TMC3    C210547   0.968   0.291   0.250 -0.8471  0.6379  0.0833
  710TMC3    C310548   1.101   0.260   0.218  0.5358  0.6012  0.0281
  710TMC3    C410549   0.958   0.095   0.390 -0.6725  0.6910 -0.8298
  710TMC3    C510550   1.088   0.066   0.353  0.5283 -0.3579 -0.2130
  710TMC3    C610551   1.160   0.145   0.266  0.3584  0.4920  0.0083
  710TMC3     C10552   0.756   0.230   0.362  0.6081  0.0393 -0.2563
  710TMC3     O10553   0.696   0.302   0.283 -0.3886 -0.3699  0.1640
  710TMC3     H10554   0.920   0.384   0.222 -2.3706  0.1747  1.2080
  710TMC3    H110555   0.898   0.032   0.454 -0.6784  0.8426 -0.6864
  710TMC3    H210556   1.268   0.134   0.269  0.4875  1.5112 -1.0793
  710TMC3    C710557   1.158   4.703   0.448  0.6907 -0.2091 -0.4172
  710TMC3    C810558   1.183   0.361   0.151 -0.6158 -0.0709  1.1298
  710TMC3    O110559   1.099   4.671   0.554  0.1085 -0.5732  0.3280
  710TMC3    O210560   1.282   0.320   0.092 -0.3720  0.1338  0.7524
  711TMC3    C110561   1.040   1.154  15.221 -0.6570 -1.2656  0.1968
  711TMC3    C210562   1.013   1.035  15.285 -0.8976  0.4436  0.6274
  711TMC3    C310563   1.076   1.018  15.403  0.3024  0.2849  0.1813
  711TMC3    C410564   1.113   1.258  15.271 -0.3055 -0.2333  0.9821
  711TMC3    C510565   1.161   1.243  15.395 -0.3330 -0.7222  0.0584
  711TMC3    C610566   1.132   1.128  15.466 -0.1855  0.3873  0.9051
  711TMC3     C10567   0.991   1.158  15.082  0.2606  0.0420 -0.2770
  711TMC3     O10568   0.902   1.079  15.055 -0.0003 -0.4597 -0.0196
  711TMC3     H10569   0.971   0.946  15.238  0.4551  0.7792 -1.1658
  711TMC3    H110570   1.125   1.348  15.212  1.8696 -0.6434  0.8128
  711TMC3    H210571   1.163   1.131  15.570  1.6799 -4.0944  0.4475
  711TMC3    C710572   1.301   1.271  15.403  0.1371  0.1898 -0.9252
  711TMC3    C810573   1.151   0.893  15.409  0.7940 -0.0717 -0.2481
  711TMC3    O110574   1.369   1.195  15.471  0.4111 -0.7337  0.2573
  711TMC3    O210575   1.135   0.803  15.328 -0.3120 -0.2216  0.2622
  712MPD2     C10576   2.498   2.259  13.567 -0.5578 -0.4887  0.3121
  712MPD2    C110577   2.422   2.374  13.540  0.4391 -0.7681 -0.5912
  712MPD2    C210578   2.488   2.494  13.557 -0.7235  0.2421  0.0259
  712MPD2    C310579   2.619   2.503  13.603  0.2079  0.2254  0.2878
  712MPD2    C410580   2.695   2.387  13.630  0.2909  0.2720 -0.6684
  712MPD2    C510581   2.632   2.268  13.606 -0.0125 -0.2214  0.5254
  712MPD2     H10582   2.435   2.584  13.528  1.5247  0.8534 -2.2007
  712MPD2    H110583   2.791   2.394  13.679 -0.7574 -2.9723  1.8750
  712MPD2    H210584   2.456   2.160  13.550  0.2391 -0.6389 -0.7512
  712MPD2    H310585   2.691   2.179  13.619  1.2401  0.6369  0.6831
  712MPD2     N10586   2.680   2.629  13.636  1.0461 -0.3479 -0.0183
  712MPD2    H510587   2.769   2.620  13.683  1.0128  0.7435  0.2493
  712MPD2    N110588   2.293   2.369  13.482 -0.0726  0.4887 -0.2328
  712MPD2    H710589   2.250   2.459  13.461 -1.2336 -0.0018  0.0816
  713TMC3    C110590   2.728   2.865  13.649  0.2073 -0.4864 -0.2311
  713TMC3    C210591   2.861   2.830  13.657 -0.3462  0.6373  0.3537
  713TMC3    C310592   2.940   2.923  13.723  0.3550  0.3105  0.2078
  713TMC3    C410593   2.685   2.988  13.690  0.6933  0.3379 -0.0164
  713TMC3    C510594   2.779   3.079  13.746  0.4059 -0.5965 -0.8539
  713TMC3    C610595   2.905   3.041  13.774  0.9113 -0.0290  0.0020
  713TMC3     C10596   2.630   2.758  13.615  0.2012 -0.2343  0.0257
  713TMC3     O10597   2.516   2.789  13.585 -0.0271  0.3887  0.0848
  713TMC3     H10598   2.906   2.737  13.624 -0.6271  1.0531 -1.1734
  713TMC3    H110599   2.579   3.010  13.681  0.9676  2.1169  1.1454
  713TMC3    H210600   2.984   3.109  13.804  1.2913 -0.2537 -0.4879
  713TMC3    C710601   2.735   3.205  13.810  0.2833  0.0325  0.2937
  713TMC3    C810602   3.077   2.922  13.681 -0.1840  0.7300  0.0717
  713TMC3    O110603   2.812   3.244  13.896  0.4314  1.1237  0.2786
  713TMC3    O210604   3.091   2.955  13.565 -0.1061  0.1179  0.0312
  714MPD2     C10605   4.591   0.936   0.995 -0.0911 -0.1542  0.5960
  714MPD2    C110606   4.523   0.901   1.105  0.5921 -0.1152  0.5849
  714MPD2    C210607   4.433   0.998   1.155 -0.0571 -0.4609  0.1169
  714MPD2    C310608   4.431   1.129   1.104  0.1247  0.1081  0.4230
  714MPD2    C410609   4.497   1.151   0.984 -0.0466  0.4118 -0.2795
  714MPD2    C510610   4.582   1.058   0.934  0.9792 -0.0048 -0.2232
  714MPD2     H10611   4.376   0.985   1.246  0.1489  0.2471  0.3488
  714MPD2    H110612   4.485   1.244   0.929  0.9640 -0.5753 -2.1747
  714MPD2    H210613   4.655   0.863   0.947  1.4099  0.3229  1.9149
  714MPD2    H310614   4.639   1.081   0.844 -0.0039 -1.9484 -1.3493
  714MPD2     N10615   4.350   1.231   1.166  0.2333  0.8747 -0.6726
  714MPD2    H510616   4.289   1.201   1.241 -0.6029 -0.0486 -1.7352
  714MPD2    N110617   4.548   0.766   1.161  0.0548 -0.2658  0.3685
  714MPD2    H710618   4.597   0.700   1.101 -0.6812  1.0465 -1.6644
  715TMC3    C110619   4.573   0.613   1.339  0.1011 -0.4410  0.2659
  715TMC3    C210620   4.637   0.526   1.248  0.3753  0.4865  0.4402
  715TMC3    C310621   4.730   0.440   1.299 -0.4231 -0.1348 -1.2012
  715TMC3    C410622   4.568   0.596   1.476 -1.1393 -0.2623 -0.3200
  715TMC3    C510623   4.644   0.490   1.516 -0.6574 -0.2012 -0.2222
  715TMC3    C610624   4.726   0.414   1.430 -0.4778 -0.4678 -0.2228
  715TMC3     C10625   4.504   0.731   1.286 -0.2133 -0.5885  0.3351
  715TMC3     O10626   4.438   0.800   1.366  0.5576  0.7165  0.4842
  715TMC3     H10627   4.618   0.531   1.142 -2.2325  2.2901  0.9891
  715TMC3    H110628   4.526   0.669   1.544 -0.5177  0.3412 -0.5843
  715TMC3    H210629   0.044   0.333   1.480 -0.6565 -1.3315 -1.4375
  715TMC3    C710630   4.683   0.474   1.655  1.7609  0.4837 -0.2567
  715TMC3    C810631   0.066   0.339   1.221 -0.3142 -0.8122  0.2547
  715TMC3    O110632   0.066   0.464   1.677  0.0121  0.7445 -0.5762
  715TMC3    O210633   0.014   0.317   1.113 -0.0580 -0.4668  0.0205
  716MPD2     C10634   0.270   4.568   9.799 -0.2434  0.3624 -0.2656
  716MPD2    C110635   0.134   4.585   9.780 -0.3606 -0.0289  0.7350
  716MPD2    C210636   0.070   4.508   9.689 -0.1683  0.1457 -1.4811
  716MPD2    C310637   0.130   4.407   9.622 -0.0264  0.7969 -0.9741
  716MPD2    C410638   0.262   4.380   9.648 -0.3067  1.3927  0.2697
  716MPD2    C510639   0.330   4.462   9.732  0.8102 -0.9574 -0.1614
  716MPD2     H10640   4.698   4.524   9.677 -0.5977  0.3801  2.4036
  716MPD2    H110641   0.308   4.304   9.586  0.7675  2.1950  0.0658
  716MPD2    H210642   0.328   4.636   9.860  0.9997 -0.6715 -0.2944
  716MPD2    H310643   0.437   4.448   9.745  0.8685  0.9545  1.4257
  716MPD2     N10644   0.052   4.348   9.525  0.1810 -0.0510 -0.3870
  716MPD2    H510645   4.693   4.384   9.509 -0.1321 -0.1729  1.1935
  716MPD2    N110646   0.064   4.693   9.837  0.3837  0.1119 -0.4507
  716MPD2    H710647   4.702   4.702   9.803  0.8183 -1.4079 -2.0463
  717TMC3    C110648   0.003   4.221   9.327  0.0390 -0.8254 -0.2243
  717TMC3    C210649   4.635   4.300   9.299 -0.6745 -0.4356 -0.2961
  717TMC3    C310650   4.560   4.255   9.189  0.8042 -0.1881  0.0813
  717TMC3    C410651   0.033   4.100   9.268 -0.4827  0.0330 -0.1817
  717TMC3    C510652   4.682   4.059   9.177 -0.4523  0.1389  0.4564
  717TMC3    C610653   4.582   4.137   9.125 -0.5870  1.4127 -0.0581
  717TMC3     C10654   0.092   4.248   9.438 -1.1067 -0.0308 -0.2156
  717TMC3     O10655   0.197   4.182   9.443 -0.4548 -0.2741  0.4980
  717TMC3     H10656   4.611   4.393   9.349 -0.4112  0.1814 -1.3236
  717TMC3    H110657   0.109   4.037   9.313  1.1890  0.9725 -1.6853
  717TMC3    H210658   4.509   4.090   9.059 -1.0835 -0.1044  1.5763
  717TMC3    C710659   4.683   3.916   9.156  0.1445  0.5427  0.6620
  717TMC3    C810660   4.428   4.317   9.171  0.2155 -0.2941  0.1937
  717TMC3    O110661   4.571   3.869   9.124  0.2028  0.6461 -0.1563
  717TMC3    O210662   4.395   4.406   9.247  0.3140  0.3267  0.1041
  718MPD2     C10663   4.164   2.609  13.120 -0.0494 -0.2128 -0.8081
  718MPD2    C110664   4.177   2.568  12.984  0.1685  0.0373 -0.3600
  718MPD2    C210665   4.083   2.499  12.921 -0.0654  0.6222  0.1214
  718MPD2    C310666   3.971   2.469  12.990 -0.3175  0.7103  0.0810
  718MPD2    C410667   3.952   2.514  13.127 -0.3811 -0.7008 -0.1170
  718MPD2    C510668   4.046   2.584  13.187 -0.2676  0.4502 -0.3436
  718MPD2     H10669   4.104   2.460  12.822 -2.7237 -2.4236  0.7502
  718MPD2    H110670   3.871   2.478  13.189 -0.3413 -0.7286 -0.0806
  718MPD2    H210671   4.242   2.659  13.176  0.0826 -0.5027 -0.7347
  718MPD2    H310672   4.042   2.607  13.293  1.1337  1.7921 -0.5742
  718MPD2     N10673   3.874   2.395  12.918 -0.0263  0.2779 -0.3403
  718MPD2    H510674   3.904   2.362  12.826  1.3719  2.0550 -0.5190
  718MPD2    N110675   4.289   2.598  12.904  0.4659 -0.4790  0.2224
  718MPD2    H710676   4.285   2.570  12.807  2.1801 -3.3234  0.9640
  719TMC3    C110677   4.484   2.703  12.814  0.6290 -0.2227  0.2223
  719TMC3    C210678   4.469   2.607  12.709 -0.3924 -0.1052  0.0677
  719TMC3    C310679   4.461   2.648  12.580 -0.6892 -0.3366  0.2489
  719TMC3    C410680   4.505   2.834  12.783  0.6358  0.5411 -0.0612
  719TMC3    C510681   4.514   2.867  12.650 -0.2762  0.1345  0.0872
  719TMC3    C610682   4.484   2.779  12.548 -0.6679  0.0830 -0.0415
  719TMC3     C10683   4.401   2.673  12.933  0.0813 -0.2179 -0.0050
  719TMC3     O10684   4.431   2.725  13.045  0.2372 -0.3212  0.2934
  719TMC3     H10685   4.476   2.502  12.738 -1.8578 -0.4179 -0.7193
  719TMC3    H110686   4.515   2.906  12.864  1.1861  1.2885 -0.7886
  719TMC3    H210687   4.509   2.802  12.445  0.0221 -0.1291  0.0836
  719TMC3    C710688   4.561   3.005  12.610  0.5935  0.0557 -1.3555
  719TMC3    C810689   4.347   2.578  12.521 -0.1663 -0.3713 -0.0930
  719TMC3    O110690   4.603   3.021  12.496  0.1381 -0.5002 -0.5647
  719TMC3    O210691   4.306   2.479  12.577 -0.0769 -0.2155 -0.5544
  720MPD2     C10692   3.015   4.162  14.096 -0.0951 -0.0797  0.0316
  720MPD2    C110693   3.080   4.258  14.035  0.6340 -0.4393 -0.6780
  720MPD2    C210694   3.212   4.272  14.058 -0.1015  0.0789 -0.4098
  720MPD2    C310695   3.259   4.214  14.175  0.2905  0.0569 -0.2469
  720MPD2    C410696   3.184   4.118  14.247 -1.0214  0.1275 -0.7946
  720MPD2    C510697   3.065   4.085  14.202  0.0783  0.6964 -0.1386
  720MPD2     H10698   3.267   4.355  14.015 -2.2490  1.4026 -0.6071
  720MPD2    H110699   3.216   4.072  14.340 -2.4121 -1.1779 -0.9551
  720MPD2    H210700   2.919   4.126  14.061 -1.1555  1.8949  0.9297
  720MPD2    H310701   3.010   4.008  14.256  1.2617  0.7086  1.1003
  720MPD2     N10702   3.394   4.243  14.218 -0.7703 -1.1062  0.2021
  720MPD2    H510703   3.451   4.296  14.152 -0.3647  0.5020  1.8664
  720MPD2    N110704   3.020   4.336  13.936 -0.4308  0.1096 -0.2973
  720MPD2    H710705   3.084   4.383  13.874  0.0017  0.4358  0.4042
  721TMC3    C110706   3.571   4.253  14.396  0.0102  0.1585 -0.2805
  721TMC3    C210707   3.585   4.227  14.533  0.5878 -0.2783 -0.3767
  721TMC3    C310708   3.715   4.196  14.581  0.6413  0.2193 -0.2837
  721TMC3    C410709   3.679   4.246  14.308  0.4522  0.7204 -0.3182
  721TMC3    C510710   3.802   4.224  14.362  0.4964 -0.1797 -0.2886
  721TMC3    C610711   3.825   4.202  14.496  0.0213  0.0249  0.1814
  721TMC3     C10712   3.426   4.236  14.356  1.5660 -0.3440 -0.1965
  721TMC3     O10713   3.348   4.214  14.443 -0.3277 -0.0810 -0.1417
  721TMC3     H10714   3.499   4.222  14.599 -1.1506  0.4213 -2.6042
  721TMC3    H110715   3.667   4.262  14.202 -3.3986 -1.4382 -0.2337
  721TMC3    H210716   3.923   4.190  14.539 -1.4441  0.0396  3.5423
  721TMC3    C710717   3.923   4.231  14.271 -0.2488  0.1138  0.2641
  721TMC3    C810718   3.730   4.193  14.726  0.0011 -0.3238  0.9584
  721TMC3    O110719   3.924   4.319  14.186  0.3165 -0.2842  0.4081
  721TMC3    O210720   3.837   4.228  14.781  0.3357  0.0452  0.5380
  722MPD2     C10721   1.829   3.389  13.225  0.0518 -0.2512  0.3117
  722MPD2    C110722   1.885   3.495  13.162 -1.3110 -0.1346 -0.3828
  722MPD2    C210723   1.837   3.539  13.041  0.7379 -0.2795 -0.3988
  722MPD2    C310724   1.724   3.483  12.975 -0.3409  0.1415  0.7876
  722MPD2    C410725   1.666   3.376  13.045  0.6346 -0.3627  0.3098
  722MPD2    C510726   1.728   3.322  13.160 -0.1408  0.4853 -0.2138
  722MPD2     H10727   1.896   3.619  12.998  1.1661  0.4352  1.5410
  722MPD2    H110728   1.576   3.326  13.012  0.7647 -2.0190  2.5174
  722MPD2    H210729   1.862   3.351  13.321 -0.5794  0.0027  0.6337
  722MPD2    H310730   1.702   3.226  13.203  1.3486 -1.2445 -3.1954
  722MPD2     N10731   1.663   3.549  12.864 -0.9757 -0.2422 -0.2263
  722MPD2    H510732   1.706   3.636  12.837  0.0992 -0.4026  0.9506
  722MPD2    N110733   1.988   3.574  13.215  0.3977 -0.0257  0.2093
  722MPD2    H710734   2.019   3.651  13.157 -1.8523 -0.2472 -1.3173
  723TMC3    C110735   1.466   3.608  12.741 -0.3522 -0.0770 -0.4743
  723TMC3    C210736   1.378   3.563  12.640 -0.0325  0.1220  0.1673
  723TMC3    C310737   1.267   3.654  12.623  0.2646  0.7731  0.3040
  723TMC3    C410738   1.444   3.709  12.825 -0.1064 -0.1109 -0.1527
  723TMC3    C510739   1.342   3.792  12.796 -0.1995 -0.4430  0.5989
  723TMC3    C610740   1.253   3.768  12.694  0.5490  0.5520 -0.4749
  723TMC3     C10741   1.551   3.505  12.800  0.7134 -0.1937 -0.1571
  723TMC3     O10742   1.496   3.398  12.806  0.4312 -0.5042 -0.5158
  723TMC3     H10743   1.384   3.467  12.590 -1.5983 -0.3013  0.7847
  723TMC3    H110744   1.509   3.727  12.909 -0.5415 -0.8259  0.3311
  723TMC3    H210745   1.172   3.838  12.673 -0.1431 -1.0930 -3.3024
  723TMC3    C710746   1.302   3.898  12.888 -0.1489  0.6356  0.1638
  723TMC3    C810747   1.152   3.618  12.542  0.7824 -0.1523 -0.5981
  723TMC3    O110748   1.211   3.972  12.861  0.2158 -0.7149 -0.5043
  723TMC3    O210749   1.083   3.708  12.495 -0.1208 -0.0674 -0.4299
  724TMC3    C110750   2.049   2.385  10.162 -0.1707 -0.1887  0.0925
  724TMC3    C210751   2.031   2.409  10.024 -0.4392 -0.0289  0.4840
  724TMC3    C310752   2.069   2.533   9.979  0.9780 -1.1587 -0.7145
  724TMC3    C410753   2.111   2.475  10.247  0.7613 -0.2473  0.2877
  724TMC3    C510754   2.159   2.585  10.199 -0.3895  0.1441 -0.6250
  724TMC3    C610755   2.151   2.607  10.064 -0.3865  0.2458  0.4661
  724TMC3     C10756   2.031   2.255  10.224  0.2308  0.9687  0.5895
  724TMC3     O10757   2.033   2.243  10.347 -0.3162  0.0766 -0.6446
  724TMC3     H10758   1.967   2.350   9.959  2.2041 -0.2819 -1.8913
  724TMC3    H110759   2.121   2.462  10.354  0.4296 -0.9750  0.2280
  724TMC3    H210760   2.173   2.711  10.041 -1.1563  0.3254  0.0822
  724TMC3    C710761   2.260   2.659  10.265  0.1145  0.4572  0.5464
  724TMC3    C810762   2.028   2.577   9.843 -0.6323 -0.2328  0.3444
  724TMC3    O110763   2.358   2.693  10.200  0.0257 -0.5821 -0.1251
  724TMC3    O210764   1.971   2.496   9.770 -0.0670  0.1348  0.0373
  725TMC3    C110765   2.972   4.667  12.873 -0.2682  0.2343  0.4347
  725TMC3    C210766   2.924   4.710  12.757 -0.5018  0.7447 -0.1381
  725TMC3    C310767   2.890   4.608  12.666 -0.2341 -0.6032 -0.1228
  725TMC3    C410768   3.009   4.537  12.895  0.3691 -0.3831  0.3655
  725TMC3    C510769   2.984   4.436  12.798 -0.0550 -0.2107 -0.3050
  725TMC3    C610770   2.927   4.478  12.679  0.7990  0.3344 -0.1258
  725TMC3     C10771   3.075   0.019  12.918 -0.3690  0.2220 -0.5723
  725TMC3     O10772   3.052   0.133  12.958  0.2286 -0.3311 -0.3505
  725TMC3     H10773   2.895   0.079  12.740 -1.6911  0.7590  1.9815
  725TMC3    H110774   3.054   4.511  12.990 -1.6873  0.2601  1.5197
  725TMC3    H210775   2.903   4.409  12.599  0.2287 -0.0525  0.3815
  725TMC3    C710776   3.095   4.344  12.776  0.4103 -0.1148  0.2593
  725TMC3    C810777   2.810   4.645  12.549 -0.7877  0.2736 -0.6328
  725TMC3    O110778   3.112   4.303  12.665 -0.4090 -0.4733  0.0494
  725TMC3    O210779   2.713   4.718  12.559 -0.2617 -0.1230  0.1720
  726MPD2     C10780   1.263   1.860  10.363 -0.5754 -0.4245 -0.4645
  726MPD2    C110781   1.199   1.978  10.378 -0.0435 -0.8463  0.1222
  726MPD2    C210782   1.122   1.998  10.494 -0.3539 -0.5159  0.2427
  726MPD2    C310783   1.102   1.897  10.592  0.0624  0.3142 -0.0333
  726MPD2    C410784   1.179   1.790  10.577 -0.7295 -0.3761 -1.1195
  726MPD2    C510785   1.261   1.771  10.468 -0.2030  0.7115  0.2515
  726MPD2     H10786   1.078   2.096  10.506 -0.7904 -0.4662 -1.7793
  726MPD2    H110787   1.194   1.721  10.659  1.9319  0.8335 -0.5598
  726MPD2    H210788   1.333   1.846  10.281  0.4351 -0.9389  0.4802
  726MPD2    H310789   1.328   1.686  10.470 -1.3176 -0.2360 -2.4997
  726MPD2     N10790   1.022   1.907  10.706  0.0024 -0.4234  0.2307
  726MPD2    H510791   1.027   1.829  10.770  0.3504 -0.7542 -0.2025
  726MPD2    N110792   1.218   2.081  10.280  0.2884  0.0055 -0.1569
  726MPD2    H710793   1.168   2.168  10.294 -0.2444 -0.0555 -1.7853
  727TMC3    C110794   1.268   2.182  10.075  0.0347 -0.1995 -0.8929
  727TMC3    C210795   1.283   2.298  10.140  0.2113 -0.7340 -0.4009
  727TMC3    C310796   1.269   2.417  10.075 -1.0251  0.3923  0.6930
  727TMC3    C410797   1.214   2.183   9.952 -0.0369 -0.1090 -0.5291
  727TMC3    C510798   1.177   2.301   9.889  0.2224  0.2916 -0.2513
  727TMC3    C610799   1.194   2.418   9.963  0.0646 -0.7150 -0.0918
  727TMC3     C10800   1.259   2.062  10.150  0.0231  0.2652 -0.2309
  727TMC3     O10801   1.271   1.959  10.089  0.1160 -0.7173  0.0975
  727TMC3     H10802   1.338   2.300  10.233  0.2533 -0.9582 -0.4210
  727TMC3    H110803   1.201   2.089   9.899 -0.6729 -0.3473  0.0445
  727TMC3    H210804   1.171   2.516   9.925 -3.2780 -1.1075  0.9226
  727TMC3    C710805   1.118   2.299   9.757 -0.0615 -0.7751  0.1065
  727TMC3    C810806   1.322   2.534  10.143  0.1394 -1.2669  0.2086
  727TMC3    O110807   1.090   2.195   9.693 -0.2970  0.2163 -0.3662
  727TMC3    O210808   1.367   2.514  10.255  0.0115 -0.1452  0.2532
  728TMC3    C110809   0.168   0.399  15.368 -0.9885 -0.2561  0.0976
  728TMC3    C210810   0.278   0.397  15.451 -0.3339 -0.4741  0.3554
  728TMC3    C310811   0.401   0.391  15.389  0.3434  0.6555  0.0766
  728TMC3    C410812   0.174   0.404  15.232  0.2434 -0.5861 -0.0764
  728TMC3    C510813   0.291   0.371  15.177 -0.5339 -0.8554 -0.9372
  728TMC3    C610814   0.408   0.363  15.255  0.2117 -0.1390 -0.9502
  728TMC3     C10815   0.036   0.430  15.422  0.3259 -0.7875  0.6466
  728TMC3     O10816   4.687   0.478  15.342 -0.2069  0.4682  0.0815
  728TMC3     H10817   0.273   0.401  15.559  1.7246 -1.5400  0.4875
  728TMC3    H110818   0.087   0.422  15.170 -0.4381  0.6760  1.2480
  728TMC3    H210819   0.492   0.310  15.212  1.1691 -0.0118  0.7765
  728TMC3    C710820   0.303   0.344  15.035 -0.3197 -0.7425 -0.3272
  728TMC3    C810821   0.518   0.385  15.471 -0.3580 -0.0505  0.4086
  728TMC3    O110822   0.201   0.321  14.976  0.0514 -0.0843 -0.2285
  728TMC3    O210823   0.495   0.383  15.591  0.3397 -0.1298  0.1444
  729MPD2     C10824   2.848   1.028  16.427 -0.7320 -0.0082  0.6196
  729MPD2    C110825   2.962   1.069  16.489  0.9563  0.0030  0.2876
  729MPD2    C210826   2.959   1.067  16.628 -0.0151 -0.6131 -0.7013
  729MPD2    C310827   2.856   1.005  16.698 -0.6457 -0.9904  0.9653
  729MPD2    C410828   2.743   0.974  16.629  0.4775  1.1613  0.1072
  729MPD2    C510829   2.742   0.983  16.491  0.2163 -0.0777  0.6918
  729MPD2     H10830   3.026   1.135  16.679  0.7480 -0.3003 -2.1040
  729MPD2    H110831   2.655   0.931  16.676 -0.3452  1.5269 -1.1127
  729MPD2    H210832   2.838   1.045  16.320 -1.7361  1.4861  0.9434
  729MPD2    H310833   2.652   0.974  16.431  1.1390 -1.7674 -0.4616
  729MPD2     N10834   2.857   0.987  16.840  0.3693  0.2398  0.1745
  729MPD2    H510835   2.778   0.945  16.888 -0.4945  1.6262 -0.0273
  729MPD2    N110836   3.054   1.140  16.420  0.3247  0.2041  0.3926
  729MPD2    H710837   3.029   1.173  16.328  0.1917  1.0104  0.7144
  730TMC3    C110838   2.931   1.053  17.053  0.2650  0.3176  0.5265
  730TMC3    C210839   3.038   1.068  17.134 -0.4310 -0.6969 -0.0093
  730TMC3    C310840   3.027   1.171  17.222  0.2154  0.8439 -0.2477
  730TMC3    C410841   2.814   1.117  17.075 -0.0098  0.8162 -0.7082
  730TMC3    C510842   2.800   1.174  17.200 -1.1696 -0.1430 -0.3339
  730TMC3    C610843   2.908   1.197  17.280  0.2665 -0.6819 -0.6182
  730TMC3     C10844   2.963   1.017  16.921 -0.1977  0.3732  0.2342
  730TMC3     O10845   3.081   1.032  16.887 -1.0218  0.2492  0.1021
  730TMC3     H10846   3.129   1.025  17.096  1.1103  1.2033  1.5283
  730TMC3    H110847   2.726   1.127  17.013  0.2554  0.7021 -1.1009
  730TMC3    H210848   2.908   1.245  17.377 -0.7694 -2.8955  0.4759
  730TMC3    C710849   2.680   1.244  17.237  0.5560 -1.1261  0.4115
  730TMC3    C810850   3.117   1.278  17.183 -0.0272  0.3251 -0.1261
  730TMC3    O110851   2.648   1.227  17.352  0.1400 -0.8519  0.9313
  730TMC3    O210852   3.202   1.248  17.103 -0.2513  0.4078 -0.4648
  731MPD2     C10853   2.756   4.337  12.190 -0.3236  0.2442 -0.0011
  731MPD2    C110854   2.870   4.263  12.190  0.1915  0.4330 -0.0084
  731MPD2    C210855   2.900   4.187  12.300 -0.6040  0.0264  0.7191
  731MPD2    C310856   2.832   4.200  12.417  0.5514  0.6158  0.4298
  731MPD2    C410857   2.716   4.277  12.411 -0.1693 -0.4234  0.4492
  731MPD2    C510858   2.679   4.350  12.300  0.0674 -0.3164  0.4051
  731MPD2     H10859   2.972   4.108  12.281  0.6320  0.9540  1.5855
  731MPD2    H110860   2.641   4.277  12.490 -0.2725 -0.5135  0.3505
  731MPD2    H210861   2.739   4.383  12.094 -1.3061  0.3076  0.2048
  731MPD2    H310862   2.584   4.404  12.297 -0.3977 -1.1040  0.9866
  731MPD2     N10863   2.865   4.117  12.528  0.2204 -0.7731  0.2504
  731MPD2    H510864   2.943   4.052  12.516 -0.8212 -1.8640 -0.6053
  731MPD2    N110865   2.941   4.258  12.072 -0.2899 -0.1238  0.1475
  731MPD2    H710866   2.904   4.305  11.989 -0.1991 -1.0344 -0.4102
  732TMC3    C110867   3.128   4.240  11.927 -0.0234 -0.3994 -0.0471
  732TMC3    C210868   3.041   4.225  11.825  0.1784 -0.3025 -0.0901
  732TMC3    C310869   3.082   4.278  11.702  0.7055 -0.3167 -0.4985
  732TMC3    C410870   3.256   4.274  11.914  0.4173 -0.1303  0.3752
  732TMC3    C510871   3.286   4.323  11.788 -0.0006  0.0054 -0.4294
  732TMC3    C610872   3.202   4.325  11.683 -0.2244  0.3630 -0.4477
  732TMC3     C10873   3.076   4.222  12.069 -0.0534  0.0264 -0.5736
  732TMC3     O10874   3.155   4.222  12.162 -0.3694 -0.1898 -0.2232
  732TMC3     H10875   2.935   4.206  11.832  0.2990 -1.8296 -2.2944
  732TMC3    H110876   3.327   4.269  11.996  2.0872  2.0082 -0.9451
  732TMC3    H210877   3.233   4.358  11.584 -1.0322 -2.8134 -1.7406
  732TMC3    C710878   3.396   4.425  11.777  0.5731 -0.5093  0.3963
  732TMC3    C810879   3.005   4.235  11.584  0.5076 -0.3892  0.5152
  732TMC3    O110880   3.410   4.487  11.675  0.0327 -0.3955  0.1595
  732TMC3    O210881   3.071   4.195  11.488  0.1109  0.6539  0.0718
  733TMC3    C110882   3.454   2.364  12.717 -0.7179  0.6710 -0.3904
  733TMC3    C210883   3.524   2.369  12.831 -0.7785 -0.0350 -0.9239
  733TMC3    C310884   3.663   2.384  12.821 -0.5514  0.9337  0.0464
  733TMC3    C410885   3.510   2.390  12.595  0.6454  0.1912  0.6956
  733TMC3    C510886   3.645   2.410  12.591 -0.6112 -0.0525 -0.2128
  733TMC3    C610887   3.723   2.417  12.706  0.0083  0.2458 -0.0434
  733TMC3     C10888   3.308   2.376  12.727 -0.2092 -0.1518 -0.1047
  733TMC3     O10889   3.238   2.338  12.636  0.0298 -0.4965  0.1247
  733TMC3     H10890   3.483   2.329  12.923  1.1493 -1.3986 -0.6433
  733TMC3    H110891   3.448   2.395  12.505  0.8721  0.2611  0.5436
  733TMC3    H210892   3.806   2.485  12.709 -1.2286  1.8643 -2.1224
  733TMC3    C710893   3.707   2.446  12.463  0.6529  0.5144  0.3643
  733TMC3    C810894   3.736   2.386  12.945  0.0709  0.2588  0.1754
  733TMC3    O110895   3.635   2.469  12.367 -0.6722  0.3808 -0.2755
  733TMC3    O210896   3.674   2.430  13.042 -0.4315  0.9792  0.5084
  734MPD2     C10897   0.927   0.582  12.079  0.3722 -0.3358 -0.1948
  734MPD2    C110898   0.925   0.485  11.976 -0.1463 -0.5067  0.0049
  734MPD2    C210899   0.987   0.514  11.856  0.1506 -0.1337 -0.3779
  734MPD2    C310900   1.068   0.626  11.844 -0.2078  0.8381  0.0737
  734MPD2    C410901   1.065   0.723  11.948 -0.1489 -0.1381  0.5306
  734MPD2    C510902   0.989   0.702  12.060 -0.2144 -0.2742 -0.3443
  734MPD2     H10903   0.974   0.450  11.770 -2.3186  0.0788 -0.1928
  734MPD2    H110904   1.129   0.809  11.936  0.2605 -0.6733 -1.0583
  734MPD2    H210905   0.876   0.567  12.174  2.0023 -0.3674  0.6767
  734MPD2    H310906   0.988   0.762  12.150  2.7161  0.6085 -0.9120
  734MPD2     N10907   1.141   0.625  11.729 -0.4153  0.1931 -0.7474
  734MPD2    H510908   1.115   0.550  11.666  0.1230  0.1690 -0.9393
  734MPD2    N110909   0.852   0.361  11.990 -0.0633 -0.3644  0.1519
  734MPD2    H710910   0.810   0.340  12.080  0.6907  0.3573  0.6679
  735TMC3    C110911   0.786   0.138  11.948  0.0927 -0.3890 -0.5469
  735TMC3    C210912   0.791   0.045  11.849  0.1623 -0.2922 -0.3164
  735TMC3    C310913   0.836   4.658  11.869  0.7700  0.4646 -0.5145
  735TMC3    C410914   0.821   0.101  12.073  0.4808  0.2865 -0.4066
  735TMC3    C510915   0.881   4.714  12.089  0.3839  0.0952  1.1779
  735TMC3    C610916   0.870   4.616  11.996 -0.0992 -0.0559  0.7349
  735TMC3     C10917   0.841   0.261  11.898 -0.9365 -1.0338 -0.0915
  735TMC3     O10918   0.904   0.245  11.796  0.9734  0.0519  0.2798
  735TMC3     H10919   0.756   0.076  11.751  0.0443  2.7320  0.6706
  735TMC3    H110920   0.835   0.175  12.151  1.6313 -0.2368 -0.1149
  735TMC3    H210921   0.905   4.517  12.020 -0.4147 -0.4880 -0.5871
  735TMC3    C710922   1.005   0.002  12.155  0.0069  0.0647  0.0544
  735TMC3    C810923   0.919   4.621  11.760 -0.2956  0.6233 -0.4912
  735TMC3    O110924   1.058   0.114  12.175  0.2775  0.3551 -0.4263
  735TMC3    O210925   0.957   4.506  11.748 -0.0071 -0.0148 -0.3519
  736MPD2     C10926   1.210   4.462  12.276  0.1500  0.7272 -0.5268
  736MPD2    C110927   1.186   4.593  12.235 -0.1939 -0.4044  0.4258
  736MPD2    C210928   1.290   4.683  12.239 -0.0293  0.5916  0.0979
  736MPD2    C310929   1.417   4.636  12.267  0.0803  0.2231 -0.3642
  736MPD2    C410930   1.437   4.504  12.298 -0.1623  0.5844  0.2028
  736MPD2    C510931   1.337   4.418  12.305  0.4416 -0.1793 -0.0630
  736MPD2     H10932   1.269   0.055  12.226  0.9772  0.6799 -0.7676
  736MPD2    H110933   1.540   4.478  12.317  0.2031  1.0871 -1.0939
  736MPD2    H210934   1.138   4.381  12.282  1.5702 -0.2919  2.5976
  736MPD2    H310935   1.358   4.318  12.342  2.2278  0.7279  1.3683
  736MPD2     N10936   1.528   4.723  12.263 -0.3995 -0.4303 -0.4477
  736MPD2    H510937   1.623   4.690  12.274  0.5685  2.4870 -0.0384
  736MPD2    N110938   1.054   4.621  12.200 -0.2076 -1.0046 -0.0533
  736MPD2    H710939   0.984   4.547  12.204 -0.4539 -0.7955 -0.4781
  737TMC3    C110940   1.645   0.178  12.182 -0.2017 -0.1656 -0.5789
  737TMC3    C210941   1.671   0.310  12.192 -0.1831 -0.1145  0.3679
  737TMC3    C310942   1.748   0.381  12.100  0.1919 -0.1199 -0.1122
  737TMC3    C410943   1.695   0.102  12.083  0.1114 -0.1394  0.4453
  737TMC3    C510944   1.770   0.172  11.985  0.1115  0.1456 -0.3331
  737TMC3    C610945   1.795   0.310  11.997  0.3832 -0.9895 -0.5768
  737TMC3     C10946   1.526   0.130  12.240  0.3272 -0.3111 -0.3210
  737TMC3     O10947   1.433   0.208  12.256 -0.0144 -0.3773  0.0697
  737TMC3     H10948   1.626   0.375  12.266 -0.7088  0.2581 -0.2800
  737TMC3    H110949   1.668   4.733  12.061  2.4138 -0.3483 -1.4786
  737TMC3    H210950   1.851   0.366  11.923 -0.9394  2.2955  0.9126
  737TMC3    C710951   1.825   0.086  11.877 -0.2518  0.4345  0.2451
  737TMC3    C810952   1.752   0.527  12.105 -0.6844  0.2954 -0.2085
  737TMC3    O110953   1.769   4.712  11.862 -0.3345 -0.1698 -0.4515
  737TMC3    O210954   1.737   0.569  12.218 -0.9640 -0.3409 -0.2015
  738MPD2     C10955   1.675   3.696  15.241  0.2762 -0.0755 -0.1826
  738MPD2    C110956   1.750   3.585  15.203  0.6407 -0.1511 -0.6176
  738MPD2    C210957   1.870   3.613  15.145  0.4054 -0.5705 -0.1456
  738MPD2    C310958   1.913   3.746  15.131  0.4121  0.6357 -0.6529
  738MPD2    C410959   1.837   3.854  15.178  0.1617  1.0005  0.2582
  738MPD2    C510960   1.720   3.823  15.237  0.7488  0.7923 -0.0798
  738MPD2     H10961   1.932   3.529  15.114  0.8334 -0.2347 -0.1870
  738MPD2    H110962   1.867   3.957  15.168  1.1605  0.5909 -0.9315
  738MPD2    H210963   1.583   3.680  15.295  1.0270 -1.4012  0.7114
  738MPD2    H310964   1.670   3.907  15.284  0.1125  0.5597 -0.3429
  738MPD2     N10965   2.041   3.765  15.073 -0.4417  0.3686 -0.7814
  738MPD2    H510966   2.105   3.688  15.056  0.6655  1.2703 -0.7168
  738MPD2    N110967   1.702   3.450  15.202 -0.5019 -0.0635 -0.4622
  738MPD2    H710968   1.767   3.378  15.173 -0.7166  0.2796 -1.8498
  739TMC3    C110969   2.209   3.869  14.959  0.2436 -1.2359  0.2765
  739TMC3    C210970   2.220   3.904  14.827  0.0671  0.3985 -0.9263
  739TMC3    C310971   2.338   3.883  14.765 -0.5068 -0.2242  0.2439
  739TMC3    C410972   2.312   3.814  15.025 -0.3202 -0.4929  0.4150
  739TMC3    C510973   2.431   3.793  14.964 -1.1740  0.2248 -0.6175
  739TMC3    C610974   2.448   3.829  14.831  0.1927  0.7357  0.8036
  739TMC3     C10975   2.078   3.885  15.020 -0.0384  0.1944  0.6715
  739TMC3     O10976   2.015   3.986  15.002 -0.7528  0.0409  0.2360
  739TMC3     H10977   2.128   3.938  14.780 -0.5621  1.2714  0.9411
  739TMC3    H110978   2.303   3.786  15.129 -1.3066 -0.4827  0.3397
  739TMC3    H210979   2.540   3.801  14.782 -0.3497  0.1190  0.1375
  739TMC3    C710980   2.535   3.725  15.038 -0.7466 -0.2098 -0.0299
  739TMC3    C810981   2.356   3.932  14.633  0.7247  0.0473 -0.9876
  739TMC3    O110982   2.508   3.673  15.145  0.4693 -0.4767 -0.0312
  739TMC3    O210983   2.253   3.933  14.566  0.4032  0.2993 -0.5343
  740TMC3    C110984   2.608   0.417  14.565 -0.7646  0.4207  0.6151
  740TMC3    C210985   2.660   0.420  14.693 -0.0978  0.0157  0.0659
  740TMC3    C310986   2.747   0.319  14.734  0.6676  0.2109  0.6634
  740TMC3    C410987   2.650   0.324  14.476 -1.4073 -0.6992 -0.3428
  740TMC3    C510988   2.746   0.231  14.512  0.2621 -0.0726 -0.2690
  740TMC3    C610989   2.796   0.233  14.639 -0.0111 -1.1753 -0.6238
  740TMC3     C10990   2.482   0.465  14.532 -0.2848  1.0657 -0.0385
  740TMC3     O10991   2.463   0.512  14.421  0.3920 -0.5978  0.1750
  740TMC3     H10992   2.620   0.490  14.766  0.4661 -0.9274  1.2901
  740TMC3    H110993   2.610   0.325  14.375  0.2172  0.4722 -0.9684
  740TMC3    H210994   2.890   0.184  14.659 -0.6531 -2.1532  0.0144
  740TMC3    C710995   2.802   0.132  14.423 -0.7067  0.0342  0.2090
  740TMC3    C810996   2.780   0.309  14.875  0.1333  0.5477  0.0037
  740TMC3    O110997   2.860   0.034  14.468  0.0849 -0.2311 -0.1725
  740TMC3    O210998   2.751   0.406  14.947  0.3694 -0.4583 -0.4634
  741TMC3    C110999   2.226   4.283  14.647 -0.1950 -0.4242  0.1353
  741TMC3    C211000   2.124   4.212  14.596 -0.0632 -0.0122 -0.2082
  741TMC3    C311001   2.022   4.184  14.677 -0.6190 -0.0990  0.3268
  741TMC3    C411002   2.214   4.332  14.770 -1.2648 -0.1619  0.1645
  741TMC3    C511003   2.120   4.295  14.857  0.4292  0.7753  0.1139
  741TMC3    C611004   2.018   4.214  14.817 -0.8033 -0.6704 -0.0078
  741TMC3     C11005   2.332   4.341  14.561 -0.4619 -0.0208  0.0035
  741TMC3     O11006   2.451   4.331  14.594 -0.2954  0.3825 -0.1343
  741TMC3     H11007   2.112   4.200  14.489  3.0394  1.3755 -0.6849
  741TMC3    H111008   2.297   4.392  14.804 -0.2054 -1.8479  0.5820
  741TMC3    H211009   1.937   4.195  14.887 -0.4073  1.2059  0.9553
  741TMC3    C711010   2.120   4.354  14.993  0.6000  0.7746  0.1465
  741TMC3    C811011   1.938   4.075  14.626  0.0924  0.4599 -0.3216
  741TMC3    O111012   2.167   4.468  15.006 -0.3855 -0.3435  0.2008
  741TMC3    O211013   1.932   4.066  14.504  0.2374 -0.0241 -0.6719
  742TMC3    C111014   1.748   2.886  15.274  0.2724 -0.8469 -0.4036
  742TMC3    C211015   1.771   2.864  15.142 -0.0418 -0.3272 -0.6367
  742TMC3    C311016   1.901   2.839  15.101 -0.0311  0.3848 -0.1901
  742TMC3    C411017   1.846   2.861  15.361 -0.0027 -0.9211  0.1561
  742TMC3    C511018   1.976   2.839  15.315  0.3032  0.6877  0.2679
  742TMC3    C611019   2.012   2.836  15.186 -0.6062  0.4152  1.0484
  742TMC3     C11020   1.613   2.869  15.318 -0.0943  0.4247 -0.0371
  742TMC3     O11021   1.528   2.843  15.235  0.5139 -0.1977  0.4559
  742TMC3     H11022   1.694   2.848  15.067 -0.5996 -0.0690 -0.1150
  742TMC3    H111023   1.834   2.867  15.469 -1.0938  1.4486 -0.1002
  742TMC3    H211024   2.108   2.810  15.143  0.0369  2.1468  1.4124
  742TMC3    C711025   2.070   2.816  15.421  0.5472  0.0061 -0.4760
  742TMC3    C811026   1.911   2.794  14.963 -0.4910  0.4524  0.0742
  742TMC3    O111027   2.038   2.855  15.530  0.0713 -0.1098 -0.3222
  742TMC3    O211028   1.817   2.738  14.916  0.1322  0.3633 -0.2836
  743MPD2     C11029   3.978   3.955   1.653 -0.7079 -0.1362  0.3459
  743MPD2    C111030   4.027   3.893   1.546 -0.1319 -0.3393 -0.6403
  743MPD2    C211031   4.140   3.813   1.561  0.3501  0.0525 -0.3735
  743MPD2    C311032   4.222   3.818   1.673 -0.7438 -0.1967 -0.1173
  743MPD2    C411033   4.182   3.907   1.770  0.5328  0.0080 -0.7060
  743MPD2    C511034   4.066   3.975   1.754 -1.0775  0.8309  0.0739
  743MPD2     H11035   4.174   3.753   1.477 -0.3079 -0.3322 -0.3615
  743MPD2    H111036   4.224   3.919   1.869  2.5391  0.4072 -1.5952
  743MPD2    H211037   3.890   4.018   1.647 -0.3308  0.3599  0.1037
  743MPD2    H311038   4.035   4.038   1.836 -3.1334 -0.9275  0.6592
  743MPD2     N11039   4.344   3.744   1.692  0.8676 -0.1489  0.1235
  743MPD2    H511040   4.404   3.779   1.767  0.5391 -0.4227  0.5125
  743MPD2    N111041   3.949   3.909   1.431  0.0432 -0.1362 -0.1814
  743MPD2    H711042   3.859   3.955   1.436  0.8510  1.2477  1.5157
  744TMC3    C111043   3.901   3.915   1.200 -0.8521  0.1378 -0.4531
  744TMC3    C211044   3.766   3.895   1.219 -0.6345  0.3036  0.5718
  744TMC3    C311045   3.676   3.880   1.113  0.2348 -1.5163 -0.3983
  744TMC3    C411046   3.949   3.897   1.070 -0.1029  0.5499  0.0109
  744TMC3    C511047   3.859   3.878   0.967 -0.2158  0.5000 -0.5315
  744TMC3    C611048   3.723   3.864   0.990 -0.3521  0.2926  0.0139
  744TMC3     C11049   3.999   3.891   1.304 -0.4204  0.1684  1.0051
  744TMC3     O11050   4.111   3.851   1.278  0.5948 -0.7174 -0.2173
  744TMC3     H11051   3.725   3.908   1.318  1.1808  1.4005  1.1727
  744TMC3    H111052   4.055   3.888   1.050 -0.6089 -2.3430 -1.3496
  744TMC3    H211053   3.654   3.847   0.909 -0.0015 -2.2379  0.2447
  744TMC3    C711054   3.924   3.866   0.837 -0.7180 -0.4410 -0.1032
  744TMC3    C811055   3.532   3.859   1.153  0.0502  1.1105 -0.2662
  744TMC3    O111056   4.047   3.896   0.830 -0.4752  0.2506 -0.9124
  744TMC3    O211057   3.490   3.900   1.262  0.1568 -0.5285 -0.1169
  745TMC3    C111058   2.098   2.302  13.387  0.3176  0.1968 -0.7512
  745TMC3    C211059   1.977   2.280  13.453  0.6841  0.3000 -0.2832
  745TMC3    C311060   1.870   2.360  13.417 -0.2684 -0.1638 -0.8549
  745TMC3    C411061   2.113   2.408  13.300  0.3578  0.0223 -0.0137
  745TMC3    C511062   2.006   2.475  13.259  0.4160 -0.8880 -0.3305
  745TMC3    C611063   1.883   2.451  13.311 -0.2263  0.4499  0.3861
  745TMC3     C11064   2.220   2.259  13.453  0.7127  0.5059  0.3436
  745TMC3     O11065   2.221   2.153  13.511  0.4527 -0.5433  0.3913
  745TMC3     H11066   1.972   2.216  13.540  3.4017 -0.4453 -0.6777
  745TMC3    H111067   2.199   2.410  13.235 -0.1347 -0.7022 -0.6883
  745TMC3    H211068   1.794   2.506  13.283 -2.2337 -1.2282  3.4593
  745TMC3    C711069   2.032   2.592  13.176 -0.4307 -0.4499 -0.3365
  745TMC3    C811070   1.809   2.432  13.522 -0.3060  0.5354 -0.3893
  745TMC3    O111071   1.940   2.628  13.102  0.4356 -0.4959  0.9467
  745TMC3    O211072   1.691   2.467  13.510 -0.0927  0.2700 -0.1238
  746TMC3    C111073   0.174   4.294  10.681 -0.2785  0.3707  0.0875
  746TMC3    C211074   0.214   4.308  10.551 -0.0581  0.8944  0.0838
  746TMC3    C311075   0.119   4.329  10.457 -1.0006  0.1602  0.0564
  746TMC3    C411076   0.043   4.286  10.724  0.1553 -0.5246 -0.4811
  746TMC3    C511077   4.687   4.302  10.625 -0.5429 -0.5141  0.1386
  746TMC3    C611078   4.718   4.323  10.492  0.1140 -0.3800 -0.3383
  746TMC3     C11079   0.246   4.379  10.769  0.3319 -0.4769  0.1649
  746TMC3     O11080   0.208   4.385  10.886 -0.1715 -0.0130  0.5880
  746TMC3     H11081   0.309   4.265  10.520  0.6162  1.9801  0.6418
  746TMC3    H111082   0.019   4.272  10.829  2.0501  0.1511  0.0355
  746TMC3    H211083   4.635   4.330  10.422  0.7713 -1.0643 -1.1835
  746TMC3    C711084   4.545   4.289  10.648  0.6772  0.5351  0.2550
  746TMC3    C811085   0.170   4.444  10.385  0.3470 -0.1087  0.4799
  746TMC3    O111086   4.460   4.254  10.565 -0.5664 -0.1820  0.4764
  746TMC3    O211087   0.290   4.460  10.383 -0.6224  0.4853  0.2880
  747TMC3    C111088   2.670   0.224  11.209 -0.0660 -0.4756 -0.1156
  747TMC3    C211089   2.587   0.136  11.265  0.3546  0.3915  0.0633
  747TMC3    C311090   2.522   0.178  11.380  0.8909 -0.8571  0.1904
  747TMC3    C411091   2.700   0.347  11.262 -0.5987  0.3935  0.2497
  747TMC3    C511092   2.635   0.386  11.374 -0.2841 -0.7961  0.0185
  747TMC3    C611093   2.541   0.305  11.430  0.9086 -0.4417 -0.0679
  747TMC3     C11094   2.721   0.205  11.076 -0.1262 -0.0025  0.3795
  747TMC3     O11095   2.721   0.303  11.001  0.0014  0.3004  0.0067
  747TMC3     H11096   2.558   0.053  11.201  0.9653  0.5357 -0.4104
  747TMC3    H111097   2.776   0.413  11.222 -2.5022  1.2288 -1.9871
  747TMC3    H211098   2.490   0.339  11.520  1.2252 -1.5324  0.5308
  747TMC3    C711099   2.670   0.514  11.430  0.2155 -0.5020 -0.8096
  747TMC3    C811100   2.385   0.123  11.385  0.2434 -0.1263  0.0017
  747TMC3    O111101   2.633   0.533  11.546  0.0197  0.2976 -0.3588
  747TMC3    O211102   2.356   0.034  11.304 -0.6784  0.1785  0.1746
  748MPD2     C11103   3.265   0.097   1.651  0.0950 -0.2027 -0.2089
  748MPD2    C111104   3.291   4.730   1.565  0.0409 -0.5179  0.3751
  748MPD2    C211105   3.421   4.694   1.534 -0.4626 -0.2584  0.3198
  748MPD2    C311106   3.519   0.023   1.591 -0.0500 -0.3104 -0.2565
  748MPD2    C411107   3.497   0.140   1.665  0.5609  0.2191  0.6226
  748MPD2    C511108   3.367   0.178   1.692  0.3807 -0.3552  0.4528
  748MPD2     H11109   3.446   4.614   1.466 -2.3084 -0.3329 -0.2766
  748MPD2    H111110   3.582   0.200   1.696  1.7943 -2.2347  1.9945
  748MPD2    H211111   3.165   0.129   1.677  1.0229  0.4836  2.5781
  748MPD2    H311112   3.354   0.267   1.753  0.2559  0.1176 -0.2718
  748MPD2     N11113   3.653   4.718   1.555  0.1047 -0.1486  0.3176
  748MPD2    H511114   3.650   4.650   1.479 -0.7137  1.0240 -0.6883
  748MPD2    N111115   3.177   4.659   1.512 -0.2903  0.2314  0.8876
  748MPD2    H711116   3.091   4.712   1.522 -0.6816  0.4484 -3.8441
  749TMC3    C111117   3.898   4.715   1.551  0.1981  0.0513  0.0766
  749TMC3    C211118   4.002   4.682   1.634  0.5754  0.8406  0.0238
  749TMC3    C311119   4.130   4.677   1.579 -0.1373  0.4100 -0.4357
  749TMC3    C411120   3.925   0.009   1.419  0.4525 -0.7769 -0.4198
  749TMC3    C511121   4.050   4.730   1.364  0.4001 -0.6253 -0.1833
  749TMC3    C611122   4.152   4.700   1.447 -0.5724  0.0877 -0.6303
  749TMC3     C11123   3.770   0.025   1.614  0.1301 -0.7559 -0.2959
  749TMC3     O11124   3.781   0.080   1.719  0.4798  0.4462  0.2804
  749TMC3     H11125   3.987   4.671   1.741 -1.2404  1.6956 -0.1520
  749TMC3    H111126   3.837   0.015   1.356 -0.5681 -1.8432  0.9052
  749TMC3    H211127   4.256   4.713   1.420 -0.0356  0.3508  1.5900
  749TMC3    C711128   4.072   0.106   1.274 -0.0879 -0.0644  0.4515
  749TMC3    C811129   4.242   4.650   1.666 -0.3575 -0.4896  0.2170
  749TMC3    O111130   3.990   0.196   1.293  0.3443  0.2615 -0.2579
  749TMC3    O211131   4.226   4.694   1.779 -0.1162  0.3194  0.0360
  750MPD2     C11132   0.062   2.026  11.825  0.6981  1.0709 -0.2324
  750MPD2    C111133   4.710   1.934  11.879 -0.2949  0.7476 -0.6373
  750MPD2    C211134   0.003   1.803  11.851 -0.5069  0.3024 -0.0847
  750MPD2    C311135   0.114   1.763  11.782 -0.1812 -0.3975  0.0529
  750MPD2    C411136   0.201   1.860  11.738 -0.5356 -0.9538 -0.1326
  750MPD2    C511137   0.178   1.989  11.760  0.0034  0.8242  0.1453
  750MPD2     H11138   4.659   1.733  11.878  1.8658 -2.6477 -0.9234
  750MPD2    H111139   0.297   1.833  11.695  0.2956  1.1177  0.4565
  750MPD2    H211140   0.053   2.130  11.853  1.3733  1.0346  0.1275
  750MPD2    H311141   0.238   2.076  11.739  1.7266 -0.6049 -0.9049
  750MPD2     N11142   0.144   1.624  11.760 -0.8971  0.1469 -0.4301
  750MPD2    H511143   0.235   1.604  11.719 -0.4593  2.9153 -0.8087
  750MPD2    N111144   4.596   1.969  11.956 -0.3198  0.3821  0.2138
  750MPD2    H711145   4.578   2.068  11.969 -0.2718  0.4928 -0.5483
  751TMC3    C111146   0.105   1.387  11.751 -0.6358 -0.3141 -0.0169
  751TMC3    C211147   0.042   1.273  11.806 -0.5407  0.4326  0.2960
  751TMC3    C311148   0.102   1.150  11.780 -0.5562  0.0524  0.3915
  751TMC3    C411149   0.204   1.374  11.660 -0.8945 -0.5392  0.0776
  751TMC3    C511150   0.247   1.246  11.625 -0.0118 -0.1739 -0.2539
  751TMC3    C611151   0.203   1.140  11.696  0.0274  0.9172 -0.2516
  751TMC3     C11152   0.060   1.518  11.799  0.5624 -0.9426  0.1836
  751TMC3     O11153   4.701   1.517  11.880 -0.2023  0.0572 -0.0875
  751TMC3     H11154   4.705   1.278  11.887 -1.4572  1.2020 -0.5544
  751TMC3    H111155   0.232   1.460  11.600  1.5372  0.7099  2.9945
  751TMC3    H211156   0.257   1.046  11.689 -0.6814  0.3384  2.5162
  751TMC3    C711157   0.254   1.229  11.479 -0.0396 -0.3704 -0.4293
  751TMC3    C811158   0.010   1.036  11.759  0.4962  0.2560  0.1183
  751TMC3    O111159   0.278   1.323  11.407 -0.3777 -0.1684  0.1029
  751TMC3    O211160   0.055   0.934  11.711 -0.0717  0.1477 -0.3105
  752TMC3    C111161   3.532   1.376  17.317  0.1356 -0.1171  0.8691
  752TMC3    C211162   3.595   1.256  17.308  0.0005  0.3285 -0.4038
  752TMC3    C311163   3.554   1.154  17.389  0.0584  0.4401 -0.1110
  752TMC3    C411164   3.415   1.384  17.386  0.1141 -0.1826  0.0570
  752TMC3    C511165   3.376   1.282  17.465 -0.3047 -0.1205 -0.2573
  752TMC3    C611166   3.444   1.162  17.472  0.1824  0.0367 -0.4570
  752TMC3     C11167   3.554   1.479  17.223 -0.1900  0.3961  0.0987
  752TMC3     O11168   3.550   1.594  17.253 -0.1248 -0.0279 -0.0816
  752TMC3     H11169   3.677   1.239  17.239  1.1145  0.7605  0.8257
  752TMC3    H111170   3.352   1.470  17.367 -0.3036 -0.7910 -1.3678
  752TMC3    H211171   3.412   1.085  17.541  0.9300  0.4325  0.3313
  752TMC3    C711172   3.240   1.285  17.526 -0.4312 -0.1352  0.1002
  752TMC3    C811173   3.628   1.032  17.379  0.2759  0.3545  0.0323
  752TMC3    O111174   3.200   1.388  17.581 -0.2535  0.4140  0.0549
  752TMC3    O211175   3.709   1.029  17.290  0.2272 -0.0165  0.6019
  753TMC3    C111176   0.702   2.380  13.138 -0.3250  0.2077  0.5540
  753TMC3    C211177   0.788   2.345  13.239  0.4321  0.4028 -0.4005
  753TMC3    C311178   0.763   2.235  13.316  0.2844  0.7492 -0.7921
  753TMC3    C411179   0.604   2.288  13.097  0.2012  0.2619  0.1805
  753TMC3    C511180   0.605   2.168  13.149  0.8364  0.1162  0.3237
  753TMC3    C611181   0.688   2.139  13.256 -0.8975 -0.5817  1.1121
  753TMC3     C11182   0.715   2.500  13.061 -0.3107  0.6511  0.4670
  753TMC3     O11183   0.649   2.511  12.954 -0.4099  0.3254 -0.2975
  753TMC3     H11184   0.868   2.407  13.278 -0.1737  0.9716 -0.0460
  753TMC3    H111185   0.542   2.300  13.009 -0.0127  1.1477  0.4498
  753TMC3    H211186   0.683   2.041  13.301 -0.3362 -0.4567  1.4481
  753TMC3    C711187   0.539   2.058  13.070 -0.2380 -0.7415 -0.3822
  753TMC3    C811188   0.870   2.189  13.405 -0.4228  0.2344  0.6825
  753TMC3    O111189   0.448   2.096  12.999  0.4670  0.3551 -0.6643
  753TMC3    O211190   0.908   2.070  13.397 -0.1330  0.0695  0.2895
  754MPD2     C11191   4.285   0.912  12.923  0.0836  0.0144 -0.6368
  754MPD2    C111192   4.259   0.781  12.913  0.2205  0.1206  0.2427
  754MPD2    C211193   4.128   0.745  12.896 -0.1724  0.3394 -0.5167
  754MPD2    C311194   4.026   0.843  12.907  0.3911  0.4449 -0.0719
  754MPD2    C411195   4.057   0.976  12.904  0.0091 -0.5902  0.2922
  754MPD2    C511196   4.190   1.008  12.915 -0.4266 -0.6740  0.6214
  754MPD2     H11197   4.112   0.638  12.884  2.2993 -0.2149  1.2943
  754MPD2    H111198   3.976   1.048  12.913 -0.0886 -0.5198 -1.0903
  754MPD2    H211199   4.387   0.943  12.947 -0.3783  2.1297 -1.3981
  754MPD2    H311200   4.206   1.115  12.928 -2.0951 -0.1810 -1.2061
  754MPD2     N11201   3.898   0.808  12.933 -0.1582 -0.2104  0.1504
  754MPD2    H511202   3.842   0.892  12.928 -0.0540 -0.1574 -0.1416
  754MPD2    N111203   4.364   0.689  12.914 -0.1572 -0.4739  0.3136
  754MPD2    H711204   4.453   0.734  12.896  0.4494 -1.3271  1.2191
  755MPD2     C11205   3.479   1.375  13.303  0.0845  0.5552  0.2024
  755MPD2    C111206   3.375   1.283  13.322 -0.0625  0.1602  0.0225
  755MPD2    C211207   3.396   1.155  13.274  1.4521 -0.2510  0.5207
  755MPD2    C311208   3.497   1.122  13.192  0.1776  0.1793 -0.5165
  755MPD2    C411209   3.588   1.216  13.161 -0.3285  0.1507  0.3743
  755MPD2    C511210   3.579   1.343  13.213  0.0852  0.3372  0.2943
  755MPD2     H11211   3.328   1.077  13.307  0.9811 -0.2119 -0.3621
  755MPD2    H111212   3.672   1.189  13.098  0.6851  1.4650  1.1466
  755MPD2    H211213   3.470   1.472  13.351 -0.1590  1.2525 -1.2529
  755MPD2    H311214   3.646   1.424  13.188 -0.4849  1.0016  0.9013
  755MPD2     N11215   3.525   0.996  13.131  0.1960 -0.4854  0.4578
  755MPD2    H511216   3.593   0.998  13.055 -0.1005 -0.1551  0.1999
  755MPD2    N111217   3.263   1.314  13.402 -0.0476 -0.0498  0.2086
  755MPD2    H711218   3.200   1.239  13.429  0.4053  0.3954  2.4882
  756MPD2     C11219   4.666   2.208   9.834 -0.2078  0.3368 -0.2895
  756MPD2    C111220   4.576   2.159   9.926  0.0262  0.6372 -0.2634
  756MPD2    C211221   4.449   2.135   9.880  0.0499  0.4142 -0.2438
  756MPD2    C311222   4.403   2.171   9.753  0.4717 -0.2794 -0.1935
  756MPD2    C411223   4.497   2.225   9.660 -0.0305  0.2744 -0.3159
  756MPD2    C511224   4.625   2.237   9.704 -0.2201  0.8936 -0.5101
  756MPD2     H11225   4.373   2.094   9.945  0.8629  2.2838  1.8750
  756MPD2    H111226   4.469   2.232   9.556  0.0435 -1.5769 -0.4463
  756MPD2    H211227   0.039   2.209   9.852 -0.3296  1.7286  0.3812
  756MPD2    H311228   4.696   2.273   9.630 -0.9951  1.0794 -1.1574
  756MPD2     N11229   4.270   2.140   9.727 -0.0365  0.1290  0.3722
  756MPD2    H511230   4.218   2.095   9.802 -0.4950  2.6488  1.5829
  756MPD2    N111231   4.599   2.131  10.064  0.5881  0.2210 -0.2120
  756MPD2    H711232   4.523   2.092  10.119  1.2720  0.0633  0.6317
  757MPD2     C11233   3.799   1.544  10.067  0.0238 -0.1655 -0.8238
  757MPD2    C111234   3.910   1.619  10.099  0.3715  0.0211 -0.1986
  757MPD2    C211235   3.926   1.740  10.030  0.4229  0.2374 -0.4055
  757MPD2    C311236   3.853   1.762   9.921  0.0030  0.3066 -0.1777
  757MPD2    C411237   3.737   1.689   9.898  0.7758  0.2541  0.3079
  757MPD2    C511238   3.703   1.594   9.983 -0.2086 -0.0292 -0.1203
  757MPD2     H11239   4.019   1.792  10.048  0.2207  1.3031 -2.3763
  757MPD2    H111240   3.667   1.720   9.821  1.3419  0.3028 -0.1908
  757MPD2    H211241   3.770   1.462  10.133  0.9541  1.8231  2.0657
  757MPD2    H311242   3.607   1.546   9.969 -0.8340  0.4048  2.5995
  757MPD2     N11243   3.893   1.871   9.840 -0.0223 -0.1003 -0.4917
  757MPD2    H511244   3.969   1.926   9.877 -0.9432 -0.5660  2.0752
  757MPD2    N111245   4.002   1.571  10.192  0.1437 -0.2982  0.1390
  757MPD2    H711246   3.976   1.480  10.229  0.2103 -0.4553 -0.1934
  758MPD2     C11247   4.403   0.898  15.693 -0.0887 -0.5939 -0.2695
  758MPD2    C111248   4.470   0.799  15.760  0.2211 -0.1020  0.5632
  758MPD2    C211249   4.411   0.740  15.872 -0.0228 -0.8720 -0.2779
  758MPD2    C311250   4.284   0.780  15.914 -0.8197  0.6015  0.2029
  758MPD2    C411251   4.206   0.866  15.837 -0.2467  0.3250  0.4261
  758MPD2    C511252   4.269   0.932  15.729  0.1122 -0.0522 -0.6358
  758MPD2     H11253   4.454   0.658  15.929  1.0393 -0.9361 -1.1507
  758MPD2    H111254   4.105   0.894  15.866  0.4275  2.5976  0.5942
  758MPD2    H211255   4.452   0.964  15.623  0.5205 -0.2177  0.5156
  758MPD2    H311256   4.220   1.011  15.672  0.1166 -0.1382 -0.7569
  758MPD2     N11257   4.254   0.731  16.047  0.2885 -0.1073 -0.2782
  758MPD2    H511258   4.317   0.659  16.081 -0.8773 -0.6505  0.7573
  758MPD2    N111259   4.608   0.773  15.725  0.3165 -0.0344 -0.2408
  758MPD2    H711260   4.641   0.818  15.640 -0.1127 -0.0805 -0.4339
  759MPD2     C11261   3.430   3.878  10.847 -0.5853  0.5369  0.3336
  759MPD2    C111262   3.407   3.897  10.712 -0.2029 -0.6163 -0.2646
  759MPD2    C211263   3.406   4.029  10.662  0.3901 -0.3227  0.4706
  759MPD2    C311264   3.453   4.135  10.738 -0.4409 -0.9692  0.1620
  759MPD2    C411265   3.486   4.109  10.868 -0.9465 -0.5289  0.1018
  759MPD2    C511266   3.462   3.985  10.927  0.1874  0.1958 -0.2673
  759MPD2     H11267   3.391   4.038  10.554  3.0023  1.1796  0.2508
  759MPD2    H111268   3.534   4.186  10.927 -2.8720 -0.6351  1.8300
  759MPD2    H211269   3.423   3.777  10.886 -3.9614  1.1854  1.3521
  759MPD2    H311270   3.472   3.953  11.030 -1.7089  0.5482  0.0346
  759MPD2     N11271   3.470   4.257  10.678  0.1370  0.8577 -0.5129
  759MPD2    H511272   3.461   4.250  10.577 -1.3483 -2.0343 -0.1806
  759MPD2    N111273   3.348   3.800  10.631 -0.1297  0.0295 -0.0903
  759MPD2    H711274   3.315   3.839  10.543 -1.0303 -1.8197 -0.5737
  760MPD2     C11275   3.307   0.695  12.110 -0.4840 -0.2076 -0.1781
  760MPD2    C111276   3.306   0.693  11.968  0.6105 -0.2465  0.3103
  760MPD2    C211277   3.305   0.573  11.899 -0.4319  0.7635  0.8156
  760MPD2    C311278   3.315   0.457  11.969  0.0361  0.0913  0.5583
  760MPD2    C411279   3.316   0.449  12.109  0.8484  0.5535  0.6756
  760MPD2    C511280   3.319   0.573  12.179  0.0245  0.0353  0.3319
  760MPD2     H11281   3.282   0.576  11.793 -0.2114 -0.6734  0.7247
  760MPD2    H111282   3.316   0.356  12.165 -1.1529 -0.8827 -1.7262
  760MPD2    H211283   3.290   0.789  12.162  1.0264 -0.7880  1.3558
  760MPD2    H311284   3.332   0.563  12.286  0.2535 -0.3816  0.2650
  760MPD2     N11285   3.290   0.335  11.905  0.5088  0.0477 -0.1601
  760MPD2    H511286   3.272   0.251  11.959 -0.3935  0.5034  0.2673
  760MPD2    N111287   3.284   0.810  11.895 -0.5062  0.8056 -0.1810
  760MPD2    H711288   3.291   0.802  11.794  0.1441  0.0208 -0.0722
  761MPD2     C11289   4.284   0.813  11.738 -0.0706  0.4352 -0.3680
  761MPD2    C111290   4.397   0.783  11.676 -1.0524 -0.1585 -0.4740
  761MPD2    C211291   4.505   0.869  11.698 -0.1058 -0.3941 -0.6174
  761MPD2    C311292   4.501   0.992  11.769 -0.5801 -0.7286 -0.3191
  761MPD2    C411293   4.378   1.018  11.821  0.2950  0.0398  0.1459
  761MPD2    C511294   4.271   0.934  11.809  0.0585  0.2789 -0.2473
  761MPD2     H11295   4.601   0.844  11.653  0.3980 -0.2692  0.3908
  761MPD2    H111296   4.354   1.109  11.874  1.7383 -0.6344  1.9604
  761MPD2    H211297   4.189   0.762  11.722 -0.9508  1.9902 -0.1112
  761MPD2    H311298   4.183   0.967  11.863 -0.4399 -3.0339  0.9979
  761MPD2     N11299   4.613   1.072  11.786 -0.0842 -0.2471  0.5574
  761MPD2    H511300   4.600   1.162  11.830 -0.1269  0.2766 -0.5470
  761MPD2    N111301   4.406   0.682  11.577  0.5665  0.2410  0.2296
  761MPD2    H711302   4.330   0.616  11.570 -0.6992  1.6306  1.0210
  762MPD2     C11303   0.253   0.710  11.143  0.3670 -0.2195  0.0094
  762MPD2    C111304   0.182   0.604  11.092 -0.1052 -0.2496 -0.2283
  762MPD2    C211305   0.231   0.537  10.981 -0.0879  0.4080  0.3518
  762MPD2    C311306   0.353   0.566  10.928 -0.4878 -0.6923 -0.3871
  762MPD2    C411307   0.420   0.677  10.976  0.2250  0.2096  0.0210
  762MPD2    C511308   0.372   0.744  11.084  0.1581 -0.4514 -0.5220
  762MPD2     H11309   0.178   0.450  10.943 -0.3338 -0.4364  2.5981
  762MPD2    H111310   0.524   0.697  10.951  0.2960 -0.9705 -0.5942
  762MPD2    H211311   0.218   0.777  11.221 -1.8272 -1.9599  0.4891
  762MPD2    H311312   0.408   0.842  11.113  1.8943 -1.3560  0.3433
  762MPD2     N11313   0.402   0.482  10.824  1.0341 -0.3996 -0.1122
  762MPD2    H511314   0.345   0.403  10.798  0.9029 -0.4644  0.3733
  762MPD2    N111315   0.057   0.575  11.157  0.2121 -0.0249 -0.0130
  762MPD2    H711316   0.042   0.606  11.252 -2.2578  1.5772 -0.9288
  763MPD2     C11317   1.857   0.706  16.282 -0.1116 -0.3379 -0.2648
  763MPD2    C111318   1.744   0.779  16.251  0.0374 -0.1288 -0.1196
  763MPD2    C211319   1.695   0.864  16.345 -0.8129  0.8057  0.6203
  763MPD2    C311320   1.770   0.883  16.463 -0.6377 -0.1451  0.8722
  763MPD2    C411321   1.881   0.809  16.497  0.4963  0.2388  0.3092
  763MPD2    C511322   1.926   0.733  16.394 -0.1417 -0.4449  0.2817
  763MPD2     H11323   1.605   0.920  16.322  0.0071  1.7309 -0.3436
  763MPD2    H111324   1.932   0.799  16.591  1.1341  2.7441  0.2491
  763MPD2    H211325   1.906   0.633  16.218 -2.8451 -0.3575 -2.3300
  763MPD2    H311326   2.006   0.665  16.420  0.7509 -0.8099 -3.3930
  763MPD2     N11327   1.747   0.985  16.566 -0.0733  0.0158  0.2923
  763MPD2    H511328   1.812   0.996  16.643 -0.6481 -0.8504  0.9042
  763MPD2    N111329   1.673   0.765  16.129  0.7733  0.0457 -0.8175
  763MPD2    H711330   1.604   0.839  16.127 -0.1199 -0.7751 -0.7339
  764MPD2     C11331   4.188   1.655  17.231 -0.4941  0.2728 -0.1326
  764MPD2    C111332   4.105   1.761  17.229 -0.1877 -0.6603  0.3138
  764MPD2    C211333   4.080   1.827  17.350 -0.2739 -1.3079  0.1209
  764MPD2    C311334   4.139   1.776  17.467  0.7218 -0.1702 -0.0231
  764MPD2    C411335   4.222   1.670  17.465 -0.3331 -0.1780 -0.0775
  764MPD2    C511336   4.245   1.611  17.345 -0.6843 -0.0400 -0.6472
  764MPD2     H11337   4.009   1.906  17.370  1.6533  0.4966 -0.2366
  764MPD2    H111338   4.269   1.630  17.555  0.6577 -2.0344 -1.4060
  764MPD2    H211339   4.214   1.591  17.147 -0.5162  0.0342  0.0396
  764MPD2    H311340   4.318   1.531  17.349 -0.3038  0.3576  0.3276
  764MPD2     N11341   4.107   1.839  17.593  0.3786  0.2333 -0.0649
  764MPD2    H511342   4.045   1.918  17.576  1.4437  1.1221  0.1479
  764MPD2    N111343   4.030   1.819  17.117  0.3741 -0.1211  0.1898
  764MPD2    H711344   3.971   1.900  17.130  2.7219  1.5526  0.2252
  765MPD2     C11345   3.911   4.551  15.783 -0.0731  0.1559  0.3621
  765MPD2    C111346   3.964   4.674  15.789 -0.2652 -0.5599  0.3409
  765MPD2    C211347   4.055   4.701  15.893 -0.2556 -0.9525  0.7166
  765MPD2    C311348   4.088   4.604  15.992  0.3600  0.2142 -0.5212
  765MPD2    C411349   4.042   4.476  15.978 -0.0321  0.2776 -0.0687
  765MPD2    C511350   3.955   4.455  15.872  0.1480 -0.1477  0.0553
  765MPD2     H11351   4.082   0.069  15.917  0.4133 -1.5609  2.5413
  765MPD2    H111352   4.062   4.396  16.048 -1.1513 -1.2204 -1.4424
  765MPD2    H211353   3.850   4.527  15.697  0.0801 -0.0168  0.3000
  765MPD2    H311354   3.909   4.358  15.857 -0.9642  0.6842 -1.8461
  765MPD2     N11355   4.178   4.653  16.088  0.1101  0.6941 -0.1875
  765MPD2    H511356   4.224   0.008  16.071 -1.5796  1.6383  0.1695
  765MPD2    N111357   3.918   0.038  15.704  0.8401 -0.3533 -0.0236
  765MPD2    H711358   3.865   0.005  15.624 -0.6600 -0.9657  1.2339
  766MPD2     C11359   3.328   0.270  15.183  0.2357 -0.0297  0.6904
  766MPD2    C111360   3.456   0.229  15.188  0.2623 -0.6018 -0.2671
  766MPD2    C211361   3.522   0.178  15.072 -0.7518 -0.2421  0.2148
  766MPD2    C311362   3.453   0.174  14.950 -0.3911 -0.0040 -0.1657
  766MPD2    C411363   3.322   0.209  14.950 -0.5713  1.1463 -0.0441
  766MPD2    C511364   3.261   0.247  15.067 -0.2473  0.1409 -0.7944
  766MPD2     H11365   3.630   0.170  15.071 -0.8293 -1.5538  2.1952
  766MPD2    H111366   3.250   0.217  14.870 -1.5834 -2.6008  0.4990
  766MPD2    H211367   3.277   0.292  15.276 -1.1751 -1.0535  0.1655
  766MPD2    H311368   3.156   0.277  15.066 -0.6402 -1.1277  2.8625
  766MPD2     N11369   3.516   0.132  14.829 -0.1787  0.8308  0.2148
  766MPD2    H511370   3.462   0.137  14.743 -1.2345  0.8011  0.8792
  766MPD2    N111371   3.526   0.255  15.309 -0.4375 -0.5604  0.4243
  766MPD2    H711372   3.482   0.317  15.377  1.3396  0.6201  0.4841
  767MPD2     C11373   3.161   0.589  14.745 -0.1205 -0.0066  0.5741
  767MPD2    C111374   3.273   0.517  14.733  0.1877 -0.6463 -0.3399
  767MPD2    C211375   3.276   0.402  14.658  0.0020 -0.5845  0.2084
  767MPD2    C311376   3.172   0.362  14.582  0.0461 -0.4079  0.0298
  767MPD2    C411377   3.062   0.445  14.583 -0.1429 -0.9185  0.4495
  767MPD2    C511378   3.055   0.554  14.667  0.0824  0.5284 -0.1501
  767MPD2     H11379   3.365   0.341  14.647 -1.2345 -2.4689  0.5963
  767MPD2    H111380   2.970   0.416  14.535  0.0402 -0.2936 -0.2898
  767MPD2    H211381   3.144   0.661  14.825 -1.6435 -0.7388  0.9160
  767MPD2    H311382   2.966   0.616  14.664 -1.4420 -1.6855 -0.0730
  767MPD2     N11383   3.174   0.240  14.508 -0.2091  0.2609 -0.0832
  767MPD2    H511384   3.122   0.244  14.420 -0.9475  0.5511  0.3714
  767MPD2    N111385   3.386   0.561  14.808 -0.6457 -0.2603  0.1529
  767MPD2    H711386   3.366   0.644  14.863  0.9953 -0.8732  1.6553
  768MPD2     C11387   3.993   3.438  10.920 -0.4275 -0.9340 -0.4959
  768MPD2    C111388   4.065   3.558  10.918 -0.7570 -0.3816  0.4042
  768MPD2    C211389   4.196   3.566  10.966 -0.3938  0.3782 -0.7317
  768MPD2    C311390   4.255   3.460  11.021 -0.6364 -0.0475 -0.5210
  768MPD2    C411391   4.186   3.342  11.016 -0.0343  0.2253 -0.1473
  768MPD2    C511392   4.057   3.332  10.979 -0.1037 -0.2764 -0.6893
  768MPD2     H11393   4.242   3.664  10.965  1.3314 -0.4170  0.8473
  768MPD2    H111394   4.233   3.256  11.061 -0.5044 -0.5343 -1.0926
  768MPD2    H211395   3.890   3.429  10.887  0.2836  0.0351 -2.9943
  768MPD2    H311396   4.005   3.237  10.982 -0.1094 -0.4063 -4.4979
  768MPD2     N11397   4.381   3.459  11.074  0.8592  0.1163 -0.1925
  768MPD2    H511398   4.405   3.377  11.129  1.2465  0.2628 -0.1434
  768MPD2    N111399   4.025   3.684  10.867  0.3236  0.1288 -0.8396
  768MPD2    H711400   4.090   3.762  10.876 -1.3710  1.4327  0.1584
  769MPD2     C11401   0.288   2.021  14.882 -0.3679  0.2110 -0.0279
  769MPD2    C111402   0.159   2.029  14.916  0.2453  0.3195 -0.5707
  769MPD2    C211403   0.111   2.095  15.031  0.6449 -0.7440  0.4518
  769MPD2    C311404   0.205   2.172  15.104 -0.3089  0.6094 -0.0072
  769MPD2    C411405   0.333   2.166  15.064  0.2268 -0.6204 -0.0697
  769MPD2    C511406   0.378   2.088  14.962 -0.0985  0.0899  0.4038
  769MPD2     H11407   0.004   2.092  15.051  0.3900  1.6059 -0.5832
  769MPD2    H111408   0.408   2.230  15.108 -0.4013  1.0713 -1.4509
  769MPD2    H211409   0.324   1.956  14.803 -0.8182  2.5912 -2.1969
  769MPD2    H311410   0.480   2.102  14.929  0.0408 -1.6643  0.0816
  769MPD2     N11411   0.156   2.254  15.202  0.3763 -0.4176 -0.6011
  769MPD2    H511412   0.064   2.242  15.242  0.4326  1.1856  0.0269
  769MPD2    N111413   0.071   1.959  14.825 -0.4837  0.3264 -0.1552
  769MPD2    H711414   0.114   1.911  14.747 -3.7706  1.1154 -2.4486
  770MPD2     C11415   0.185   1.161  14.372  0.4148 -0.2091 -0.6223
  770MPD2    C111416   0.084   1.138  14.460  0.9583  0.1823 -0.2851
  770MPD2    C211417   0.010   1.247  14.506  0.0231 -0.3434  0.0243
  770MPD2    C311418   0.040   1.372  14.466  0.0580  0.4120 -0.5332
  770MPD2    C411419   0.158   1.395  14.397 -0.1818 -0.0378  0.5632
  770MPD2    C511420   0.218   1.290  14.333 -0.0643 -0.1895  0.4195
  770MPD2     H11421   4.655   1.219  14.563  0.1596 -2.3780 -0.7596
  770MPD2    H111422   0.193   1.498  14.388 -1.1180  0.1253 -1.2472
  770MPD2    H211423   0.242   1.078  14.333  0.8538 -0.2913  0.1965
  770MPD2    H311424   0.308   1.300  14.274 -1.4224  1.3435 -1.3886
  770MPD2     N11425   4.695   1.473  14.523  0.0911  0.2944  0.3961
  770MPD2    H511426   4.611   1.452  14.578  0.0217  0.0024  0.1810
  770MPD2    N111427   0.077   1.009  14.515 -0.2479 -0.8172 -0.2941
  770MPD2    H711428   0.139   0.938  14.478  0.7096  0.7386 -1.6461
  771MPD2     C11429   1.935   4.597  14.136 -0.1749  0.2839 -0.1158
  771MPD2    C111430   1.861   4.629  14.027 -0.8062 -0.0722 -0.0533
  771MPD2    C211431   1.784   4.527  13.973 -0.4070  0.3215 -0.3967
  771MPD2    C311432   1.780   4.403  14.025  0.3515  0.1139  0.3911
  771MPD2    C411433   1.834   4.386  14.154 -0.3396  0.5342 -0.0968
  771MPD2    C511434   1.920   4.478  14.203 -0.2060 -0.2852 -0.1845
  771MPD2     H11435   1.730   4.532  13.879  0.6024  1.8228 -0.8904
  771MPD2    H111436   1.829   4.290  14.203  0.4370  0.3097 -0.4681
  771MPD2    H211437   1.992   4.673  14.188 -2.2320  2.1999 -0.6731
  771MPD2    H311438   1.963   4.464  14.302  0.6813  1.1510 -0.3695
  771MPD2     N11439   1.702   4.306  13.957 -0.0870  0.4514 -0.2024
  771MPD2    H511440   1.658   4.332  13.869  1.2954  3.6444  0.0460
  771MPD2    N111441   1.871   0.019  13.964  0.3113  0.0126  0.4099
  771MPD2    H711442   1.803   0.033  13.890  0.5580 -0.0493  0.1722
  772MPD2     C11443   1.514   0.554  13.623  0.5638 -0.3997  0.6107
  772MPD2    C111444   1.506   0.463  13.723  0.1781  0.3677  0.0175
  772MPD2    C211445   1.396   0.374  13.732 -0.0418  0.0579 -0.6361
  772MPD2    C311446   1.289   0.387  13.643  0.3948  0.3371 -0.0463
  772MPD2    C411447   1.292   0.484  13.540 -1.0607  1.0606 -0.0089
  772MPD2    C511448   1.408   0.556  13.537  0.5069  0.8837  0.2797
  772MPD2     H11449   1.405   0.300  13.810  1.8082  0.0091 -0.8930
  772MPD2    H111450   1.211   0.499  13.470 -1.7081  0.4125  0.6008
  772MPD2    H211451   1.605   0.606  13.598 -0.7754  2.2543  1.2108
  772MPD2    H311452   1.427   0.631  13.461  0.0061  1.5252  0.7972
  772MPD2     N11453   1.183   0.294  13.642  0.2033  0.1993 -0.3058
  772MPD2    H511454   1.102   0.311  13.583 -0.5908 -0.8740  0.4967
  772MPD2    N111455   1.611   0.437  13.806 -0.2147 -0.2236  0.1362
  772MPD2    H711456   1.597   0.373  13.884 -0.6511 -0.6517 -0.2909
  773MPD2     C11457   4.543   1.080  17.601 -0.4011 -0.1217 -0.3433
  773MPD2    C111458   4.567   0.975  17.515 -0.0934 -0.1363  0.1867
  773MPD2    C211459   4.643   0.864  17.553 -0.2969 -0.0698 -0.7452
  773MPD2    C311460   4.679   0.849  17.686  0.3834 -0.4761 -0.2966
  773MPD2    C411461   4.651   0.956   0.038 -0.8192 -0.0005 -0.2120
  773MPD2    C511462   4.585   1.063  17.729 -0.4771  0.1039 -0.9146
  773MPD2     H11463   4.677   0.790  17.482 -1.5737  0.0719 -1.5125
  773MPD2    H111464   4.689   0.960   0.140 -1.7578 -0.6667  0.1642
  773MPD2    H211465   4.491   1.169  17.566  3.3722  1.5978 -1.5732
  773MPD2    H311466   4.549   1.130   0.071 -0.0143 -0.1160 -0.5061
  773MPD2     N11467   0.018   0.737  17.727 -0.9196 -0.0345  0.1126
  773MPD2    H511468   0.063   0.675  17.660  0.0164  1.2192 -0.4175
  773MPD2    N111469   4.516   0.966  17.385  0.1786 -0.2106 -0.1675
  773MPD2    H711470   4.527   0.878  17.335 -0.1863 -0.1217 -0.4050
  774MPD2     C11471   4.587   4.593  13.370 -0.4116 -0.2005 -0.1507
  774MPD2    C111472   4.512   4.662  13.467  0.4261  0.1810 -0.9138
  774MPD2    C211473   4.404   0.012  13.425 -0.3578  0.4751 -0.3383
  774MPD2    C311474   4.381   0.031  13.293  0.6768  0.7350  0.3421
  774MPD2    C411475   4.455   4.696  13.203 -0.1742  0.0226 -0.2711
  774MPD2    C511476   4.556   4.607  13.238 -0.6110 -0.1979 -0.4747
  774MPD2     H11477   4.339   0.056  13.499  0.2129  0.7540 -0.0035
  774MPD2    H111478   4.443   4.714  13.097 -2.5689  2.4224  0.4253
  774MPD2    H211479   4.659   4.515  13.394 -0.1636  0.4408  1.1409
  774MPD2    H311480   4.608   4.549  13.163 -2.6005 -0.0668 -1.9311
  774MPD2     N11481   4.281   0.128  13.248 -0.1506  0.2065  0.4161
  774MPD2    H511482   4.230   0.174  13.322 -1.0223 -2.9401  1.7757
  774MPD2    N111483   4.544   4.636  13.601 -0.5042 -0.6253  0.3291
  774MPD2    H711484   4.641   4.612  13.613 -0.1945  0.6716  0.4325
  775MPD2     C11485   0.500   1.604  15.326 -0.0689 -0.3667  0.2642
  775MPD2    C111486   0.530   1.707  15.408 -0.2200  0.4205  0.0520
  775MPD2    C211487   0.575   1.828  15.360 -0.0546 -0.0363  0.1745
  775MPD2    C311488   0.595   1.840  15.220 -0.3968 -0.7963  0.4807
  775MPD2    C411489   0.566   1.737  15.136  0.4591 -0.0403 -0.2907
  775MPD2    C511490   0.504   1.630  15.190 -0.7012  0.6883 -0.3108
  775MPD2     H11491   0.596   1.911  15.427  1.4687  1.2148 -1.8530
  775MPD2    H111492   0.590   1.749  15.031  1.0608  0.5040 -0.0887
  775MPD2    H211493   0.481   1.507  15.369  0.6172 -0.3931  0.5070
  775MPD2    H311494   0.476   1.550  15.122 -0.2474 -0.0535  0.3634
  775MPD2     N11495   0.652   1.954  15.161 -0.2334  0.2441 -0.2746
  775MPD2    H511496   0.688   1.952  15.066  1.6184 -1.4843  0.4555
  775MPD2    N111497   0.507   1.684  15.547  1.0365 -0.5474  0.7780
  775MPD2    H711498   0.468   1.597  15.581 -1.0233  0.4075  0.8995
  776MPD2     C11499   3.841   2.267  11.719  0.4924 -0.4554  0.1160
  776MPD2    C111500   3.970   2.274  11.736  0.3776 -0.0053  0.2116
  776MPD2    C211501   4.050   2.360  11.666 -0.4440  0.4053  0.0514
  776MPD2    C311502   3.992   2.457  11.591 -0.3163  0.0894  0.9787
  776MPD2    C411503   3.855   2.461  11.576 -0.1075 -0.1914  0.2135
  776MPD2    C511504   3.783   2.357  11.635 -0.1199 -1.0965 -1.0226
  776MPD2     H11505   4.158   2.357  11.672 -0.5004 -2.7756 -0.2740
  776MPD2    H111506   3.795   2.533  11.522  0.2682  0.1275  0.2213
  776MPD2    H211507   3.788   2.185  11.768  0.7062 -0.0841  0.9799
  776MPD2    H311508   3.676   2.340  11.638  0.0130 -1.6283  0.3862
  776MPD2     N11509   4.067   2.550  11.514 -0.1615  0.2075  0.2149
  776MPD2    H511510   4.024   2.627  11.464  1.6959  0.1363 -1.4712
  776MPD2    N111511   4.033   2.181  11.828  0.0060 -1.1655 -0.2389
  776MPD2    H711512   3.976   2.120  11.887  0.8832 -0.6429  1.1530
  777MPD2     C11513   4.667   4.167   0.753  0.0489 -0.4207  0.4195
  777MPD2    C111514   4.730   4.071   0.830  0.1603  0.1792 -0.3197
  777MPD2    C211515   0.012   3.943   0.773  0.2532 -0.7638 -0.6353
  777MPD2    C311516   4.724   3.920   0.639 -0.2878 -0.8599  0.0539
  777MPD2    C411517   4.676   4.024   0.563  0.3434  0.2821 -0.2323
  777MPD2    C511518   4.639   4.140   0.623 -0.0466 -0.4975  0.4412
  777MPD2     H11519   0.053   3.859   0.828  1.0525  0.9631  1.4227
  777MPD2    H111520   4.646   4.012   0.459  1.1146  1.9144 -0.6426
  777MPD2    H211521   4.654   4.265   0.797  2.2979  0.0528 -0.0086
  777MPD2    H311522   4.577   4.212   0.572 -0.8208 -1.7143 -0.3420
  777MPD2     N11523   4.733   3.786   0.587  0.6428  0.3179 -0.3238
  777MPD2    H511524   4.718   3.705   0.646  0.9961  2.9282  3.3297
  777MPD2    N111525   0.030   4.096   0.968 -0.3580 -0.6559 -0.1712
  777MPD2    H711526   4.721   4.184   0.995  1.0863 -0.1724  0.5614
  778MPD2     C11527   1.511   0.101  14.874  0.0866 -0.1587 -0.0652
  778MPD2    C111528   1.532   4.714  14.818 -0.6050 -0.5301 -0.3992
  778MPD2    C211529   1.642   4.709  14.732 -0.3758 -0.7447  1.0336
  778MPD2    C311530   1.704   0.090  14.687  0.8833 -0.2842 -0.3689
  778MPD2    C411531   1.667   0.219  14.728  0.0944  0.1002  0.9316
  778MPD2    C511532   1.569   0.215  14.831 -0.0118 -0.3076  0.0224
  778MPD2     H11533   1.674   4.618  14.683 -2.0509 -1.4236  1.1851
  778MPD2    H111534   1.712   0.311  14.691  0.2215 -0.6092 -0.6932
  778MPD2    H211535   1.425   0.113  14.938  0.6416  0.8588  0.4734
  778MPD2    H311536   1.527   0.304  14.877 -0.1032 -1.9006  3.0215
  778MPD2     N11537   1.810   0.082  14.591 -0.2143  0.6642  0.0521
  778MPD2    H511538   1.865   4.731  14.580  0.3473  1.2592 -1.7374
  778MPD2    N111539   1.457   4.599  14.852  0.5701 -0.3285  0.3459
  778MPD2    H711540   1.473   4.506  14.814 -1.5599 -0.4086 -0.3816
  779MPD2     C11541   0.785   3.268  14.109  0.2739  0.1450  0.4357
  779MPD2    C111542   0.918   3.243  14.135 -0.2956  0.3207 -0.0975
  779MPD2    C211543   0.998   3.351  14.163 -0.2457 -0.2873 -0.1534
  779MPD2    C311544   0.944   3.475  14.181  0.0030 -0.2834  0.1395
  779MPD2    C411545   0.813   3.498  14.165 -0.1721  0.2649  0.2884
  779MPD2    C511546   0.727   3.393  14.124 -0.1376 -0.1573  0.1728
  779MPD2     H11547   1.104   3.328  14.166 -0.2245 -0.0145  1.1822
  779MPD2    H111548   0.778   3.600  14.170 -2.1453 -0.3835 -0.2199
  779MPD2    H211549   0.714   3.193  14.077 -0.5570  0.2653  1.9569
  779MPD2    H311550   0.630   3.421  14.084 -1.1770 -2.0405  1.4147
  779MPD2     N11551   1.039   3.582  14.208 -0.6064  0.3960 -0.2946
  779MPD2    H511552   1.019   3.681  14.205 -1.2784  0.2152 -1.7132
  779MPD2    N111553   0.979   3.119  14.126 -0.7047 -1.0740  0.0223
  779MPD2    H711554   1.076   3.098  14.148 -0.7388 -0.3159  0.8931
  780MPD2     C11555   4.515   3.184   0.391 -0.1494  0.5559 -0.1099
  780MPD2    C111556   4.578   3.180   0.271 -0.1101  0.5200 -0.3270
  780MPD2    C211557   4.713   3.142   0.279 -0.5687  0.1366 -0.6157
  780MPD2    C311558   0.044   3.107   0.396 -0.2416 -1.3153  0.0251
  780MPD2    C411559   4.709   3.123   0.511  0.3479  0.8585 -0.2797
  780MPD2    C511560   4.578   3.168   0.506  0.3484  0.2516 -0.0510
  780MPD2     H11561   0.038   3.125   0.189  1.3217  2.1342  0.2657
  780MPD2    H111562   0.022   3.104   0.607  1.5325 -1.3983 -1.3021
  780MPD2    H211563   4.408   3.203   0.401 -0.3056 -2.3799  3.8577
  780MPD2    H311564   4.517   3.174   0.595 -1.7317  2.0253 -1.5975
  780MPD2     N11565   0.166   3.046   0.390  0.3778 -0.4182 -0.0585
  780MPD2    H511566   0.221   3.054   0.305 -1.7194 -0.7690 -1.4454
  780MPD2    N111567   4.505   3.206   0.150 -0.1733  0.2981 -0.5210
  780MPD2    H711568   4.404   3.215   0.150 -0.1743  0.2862  0.0035
  781MPD2     C11569   2.334   0.943  12.519  0.0350 -0.7980 -0.4740
  781MPD2    C111570   2.409   0.856  12.435  0.1823 -0.6472 -0.8109
  781MPD2    C211571   2.483   0.903  12.324 -0.1575  0.1933  0.0760
  781MPD2    C311572   2.488   1.040  12.304  0.5049  0.5658 -0.2034
  781MPD2    C411573   2.428   1.129  12.385 -0.1866  0.0693 -0.1545
  781MPD2    C511574   2.352   1.078  12.490 -0.0815  0.5916 -0.3302
  781MPD2     H11575   2.545   0.834  12.269 -0.2885 -1.4566  1.9675
  781MPD2    H111576   2.438   1.235  12.364 -1.5000 -0.3225 -2.7145
  781MPD2    H211577   2.286   0.919  12.612  2.3411 -1.5021  0.5439
  781MPD2    H311578   2.313   1.145  12.565 -0.7588 -1.4695  1.1727
  781MPD2     N11579   2.570   1.090  12.196  0.6277 -0.1504 -0.0994
  781MPD2    H511580   2.580   1.190  12.185  0.3461 -0.2857 -1.6130
  781MPD2    N111581   2.404   0.716  12.452  0.3575  0.6153  0.4910
  781MPD2    H711582   2.457   0.650  12.395 -1.7375 -0.2903 -0.4056
  782MPD2     C11583   0.195   1.751  11.015  0.3771 -0.0545 -0.8587
  782MPD2    C111584   0.268   1.730  10.904 -0.8432 -0.2354 -0.3142
  782MPD2    C211585   0.355   1.824  10.871 -0.3757  0.1247 -0.2068
  782MPD2    C311586   0.392   1.926  10.955 -0.5661  0.2733 -0.1364
  782MPD2    C411587   0.309   1.957  11.062  0.6255  0.1569  0.6975
  782MPD2    C511588   0.207   1.867  11.091  0.1397  0.8565  0.1014
  782MPD2     H11589   0.417   1.818  10.782  0.5434  0.5054  0.4066
  782MPD2    H111590   0.318   2.044  11.126  0.5266 -1.1446  2.4546
  782MPD2    H211591   0.127   1.676  11.052  1.5057 -0.9851 -0.6958
  782MPD2    H311592   0.153   1.872  11.185  1.3277  0.2138  0.8128
  782MPD2     N11593   0.507   2.001  10.938  0.1739  0.1911  0.4333
  782MPD2    H511594   0.553   1.971  10.852 -1.3220 -0.6286 -0.0721
  782MPD2    N111595   0.253   1.615  10.830  0.3618 -0.2662 -0.1358
  782MPD2    H711596   0.179   1.555  10.864 -0.0040  0.0681 -0.3397
  783MPD2     C11597   0.050   0.981  11.319 -0.5075  0.2323  0.1092
  783MPD2    C111598   0.134   1.089  11.316 -0.4955 -0.2265  0.5267
  783MPD2    C211599   0.154   1.162  11.206  0.5710 -0.0745  0.2768
  783MPD2    C311600   0.106   1.117  11.088 -0.1345 -0.5097  0.7504
  783MPD2    C411601   0.035   0.998  11.083 -0.3997 -0.4113  0.1197
  783MPD2    C511602   4.727   0.937  11.201 -0.1468  0.4422  1.2736
  783MPD2     H11603   0.203   1.259  11.210  0.6045 -0.0425 -0.8515
  783MPD2    H111604   0.005   0.948  10.991  1.6642 -1.6094  0.0711
  783MPD2    H211605   0.048   0.924  11.412 -1.0724 -1.6765 -1.0639
  783MPD2    H311606   4.673   0.843  11.197 -0.4714  0.7326 -1.1725
  783MPD2     N11607   0.132   1.191  10.968 -0.0188 -0.3158 -0.0199
  783MPD2    H511608   0.188   1.275  10.982 -0.6862  0.5618 -2.6277
  783MPD2    N111609   0.179   1.117  11.444  0.2767 -0.2209  0.0863
  783MPD2    H711610   0.167   1.051  11.520  0.1044  0.8596  0.9967
  784MPD2     C11611   2.964   0.847   0.469  0.2431  0.9675 -0.1419
  784MPD2    C111612   2.886   0.920   0.555  0.1951 -0.5027  0.5155
  784MPD2    C211613   2.832   1.044   0.512 -1.3051  0.2999 -0.3080
  784MPD2    C311614   2.862   1.090   0.387  0.2237 -0.0775 -0.1620
  784MPD2    C411615   2.942   1.017   0.300  0.2738 -0.0353 -0.4477
  784MPD2    C511616   2.989   0.894   0.339 -0.1185  0.0443  0.5134
  784MPD2     H11617   2.763   1.096   0.576 -4.1349 -2.5781 -0.9890
  784MPD2    H111618   2.969   1.045   0.199  0.9889  2.5372  0.4476
  784MPD2    H211619   3.016   0.758   0.502  2.5814  3.2548  2.3505
  784MPD2    H311620   3.054   0.835   0.276 -0.5384  0.2990 -0.1651
  784MPD2     N11621   2.796   1.208   0.356 -0.0009  0.1807 -0.3409
  784MPD2    H511622   2.732   1.240   0.427  1.5235 -2.4853  2.2329
  784MPD2    N111623   2.834   0.869   0.676 -0.4956  0.0827 -0.4044
  784MPD2    H711624   2.786   0.940   0.731 -2.3954 -0.5021 -1.3032
  785MPD2     C11625   2.808   0.476  10.058  0.0036 -0.0433  0.4325
  785MPD2    C111626   2.792   0.551   9.944 -1.0352 -0.2736 -0.7686
  785MPD2    C211627   2.810   0.482   9.823 -0.0040 -0.2477 -0.2739
  785MPD2    C311628   2.846   0.348   9.827  0.2067 -1.2196 -0.2519
  785MPD2    C411629   2.851   0.271   9.942  1.0569 -0.2865  0.2385
  785MPD2    C511630   2.829   0.339  10.060  0.2622 -0.3564 -0.5862
  785MPD2     H11631   2.805   0.536   9.728  1.9287 -1.2862 -0.9570
  785MPD2    H111632   2.864   0.164   9.948  2.0465 -0.1761  0.0266
  785MPD2    H211633   2.813   0.526  10.154 -1.1393 -0.5966  0.7744
  785MPD2    H311634   2.838   0.288  10.155 -3.1278  0.1813  0.0238
  785MPD2     N11635   2.871   0.287   9.702 -0.2994 -0.1957 -0.1776
  785MPD2    H511636   2.860   0.348   9.622 -0.0114 -0.6778 -0.5919
  785MPD2    N111637   2.790   0.689   9.955 -0.2724  0.2012 -0.0094
  785MPD2    H711638   2.776   0.723  10.050 -0.9069  0.2020 -0.1006
  786MPD2     C11639   2.058   2.857  14.471  0.4877 -0.1018  0.2506
  786MPD2    C111640   1.965   2.773  14.522 -0.6642  1.0004  0.0695
  786MPD2    C211641   1.938   2.770  14.661 -0.0505  1.3958 -0.4035
  786MPD2    C311642   2.011   2.854  14.750 -0.7286  0.6810  0.3614
  786MPD2    C411643   2.111   2.921  14.695  0.0233 -0.0820 -0.4502
  786MPD2    C511644   2.132   2.928  14.560  0.1960 -0.0500  0.0154
  786MPD2     H11645   1.858   2.708  14.700  0.3831  0.2549 -1.3398
  786MPD2    H111646   2.171   2.988  14.756 -0.2109 -0.1428 -0.1567
  786MPD2    H211647   2.087   2.871  14.367  2.0086  1.2750  0.8531
  786MPD2    H311648   2.196   3.010  14.529  1.5144 -1.3029 -0.5881
  786MPD2     N11649   2.002   2.866  14.893 -0.1286 -0.4531 -0.1239
  786MPD2    H511650   2.068   2.929  14.938 -1.6003 -0.8718  2.6285
  786MPD2    N111651   1.891   2.681  14.447  0.8168 -0.2831 -0.2466
  786MPD2    H711652   1.829   2.622  14.501  1.7170  0.1295  1.2303
  787MPD2     C11653   1.764   2.259  14.779 -0.0966  1.0204  0.0364
  787MPD2    C111654   1.816   2.194  14.664  0.2350  0.9523  0.3163
  787MPD2    C211655   1.873   2.062  14.668 -0.1884 -0.6913  0.5028
  787MPD2    C311656   1.889   2.001  14.796  0.3705  0.1680  0.4225
  787MPD2    C411657   1.845   2.072  14.908  0.0246  0.6754 -0.1069
  787MPD2    C511658   1.784   2.195  14.900 -0.5988 -0.3848 -0.6088
  787MPD2     H11659   1.918   2.018  14.580  0.6499  0.8325  0.1672
  787MPD2    H111660   1.864   2.033  15.008 -2.4129 -0.0914  0.0470
  787MPD2    H211661   1.722   2.359  14.777 -1.7800  0.3394  1.5350
  787MPD2    H311662   1.756   2.248  14.990 -0.0661  1.8560 -1.7732
  787MPD2     N11663   1.963   1.881  14.804  0.4864 -0.2955 -0.2184
  787MPD2    H511664   2.000   1.852  14.715 -0.5973 -1.5804 -0.2346
  787MPD2    N111665   1.795   2.263  14.547  0.9371 -0.8703 -0.6585
  787MPD2    H711666   1.763   2.358  14.562  0.3273 -1.1849  0.0444
  788MPD2     C11667   3.448   1.002   1.001  0.1162 -0.5289 -0.2283
  788MPD2    C111668   3.543   0.925   0.939  0.2606 -0.2054 -0.4398
  788MPD2    C211669   3.647   0.976   0.868 -0.3698  0.3350  0.2917
  788MPD2    C311670   3.660   1.120   0.852  0.3485  0.1928 -0.2774
  788MPD2    C411671   3.568   1.190   0.923  0.1758 -0.1419 -0.5318
  788MPD2    C511672   3.463   1.140   0.986  0.0100 -0.2584 -0.3947
  788MPD2     H11673   3.725   0.914   0.824 -0.4888  2.3315 -2.7876
  788MPD2    H111674   3.587   1.296   0.928  3.1022 -0.8339  2.7543
  788MPD2    H211675   3.355   0.965   1.043 -0.0292 -1.4584 -1.3756
  788MPD2    H311676   3.387   1.207   1.027 -0.4114 -1.9689  1.6336
  788MPD2     N11677   3.753   1.187   0.766  0.6218  0.4780 -0.2978
  788MPD2    H511678   3.724   1.283   0.749 -1.2317 -0.4158 -2.1958
  788MPD2    N111679   3.547   0.783   0.952  0.4645 -0.4687  0.2382
  788MPD2    H711680   3.632   0.735   0.926  0.0779 -0.8211 -0.3942
  789MPD2     C11681   3.921   0.012  16.761  0.0921 -0.8370 -0.0643
  789MPD2    C111682   3.840   0.021  16.651 -0.2107 -0.0435 -0.2619
  789MPD2    C211683   3.763   0.137  16.639 -0.8176  0.0749  0.4781
  789MPD2    C311684   3.742   0.216  16.748 -0.4363  0.6691 -0.0917
  789MPD2    C411685   3.816   0.187  16.862  0.9591  0.1126  0.0961
  789MPD2    C511686   3.917   0.102  16.869 -0.5475 -0.0807 -0.2919
  789MPD2     H11687   3.717   0.142  16.540  0.0895 -0.5758  0.0259
  789MPD2    H111688   3.786   0.243  16.950 -2.4868  0.6396 -1.4155
  789MPD2    H211689   3.992   4.665  16.774  0.3878 -0.7171 -0.8953
  789MPD2    H311690   3.971   0.072  16.959 -3.2549 -0.7362  1.1229
  789MPD2     N11691   3.655   0.325  16.748 -0.0838 -0.2925 -0.2059
  789MPD2    H511692   3.638   0.362  16.841  1.5266 -2.1123  0.8313
  789MPD2    N111693   3.841   4.661  16.549  0.3294 -0.4443 -0.1398
  789MPD2    H711694   3.790   4.694  16.468 -1.0056 -0.9744  0.4839
  790MPD2     C11695   0.497   2.040  13.589 -0.2655 -0.1517  0.3032
  790MPD2    C111696   0.517   1.939  13.493  0.1324 -0.2278  0.4510
  790MPD2    C211697   0.437   1.938  13.383  0.0455  0.1750  1.1064
  790MPD2    C311698   0.334   2.035  13.373  0.9256  0.0694 -0.2391
  790MPD2    C411699   0.319   2.137  13.468 -0.9350  0.5205  0.6828
  790MPD2    C511700   0.399   2.131  13.577  0.0751 -0.1150 -0.2246
  790MPD2     H11701   0.449   1.858  13.311 -0.7559 -0.4624  1.6917
  790MPD2    H111702   0.239   2.209  13.475 -1.7188 -0.1354 -1.7545
  790MPD2    H211703   0.563   2.035  13.675 -0.5620 -1.9003  0.4369
  790MPD2    H311704   0.383   2.197  13.661 -1.0177 -2.2353  1.2401
  790MPD2     N11705   0.245   2.021  13.264 -0.1766 -0.6503  0.1618
  790MPD2    H511706   0.274   1.974  13.179 -2.1071 -0.6711 -0.4969
  790MPD2    N111707   0.626   1.854  13.517 -0.3770 -1.1213  0.7024
  790MPD2    H711708   0.682   1.878  13.598  0.2637  0.3456 -0.1672
  791MPD2     C11709   4.186   2.128  13.094  0.4512  0.1264 -0.0683
  791MPD2    C111710   4.249   2.031  13.031 -0.4351 -0.2995 -0.2581
  791MPD2    C211711   4.181   1.945  12.946  0.6499 -1.0677  0.5671
  791MPD2    C311712   4.048   1.952  12.926  0.2775 -0.2161 -0.1755
  791MPD2    C411713   3.985   2.064  12.982  0.3013 -0.3163  0.0431
  791MPD2    C511714   4.055   2.147  13.069  0.2429  0.3572  0.3711
  791MPD2     H11715   4.242   1.870  12.897 -2.2335 -0.4447 -3.9569
  791MPD2    H111716   3.879   2.084  12.971  0.2389 -1.4709 -1.4132
  791MPD2    H211717   4.228   2.210  13.151  3.5213  2.1165 -5.1808
  791MPD2    H311718   4.002   2.229  13.116 -0.3628  0.3656 -0.3277
  791MPD2     N11719   3.976   1.848  12.862  0.4174 -0.9701  0.1589
  791MPD2    H511720   4.038   1.771  12.836  1.8106  0.0342  0.5256
  791MPD2    N111721   4.394   2.032  13.048 -0.4036 -0.2286  0.2455
  791MPD2    H711722   4.431   2.100  13.114 -1.9613  1.6153 -0.7554
  792MPD2     C11723   0.364   2.210  11.394 -0.0217 -0.8184 -0.4460
  792MPD2    C111724   0.297   2.326  11.368 -0.1311 -0.5653  0.4749
  792MPD2    C211725   0.160   2.333  11.395 -0.2887  0.0671 -0.7062
  792MPD2    C311726   0.089   2.223  11.443  0.0126  0.3891 -0.7238
  792MPD2    C411727   0.157   2.106  11.468  0.1479  0.3000 -0.3073
  792MPD2    C511728   0.290   2.104  11.441 -0.8518 -0.1344 -0.2445
  792MPD2     H11729   0.106   2.427  11.390  0.4180  0.4881 -0.4557
  792MPD2    H111730   0.108   2.014  11.496 -0.1545  0.8578  0.9753
  792MPD2    H211731   0.468   2.200  11.367  0.2294 -0.5308  0.4157
  792MPD2    H311732   0.350   2.014  11.445 -0.2127  0.4226  2.6432
  792MPD2     N11733   4.683   2.219  11.464  0.5604  0.7139  0.0526
  792MPD2    H511734   4.648   2.130  11.498 -1.0168  1.0191 -0.7885
  792MPD2    N111735   0.374   2.438  11.315  0.3421  0.6183 -0.1865
  792MPD2    H711736   0.473   2.424  11.298  0.1513  1.7631 -2.1713
  793MPD2     C11737   4.202   2.235  10.697 -0.1084  0.1585  0.1019
  793MPD2    C111738   4.331   2.221  10.749  0.6517 -0.1887  0.6792
  793MPD2    C211739   4.350   2.241  10.881  0.3294 -0.1326  0.1595
  793MPD2    C311740   4.244   2.252  10.964  0.4710  0.0315 -0.5124
  793MPD2    C411741   4.121   2.266  10.916 -0.0602  0.3939  0.1019
  793MPD2    C511742   4.098   2.264  10.779  0.9032 -0.0009  0.0339
  793MPD2     H11743   4.449   2.243  10.925  1.0685 -2.8721 -1.3526
  793MPD2    H111744   4.032   2.267  10.978  0.0057  0.0752  0.1997
  793MPD2    H211745   4.170   2.223  10.594  0.7712  1.0044 -0.2745
  793MPD2    H311746   3.999   2.278  10.739  0.9735 -1.8375 -0.7775
  793MPD2     N11747   4.274   2.251  11.103  0.8834 -0.3707  0.4254
  793MPD2    H511748   4.371   2.236  11.127  0.7700  0.3906  1.3311
  793MPD2    N111749   4.442   2.193  10.655  0.0849  0.0666  0.1628
  793MPD2    H711750   4.536   2.190  10.693  0.4495 -3.3400 -1.0396
  794MPD2     C11751   4.008   1.351  16.805 -0.1338 -0.3087 -0.0185
  794MPD2    C111752   4.085   1.258  16.750 -0.3242 -0.1734 -0.2940
  794MPD2    C211753   4.062   1.225  16.616  0.6686 -0.1562 -0.1257
  794MPD2    C311754   3.962   1.287  16.541 -0.0287  0.0979  0.9142
  794MPD2    C411755   3.881   1.381  16.607 -0.3659 -0.0256 -0.4384
  794MPD2    C511756   3.906   1.415  16.740 -0.3804 -0.0512  0.7191
  794MPD2     H11757   4.123   1.149  16.569 -1.1324 -1.4238 -0.3866
  794MPD2    H111758   3.803   1.434  16.554  0.1015  2.3957  1.3022
  794MPD2    H211759   4.024   1.379  16.909  3.1692 -2.0155 -0.0716
  794MPD2    H311760   3.845   1.491  16.787 -0.8041 -1.6338  2.7347
  794MPD2     N11761   3.931   1.257  16.413  0.2261 -0.1258 -0.1081
  794MPD2    H511762   3.850   1.300  16.369  0.9168  2.3699  1.0550
  794MPD2    N111763   4.195   1.194  16.810 -0.1135  0.9076  0.4577
  794MPD2    H711764   4.254   1.132  16.755  0.6291  2.3373 -0.3592
  795MPD2     C11765   2.537   3.682  13.825  0.3551  0.1116  0.0645
  795MPD2    C111766   2.480   3.613  13.719 -0.2170  0.0572 -0.0210
  795MPD2    C211767   2.509   3.481  13.694 -0.4234 -0.0183  0.4607
  795MPD2    C311768   2.599   3.413  13.775 -0.3724 -0.3243 -0.0537
  795MPD2    C411769   2.643   3.479  13.891 -0.1392 -0.0914 -0.2514
  795MPD2    C511770   2.614   3.613  13.911 -0.5872 -0.1064  0.0691
  795MPD2     H11771   2.461   3.425  13.614  0.2254 -1.3303  0.9903
  795MPD2    H111772   2.703   3.430  13.966 -1.5662 -0.1143  0.8721
  795MPD2    H211773   2.514   3.785  13.847  0.4344  0.1030  0.1923
  795MPD2    H311774   2.640   3.657  14.007 -1.4159 -0.5349  0.4884
  795MPD2     N11775   2.635   3.274  13.744  0.0483  0.1453 -0.1064
  795MPD2    H511776   2.584   3.228  13.669 -0.1306  2.3474 -1.3081
  795MPD2    N111777   2.383   3.673  13.635 -0.3081  0.3784  0.1746
  795MPD2    H711778   2.347   3.611  13.564 -1.9998 -1.1072  2.2984
  796MPD2     C11779   2.037   0.016  16.060 -0.3404 -0.6151  0.8280
  796MPD2    C111780   2.072   0.090  16.172 -0.0343  0.5235 -0.0345
  796MPD2    C211781   2.094   0.222  16.154 -0.2813  0.4426  0.7453
  796MPD2    C311782   2.070   0.279  16.030  0.8504  0.0101 -0.0193
  796MPD2    C411783   2.049   0.202  15.914  0.2507  0.3955  0.0898
  796MPD2    C511784   2.041   0.064  15.931  0.6029 -0.1699 -0.5651
  796MPD2     H11785   2.118   0.289  16.235  0.6286  3.5774 -2.1134
  796MPD2    H111786   2.041   0.237  15.811 -1.0631 -0.4512 -0.0931
  796MPD2    H211787   2.000   4.649  16.076  0.2606 -0.6514  2.0259
  796MPD2    H311788   2.017   4.732  15.849 -0.5749 -2.0205  1.2659
  796MPD2     N11789   2.081   0.423  16.028  0.2304  0.6670 -0.0311
  796MPD2    H511790   2.099   0.468  16.117 -2.1207  2.0521 -0.2537
  796MPD2    N111791   2.081   0.017  16.289 -0.8698 -0.4060  0.4593
  796MPD2    H711792   2.056   4.653  16.285  1.6292 -1.0351  0.0695
  797MPD2     C11793   2.989   4.205  17.519  0.2640 -0.9041 -0.4414
  797MPD2    C111794   3.110   4.264  17.521 -0.0375 -0.4014  0.1179
  797MPD2    C211795   3.158   4.330  17.413 -0.5959  0.3170  0.3637
  797MPD2    C311796   3.082   4.361  17.301 -0.0575 -0.2245  0.3844
  797MPD2    C411797   2.952   4.305  17.302 -0.1972 -0.1064  0.0851
  797MPD2    C511798   2.915   4.224  17.407  0.0200  0.3869 -0.7210
  797MPD2     H11799   3.252   4.383  17.425  0.7622 -2.1307  0.6766
  797MPD2    H111800   2.895   4.312  17.210 -1.5768 -2.4511  0.7751
  797MPD2    H211801   2.955   4.137  17.596 -3.2568 -1.1696 -2.1887
  797MPD2    H311802   2.817   4.179  17.395  0.0031 -0.0921  1.1199
  797MPD2     N11803   3.118   4.429  17.185 -0.5499 -0.1300  0.5047
  797MPD2    H511804   3.056   4.434  17.105  1.7918  1.0974 -1.2195
  797MPD2    N111805   3.196   4.261  17.636  0.5311 -0.1770  0.5841
  797MPD2    H711806   3.286   4.301  17.615  0.7438 -0.0811  1.6979
  798MPD2     C11807   3.526   0.183  17.409  1.0108 -0.2136 -0.3812
  798MPD2    C111808   3.476   0.060  17.370  1.1988 -0.5749  0.2173
  798MPD2    C211809   3.453   4.699  17.464 -0.4273  0.1921 -0.2713
  798MPD2    C311810   3.474   4.712  17.598 -0.1484 -0.3487  0.2513
  798MPD2    C411811   3.530   0.101  17.632  0.6106 -0.5902  0.0973
  798MPD2    C511812   3.558   0.202  17.542 -0.6830 -0.9214  0.4655
  798MPD2     H11813   3.417   4.601  17.436  0.0082 -0.6488  2.0938
  798MPD2    H111814   3.538   0.136  17.734  2.7385  1.5009 -0.7696
  798MPD2    H211815   3.542   0.261  17.336 -1.6217  0.1679 -0.5491
  798MPD2    H311816   3.605   0.295  17.573 -1.5782 -0.0195 -0.8936
  798MPD2     N11817   3.455   4.607  17.686 -0.0023  0.6767 -0.4655
  798MPD2    H511818   3.431   4.521  17.638  0.8726 -0.0090  0.3217
  798MPD2    N111819   3.438   0.029  17.240 -0.1735  0.0877  0.1537
  798MPD2    H711820   3.398   4.671  17.226  1.5365 -0.8223  1.1266
  799MPD2     C11821   1.717   1.518  14.825 -0.4092  0.2521  1.1345
  799MPD2    C111822   1.775   1.446  14.718  0.8169  0.2268  0.6483
  799MPD2    C211823   1.804   1.498  14.598  0.4297  0.2953  0.5299
  799MPD2    C311824   1.773   1.628  14.573  0.7752  0.1002 -0.4182
  799MPD2    C411825   1.720   1.707  14.675 -0.6203 -0.2834  0.4698
  799MPD2    C511826   1.681   1.646  14.795  0.6308  0.0583 -0.2777
  799MPD2     H11827   1.824   1.429  14.517 -0.7044  0.2637  0.2758
  799MPD2    H111828   1.702   1.813  14.666 -0.2104 -0.3726 -1.3366
  799MPD2    H211829   1.693   1.484  14.925 -1.2549  0.0397  0.8566
  799MPD2    H311830   1.632   1.709  14.868 -1.0257 -1.0121 -0.4625
  799MPD2     N11831   1.798   1.691  14.446 -0.0026 -0.5589  0.1575
  799MPD2    H511832   1.773   1.789  14.443 -0.5573 -0.8126 -2.8873
  799MPD2    N111833   1.804   1.312  14.732  0.0718 -0.2788 -0.4163
  799MPD2    H711834   1.833   1.270  14.644  0.0845 -2.0345  0.4268
  800MPD2     C11835   1.892   2.804  13.874  0.3396 -0.9761 -0.3319
  800MPD2    C111836   2.009   2.744  13.843 -0.4563  1.4246  0.2213
  800MPD2    C211837   2.009   2.632  13.760  0.8981  0.3070  0.5745
  800MPD2    C311838   1.891   2.584  13.707  0.2365  0.6074  0.2808
  800MPD2    C411839   1.772   2.643  13.742 -0.8458  0.8211  0.1817
  800MPD2    C511840   1.777   2.747  13.830 -0.0439 -0.1637 -0.1480
  800MPD2     H11841   2.098   2.578  13.730 -0.4223 -1.9914  0.7529
  800MPD2    H111842   1.677   2.600  13.714 -0.8528  1.3556 -0.6252
  800MPD2    H211843   1.883   2.892  13.936  1.2051 -1.9213  1.1227
  800MPD2    H311844   1.686   2.797  13.860  3.1313  4.8090  1.1903
  800MPD2     N11845   1.905   2.477  13.616 -0.2092  0.1202 -0.0534
  800MPD2    H511846   2.003   2.455  13.599 -0.2783  0.1407 -0.4969
  800MPD2    N111847   2.130   2.812  13.884  0.4980  0.1547  0.1756
  800MPD2    H711848   2.113   2.899  13.933 -0.0399  0.9250 -1.3632
  801MPD2     C11849   2.266   3.467  13.950 -0.7010 -0.4766  1.1853
  801MPD2    C111850   2.310   3.379  14.045 -0.0863 -0.3746  0.4760
  801MPD2    C211851   2.289   3.422  14.173  0.9032 -0.0764 -0.4630
  801MPD2    C311852   2.242   3.549  14.203 -0.0585  0.0809 -1.0285
  801MPD2    C411853   2.213   3.637  14.103 -0.4239  0.2220  0.1137
  801MPD2    C511854   2.226   3.591  13.978 -0.3706  0.4062  0.3409
  801MPD2     H11855   2.297   3.345  14.249 -0.5580  0.5578  0.3433
  801MPD2    H111856   2.172   3.735  14.123 -0.9669 -0.2979  1.5511
  801MPD2    H211857   2.275   3.424  13.851  0.3251  1.2557  0.5323
  801MPD2    H311858   2.212   3.666  13.901 -2.7408 -0.8429 -0.4685
  801MPD2     N11859   2.215   3.589  14.333  0.5373  0.2654 -0.1118
  801MPD2    H511860   2.166   3.678  14.343  1.8709  0.7081  2.4754
  801MPD2    N111861   2.364   3.257  14.004 -0.3075 -0.2866 -0.1870
  801MPD2    H711862   2.372   3.233  13.906  0.8420  1.3897 -0.5100
  802MPD2     C11863   0.825   3.382  17.266 -0.3193  0.1354  0.3380
  802MPD2    C111864   0.954   3.363  17.313  0.4713  0.4969  0.7885
  802MPD2    C211865   1.033   3.265  17.257  1.1532 -0.2931  0.0212
  802MPD2    C311866   0.996   3.183  17.153 -0.1882 -0.4323  0.0207
  802MPD2    C411867   0.865   3.189  17.120 -0.4766  0.6532  0.2314
  802MPD2    C511868   0.778   3.279  17.181 -0.1745 -0.3483 -0.0976
  802MPD2     H11869   1.133   3.269  17.298  1.2573  2.2467 -0.4491
  802MPD2    H111870   0.817   3.115  17.057 -0.2064  0.7015 -0.0305
  802MPD2    H211871   0.755   3.460  17.293 -0.5731 -0.1069  0.3695
  802MPD2    H311872   0.678   3.286  17.140 -0.6693 -1.2979  0.9509
  802MPD2     N11873   1.096   3.094  17.110  0.3210  0.5040 -0.7823
  802MPD2    H511874   1.174   3.092  17.175  0.8600  0.0695 -1.4504
  802MPD2    N111875   1.005   3.436  17.427 -0.0853 -0.0114  0.3185
  802MPD2    H711876   1.097   3.406  17.457 -0.2855 -0.3101  0.6413
  803MPD2     C11877   2.921   1.891  12.150  0.1866  1.1005  0.4133
  803MPD2    C111878   2.895   1.999  12.236 -0.1061  0.2558  0.2643
  803MPD2    C211879   2.844   1.968  12.365  0.3471  0.4841  0.2031
  803MPD2    C311880   2.819   1.836  12.405  0.3827 -0.5617 -0.1394
  803MPD2    C411881   2.836   1.737  12.312 -0.2092 -0.0642 -0.7415
  803MPD2    C511882   2.882   1.763  12.184 -0.2102  0.6394  0.0252
  803MPD2     H11883   2.851   2.050  12.435  3.5397 -0.2415  0.7629
  803MPD2    H111884   2.803   1.640  12.347  0.6875 -0.1720 -0.1882
  803MPD2    H211885   2.970   1.901  12.054  1.3910  3.2995  1.2602
  803MPD2    H311886   2.917   1.685  12.117  1.1564 -0.4404  1.9800
  803MPD2     N11887   2.775   1.791  12.532 -0.2368 -0.1666 -0.2197
  803MPD2    H511888   2.765   1.691  12.546  0.4945 -0.0224  1.4231
  803MPD2    N111889   2.927   2.133  12.211  0.2106  0.0095  0.0848
  803MPD2    H711890   2.931   2.197  12.289  0.4254 -0.8965  0.8233
  804MPD2     C11891   2.143   3.050  16.891  0.4682  0.1361  0.0168
  804MPD2    C111892   2.142   3.031  17.027 -0.3467 -0.3877 -0.3511
  804MPD2    C211893   2.198   3.119  17.113 -0.6372  0.0464  0.5323
  804MPD2    C311894   2.277   3.224  17.065 -0.3178  0.5154 -0.4496
  804MPD2    C411895   2.284   3.242  16.927  0.8905 -0.2589  0.6277
  804MPD2    C511896   2.218   3.156  16.848 -0.7287 -0.0596 -0.4345
  804MPD2     H11897   2.198   3.096  17.219 -2.3496 -0.2144  0.4749
  804MPD2    H111898   2.340   3.321  16.878  1.4329 -2.1687 -1.8857
  804MPD2    H211899   2.110   2.978  16.817 -0.7725 -1.4168  2.0856
  804MPD2    H311900   2.226   3.172  16.741 -0.7003  0.9618 -0.2834
  804MPD2     N11901   2.349   3.304  17.152 -0.0088  0.0648  0.0386
  804MPD2    H511902   2.331   3.292  17.251 -1.0068  0.0661 -0.1417
  804MPD2    N111903   2.079   2.917  17.084 -0.2007  0.1074 -0.0085
  804MPD2    H711904   2.083   2.904  17.185  1.0027  3.8222  0.4281
  805MPD2     C11905   1.398   0.724  15.429 -0.3376  0.7023  0.2561
  805MPD2    C111906   1.384   0.845  15.484  0.5964  0.2155 -0.4119
  805MPD2    C211907   1.492   0.911  15.544  0.7722 -0.4980  0.2554
  805MPD2    C311908   1.622   0.862  15.528 -0.1213  0.6531  0.0655
  805MPD2    C411909   1.637   0.739  15.468 -0.4887  0.3266 -0.2976
  805MPD2    C511910   1.524   0.668  15.422 -0.1768 -0.2675 -0.3794
  805MPD2     H11911   1.477   0.996  15.610 -0.2861  1.1060 -2.0470
  805MPD2    H111912   1.726   0.679  15.458 -1.2505 -0.9317  0.4667
  805MPD2    H211913   1.317   0.676  15.376  0.6996  0.7844 -1.4219
  805MPD2    H311914   1.528   0.570  15.377 -0.1866 -0.7365  0.6278
  805MPD2     N11915   1.729   0.946  15.572 -0.0267 -0.2064  0.0303
  805MPD2    H511916   1.699   1.033  15.613  0.4317  0.0641 -0.2088
  805MPD2    N111917   1.262   0.912  15.482 -0.2122 -0.2298  0.2252
  805MPD2    H711918   1.263   1.003  15.525 -0.9946 -0.1733  0.1194
  806MPD2     C11919   2.133   1.573   1.275  0.2258  0.2381  0.0396
  806MPD2    C111920   2.127   1.469   1.190  0.0973  0.3688  0.0134
  806MPD2    C211921   2.064   1.486   1.061 -0.0090  0.1286  0.1819
  806MPD2    C311922   2.017   1.611   1.026  0.4183  0.1458  0.4063
  806MPD2    C411923   2.025   1.716   1.115  0.0301 -0.7190  0.3779
  806MPD2    C511924   2.072   1.689   1.244 -0.1333  0.3848  0.1266
  806MPD2     H11925   2.048   1.410   0.986 -0.8042 -0.7844  1.2764
  806MPD2    H111926   1.991   1.817   1.094 -1.8738 -1.4830 -0.1748
  806MPD2    H211927   2.186   1.564   1.369 -0.0753  0.0352  0.1922
  806MPD2    H311928   2.073   1.778   1.306  3.6246  0.8679 -0.6662
  806MPD2     N11929   1.974   1.627   0.894  0.0225 -0.5667  0.2397
  806MPD2    H511930   1.987   1.546   0.834 -0.7886 -0.8408  0.4302
  806MPD2    N111931   2.161   1.352   1.250  0.1170  0.4396 -0.2798
  806MPD2    H711932   2.187   1.360   1.348 -0.9339 -1.1912  0.1336
  807MPD2     C11933   1.810   0.811   1.693 -0.2929  0.6719 -0.3344
  807MPD2    C111934   1.938   0.770   1.681  0.1298  0.3191 -0.2604
  807MPD2    C211935   1.976   0.659   1.751 -0.1317 -0.3032 -0.2056
  807MPD2    C311936   1.892   0.578   1.823  0.1424  0.4748 -0.4751
  807MPD2    C411937   1.753   0.606   1.813  0.0843  0.1252 -0.1550
  807MPD2    C511938   1.719   0.728   1.758  0.1845  0.1668  0.4284
  807MPD2     H11939   2.076   0.622   1.735  0.5045  2.0719 -1.7852
  807MPD2    H111940   1.671   0.551   1.858 -0.6183  0.0623 -1.5088
  807MPD2    H211941   1.770   0.898   1.640  0.1049  0.6091 -0.7374
  807MPD2    H311942   1.614   0.754   1.751  0.1535  0.0814  0.5825
  807MPD2     N11943   1.944   0.461   1.882  0.1215 -0.0995 -0.9157
  807MPD2    H511944   2.043   0.437   1.881  0.0284 -0.5833  0.6059
  807MPD2    N111945   2.040   0.840   1.609  0.0984  0.8490  0.2615
  807MPD2    H711946   2.135   0.804   1.615 -0.6642 -0.4294  4.7680
  808MPD2     C11947   2.384   3.541   9.205 -0.0380 -0.3563 -0.4755
  808MPD2    C111948   2.400   3.600   9.328  0.3608 -0.0099  0.1323
  808MPD2    C211949   2.506   3.679   9.350  0.0312  0.0937 -0.0982
  808MPD2    C311950   2.608   3.694   9.259 -0.1453 -0.8178 -0.3739
  808MPD2    C411951   2.597   3.626   9.141  0.2128 -1.3164 -0.2794
  808MPD2    C511952   2.486   3.551   9.115 -0.3929  0.4717  0.0679
  808MPD2     H11953   2.512   3.713   9.452 -2.0674 -2.0653  0.7278
  808MPD2    H111954   2.675   3.630   9.065  1.1253 -0.5106  0.6971
  808MPD2    H211955   2.295   3.492   9.168  0.1467 -0.7098 -0.4537
  808MPD2    H311956   2.480   3.496   9.022 -2.1678  0.8065 -0.0129
  808MPD2     N11957   2.720   3.774   9.290 -0.0008  0.3587  0.3954
  808MPD2    H511958   2.805   3.760   9.236  1.4377  0.7432  2.5471
  808MPD2    N111959   2.305   3.591   9.427 -0.4687  0.3885 -0.3030
  808MPD2    H711960   2.327   3.647   9.509  0.2525  1.4985 -1.2642
  809MPD2     C11961   3.693   3.770   9.171 -0.0377  0.6688 -0.0970
  809MPD2    C111962   3.669   3.754   9.306 -0.4976  0.1683 -0.1759
  809MPD2    C211963   3.542   3.777   9.359 -0.3589  0.5111 -0.4034
  809MPD2    C311964   3.438   3.821   9.282 -0.1928 -0.0683  0.5026
  809MPD2    C411965   3.473   3.856   9.151 -0.4987  0.1180  0.2678
  809MPD2    C511966   3.598   3.829   9.093 -0.1167  0.3282  0.4299
  809MPD2     H11967   3.521   3.747   9.461  0.7573 -0.7383 -0.5330
  809MPD2    H111968   3.396   3.875   9.077  1.0425 -0.6663 -1.5301
  809MPD2    H211969   3.789   3.743   9.130 -0.7881 -2.2409  0.0987
  809MPD2    H311970   3.612   3.847   8.987 -0.2827 -1.9657  0.0132
  809MPD2     N11971   3.307   3.837   9.341 -0.2377  0.7363  0.4030
  809MPD2    H511972   3.297   3.808   9.438 -2.3406 -3.1842 -0.9611
  809MPD2    N111973   3.768   3.708   9.395  0.2925 -0.2121  0.1200
  809MPD2    H711974   3.742   3.686   9.491 -0.0761 -1.4436 -0.2604
  810MPD2     C11975   1.815   2.244  10.831 -0.1383  0.4645  0.6046
  810MPD2    C111976   1.863   2.267  10.702  0.1102 -0.4511  0.1219
  810MPD2    C211977   1.906   2.391  10.666 -0.2130  0.9968 -0.1960
  810MPD2    C311978   1.904   2.494  10.753  0.1946 -0.6451  1.0229
  810MPD2    C411979   1.876   2.467  10.880  0.2830  0.1097  0.3046
  810MPD2    C511980   1.831   2.341  10.920 -0.7059  0.2135  0.1991
  810MPD2     H11981   1.928   2.398  10.560 -2.4836  1.7728 -0.5993
  810MPD2    H111982   1.864   2.545  10.954  0.1270  0.4858 -0.1189
  810MPD2    H211983   1.775   2.147  10.861  0.2986  0.2686  0.5535
  810MPD2    H311984   1.796   2.331  11.022 -1.1086 -3.1763 -0.2859
  810MPD2     N11985   1.911   2.631  10.718  0.4706  0.2283  0.1301
  810MPD2    H511986   1.901   2.705  10.787  1.0096 -0.0121  0.4675
  810MPD2    N111987   1.854   2.173  10.597  0.1158  0.6450 -0.2344
  810MPD2    H711988   1.900   2.186  10.507 -0.5772  1.0481 -0.5284
  811MPD2     C11989   1.576   2.223   9.809 -0.2327 -0.2433  0.6531
  811MPD2    C111990   1.610   2.262   9.937  1.3067 -0.2976 -0.2723
  811MPD2    C211991   1.642   2.394   9.957  0.4292 -0.7506 -0.7436
  811MPD2    C311992   1.635   2.484   9.854  0.4959  0.0338 -0.1179
  811MPD2    C411993   1.613   2.436   9.729  0.0921  0.1940 -0.4424
  811MPD2    C511994   1.588   2.307   9.701 -0.5023  0.4664 -0.1053
  811MPD2     H11995   1.648   2.425  10.061  2.3864 -0.2620 -1.0037
  811MPD2    H111996   1.612   2.510   9.649  1.8909  1.2624  0.5269
  811MPD2    H211997   1.539   2.122   9.795  0.9157 -0.5830  0.0934
  811MPD2    H311998   1.559   2.265   9.605 -2.0852  0.8383  0.2239
  811MPD2     N11999   1.644   2.619   9.889 -0.0421  0.0134  0.9973
  811MPD2    H512000   1.669   2.650   9.982  1.2300  0.0393  0.6400
  811MPD2    N112001   1.621   2.167  10.040 -0.6880  0.2409  0.0291
  811MPD2    H712002   1.620   2.069  10.015 -0.8491 -0.0482  1.1621
  812MPD2     C12003   0.307   2.063  12.109 -0.0354 -0.3433 -0.6071
  812MPD2    C112004   0.410   2.153  12.133 -0.5711  0.5974  0.1377
  812MPD2    C212005   0.498   2.123  12.237  0.3886 -0.0342 -0.1177
  812MPD2    C312006   0.476   2.009  12.316 -0.3384 -0.1708 -1.1329
  812MPD2    C412007   0.373   1.925  12.283 -0.5864 -0.0243  0.8283
  812MPD2    C512008   0.290   1.946  12.179  0.0524  0.1569  0.7775
  812MPD2     H12009   0.582   2.183  12.268 -1.2789  2.7927 -1.0608
  812MPD2    H112010   0.363   1.831  12.336 -0.6568 -0.4607  0.0391
  812MPD2    H212011   0.246   2.088  12.023  1.4310  0.2799 -1.4519
  812MPD2    H312012   0.208   1.877  12.159  0.0129  0.0532  1.2971
  812MPD2     N12013   0.567   1.985  12.419 -0.4506  0.3318 -0.1196
  812MPD2    H512014   0.646   2.046  12.438 -1.1322  0.7291  1.4674
  812MPD2    N112015   0.418   2.276  12.066 -0.2427 -0.4354  0.2796
  812MPD2    H712016   0.339   2.321  12.020 -0.5412 -0.1377  1.0881
  813MPD2     C12017   0.281   3.789  12.816  0.9214  0.0459 -0.6159
  813MPD2    C112018   0.215   3.912  12.837  0.0228  0.5678 -0.3176
  813MPD2    C212019   0.106   3.923  12.915  0.3412  0.0765  0.3801
  813MPD2    C312020   0.065   3.820  12.995  0.2244 -0.1469  0.0644
  813MPD2    C412021   0.126   3.694  12.978 -0.3629 -0.2770  0.5159
  813MPD2    C512022   0.230   3.685  12.886 -0.1040 -0.3062 -0.0703
  813MPD2     H12023   0.050   4.016  12.926  1.0675  0.7115 -1.1954
  813MPD2    H112024   0.095   3.606  13.034 -1.5934 -1.3407 -1.8312
  813MPD2    H212025   0.365   3.768  12.751  1.0330 -2.1197  0.2298
  813MPD2    H312026   0.274   3.586  12.881  2.6553  0.9583 -0.9977
  813MPD2     N12027   4.692   3.846  13.084  0.5811 -0.0043  0.1365
  813MPD2    H512028   4.634   3.927  13.066 -0.4293 -0.5277  1.0330
  813MPD2    N112029   0.265   4.031  12.767  0.5965 -0.2308 -0.1226
  813MPD2    H712030   0.210   4.116  12.769  1.0800  0.0609  0.8097
  814MPD2     C12031   4.710   0.257  12.154 -0.2603  0.4975  0.7109
  814MPD2    C112032   0.063   0.285  12.052 -0.1460  0.0905  0.1059
  814MPD2    C212033   0.142   0.396  12.065  0.3635 -0.3029  0.1105
  814MPD2    C312034   0.134   0.477  12.182 -0.2436  0.8142  0.0470
  814MPD2    C412035   0.036   0.448  12.279  0.1823 -0.0752 -0.2897
  814MPD2    C512036   4.696   0.337  12.261 -0.4535 -0.5625  0.6423
  814MPD2     H12037   0.220   0.414  11.992  0.2200  0.7575  0.2277
  814MPD2    H112038   0.023   0.502  12.372  0.1448 -1.0686  0.2880
  814MPD2    H212039   4.657   0.163  12.152  0.6469 -0.0357  1.8807
  814MPD2    H312040   4.624   0.317  12.340 -3.3811  0.4664 -1.7650
  814MPD2     N12041   0.216   0.592  12.204  0.6722  0.1069 -0.0399
  814MPD2    H512042   0.202   0.647  12.288 -1.3777 -2.5760  1.3733
  814MPD2    N112043   0.098   0.193  11.947 -0.0760 -0.3546  0.2997
  814MPD2    H712044   0.158   0.231  11.874 -0.6943  1.2871  0.6460
  815MPD2     C12045   0.950   3.855  12.011 -0.1619  0.5438  0.0262
  815MPD2    C112046   0.908   3.750  11.938 -0.3489 -0.9084 -0.0862
  815MPD2    C212047   0.784   3.688  11.975  0.2598 -0.0577  0.2381
  815MPD2    C312048   0.710   3.734  12.083  0.5517  0.3005 -0.4762
  815MPD2    C412049   0.752   3.844  12.147  0.6742  0.0362  0.7879
  815MPD2    C512050   0.867   3.907  12.112  0.0136  0.2144 -0.5408
  815MPD2     H12051   0.759   3.596  11.923 -0.5495  1.4696 -2.0740
  815MPD2    H112052   0.709   3.893  12.234  1.6971  2.0648  0.1280
  815MPD2    H212053   1.040   3.910  11.986 -1.5672  2.1430 -1.5163
  815MPD2    H312054   0.900   3.995  12.166 -1.2652 -1.6042  3.1775
  815MPD2     N12055   0.594   3.659  12.123  0.2352  0.5709 -0.3948
  815MPD2    H512056   0.581   3.572  12.072  1.3203 -0.6914  1.4828
  815MPD2    N112057   0.975   3.706  11.822  0.2801 -0.0981 -0.1440
  815MPD2    H712058   0.935   3.630  11.768 -2.3152  1.5989 -0.6079
  816MPD2     C12059   1.018   2.909  17.452  0.9193  0.6221 -0.5722
  816MPD2    C112060   0.892   2.900  17.398  0.9641  0.1628  0.8638
  816MPD2    C212061   0.872   2.823  17.289 -0.6179 -0.2842 -0.0690
  816MPD2    C312062   0.975   2.765  17.215 -0.5700 -0.4225  0.1796
  816MPD2    C412063   1.102   2.781  17.263  0.1504  0.8520 -0.4793
  816MPD2    C512064   1.118   2.842  17.384 -0.0172  0.6030 -0.0668
  816MPD2     H12065   0.769   2.820  17.253 -0.1062  2.0628 -1.7380
  816MPD2    H112066   1.196   2.751  17.220  0.1776 -2.3137  1.7998
  816MPD2    H212067   1.047   2.975  17.533 -2.2008 -0.3455  1.3575
  816MPD2    H312068   1.218   2.853  17.425  0.1475  1.6567 -0.7530
  816MPD2     N12069   0.955   2.702  17.086  0.2004  0.0302 -0.0386
  816MPD2    H512070   0.863   2.723  17.049  0.4589  1.1833 -0.0423
  816MPD2    N112071   0.799   2.979  17.474  0.6419  0.1080 -0.6162
  816MPD2    H712072   0.838   3.023  17.556  1.0037  0.5070 -1.0090
  817MPD2     C12073   1.782   0.803  10.286 -0.2139 -0.2324  0.3102
  817MPD2    C112074   1.823   0.672  10.298  0.6963  0.3642  0.1633
  817MPD2    C212075   1.749   0.575  10.239  0.5202  0.9053 -0.2112
  817MPD2    C312076   1.627   0.594  10.175  0.3893 -0.6560  0.3625
  817MPD2    C412077   1.592   0.723  10.156 -0.2642  1.4442 -0.5727
  817MPD2    C512078   1.662   0.832  10.217 -0.4439  0.5019 -0.4090
  817MPD2     H12079   1.793   0.476  10.249 -0.5158  0.6586  1.8328
  817MPD2    H112080   1.494   0.745  10.114  0.9314  3.1920 -2.4380
  817MPD2    H212081   1.846   0.882  10.323  0.7305 -0.7070 -0.2760
  817MPD2    H312082   1.626   0.933  10.205 -1.2959  0.3945  1.2960
  817MPD2     N12083   1.551   0.486  10.133 -0.3374  0.6608  0.4131
  817MPD2    H512084   1.598   0.397  10.148 -0.8592  0.1909 -0.6825
  817MPD2    N112085   1.947   0.636  10.364 -0.2395  0.0778 -0.5183
  817MPD2    H712086   1.959   0.536  10.376  0.9208  0.2887  0.0806
  818MPD2     C12087   4.694   4.338  10.006  0.2301  0.3586 -0.0632
  818MPD2    C112088   4.585   4.289  10.067  0.0892 -0.4007  0.3223
  818MPD2    C212089   4.571   4.154  10.087 -0.2428 -0.2604 -0.1646
  818MPD2    C312090   4.677   4.063  10.045  0.4488 -0.0547 -0.1286
  818MPD2    C412091   0.056   4.114   9.997 -0.5328  0.1271  0.0755
  818MPD2    C512092   0.059   4.251   9.966 -0.3451  0.0527  0.2567
  818MPD2     H12093   4.474   4.115  10.117 -2.0926  2.0131 -3.2517
  818MPD2    H112094   0.151   4.062   9.987 -0.6465 -0.0758  0.0574
  818MPD2    H212095   4.709   4.440   9.974 -1.7928 -0.1868 -2.7127
  818MPD2    H312096   0.153   4.284   9.924 -1.2509  0.1345 -1.6647
  818MPD2     N12097   4.675   3.926  10.086  0.1158 -0.3144 -0.0422
  818MPD2    H512098   0.024   3.867  10.081  1.7073  1.8649  0.9424
  818MPD2    N112099   4.477   4.366  10.106 -0.2987  0.7161  0.2947
  818MPD2    H712100   4.403   4.317  10.156  0.7120 -0.6606  0.4405
  819MPD2     C12101   2.453   1.336  15.405  0.1492  0.2007 -1.3118
  819MPD2    C112102   2.415   1.198  15.413  0.0182 -0.1434 -0.2369
  819MPD2    C212103   2.475   1.116  15.509  0.2779 -1.1967 -0.2611
  819MPD2    C312104   2.591   1.150  15.561  0.7436  0.5403  0.1464
  819MPD2    C412105   2.628   1.286  15.565  0.0344  0.2225 -0.5472
  819MPD2    C512106   2.555   1.378  15.484  0.4425 -0.1807  0.2152
  819MPD2     H12107   2.453   1.012  15.527 -2.4965 -1.3196 -4.4226
  819MPD2    H112108   2.720   1.315  15.614 -0.5283 -2.7074  2.1710
  819MPD2    H212109   2.410   1.408  15.337 -2.7287 -0.2191  0.0525
  819MPD2    H312110   2.583   1.482  15.475  0.0999 -0.3726 -2.9166
  819MPD2     N12111   2.658   1.051  15.635 -0.2904  0.1862  0.0868
  819MPD2    H512112   2.619   0.958  15.627  1.3461 -0.3023 -2.3759
  819MPD2    N112113   2.309   1.150  15.327  0.5927 -0.1891  0.6154
  819MPD2    H712114   2.277   1.216  15.256 -1.4351 -1.3330  0.4720
  820MPD2     C12115   1.511   1.559  15.315  0.0362  0.1571 -0.2823
  820MPD2    C112116   1.480   1.428  15.331  0.1529  0.1413  0.2483
  820MPD2    C212117   1.576   1.330  15.325 -0.1677 -0.2916 -0.6430
  820MPD2    C312118   1.700   1.361  15.275  0.0064 -0.6038  0.3391
  820MPD2    C412119   1.733   1.492  15.243  0.3804 -0.2836 -0.8984
  820MPD2    C512120   1.641   1.588  15.279  0.4447  0.2162  0.3860
  820MPD2     H12121   1.547   1.231  15.358 -1.0197  1.0509  2.6286
  820MPD2    H112122   1.826   1.516  15.194  0.3927  1.2241 -0.1086
  820MPD2    H212123   1.435   1.635  15.313 -1.3112 -1.1438  1.6118
  820MPD2    H312124   1.663   1.691  15.252 -0.6549  0.7789  1.6319
  820MPD2     N12125   1.805   1.268  15.256 -0.0208 -0.5316  0.5031
  820MPD2    H512126   1.889   1.315  15.224 -1.7574  1.2098 -1.4790
  820MPD2    N112127   1.344   1.395  15.355  0.3715 -0.6021  0.1628
  820MPD2    H712128   1.273   1.466  15.339  0.5352 -0.0338  2.0383
  821MPD2     C12129   2.137   2.834  13.033  0.1264  0.0708  0.1840
  821MPD2    C112130   2.205   2.766  13.139 -0.5600 -0.4207 -0.4182
  821MPD2    C212131   2.314   2.823  13.196 -0.1857  0.0156 -0.5570
  821MPD2    C312132   2.383   2.922  13.139 -0.7052  0.0541  0.3207
  821MPD2    C412133   2.328   2.987  13.030  0.6116 -0.2465 -0.1190
  821MPD2    C512134   2.198   2.946  12.985  0.6814  0.2572 -0.3441
  821MPD2     H12135   2.354   2.776  13.285  0.0417 -0.8625 -1.1228
  821MPD2    H112136   2.377   3.070  12.981 -0.8551  1.8446  1.9036
  821MPD2    H212137   2.034   2.809  13.008 -0.8528  2.5102  1.7270
  821MPD2    H312138   2.149   3.009  12.911 -0.3419  1.5056  1.3795
  821MPD2     N12139   2.511   2.957  13.186  0.2642  0.2319  0.3633
  821MPD2    H512140   2.548   3.048  13.159  0.6288  0.2016  0.7532
  821MPD2    N112141   2.157   2.646  13.196 -0.4914 -0.2133  0.0572
  821MPD2    H712142   2.204   2.621  13.282 -2.7159 -1.7015  0.8546
  822MPD2     C12143   2.992   2.441  15.700 -0.2765  0.8430  0.4028
  822MPD2    C112144   3.008   2.408  15.836 -0.1589 -0.2635  0.5802
  822MPD2    C212145   2.936   2.480  15.928 -0.3581 -0.6282 -0.4574
  822MPD2    C312146   2.857   2.590  15.903 -0.2311 -0.9739  0.3129
  822MPD2    C412147   2.837   2.614  15.769  1.0104  0.3908  0.6398
  822MPD2    C512148   2.901   2.544  15.668 -0.0892  0.3412  0.2114
  822MPD2     H12149   2.931   2.441  16.029  1.5950 -1.2506 -0.6072
  822MPD2    H112150   2.783   2.704  15.744  1.7533  0.5281 -0.4497
  822MPD2    H212151   3.035   2.382  15.621 -1.0937 -2.0141  2.1098
  822MPD2    H312152   2.883   2.574  15.565  1.0580  1.7740  0.4246
  822MPD2     N12153   2.787   2.649  16.005  0.3054  0.3398  0.0229
  822MPD2    H512154   2.784   2.599  16.094 -1.2702 -0.0293 -0.2319
  822MPD2    N112155   3.091   2.309  15.885 -0.2768 -0.1286  0.4490
  822MPD2    H712156   3.089   2.294  15.986 -0.1964  0.1773  0.4961
  823MPD2     C12157   2.296   2.749  16.721  0.2155  0.3691  0.4574
  823MPD2    C112158   2.356   2.678  16.621 -0.3360  0.0830  0.5428
  823MPD2    C212159   2.399   2.550  16.644 -0.0580 -0.2963  0.2712
  823MPD2    C312160   2.391   2.498  16.774 -0.4843  0.1702  0.5895
  823MPD2    C412161   2.329   2.567  16.877  0.1004 -0.2551 -0.0886
  823MPD2    C512162   2.278   2.695  16.842  0.1059 -0.2269  0.8744
  823MPD2     H12163   2.447   2.490  16.567 -0.0665  0.1308 -0.0706
  823MPD2    H112164   2.327   2.527  16.978 -2.8668 -1.6828 -0.7283
  823MPD2    H212165   2.258   2.850  16.711  1.6796  0.9824  1.0521
  823MPD2    H312166   2.233   2.749  16.924  1.1621  1.4088  0.3830
  823MPD2     N12167   2.445   2.369  16.805  0.1470  0.2853  0.2150
  823MPD2    H512168   2.437   2.329  16.898  1.2552  0.8174  0.5421
  823MPD2    N112169   2.391   2.752  16.501  0.3299  0.3186 -0.2438
  823MPD2    H712170   2.374   2.852  16.508  1.1148  0.4159  0.2968
  824MPD2     C12171   3.433   1.445  15.941  0.4623  0.0499 -0.1546
  824MPD2    C112172   3.462   1.559  15.871 -0.1237  0.3539  0.2440
  824MPD2    C212173   3.566   1.552  15.776  0.6923 -0.0579  0.1125
  824MPD2    C312174   3.634   1.438  15.745 -0.5515  0.1383  0.5401
  824MPD2    C412175   3.599   1.323  15.815  0.4582 -0.7885 -0.2700
  824MPD2    C512176   3.496   1.324  15.906 -0.3930  0.0167 -0.0172
  824MPD2     H12177   3.609   1.638  15.726  1.0967  1.5886  3.2750
  824MPD2    H112178   3.634   1.221  15.804  2.9259 -0.1336  1.5004
  824MPD2    H212179   3.369   1.438  16.028  1.4228 -1.7398  0.4084
  824MPD2    H312180   3.480   1.236  15.966  2.2700 -0.7049 -0.3689
  824MPD2     N12181   3.745   1.437  15.658 -0.0644  0.0407  0.1238
  824MPD2    H512182   3.770   1.519  15.603 -2.1587  0.5413 -0.1072
  824MPD2    N112183   3.398   1.677  15.907  0.5050 -0.5142 -0.5167
  824MPD2    H712184   3.342   1.682  15.991 -2.0570 -2.9892 -2.1058
  825MPD2     C12185   4.422   1.696  15.176  0.3405  0.4269  0.2393
  825MPD2    C112186   4.323   1.723  15.269  0.3363 -0.3971  0.6994
  825MPD2    C212187   4.282   1.853  15.285  0.2827  0.3057 -0.3522
  825MPD2    C312188   4.341   1.952  15.206 -0.3862 -0.0625  0.0958
  825MPD2    C412189   4.423   1.921  15.104 -0.0232  0.3996 -0.9342
  825MPD2    C512190   4.465   1.789  15.090  0.2655  0.4871 -0.7881
  825MPD2     H12191   4.209   1.873  15.363  2.1064 -0.3589  1.5131
  825MPD2    H112192   4.469   1.997  15.043  0.3371  2.5649  2.0416
  825MPD2    H212193   4.459   1.596  15.156  1.5162  0.5156  1.9667
  825MPD2    H312194   4.546   1.783  15.018  0.2916  1.9640 -0.8718
  825MPD2     N12195   4.313   2.088  15.217  0.1578 -0.3606 -0.6248
  825MPD2    H512196   4.357   2.156  15.156  0.3204 -0.8452 -1.0578
  825MPD2    N112197   4.257   1.610  15.328 -0.0041 -0.4210 -0.4145
  825MPD2    H712198   4.278   1.516  15.294 -0.6276 -0.3150 -1.0916
  826MPD2     C12199   3.556   1.550  13.702 -0.1971 -0.0628 -0.3344
  826MPD2    C112200   3.623   1.629  13.614  0.5603 -0.5032 -0.0190
  826MPD2    C212201   3.574   1.757  13.598 -0.4803 -0.1188 -0.8394
  826MPD2    C312202   3.462   1.803  13.668  0.1154 -0.3925  0.2682
  826MPD2    C412203   3.401   1.725  13.763  0.0710  0.2722 -0.1084
  826MPD2    C512204   3.451   1.597  13.783  0.6502  1.0373  0.5168
  826MPD2     H12205   3.629   1.824  13.533  0.5003  0.2782  0.3968
  826MPD2    H112206   3.323   1.752  13.833  0.2314  0.5602 -0.0402
  826MPD2    H212207   3.595   1.451  13.720  2.4061  0.6486 -2.0194
  826MPD2    H312208   3.423   1.525  13.860  4.3157 -2.5047 -1.4408
  826MPD2     N12209   3.417   1.934  13.662 -0.0612  0.6231  0.0297
  826MPD2    H512210   3.350   1.965  13.732 -0.0391  2.8822 -0.9737
  826MPD2    N112211   3.721   1.572  13.537 -0.1029 -0.3754  0.1657
  826MPD2    H712212   3.736   1.473  13.556  0.2883 -0.6655 -1.6359
  827MPD2     C12213   0.124   3.654   9.913 -0.2047 -0.6010 -0.7212
  827MPD2    C112214   0.128   3.527   9.952  0.1979 -0.0133 -0.6153
  827MPD2    C212215   0.024   3.443   9.919  0.1745 -0.4469 -0.3865
  827MPD2    C312216   4.654   3.480   9.835  0.1345 -0.4978  0.3714
  827MPD2    C412217   4.654   3.614   9.791 -0.1657 -0.0591  0.3469
  827MPD2    C512218   0.023   3.692   9.833  0.3293  0.1770 -0.4318
  827MPD2     H12219   0.031   3.337   9.943  1.3652 -0.4405 -0.7208
  827MPD2    H112220   4.594   3.656   9.711 -0.4941 -0.5372  0.3427
  827MPD2    H212221   0.203   3.724   9.936  1.1916 -1.2036 -3.6136
  827MPD2    H312222   0.034   3.794   9.798 -2.4156  1.1525  1.5561
  827MPD2     N12223   4.560   3.384   9.792  0.8060  0.5135 -0.3587
  827MPD2    H512224   4.578   3.291   9.827  0.3060  0.7365  0.4901
  827MPD2    N112225   0.238   3.486  10.029 -0.0289 -0.2729 -0.0940
  827MPD2    H712226   0.318   3.548  10.038  0.4019 -0.9224  0.5149
  828MPD2     C12227   3.022   3.143  12.775 -1.0023  0.4888 -0.0941
  828MPD2    C112228   2.991   3.167  12.646 -0.4229  0.4301 -0.4694
  828MPD2    C212229   3.093   3.201  12.556 -0.5105  0.1156 -0.0918
  828MPD2    C312230   3.225   3.185  12.580 -1.0607 -0.6688  0.0680
  828MPD2    C412231   3.255   3.145  12.706  0.4075 -0.1293  0.1812
  828MPD2    C512232   3.157   3.134  12.799 -0.3555 -0.1614 -1.1676
  828MPD2     H12233   3.062   3.244  12.461  0.0054  0.6208 -0.0303
  828MPD2    H112234   3.353   3.121  12.746  0.0393  0.1722  1.2708
  828MPD2    H212235   2.948   3.123  12.852 -1.8276 -0.6220 -1.1701
  828MPD2    H312236   3.187   3.100  12.898  0.6619  0.5830 -1.2296
  828MPD2     N12237   3.317   3.219  12.480 -0.1536 -0.5736  0.8294
  828MPD2    H512238   3.417   3.210  12.500 -0.0588  0.4585  0.7991
  828MPD2    N112239   2.862   3.188  12.589 -0.2634  0.6252 -0.1117
  828MPD2    H712240   2.853   3.208  12.490  1.8329  1.6394 -0.1061
  829MPD2     C12241   2.497   3.892  12.081  0.9205  0.3311 -0.1342
  829MPD2    C112242   2.551   3.773  12.048 -0.4594  0.0819 -0.7551
  829MPD2    C212243   2.539   3.663  12.132 -0.1177  0.1181  0.6825
  829MPD2    C312244   2.477   3.672  12.257  0.5009  0.2433  0.3876
  829MPD2    C412245   2.419   3.789  12.289 -0.4092 -0.8860 -0.0901
  829MPD2    C512246   2.435   3.895  12.206  0.1258  0.4221 -0.4568
  829MPD2     H12247   2.590   3.572  12.101  1.0609  1.8591 -2.5071
  829MPD2    H112248   2.373   3.799  12.387  0.2482  0.2493  0.1045
  829MPD2    H212249   2.506   3.977  12.014 -2.1871  1.4734  0.9180
  829MPD2    H312250   2.394   3.993  12.228  0.2586  0.3946 -0.0849
  829MPD2     N12251   2.473   3.572  12.354 -0.2996 -0.1311 -0.1223
  829MPD2    H512252   2.423   3.591  12.441 -0.7787  1.2121 -0.6981
  829MPD2    N112253   2.617   3.770  11.921  0.1028 -0.3382  0.6729
  829MPD2    H712254   2.615   3.851  11.860  0.3349 -1.1167 -0.3545
  830MPD2     C12255   3.188   0.536  15.825 -0.5583  0.3824  0.6676
  830MPD2    C112256   3.088   0.593  15.741  0.3238  0.0189 -0.2289
  830MPD2    C212257   3.098   0.726  15.702  0.0622  0.0745  0.4291
  830MPD2    C312258   3.210   0.805  15.731  0.7386  0.6487  0.4475
  830MPD2    C412259   3.309   0.743  15.811 -0.3508 -0.8798 -0.1237
  830MPD2    C512260   3.291   0.614  15.858  0.5772 -0.0791  0.3827
  830MPD2     H12261   3.018   0.760  15.637  0.0526 -0.3285  0.2315
  830MPD2    H112262   3.395   0.796  15.850  0.1279 -1.7498  0.0033
  830MPD2    H212263   3.177   0.435  15.862  1.1433  0.3964  1.2031
  830MPD2    H312264   3.369   0.587  15.929  1.0079  0.8657  0.2764
  830MPD2     N12265   3.220   0.938  15.691  0.8763 -0.4899  0.0498
  830MPD2    H512266   3.301   0.990  15.722 -0.9635  2.0675  0.6019
  830MPD2    N112267   2.971   0.520  15.722 -0.0983  0.1079 -0.2893
  830MPD2    H712268   2.974   0.419  15.724  1.0867  0.0872 -2.1835
  831MPD2     C12269   2.988   2.707  16.443 -0.4886 -0.4957  0.5002
  831MPD2    C112270   3.010   2.615  16.349 -0.2101 -0.3851  0.0393
  831MPD2    C212271   2.920   2.514  16.328  1.2058  0.1028 -0.0881
  831MPD2    C312272   2.800   2.502  16.398  0.1620  1.1350  0.0800
  831MPD2    C412273   2.783   2.594  16.513 -0.2970 -0.6874  1.3774
  831MPD2    C512274   2.879   2.687  16.530 -0.6961  0.4548 -0.5737
  831MPD2     H12275   2.934   2.458  16.236  0.1252  1.4219 -1.0564
  831MPD2    H112276   2.696   2.598  16.577 -1.5679 -1.9346 -0.2755
  831MPD2    H212277   3.060   2.787  16.460  0.0621 -0.7191 -0.8075
  831MPD2    H312278   2.868   2.766  16.604 -2.3408 -0.9551  0.6880
  831MPD2     N12279   2.695   2.412  16.361  0.2534 -0.6009 -0.1630
  831MPD2    H512280   2.619   2.409  16.428  0.9658  2.1372  0.7763
  831MPD2    N112281   3.125   2.636  16.264 -0.3995  0.2849 -0.2427
  831MPD2    H712282   3.176   2.722  16.281  0.2737 -0.6294  2.3298
  832MPD2     C12283   1.688   4.009  17.569  0.1307 -0.1745 -1.1584
  832MPD2    C112284   1.633   4.136  17.548 -0.1279 -0.0181  0.4236
  832MPD2    C212285   1.506   4.141  17.495  0.3881 -0.7009  0.8023
  832MPD2    C312286   1.435   4.022  17.468 -0.0222 -0.8634  0.3649
  832MPD2    C412287   1.498   3.904  17.496  0.2350  0.3880 -0.3319
  832MPD2    C512288   1.624   3.894  17.544  0.1658  0.7163  0.4551
  832MPD2     H12289   1.465   4.237  17.466  1.4558 -0.3491  0.4598
  832MPD2    H112290   1.442   3.812  17.488  0.2487  0.2232  1.4060
  832MPD2    H212291   1.786   3.989  17.611  0.2569 -0.7728 -1.7358
  832MPD2    H312292   1.670   3.802  17.579 -1.3092  0.1682  0.9373
  832MPD2     N12293   1.312   4.017  17.399  0.0917  0.3671 -0.0617
  832MPD2    H512294   1.262   3.928  17.399  1.1609 -0.2295  1.0520
  832MPD2    N112295   1.714   4.253  17.573  0.5648 -0.1415 -0.1335
  832MPD2    H712296   1.813   4.233  17.587  0.6570 -0.1430 -0.7881
  833MPD2     C12297   3.337   0.457  12.670  0.4292 -0.7845 -0.1829
  833MPD2    C112298   3.393   0.575  12.636 -0.0950  0.3362 -0.2286
  833MPD2    C212299   3.497   0.581  12.540 -0.8479  0.2409  0.3429
  833MPD2    C312300   3.530   0.467  12.469  0.3391 -0.3761  0.2058
  833MPD2    C412301   3.469   0.348  12.506  0.0039  0.2279 -0.0095
  833MPD2    C512302   3.371   0.345  12.604  0.7228  0.0814  1.0703
  833MPD2     H12303   3.556   0.671  12.527  0.2487 -0.5132  0.0569
  833MPD2    H112304   3.499   0.251  12.467 -0.4325 -0.2642  0.8728
  833MPD2    H212305   3.267   0.456  12.753  0.7170  3.3160  0.1321
  833MPD2    H312306   3.341   0.245  12.633  0.7643 -0.1544  0.2792
  833MPD2     N12307   3.623   0.471  12.355 -1.2710  0.2276 -0.5810
  833MPD2    H512308   3.644   0.381  12.313  0.4539  0.3093  0.0909
  833MPD2    N112309   3.352   0.691  12.701  0.6685  0.9050  0.3066
  833MPD2    H712310   3.257   0.694  12.738  1.1287 -0.6977  1.6179
  834MPD2     C12311   3.562   0.104  11.458 -0.5972  0.4666 -0.4193
  834MPD2    C112312   3.612   0.228  11.426  0.3716 -0.7710 -0.8359
  834MPD2    C212313   3.653   0.321  11.519  0.2221 -0.2321  0.0320
  834MPD2    C312314   3.649   0.282  11.653 -0.0029 -0.5009  0.5955
  834MPD2    C412315   3.594   0.163  11.685  0.4174  0.1825 -0.6742
  834MPD2    C512316   3.540   0.081  11.590  0.0243 -0.1415 -0.6839
  834MPD2     H12317   3.690   0.419  11.490 -0.3733  0.7235  2.5110
  834MPD2    H112318   3.568   0.136  11.787 -0.5217  2.3856 -0.3384
  834MPD2    H212319   3.521   0.038  11.383  0.1686 -2.1057  1.4616
  834MPD2    H312320   3.494   4.725  11.629 -1.1504  0.2210 -1.2185
  834MPD2     N12321   3.685   0.379  11.756  0.5848 -0.3859 -0.1267
  834MPD2    H512322   3.703   0.474  11.726  1.1589 -0.2972  0.4885
  834MPD2    N112323   3.624   0.251  11.285 -0.4877  0.0632  0.0895
  834MPD2    H712324   3.594   0.173  11.226  1.8389  0.4066 -1.5580
  835MPD2     C12325   3.776   3.538  11.213  0.7788 -0.2244 -0.3129
  835MPD2    C112326   3.675   3.544  11.309 -0.5067 -0.0621 -0.1754
  835MPD2    C212327   3.708   3.561  11.442  0.6784  0.3683  0.2007
  835MPD2    C312328   3.837   3.575  11.481 -0.4959 -0.3688  0.0683
  835MPD2    C412329   3.940   3.564  11.387  0.3063  0.4883 -0.3191
  835MPD2    C512330   3.909   3.540  11.253  0.9312  0.7319  0.1175
  835MPD2     H12331   3.628   3.559  11.516 -1.0149 -2.3559 -1.7220
  835MPD2    H112332   4.044   3.579  11.412  0.0490  0.2970  0.8437
  835MPD2    H212333   3.756   3.524  11.107  0.8961  0.1634 -0.3878
  835MPD2    H312334   3.985   3.529  11.176 -0.5945 -2.6470 -0.8787
  835MPD2     N12335   3.869   3.610  11.618  0.0911  0.2969 -0.1777
  835MPD2    H512336   3.967   3.603  11.644  0.5014  0.6030 -1.6121
  835MPD2    N112337   3.539   3.525  11.277 -0.1324  0.6311 -0.5784
  835MPD2    H712338   3.474   3.530  11.354 -1.8156  0.9902 -2.0121
  836MPD2     C12339   3.335   3.532  11.848  0.1637 -0.6340  0.4939
  836MPD2    C112340   3.394   3.566  11.972 -0.3757 -0.1775 -0.6865
  836MPD2    C212341   3.311   3.568  12.089 -0.3795  0.4223  0.8126
  836MPD2    C312342   3.174   3.544  12.080  0.6685  0.3296  0.0576
  836MPD2    C412343   3.120   3.505  11.959 -0.0822 -0.3080  0.0079
  836MPD2    C512344   3.196   3.499  11.842  0.4722  0.1469  0.0967
  836MPD2     H12345   3.356   3.607  12.179 -0.8334  0.1862  1.1431
  836MPD2    H112346   3.016   3.475  11.957 -0.3940  0.7858 -0.2758
  836MPD2    H212347   3.396   3.518  11.760  1.4267 -2.7463  1.6853
  836MPD2    H312348   3.156   3.457  11.751 -0.4922 -1.2321  1.1511
  836MPD2     N12349   3.087   3.554  12.187 -0.7083 -0.1834 -0.0605
  836MPD2    H512350   2.988   3.537  12.170 -1.1704 -1.7013  4.0585
  836MPD2    N112351   3.533   3.603  11.974  0.1515 -0.4060 -0.4244
  836MPD2    H712352   3.574   3.623  11.884  2.4907  1.7686  1.1237
  837MPD2     C12353   2.096   3.099  10.333 -0.7516 -0.5843  0.0253
  837MPD2    C112354   2.067   3.161  10.213 -0.4267  0.0423  1.1973
  837MPD2    C212355   2.102   3.295  10.198 -0.2450  0.3682  0.4580
  837MPD2    C312356   2.150   3.372  10.304  0.1712 -0.3153 -0.4588
  837MPD2    C412357   2.170   3.307  10.426  0.0713 -0.6269 -0.0904
  837MPD2    C512358   2.148   3.170  10.441  0.2174  0.6501  0.5036
  837MPD2     H12359   2.072   3.355  10.113  1.7971  0.7122 -0.0239
  837MPD2    H112360   2.207   3.358  10.514 -0.0860  1.1426 -1.0424
  837MPD2    H212361   2.065   2.997  10.352 -1.4295 -0.8058 -2.2463
  837MPD2    H312362   2.163   3.122  10.537 -1.6174 -0.6147  0.1588
  837MPD2     N12363   2.145   3.513  10.289 -0.0789 -0.0550  0.1308
  837MPD2    H512364   2.123   3.541  10.194 -3.3932  0.1457  0.9729
  837MPD2    N112365   1.979   3.104  10.118 -0.5354  0.4024 -0.0102
  837MPD2    H712366   1.970   3.167  10.038 -1.2440 -2.0324 -1.8418
  838MPD2     C12367   0.430   1.435  12.028 -0.2681  0.0394 -0.2901
  838MPD2    C112368   0.424   1.314  11.971 -0.3918 -0.3350 -0.4301
  838MPD2    C212369   0.323   1.226  12.010  0.0844 -0.9143  0.0204
  838MPD2    C312370   0.228   1.260  12.105 -0.8517 -0.2163  0.7681
  838MPD2    C412371   0.238   1.384  12.163  0.5115 -1.1607  0.2624
  838MPD2    C512372   0.333   1.470  12.116  0.0703 -0.0387 -0.3708
  838MPD2     H12373   0.330   1.129  11.962  2.2042 -1.5418  1.6162
  838MPD2    H112374   0.161   1.423  12.229 -0.6238 -2.2230 -0.4223
  838MPD2    H212375   0.495   1.515  11.995  0.1379  0.5912  1.8423
  838MPD2    H312376   0.326   1.571  12.154  0.9009 -1.2060  2.8334
  838MPD2     N12377   0.130   1.182  12.152 -0.0338 -0.2351  0.1808
  838MPD2    H512378   0.075   1.229  12.223  0.4086  1.8029 -0.8247
  838MPD2    N112379   0.519   1.269  11.880  0.5877 -0.2575 -0.5303
  838MPD2    H712380   0.495   1.188  11.824 -0.8536 -0.9563  1.1152
  839MPD2     C12381   0.748   0.697  11.121  0.0503 -0.3034  0.2002
  839MPD2    C112382   0.659   0.698  11.224  1.0408 -0.0530 -0.1664
  839MPD2    C212383   0.659   0.811  11.314 -0.1322  0.2796  0.8755
  839MPD2    C312384   0.739   0.923  11.282 -0.1316 -0.4322  0.5340
  839MPD2    C412385   0.826   0.914  11.169 -0.2537 -1.0422 -0.1434
  839MPD2    C512386   0.822   0.799  11.095 -0.7209  0.0816 -0.3500
  839MPD2     H12387   0.588   0.819  11.395  1.0894 -1.9057  2.1819
  839MPD2    H112388   0.887   0.999  11.140 -2.2006  0.2674 -0.3826
  839MPD2    H212389   0.751   0.611  11.054 -1.2987  0.3210 -0.6773
  839MPD2    H312390   0.883   0.792  11.005  2.1644 -0.8574  1.6678
  839MPD2     N12391   0.738   1.037  11.348 -0.1300  0.2264 -0.6768
  839MPD2    H512392   0.799   1.106  11.305  0.9049  0.5987  1.3795
  839MPD2    N112393   0.577   0.587  11.225 -0.1303  0.4704 -1.0494
  839MPD2    H712394   0.585   0.524  11.145  0.8743  1.7629 -1.9693
  840MPD2     C12395   0.775   3.774  10.008  0.6029  0.7089  0.1619
  840MPD2    C112396   0.761   3.718  10.132 -0.3467  0.1500 -0.5774
  840MPD2    C212397   0.824   3.777  10.239 -0.2312 -0.0483  0.1940
  840MPD2    C312398   0.891   3.900  10.223  0.1670  0.0568  0.3031
  840MPD2    C412399   0.905   3.954  10.098 -0.2198 -1.1099  0.1962
  840MPD2    C512400   0.854   3.885   9.993 -0.1302 -0.1954 -0.0294
  840MPD2     H12401   0.805   3.736  10.338  0.2534 -1.7269 -0.4129
  840MPD2    H112402   0.951   4.050  10.080 -3.2605  0.0970 -1.0900
  840MPD2    H212403   0.739   3.729   9.916  2.7536 -0.3721 -0.1666
  840MPD2    H312404   0.868   3.921   9.892 -0.9363 -0.4640 -0.2413
  840MPD2     N12405   0.942   3.981  10.323  0.3550 -0.6655 -0.3746
  840MPD2    H512406   0.983   4.067  10.289 -0.1065 -0.0053  0.7412
  840MPD2    N112407   0.673   3.608  10.144 -0.3192 -0.2974 -0.3917
  840MPD2    H712408   0.623   3.581  10.060  0.2908  1.4696 -1.3219
  841MPD2     C12409   0.532   2.756  14.548  0.5745  0.9968 -0.2691
  841MPD2    C112410   0.428   2.838  14.595  0.0178  0.1304  0.2941
  841MPD2    C212411   0.470   2.958  14.651  0.0910  0.6033 -0.0330
  841MPD2    C312412   0.608   2.987  14.674 -0.0973  0.5100 -0.3781
  841MPD2    C412413   0.701   2.897  14.635  0.2485  0.2458 -0.7950
  841MPD2    C512414   0.661   2.784  14.569 -0.8312  0.5284 -0.1917
  841MPD2     H12415   0.398   3.037  14.669  1.5089  2.0363 -0.6403
  841MPD2    H112416   0.806   2.912  14.655 -0.5074  1.4994  2.2108
  841MPD2    H212417   0.517   2.668  14.487 -0.7489 -0.7098  2.5233
  841MPD2    H312418   0.735   2.711  14.537 -1.6771 -0.0939 -0.7343
  841MPD2     N12419   0.631   3.111  14.740  0.1659 -0.3252  0.2832
  841MPD2    H512420   0.554   3.163  14.781  1.5897  1.4294  0.7327
  841MPD2    N112421   0.296   2.807  14.562  1.0467  1.1922  0.4892
  841MPD2    H712422   0.228   2.880  14.580  0.5756  0.4389  1.6647
  842MPD2     C12423   0.792   4.501  17.242 -0.7144  0.1992 -0.2765
  842MPD2    C112424   0.706   4.405  17.205  0.4073 -0.0711  0.0807
  842MPD2    C212425   0.650   4.316  17.299  0.5001 -0.1802 -0.0508
  842MPD2    C312426   0.676   4.330  17.432 -0.0974  0.7935 -0.3444
  842MPD2    C412427   0.770   4.423  17.468 -0.4962 -0.3079  0.5585
  842MPD2    C512428   0.830   4.504  17.377  0.2065 -0.3459  0.2669
  842MPD2     H12429   0.607   4.220  17.273  1.4195 -0.7619  0.5710
  842MPD2    H112430   0.792   4.433  17.574 -1.5079  0.6671  0.6769
  842MPD2    H212431   0.839   4.575  17.177 -0.7649  1.5068  1.1781
  842MPD2    H312432   0.907   4.574  17.406 -0.4844 -0.3563  2.1008
  842MPD2     N12433   0.611   4.253  17.537  0.9107  0.6002  0.5550
  842MPD2    H512434   0.661   4.241  17.624  1.2553  1.2095  0.4407
  842MPD2    N112435   0.667   4.397  17.071  0.6501 -0.3102 -0.2901
  842MPD2    H712436   0.681   4.477  17.011  0.8431 -1.6379 -2.0308
  843MPD2     C12437   2.926   4.659  17.391  0.0150 -0.5861  0.0965
  843MPD2    C112438   2.938   4.635  17.526 -0.3817 -0.9259  0.1437
  843MPD2    C212439   3.008   4.724  17.612 -0.5415 -0.0385  0.1703
  843MPD2    C312440   3.064   0.103  17.560  0.5760  0.6842 -1.0540
  843MPD2    C412441   3.048   0.125  17.425  0.2595  0.1184 -0.0449
  843MPD2    C512442   2.986   0.040  17.343 -0.1506 -0.1998 -0.7292
  843MPD2     H12443   3.022   4.689  17.714 -0.3949 -0.8550 -0.1292
  843MPD2    H112444   3.091   0.218  17.388  1.2258 -0.2843  0.0523
  843MPD2    H212445   2.867   4.590  17.332  2.1691 -0.8660 -1.7349
  843MPD2    H312446   2.970   0.074  17.241  0.0966  1.1273 -0.3283
  843MPD2     N12447   3.126   0.204  17.639  0.2158  1.1912 -0.1957
  843MPD2    H512448   3.147   0.289  17.587 -0.1820  1.9972  0.9662
  843MPD2    N112449   2.867   4.523  17.576  0.2892 -0.3324 -0.0194
  843MPD2    H712450   2.822   4.468  17.503  0.3591 -0.1299 -0.2122
  844MPD2     C12451   1.031   3.832  16.485  0.6505  0.0498 -0.4321
  844MPD2    C112452   1.120   3.736  16.508  1.2694 -0.0079 -0.6972
  844MPD2    C212453   1.195   3.743  16.618  0.5320  0.5797  0.6813
  844MPD2    C312454   1.195   3.849  16.703 -0.6431  0.5246 -0.3221
  844MPD2    C412455   1.116   3.956  16.663 -0.0139  0.9831  0.1161
  844MPD2    C512456   1.029   3.947  16.563 -0.0464  0.6889 -0.0790
  844MPD2     H12457   1.266   3.665  16.644 -1.9670 -2.3540 -1.3546
  844MPD2    H112458   1.119   4.056  16.705 -0.2490  1.7322 -1.6391
  844MPD2    H212459   0.963   3.831  16.400  3.3275 -0.8697 -2.5823
  844MPD2    H312460   0.964   4.031  16.542 -1.5208 -0.3850  0.1318
  844MPD2     N12461   1.290   3.852  16.811  0.1442  0.2608  0.9222
  844MPD2    H512462   1.353   3.773  16.821  1.9792  1.4650 -1.2401
  844MPD2    N112463   1.146   3.628  16.424 -0.2214 -0.6551 -0.0073
  844MPD2    H712464   1.212   3.554  16.449  1.3087 -0.4086 -3.3624
  845MPD2     C12465   1.847   4.530  17.215 -0.3922  0.7578 -0.0298
  845MPD2    C112466   1.715   4.527  17.245 -0.4149  0.6040 -0.7808
  845MPD2    C212467   1.657   4.401  17.239 -0.1193 -0.2414 -0.2394
  845MPD2    C312468   1.725   4.284  17.222 -0.5587 -0.4289  0.2584
  845MPD2    C412469   1.860   4.291  17.210  0.4927 -0.3580  0.1462
  845MPD2    C512470   1.916   4.412  17.212  0.3019  0.0955 -0.7351
  845MPD2     H12471   1.549   4.400  17.242 -0.0244 -3.4199  1.8771
  845MPD2    H112472   1.918   4.199  17.208  0.1365 -0.5161 -3.0607
  845MPD2    H212473   1.903   4.621  17.234  0.3043  0.5300 -0.9918
  845MPD2    H312474   2.024   4.419  17.207  0.2943  0.1010 -0.9090
  845MPD2     N12475   1.651   4.169  17.184 -0.5077  0.6714  0.3886
  845MPD2    H512476   1.550   4.179  17.188 -0.8438 -2.3285 -0.4436
  845MPD2    N112477   1.644   4.646  17.278  0.2355 -0.3569 -0.0374
  845MPD2    H712478   1.691   0.001  17.261  0.0263 -0.3097 -0.3687
  846MPD2     C12479   2.920   4.710  13.946  0.4497 -0.1876 -0.8820
  846MPD2    C112480   2.861   0.102  13.943 -0.1050  0.0437  0.5372
  846MPD2    C212481   2.814   0.160  14.061 -0.4974  0.3704 -0.0574
  846MPD2    C312482   2.825   0.096  14.180 -0.1008 -0.5219  0.0465
  846MPD2    C412483   2.879   4.703  14.185 -0.4183 -0.1871 -0.0478
  846MPD2    C512484   2.926   4.649  14.070 -0.2864 -1.3461 -0.4621
  846MPD2     H12485   2.767   0.257  14.059 -1.7436 -0.2482 -1.3410
  846MPD2    H112486   2.892   4.654  14.280  1.3678 -0.0195 -0.2129
  846MPD2    H212487   2.962   4.667  13.856  0.0476 -2.6055  0.0810
  846MPD2    H312488   2.967   4.549  14.077 -0.8139 -1.5165  0.3244
  846MPD2     N12489   2.780   0.165  14.291 -0.0066 -0.0687  0.4879
  846MPD2    H512490   2.724   0.249  14.282  0.4750  0.4427  2.2289
  846MPD2    N112491   2.875   0.168  13.817 -0.3132 -1.1002 -0.3658
  846MPD2    H712492   2.914   0.111  13.743 -0.0776 -2.2709  0.6746
  847MPD2     C12493   2.953   0.789  14.960  0.0911 -0.2301 -0.2315
  847MPD2    C112494   3.058   0.877  14.982 -0.9147  0.2069  0.2862
  847MPD2    C212495   3.169   0.836  15.053 -0.0643 -0.5477 -0.5001
  847MPD2    C312496   3.173   0.710  15.104  0.1682  0.4221  0.3104
  847MPD2    C412497   3.064   0.622  15.080 -0.0927 -0.7695  0.2131
  847MPD2    C512498   2.956   0.663  15.009  0.6533 -0.1631 -0.2752
  847MPD2     H12499   3.254   0.903  15.066 -1.2365  1.4885 -3.2365
  847MPD2    H112500   3.067   0.519  15.112 -1.9206 -0.6736  0.6710
  847MPD2    H212501   2.872   0.826  14.898  0.5912 -1.0172 -1.3551
  847MPD2    H312502   2.871   0.597  14.992  1.0376 -0.7123 -0.0529
  847MPD2     N12503   3.280   0.664  15.186 -0.3548  0.0420 -0.0680
  847MPD2    H512504   3.266   0.579  15.240 -0.6732  0.8778  1.1618
  847MPD2    N112505   3.058   1.004  14.933 -0.1120 -0.3822 -0.6157
  847MPD2    H712506   3.147   1.052  14.945 -0.1432 -0.7533  1.0559
  848MPD2     C12507   0.932   4.304  16.688  0.3501 -0.1839  0.0330
  848MPD2    C112508   1.013   4.360  16.779  0.2905  0.2510 -0.2183
  848MPD2    C212509   1.080   4.481  16.740  0.0911  0.1173  0.6792
  848MPD2    C312510   1.067   4.534  16.615 -0.4944  0.6519 -0.5294
  848MPD2    C412511   0.978   4.476  16.524  0.0466 -0.4488  0.1719
  848MPD2    C512512   0.915   4.358  16.563 -0.3863 -0.3846  0.8666
  848MPD2     H12513   1.131   4.520  16.827  0.2357 -1.0138  1.1082
  848MPD2    H112514   0.948   4.520  16.430  1.9031 -0.9008 -0.6315
  848MPD2    H212515   0.879   4.210  16.703 -0.6350  0.3550 -0.1287
  848MPD2    H312516   0.841   4.311  16.499 -0.0054 -0.6747  0.6419
  848MPD2     N12517   1.137   4.654  16.570 -0.2282 -0.3349  0.3314
  848MPD2    H512518   1.130   4.683  16.473  0.7400  0.1618  0.4115
  848MPD2    N112519   1.020   4.309  16.914  0.1045  0.4409  0.4274
  848MPD2    H712520   1.081   4.348  16.985 -0.4786  1.1872  0.5144
  849MPD2     C12521   4.716   3.951  14.179  0.8044 -0.4244 -0.4120
  849MPD2    C112522   0.097   4.031  14.176 -0.0340  0.3296 -0.3722
  849MPD2    C212523   0.204   4.002  14.269 -0.4287 -0.1373  0.3358
  849MPD2    C312524   0.206   3.890  14.347  0.0259 -0.0708 -0.3637
  849MPD2    C412525   0.099   3.808  14.341 -0.3078 -0.2470  0.3321
  849MPD2    C512526   4.722   3.840  14.259 -0.1192  0.7231  0.3223
  849MPD2     H12527   0.289   4.069  14.278 -0.3399 -0.0279 -1.3184
  849MPD2    H112528   0.093   3.720  14.405 -1.4949 -0.4694 -0.0866
  849MPD2    H212529   4.639   3.971  14.105  0.7037 -2.1942 -0.7700
  849MPD2    H312530   4.630   3.782  14.249  0.9019  0.0257 -5.2362
  849MPD2     N12531   0.311   3.868  14.439 -0.8089 -0.1466 -0.4256
  849MPD2    H512532   0.329   3.777  14.480 -0.9209 -0.1552 -0.3958
  849MPD2    N112533   0.097   4.140  14.085  0.2348 -0.6534 -0.4160
  849MPD2    H712534   0.019   4.143  14.020  0.2191 -0.9953 -0.4132
  850MPD2     C12535   2.989   2.169  14.945  0.5073  0.3595  0.0627
  850MPD2    C112536   3.037   2.140  15.070 -0.5019 -0.0499  0.1799
  850MPD2    C212537   3.175   2.129  15.088 -0.4248 -0.2074 -1.0045
  850MPD2    C312538   3.260   2.156  14.986 -0.0841 -0.5996 -0.4325
  850MPD2    C412539   3.208   2.197  14.865 -0.1388 -0.0743 -0.5663
  850MPD2    C512540   3.075   2.208  14.850  0.1681 -0.1203  0.1205
  850MPD2     H12541   3.216   2.093  15.182 -0.5434 -1.1941 -1.3284
  850MPD2    H112542   3.269   2.222  14.779 -0.7798 -3.4427 -2.0222
  850MPD2    H212543   2.882   2.165  14.927  0.9446 -1.7346 -1.9689
  850MPD2    H312544   3.027   2.246  14.761 -0.4008 -2.5347 -0.6114
  850MPD2     N12545   3.399   2.120  14.999  0.0105  0.4608  0.3449
  850MPD2    H512546   3.463   2.165  14.933 -1.0402 -0.8392 -1.5587
  850MPD2    N112547   2.953   2.127  15.186 -0.6226 -0.5485 -0.3721
  850MPD2    H712548   3.003   2.111  15.272 -2.2940  0.6762  0.8316
  851MPD2     C12549   2.801   1.773  15.924  0.5052 -0.4275  0.4252
  851MPD2    C112550   2.874   1.814  15.819  1.0767  0.3209 -0.1546
  851MPD2    C212551   2.983   1.731  15.789  0.5199 -0.0680 -0.0288
  851MPD2    C312552   3.010   1.615  15.854 -0.1996  0.0293 -0.4609
  851MPD2    C412553   2.935   1.579  15.966  0.3258 -0.4203 -0.2299
  851MPD2    C512554   2.827   1.665  15.994 -0.0702  0.2449 -0.1752
  851MPD2     H12555   3.039   1.750  15.698 -0.4898  0.4490 -0.5453
  851MPD2    H112556   2.945   1.485  16.018 -0.4222 -0.6987 -0.6003
  851MPD2    H212557   2.728   1.844  15.961 -1.4893 -1.2169 -1.9907
  851MPD2    H312558   2.766   1.634  16.078  1.0244  0.0643  0.5523
  851MPD2     N12559   3.117   1.532  15.812 -0.2050 -0.0535 -0.2927
  851MPD2    H512560   3.171   1.552  15.729  1.7963  0.6940  1.2051
  851MPD2    N112561   2.832   1.923  15.742 -0.4066 -0.4918  0.5029
  851MPD2    H712562   2.746   1.976  15.754 -0.1406  0.5993 -2.2135
  852MPD2     C12563   3.532   0.188   9.357 -0.3958 -0.7007 -0.3571
  852MPD2    C112564   3.449   0.233   9.463 -0.1326  0.3090 -0.3239
  852MPD2    C212565   3.510   0.264   9.583  0.0542 -0.2756  0.4076
  852MPD2    C312566   3.648   0.270   9.598  0.2549  0.7118  0.7308
  852MPD2    C412567   3.720   0.236   9.490  0.5916  0.3471  0.1129
  852MPD2    C512568   3.668   0.189   9.368 -0.1865  0.3528  0.0771
  852MPD2     H12569   3.446   0.291   9.666 -2.2240 -0.3656 -1.3200
  852MPD2    H112570   3.828   0.225   9.497  0.6094 -0.0191 -0.6839
  852MPD2    H212571   3.500   0.156   9.258  3.6088 -1.3961 -1.4165
  852MPD2    H312572   3.735   0.151   9.292 -1.0046 -3.6356  1.3563
  852MPD2     N12573   3.698   0.332   9.718 -0.7792  0.0148  0.2490
  852MPD2    H512574   3.634   0.363   9.790  1.3769 -0.3471  2.3086
  852MPD2    N112575   3.305   0.244   9.453 -0.0768  0.4633 -0.1432
  852MPD2    H712576   3.250   0.264   9.536  0.7793 -0.8846  0.7452
  853MPD2     C12577   4.323   4.165  12.364 -0.2597 -0.7147 -0.6079
  853MPD2    C112578   4.243   4.273  12.325 -0.7770 -0.6947 -0.1889
  853MPD2    C212579   4.210   4.301  12.191 -0.4228  0.1670 -0.3242
  853MPD2    C312580   4.259   4.215  12.092 -0.2238 -0.1604 -0.1339
  853MPD2    C412581   4.315   4.095  12.138  0.3257 -0.4455  0.3830
  853MPD2    C512582   4.347   4.070  12.267 -0.0287 -0.0275  0.0878
  853MPD2     H12583   4.162   4.394  12.162  1.0745  0.9065 -0.4193
  853MPD2    H112584   4.339   4.029  12.056  1.1363  0.4607 -0.1163
  853MPD2    H212585   4.347   4.148  12.468  1.8467 -0.5707 -1.0676
  853MPD2    H312586   4.393   3.976  12.294  0.6941  0.7837  1.6021
  853MPD2     N12587   4.242   4.237  11.949  0.1046  0.0875 -0.4034
  853MPD2    H512588   4.281   4.165  11.888  1.0249 -0.4531  0.8270
  853MPD2    N112589   4.209   4.355  12.438 -0.2730 -0.2852  0.2469
  853MPD2    H712590   4.233   4.319  12.529  1.1025 -1.9167 -0.7644
  854MPD2     C12591   1.877   0.428  12.694  0.4280  0.2351 -0.0542
  854MPD2    C112592   1.980   0.391  12.610  0.0363 -0.0657 -0.5027
  854MPD2    C212593   2.046   0.272  12.634  0.3889 -0.6161 -0.4534
  854MPD2    C312594   2.014   0.192  12.746  0.0185  0.6261  0.4904
  854MPD2    C412595   1.918   0.237  12.834 -0.4432 -0.0246  0.7550
  854MPD2    C512596   1.856   0.356  12.810 -0.2652 -0.3886 -0.0630
  854MPD2     H12597   2.127   0.253  12.565  0.1644 -1.4053 -0.4939
  854MPD2    H112598   1.878   0.173  12.912 -2.2738  1.6114  1.1528
  854MPD2    H212599   1.808   0.504  12.661  0.4474  0.3212  0.1007
  854MPD2    H312600   1.770   0.385  12.868 -0.3926 -1.6329  0.3671
  854MPD2     N12601   2.070   0.068  12.778 -0.0953 -0.7532  0.0215
  854MPD2    H512602   2.038   0.018  12.860 -0.2152  0.7298  0.8762
  854MPD2    N112603   1.993   0.467  12.493  0.7066 -0.0369  0.3804
  854MPD2    H712604   1.942   0.555  12.491 -2.0709 -1.6198  3.2207
  855MPD2     C12605   2.512   4.323  13.459  0.1874  0.2430  0.0400
  855MPD2    C112606   2.378   4.341  13.466  0.0678  0.5956 -0.2107
  855MPD2    C212607   2.311   4.370  13.351 -0.0225  0.0201 -0.2749
  855MPD2    C312608   2.380   4.378  13.229  0.3475  0.6540 -0.6790
  855MPD2    C412609   2.516   4.369  13.224  0.2644  0.0903 -0.2275
  855MPD2    C512610   2.578   4.341  13.342  0.6156  0.5489 -0.0623
  855MPD2     H12611   2.205   4.393  13.356 -0.2591 -1.2718  0.8143
  855MPD2    H112612   2.574   4.392  13.136  1.8991 -1.0798  0.5600
  855MPD2    H212613   2.567   4.308  13.551  0.5332  0.7040 -0.0890
  855MPD2    H312614   2.687   4.339  13.339  0.5827  0.3394 -1.1268
  855MPD2     N12615   2.301   4.400  13.115 -0.0856  0.4930  0.1513
  855MPD2    H512616   2.201   4.419  13.120 -0.0514  0.2496  1.8027
  855MPD2    N112617   2.304   4.333  13.585 -0.0067 -0.2002 -0.0333
  855MPD2    H712618   2.204   4.348  13.580  0.2237  1.6449  0.8937
  856MPD2     C12619   4.040   0.120  14.253 -0.0423 -0.1051 -0.1585
  856MPD2    C112620   4.110   0.240  14.243  0.4695 -0.7564  1.0855
  856MPD2    C212621   4.049   0.350  14.183  0.3172  0.5465  0.2520
  856MPD2    C312622   3.925   0.341  14.126  0.3762  0.2390  0.1783
  856MPD2    C412623   3.863   0.219  14.135 -0.1228 -0.1884 -0.0326
  856MPD2    C512624   3.918   0.104  14.193  0.1286 -0.0766  0.3711
  856MPD2     H12625   4.108   0.440  14.166  1.5547 -0.6009 -1.6113
  856MPD2    H112626   3.769   0.215  14.081  0.0447 -0.6921 -0.2880
  856MPD2    H212627   4.077   0.033  14.306 -0.0934 -0.1176 -0.1433
  856MPD2    H312628   3.859   0.014  14.198  0.5481 -0.3442  0.4993
  856MPD2     N12629   3.858   0.447  14.056  0.4640 -0.6270 -1.0025
  856MPD2    H512630   3.763   0.428  14.023 -0.1521  1.1083 -0.2233
  856MPD2    N112631   4.241   0.261  14.288 -0.7998 -0.1807 -0.0131
  856MPD2    H712632   4.277   0.350  14.254  0.5931 -0.9243 -0.5253
  857MPD2     C12633   0.796   3.271  12.396  0.6173  0.6418 -0.3149
  857MPD2    C112634   0.893   3.204  12.482  0.1999 -0.0661 -0.2932
  857MPD2    C212635   0.999   3.281  12.528 -0.0689 -0.4897 -0.1964
  857MPD2    C312636   1.019   3.412  12.491  0.0136  0.3217 -0.1640
  857MPD2    C412637   0.936   3.462  12.398  0.6999 -0.3590  0.2733
  857MPD2    C512638   0.828   3.392  12.350  0.3094 -0.0745 -0.1958
  857MPD2     H12639   1.071   3.241  12.599  1.0062 -1.8396 -2.0503
  857MPD2    H112640   0.949   3.566  12.368 -0.0966  0.0241  1.2759
  857MPD2    H212641   0.701   3.228  12.367 -0.4350  2.8626 -0.1549
  857MPD2    H312642   0.765   3.449  12.284  0.5193 -0.4839 -0.7487
  857MPD2     N12643   1.125   3.486  12.553  0.3376 -0.2167 -0.4633
  857MPD2    H512644   1.178   3.436  12.624  0.0730  0.1055 -0.0426
  857MPD2    N112645   0.869   3.073  12.533 -0.1166  0.3996 -0.7908
  857MPD2    H712646   0.784   3.028  12.500 -0.4617  1.6853 -1.6426
  858MPD2     C12647   1.509   1.792  16.584 -0.2149  0.1945  0.4947
  858MPD2    C112648   1.568   1.730  16.690 -0.4612 -0.5692 -0.4071
  858MPD2    C212649   1.549   1.768  16.822  0.0922 -0.6869  0.2627
  858MPD2    C312650   1.464   1.874  16.853 -0.1935 -0.4423 -0.0243
  858MPD2    C412651   1.402   1.928  16.748 -0.5697  0.4550 -0.0693
  858MPD2    C512652   1.421   1.895  16.620  0.8370  0.1079 -1.0271
  858MPD2     H12653   1.596   1.704  16.895  0.0165 -2.9374 -1.6514
  858MPD2    H112654   1.324   2.001  16.770 -1.8469 -0.6715 -0.8946
  858MPD2    H212655   1.516   1.761  16.480  2.8109  0.5718  0.5931
  858MPD2    H312656   1.364   1.950  16.546  0.4204 -0.6132 -1.2432
  858MPD2     N12657   1.450   1.921  16.987 -0.3225 -1.2667 -0.3221
  858MPD2    H512658   1.388   1.998  17.009  1.5266  0.9830 -2.9858
  858MPD2    N112659   1.641   1.616  16.673 -0.4282  0.6576  0.2700
  858MPD2    H712660   1.665   1.574  16.763  3.0339 -0.5614 -1.2580
  859MPD2     C12661   0.037   3.939  15.499  0.1532 -0.6988 -0.3421
  859MPD2    C112662   0.147   3.983  15.569 -0.0634  0.1114 -0.0718
  859MPD2    C212663   0.204   3.893  15.655 -0.0050  0.3060 -0.6178
  859MPD2    C312664   0.164   3.759  15.667 -0.2652  0.6288 -0.0078
  859MPD2    C412665   0.058   3.720  15.594  0.0743  0.1451 -0.2921
  859MPD2    C512666   4.719   3.810  15.524  1.2721  0.2913  0.1875
  859MPD2     H12667   0.280   3.932  15.721  0.6963 -0.1118 -1.1828
  859MPD2    H112668   0.029   3.616  15.600  1.1357 -0.1937 -1.0242
  859MPD2    H212669   4.715   4.011  15.440 -1.8394 -1.1914  0.9571
  859MPD2    H312670   4.622   3.784  15.482  1.9460  1.0236 -1.8069
  859MPD2     N12671   0.231   3.660  15.747  0.0360 -0.3093  0.1558
  859MPD2    H512672   0.187   3.570  15.733 -0.1421 -0.4139  1.4061
  859MPD2    N112673   0.190   4.116  15.546  0.1719  0.4241  0.1819
  859MPD2    H712674   0.126   4.166  15.485  0.9561  0.7566 -0.3742
  860MPD2     C12675   2.780   4.137  11.413 -0.1237  0.1937 -0.0279
  860MPD2    C112676   2.766   4.227  11.517  0.0969  0.8529 -0.1284
  860MPD2    C212677   2.647   4.288  11.538  0.1486  0.3122 -0.1731
  860MPD2    C312678   2.543   4.258  11.467 -0.1460 -0.4657  0.1553
  860MPD2    C412679   2.548   4.163  11.377 -0.1183 -0.2992  0.6668
  860MPD2    C512680   2.669   4.101  11.344 -0.4922 -0.6636  0.1492
  860MPD2     H12681   2.646   4.367  11.612  1.3771 -0.3943  0.5999
  860MPD2    H112682   2.457   4.125  11.334 -0.3024 -1.3481  1.9785
  860MPD2    H212683   2.872   4.092  11.376  0.2231 -0.7590  1.9974
  860MPD2    H312684   2.674   4.019  11.274  0.3775  0.7039 -1.4011
  860MPD2     N12685   2.431   4.329  11.502 -0.5413 -0.2836  0.1041
  860MPD2    H512686   2.448   4.410  11.561  0.2791  0.9049 -1.7479
  860MPD2    N112687   2.873   4.270  11.597  0.4526  0.0020  0.4010
  860MPD2    H712688   2.846   4.319  11.681  0.3796  0.3068  0.1990
  861MPD2     C12689   1.532   2.530  10.878  0.6604  0.0581 -0.6400
  861MPD2    C112690   1.571   2.647  10.931  0.4028 -0.1725  0.1378
  861MPD2    C212691   1.549   2.766  10.856  0.4932 -0.3391 -0.0521
  861MPD2    C312692   1.493   2.764  10.728 -0.5460  0.7081  0.9813
  861MPD2    C412693   1.439   2.639  10.689  0.3585  0.6089  0.2113
  861MPD2    C512694   1.467   2.526  10.758 -0.1574  0.1607  0.1184
  861MPD2     H12695   1.565   2.861  10.906 -1.2666 -0.3797  0.6015
  861MPD2    H112696   1.393   2.637  10.591 -0.6843 -0.7653  0.7316
  861MPD2    H212697   1.527   2.439  10.938  0.7166  1.7171  1.8650
  861MPD2    H312698   1.432   2.430  10.722  0.1794  0.3029 -0.5893
  861MPD2     N12699   1.449   2.878  10.655  0.5791  0.0259 -0.7129
  861MPD2    H512700   1.386   2.856  10.578  0.2854 -0.8947 -0.2026
  861MPD2    N112701   1.605   2.658  11.065 -0.2324 -0.1245  0.3425
  861MPD2    H712702   1.635   2.750  11.095 -0.5075 -0.5707  1.9807
  862MPD2     C12703   0.881   3.002  10.365 -0.3401  0.2621  0.8868
  862MPD2    C112704   0.990   2.961  10.437 -0.8227 -0.3897 -0.3584
  862MPD2    C212705   0.978   2.846  10.511 -0.5099  0.2914 -0.1121
  862MPD2    C312706   0.861   2.777  10.525  0.5476  0.7215 -0.1154
  862MPD2    C412707   0.751   2.821  10.458  0.1158 -0.5614 -0.1544
  862MPD2    C512708   0.768   2.923  10.376  0.0206  0.3826  0.3413
  862MPD2     H12709   1.066   2.822  10.570  0.2844  2.2189 -0.5270
  862MPD2    H112710   0.657   2.767  10.468  2.0094 -3.5805  1.4029
  862MPD2    H212711   0.870   3.079  10.289  0.1125  0.0919  0.6488
  862MPD2    H312712   0.689   2.956  10.310  0.9849  3.1121  0.5393
  862MPD2     N12713   0.851   2.666  10.607  0.1817  0.2346  0.0136
  862MPD2    H512714   0.754   2.646  10.629 -0.0096 -0.0061 -1.0382
  862MPD2    N112715   1.122   3.024  10.436  0.5290 -0.0068 -0.4408
  862MPD2    H712716   1.189   2.985  10.501 -1.3723 -0.6761  1.1106
  863MPD2     C12717   0.022   0.925  16.407  0.2167  1.0799  0.9250
  863MPD2    C112718   4.694   0.821  16.472  0.3955 -0.3441  0.4361
  863MPD2    C212719   0.026   0.731  16.547 -0.3286  0.6048 -0.4426
  863MPD2    C312720   0.165   0.747  16.571 -0.8237  0.2082  0.0597
  863MPD2    C412721   0.225   0.863  16.517 -0.0186 -0.6729  0.3108
  863MPD2    C512722   0.156   0.947  16.434  0.7252 -0.0691 -0.2130
  863MPD2     H12723   4.710   0.648  16.597 -0.8791  0.7741 -0.7058
  863MPD2    H112724   0.331   0.881  16.523  0.4408 -2.6691 -1.6210
  863MPD2    H212725   4.704   1.003  16.353 -2.7397 -1.5229  0.0572
  863MPD2    H312726   0.208   1.035  16.397  0.8244  0.1581  0.4745
  863MPD2     N12727   0.247   0.657  16.648 -0.0937 -0.1412  0.5546
  863MPD2    H512728   0.343   0.684  16.668  1.2498 -2.7637 -2.3260
  863MPD2    N112729   4.552   0.813  16.449 -0.7553  0.6578  0.4151
  863MPD2    H712730   4.513   0.878  16.381 -1.4430  0.9755  1.1114
  864MPD2     C12731   0.079   1.842  16.935 -0.1686 -0.0285 -0.0831
  864MPD2    C112732   0.188   1.752  16.927 -0.5699 -0.0451 -0.5242
  864MPD2    C212733   0.323   1.786  16.941  0.4691 -1.1674 -0.6323
  864MPD2    C312734   0.346   1.922  16.960  0.2079  0.0981  0.1191
  864MPD2    C412735   0.237   2.007  16.994 -0.3336  0.1652  0.0612
  864MPD2    C512736   0.109   1.971  16.976 -0.8983 -0.1856  0.0951
  864MPD2     H12737   0.406   1.719  16.923  0.8824 -1.2767  1.6653
  864MPD2    H112738   0.258   2.111  17.016  2.6182 -0.5762  0.7843
  864MPD2    H212739   4.710   1.822  16.910 -0.6463  1.9747  0.2841
  864MPD2    H312740   0.022   2.032  16.998 -1.1834 -0.1985 -0.9996
  864MPD2     N12741   0.472   1.981  16.956 -0.0221  0.0772 -0.2878
  864MPD2    H512742   0.472   2.082  16.964  0.1937 -0.1604  2.7655
  864MPD2    N112743   0.153   1.617  16.894  0.3659 -0.5047 -0.8458
  864MPD2    H712744   0.058   1.591  16.871  0.7746 -2.1787 -0.6071
  865MPD2     C12745   0.502   2.188  16.157  0.1033 -0.1222 -0.3918
  865MPD2    C112746   0.562   2.066  16.192  0.4675 -0.5562  0.0430
  865MPD2    C212747   0.613   2.039  16.315  0.5409  0.6208 -0.0313
  865MPD2    C312748   0.607   2.139  16.411 -0.3485  0.5128 -0.7811
  865MPD2    C412749   0.543   2.258  16.374 -0.0631 -0.6158 -0.2704
  865MPD2    C512750   0.490   2.284  16.251  1.1703  0.0765  0.7866
  865MPD2     H12751   0.661   1.944  16.335 -1.7400 -0.5623 -0.2278
  865MPD2    H112752   0.535   2.327  16.457 -1.2418 -0.0224 -0.8741
  865MPD2    H212753   0.457   2.216  16.062  0.8108  0.8411 -0.4470
  865MPD2    H312754   0.433   2.375  16.233 -0.2044 -0.7318  1.0182
  865MPD2     N12755   0.659   2.130  16.545  0.1695 -0.1726 -0.3351
  865MPD2    H512756   0.645   2.204  16.613 -0.4937  0.9633 -1.7102
  865MPD2    N112757   0.551   1.960  16.097  0.5008 -0.2487  0.2681
  865MPD2    H712758   0.528   1.983  16.000 -0.9564 -0.8477  0.4668
  866MPD2     C12759   2.040   2.863  11.509 -0.2615  0.8944 -0.2747
  866MPD2    C112760   1.975   2.810  11.402 -0.1430 -0.2698 -0.4052
  866MPD2    C212761   1.897   2.885  11.320 -0.2274  0.0118  0.6020
  866MPD2    C312762   1.877   3.019  11.346 -0.1415 -0.3169  0.0849
  866MPD2    C412763   1.938   3.078  11.449  0.3595 -0.2050  0.3551
  866MPD2    C512764   2.011   2.993  11.540 -0.5488  0.2233  0.5680
  866MPD2     H12765   1.847   2.848  11.231  0.8954  1.9045 -0.8193
  866MPD2    H112766   1.893   3.175  11.471  2.3537  1.1941 -1.7628
  866MPD2    H212767   2.081   2.793  11.580  2.9998  2.1627 -0.9326
  866MPD2    H312768   2.051   3.029  11.634  0.4292  3.1849 -0.9792
  866MPD2     N12769   1.799   3.106  11.268  0.3684  0.0073  0.2520
  866MPD2    H512770   1.795   3.201  11.304 -2.3052 -0.3381  0.8855
  866MPD2    N112771   2.012   2.673  11.381  0.1296  0.2655 -0.2271
  866MPD2    H712772   2.079   2.636  11.447 -2.0895 -0.9902  1.3439
  867MPD2     C12773   3.682   1.788  16.075 -0.1273 -0.1208  0.2155
  867MPD2    C112774   3.701   1.691  16.172  0.4060  0.4827  0.0767
  867MPD2    C212775   3.724   1.728  16.300  0.0086  0.3200 -0.1947
  867MPD2    C312776   3.716   1.862  16.340 -0.5818 -0.2118 -0.1595
  867MPD2    C412777   3.664   1.952  16.249 -0.1501 -0.4991  0.1267
  867MPD2    C512778   3.661   1.911  16.119  0.2248 -0.5269 -0.1970
  867MPD2     H12779   3.754   1.648  16.367  1.0640 -0.4865 -1.5998
  867MPD2    H112780   3.647   2.056  16.276 -1.3666 -0.4539 -0.8668
  867MPD2    H212781   3.676   1.775  15.967  1.9409  2.7953 -0.2505
  867MPD2    H312782   3.635   1.985  16.045  1.8194 -2.1656 -2.4042
  867MPD2     N12783   3.747   1.895  16.475  0.3013 -0.1538 -0.6007
  867MPD2    H512784   3.714   1.987  16.502  0.7894 -0.3306  0.5817
  867MPD2    N112785   3.708   1.556  16.123 -0.2062  0.0930  0.7159
  867MPD2    H712786   3.702   1.536  16.023 -1.5345  0.9428  0.6207
  868MPD2     C12787   1.114   1.055  13.015  0.1304 -0.2244 -0.0833
  868MPD2    C112788   1.167   1.006  13.132 -0.3894  0.0331  0.2488
  868MPD2    C212789   1.082   0.946  13.225  0.1967 -0.4818  0.3909
  868MPD2    C312790   0.955   0.910  13.190 -0.2767 -0.6008 -0.0952
  868MPD2    C412791   0.910   0.948  13.061  0.1764  0.4821  0.2391
  868MPD2    C512792   0.986   1.027  12.982 -0.1586  0.0811 -0.2413
  868MPD2     H12793   1.120   0.912  13.320  0.0406 -0.4002  0.4822
  868MPD2    H112794   0.811   0.925  13.023 -0.4511  1.2473  1.4123
  868MPD2    H212795   1.176   1.116  12.951 -0.5926  0.4283 -0.1619
  868MPD2    H312796   0.951   1.066  12.887 -1.9443 -1.3041 -0.1524
  868MPD2     N12797   0.884   0.819  13.279 -0.2009 -0.4144 -0.1481
  868MPD2    H512798   0.931   0.783  13.361  0.0370  1.6202  0.5940
  868MPD2    N112799   1.304   1.020  13.156 -0.1985 -0.6548 -0.1804
  868MPD2    H712800   1.356   1.068  13.082  0.5771 -1.3436 -0.0765
  869MPD2     C12801   1.803   3.276   0.758 -0.0198  0.3496 -0.1280
  869MPD2    C112802   1.843   3.376   0.671  0.0306 -0.1042  0.7869
  869MPD2    C212803   1.958   3.446   0.705 -0.4729  0.0157 -0.0029
  869MPD2    C312804   2.020   3.428   0.828  0.2235  0.9462 -0.7372
  869MPD2    C412805   1.980   3.331   0.917 -0.0253 -0.0390  0.2383
  869MPD2    C512806   1.877   3.251   0.875  0.3366  0.0751 -0.0083
  869MPD2     H12807   1.981   3.532   0.643 -4.2928 -0.4862 -2.0866
  869MPD2    H112808   2.020   3.341   1.017  2.0878 -1.3323 -0.4831
  869MPD2    H212809   1.719   3.212   0.735 -1.3491  1.4599  1.7159
  869MPD2    H312810   1.832   3.174   0.935  1.6418 -1.6678 -1.2854
  869MPD2     N12811   2.116   3.514   0.877  0.2140 -0.2811 -0.2821
  869MPD2    H512812   2.116   3.517   0.978  1.8776  0.8804 -0.3037
  869MPD2    N112813   1.752   3.427   0.580 -0.0633 -0.3436  0.5948
  869MPD2    H712814   1.657   3.395   0.568  0.4083 -1.4229 -0.2954
  870MPD2     C12815   0.833   3.358   1.154  0.7106 -0.3821  0.1883
  870MPD2    C112816   0.846   3.305   1.277 -0.0890 -0.7484  0.1858
  870MPD2    C212817   0.937   3.208   1.300 -0.4256  0.8997  0.0323
  870MPD2    C312818   1.018   3.156   1.195 -0.3415 -0.5304  0.2506
  870MPD2    C412819   1.012   3.215   1.067 -0.3863  0.4163 -0.5362
  870MPD2    C512820   0.911   3.311   1.053 -0.2453 -0.1802  0.1424
  870MPD2     H12821   0.925   3.144   1.386  0.6798 -1.2624 -1.4307
  870MPD2    H112822   1.072   3.183   0.982 -1.4176 -1.3904 -0.5996
  870MPD2    H212823   0.763   3.439   1.136  1.4326  0.5737  1.6582
  870MPD2    H312824   0.900   3.359   0.956  2.6046  1.1024  0.4579
  870MPD2     N12825   1.091   3.038   1.213  0.5563 -0.2790 -0.1219
  870MPD2    H512826   1.081   2.983   1.298 -0.2356 -1.0053 -0.6922
  870MPD2    N112827   0.773   3.358   1.389 -0.0066  0.0798 -0.1450
  870MPD2    H712828   0.685   3.404   1.369  0.1618  0.6027  0.3270
  871MPD2     C12829   2.892   2.014  16.288 -0.0114 -0.6553  0.5837
  871MPD2    C112830   2.861   1.925  16.391  0.2358  0.3576  0.0820
  871MPD2    C212831   2.915   1.798  16.393  0.4116  0.0226 -0.2556
  871MPD2    C312832   2.996   1.754  16.292 -0.4034 -0.4283 -0.3103
  871MPD2    C412833   3.025   1.844  16.190 -0.3856 -0.5376  0.3260
  871MPD2    C512834   2.972   1.968  16.186  0.2063  0.3884  0.5712
  871MPD2     H12835   2.910   1.741  16.486  1.8794 -0.7231 -0.6213
  871MPD2    H112836   3.092   1.815  16.110 -0.1171  1.5111 -0.1887
  871MPD2    H212837   2.859   2.118  16.286 -1.2228 -1.0218  1.4627
  871MPD2    H312838   2.995   2.032  16.101 -0.0931 -0.6470 -0.2992
  871MPD2     N12839   3.071   1.638  16.308 -0.2567  0.4781  0.2313
  871MPD2    H512840   3.043   1.581  16.388 -1.1437 -0.8018 -1.0018
  871MPD2    N112841   2.787   1.972  16.498  0.3659 -0.6119 -0.1322
  871MPD2    H712842   2.770   2.072  16.493 -0.5262 -0.8302 -1.4345
  872MPD2     C12843   4.428   4.185  14.228 -0.3224  0.4730 -0.1552
  872MPD2    C112844   4.348   4.290  14.200 -0.2114  0.2341  0.2187
  872MPD2    C212845   4.215   4.278  14.226  0.6206  0.4716 -0.7253
  872MPD2    C312846   4.160   4.161  14.275 -0.4083  0.3931 -1.0586
  872MPD2    C412847   4.239   4.052  14.293 -0.5980  0.5638 -0.3255
  872MPD2    C512848   4.376   4.073  14.280  0.8636  0.6476 -0.1455
  872MPD2     H12849   4.142   4.354  14.201  1.2140  0.7185 -1.6920
  872MPD2    H112850   4.193   3.957  14.315  0.2245  0.6766  1.8960
  872MPD2    H212851   4.531   4.188  14.195 -0.6756  1.0535 -1.2290
  872MPD2    H312852   4.447   3.998  14.313  0.0398 -0.2105 -0.3241
  872MPD2     N12853   4.027   4.152  14.314  0.1247  0.2154 -0.5879
  872MPD2    H512854   4.015   4.081  14.386  0.8279  2.6169  1.8732
  872MPD2    N112855   4.388   4.411  14.145  0.1350 -0.4661  0.4474
  872MPD2    H712856   4.321   4.484  14.124 -0.9981 -1.5592  0.2970
  873MPD2     C12857   0.321   4.286   0.633  0.3854 -0.1698  0.1324
  873MPD2    C112858   0.346   4.215   0.751  0.7452 -0.8902  0.1333
  873MPD2    C212859   0.364   4.079   0.748  0.3015  0.3267  0.5237
  873MPD2    C312860   0.348   4.010   0.627 -0.1252  0.2061  0.1876
  873MPD2    C412861   0.322   4.082   0.514  0.0452 -0.3220  0.6381
  873MPD2    C512862   0.310   4.216   0.514  0.0279 -0.1459  0.0891
  873MPD2     H12863   0.376   4.029   0.843 -1.1769  0.5988  0.8459
  873MPD2    H112864   0.299   4.034   0.419  2.6269 -2.3984  1.0388
  873MPD2    H212865   0.295   4.391   0.621 -1.0938 -0.3058  2.0833
  873MPD2    H312866   0.289   4.269   0.422 -0.9347  1.4834  1.2416
  873MPD2     N12867   0.345   3.870   0.617 -0.4379  0.1784 -0.1393
  873MPD2    H512868   0.314   3.837   0.526 -2.3547 -1.7887  1.2246
  873MPD2    N112869   0.341   4.279   0.878 -0.7572 -0.1501  0.5417
  873MPD2    H712870   0.380   4.235   0.961 -0.5664 -0.8463  0.0787
  874MPD2     C12871   0.640   0.036  16.301 -0.1057 -0.4716  0.2242
  874MPD2    C112872   0.694   0.004  16.423 -0.3270  0.6157 -0.6866
  874MPD2    C212873   0.807   0.081  16.464 -0.0497  0.1492  0.4765
  874MPD2    C312874   0.868   0.159  16.374 -0.4935  0.0866 -0.5192
  874MPD2    C412875   0.822   0.177  16.247 -0.2279  0.0718  0.8611
  874MPD2    C512876   0.704   0.121  16.220  0.1953  1.0579 -0.3631
  874MPD2     H12877   0.866   0.062  16.553 -1.6400  0.5045  1.6190
  874MPD2    H112878   0.871   0.236  16.171 -0.1168  1.2470  1.8408
  874MPD2    H212879   0.542   0.001  16.269  0.0394 -0.7213  0.0594
  874MPD2    H312880   0.665   0.152  16.124 -1.5019 -1.2380 -0.4105
  874MPD2     N12881   0.981   0.228  16.423  0.1728 -0.0266 -0.0317
  874MPD2    H512882   1.017   0.210  16.516 -1.3309 -0.9778  0.3712
  874MPD2    N112883   0.624   4.648  16.501 -0.1660  0.7906 -0.1963
  874MPD2    H712884   0.542   4.609  16.455 -0.2939  1.3587 -0.4394
  875MPD2     C12885   1.531   2.853  14.434  0.0295 -0.0628  0.2952
  875MPD2    C112886   1.405   2.845  14.486  0.3772 -0.0064 -0.3655
  875MPD2    C212887   1.383   2.900  14.612 -0.7443  0.5079 -0.0498
  875MPD2    C312888   1.489   2.948  14.689  0.4901 -0.1598  0.4101
  875MPD2    C412889   1.617   2.936  14.639  0.6873 -0.6261 -0.0331
  875MPD2    C512890   1.637   2.896  14.513 -0.2189 -0.1105  0.1235
  875MPD2     H12891   1.284   2.903  14.656 -0.7824 -1.9729  0.0016
  875MPD2    H112892   1.704   2.977  14.689 -1.1602 -0.6869  3.1823
  875MPD2    H212893   1.564   2.829  14.333  1.4952  0.2056  0.6998
  875MPD2    H312894   1.731   2.899  14.460  0.2184 -0.1360  0.9005
  875MPD2     N12895   1.469   3.003  14.818  0.2382  0.3044 -0.1834
  875MPD2    H512896   1.376   2.985  14.855  1.4202 -0.4300  2.4736
  875MPD2    N112897   1.290   2.821  14.401 -0.0773 -0.1242  0.0571
  875MPD2    H712898   1.201   2.845  14.443 -0.2911 -0.0548 -0.4381
  876MPD2     C12899   0.439   4.462  16.180 -0.3439  0.1415 -0.0591
  876MPD2    C112900   0.574   4.448  16.148  0.4473  1.1289  0.3084
  876MPD2    C212901   0.648   4.346  16.208 -0.0628  0.4439 -0.5443
  876MPD2    C312902   0.593   4.253  16.293 -0.2978  0.0200 -0.1565
  876MPD2    C412903   0.450   4.261  16.318 -0.6226  0.1232 -0.2781
  876MPD2    C512904   0.377   4.364  16.261  0.0064 -0.2444  0.4906
  876MPD2     H12905   0.747   4.322  16.170  0.0479  2.4393 -1.5162
  876MPD2    H112906   0.392   4.187  16.371  0.9630 -0.8014  0.1585
  876MPD2    H212907   0.383   4.541  16.132 -1.3831 -0.9920 -0.7169
  876MPD2    H312908   0.271   4.379  16.279 -0.4486 -1.9844 -0.7347
  876MPD2     N12909   0.664   4.134  16.325  0.1317 -0.3745  0.5851
  876MPD2    H512910   0.754   4.117  16.281 -0.2966 -0.2420 -0.3550
  876MPD2    N112911   0.627   4.545  16.059  0.7093 -0.2662  0.7508
  876MPD2    H712912   0.565   4.618  16.024  0.6169 -0.8940 -0.3695
  877MPD2     C12913   0.436   0.025  15.389 -0.1502  0.0182 -0.4986
  877MPD2    C112914   0.577   0.052  15.389  0.1993 -0.1602  0.0910
  877MPD2    C212915   0.645   0.054  15.273  0.2776 -0.1995  0.3477
  877MPD2    C312916   0.584   0.051  15.149  0.4042  0.1907 -0.1533
  877MPD2    C412917   0.447   0.035  15.143  0.4110  0.3527 -0.2254
  877MPD2    C512918   0.375   0.025  15.265 -0.3942  0.6173  0.5804
  877MPD2     H12919   0.754   0.056  15.272  0.2760 -0.2057  0.2482
  877MPD2    H112920   0.392   0.029  15.050 -0.6729  1.5522  0.3279
  877MPD2    H212921   0.370   0.009  15.473 -1.5260  0.2680 -1.5359
  877MPD2    H312922   0.271   4.728  15.263  0.1989 -1.4011  0.8554
  877MPD2     N12923   0.653   0.059  15.026  0.6648  0.6720  0.2989
  877MPD2    H512924   0.594   0.045  14.945  1.5087 -2.7554  0.2731
  877MPD2    N112925   0.650   0.055  15.510 -0.7398 -0.0562  0.4031
  877MPD2    H712926   0.751   0.054  15.508 -0.7501 -0.5002  0.2674
  878MPD2     C12927   4.722   4.261  13.120  0.1435 -0.2480 -0.3434
  878MPD2    C112928   0.121   4.292  13.130 -0.5707  0.3302  0.1195
  878MPD2    C212929   0.173   4.312  13.257 -0.5180 -0.6086 -0.3895
  878MPD2    C312930   0.094   4.298  13.365  0.6206 -1.0706  0.4516
  878MPD2    C412931   4.696   4.259  13.356  0.1072  0.7418 -0.3632
  878MPD2    C512932   4.643   4.250  13.233 -0.4732 -0.1819 -0.1433
  878MPD2     H12933   0.271   4.356  13.271  0.4371 -2.7683 -0.3298
  878MPD2    H112934   4.630   4.263  13.441 -0.8555 -0.8600 -1.0272
  878MPD2    H212935   4.682   4.235  13.023  0.0175  0.9674 -0.6167
  878MPD2    H312936   4.536   4.240  13.219 -0.6821  0.4763  1.0312
  878MPD2     N12937   0.152   4.318  13.496 -0.0298 -0.4112  0.2820
  878MPD2    H512938   0.253   4.323  13.489 -0.0351 -0.4626  0.1654
  878MPD2    N112939   0.195   4.311  13.014 -0.4851 -0.1950  0.2730
  878MPD2    H712940   0.145   4.311  12.925  1.7621 -0.5844 -0.9873
  879MPD2     C12941   1.060   0.080  17.194  0.8576  0.4502 -0.4412
  879MPD2    C112942   1.034   0.209  17.168  0.2136 -0.2700  0.2939
  879MPD2    C212943   0.987   0.241  17.038 -0.2306 -0.0692 -0.1950
  879MPD2    C312944   0.942   0.137  16.953 -0.2092 -0.4989 -0.0845
  879MPD2    C412945   0.961   0.004  16.990  0.7546  0.4946 -0.4642
  879MPD2    C512946   1.035   4.711  17.102 -0.2630  0.0702 -0.1959
  879MPD2     H12947   0.967   0.343  17.007  0.2902 -0.1327 -0.7407
  879MPD2    H112948   0.936   4.655  16.925 -1.5062 -0.3324  1.4372
  879MPD2    H212949   1.099   0.052  17.291  1.0991  1.9012 -0.1134
  879MPD2    H312950   1.055   4.607  17.125  1.6399  0.5250  0.1971
  879MPD2     N12951   0.859   0.164  16.835  0.2609  0.4649  0.5233
  879MPD2    H512952   0.808   0.083  16.799  3.1223  0.0465 -2.6398
  879MPD2    N112953   1.062   0.304  17.269 -0.0016 -0.1165  0.3499
  879MPD2    H712954   1.080   0.269  17.363  1.2259 -0.7883 -0.1266
  880MPD2     C12955   2.221   1.829   0.718  0.2629  0.1895  0.1226
  880MPD2    C112956   2.223   1.885   0.599 -0.7324  0.1250  0.5146
  880MPD2    C212957   2.280   1.831   0.484  0.9834 -0.2759 -0.3964
  880MPD2    C312958   2.335   1.704   0.496  0.2249  0.6202 -0.2017
  880MPD2    C412959   2.336   1.644   0.623 -0.2975  0.2313  0.3187
  880MPD2    C512960   2.276   1.706   0.732  0.2337  0.3323 -0.5387
  880MPD2     H12961   2.284   1.891   0.394 -0.1319  2.0617  1.1148
  880MPD2    H112962   2.385   1.548   0.637 -3.1946 -1.4302 -0.7728
  880MPD2    H212963   2.167   1.866   0.804  2.2037  3.4999 -0.0597
  880MPD2    H312964   2.266   1.656   0.827  0.1465  1.1577 -0.1147
  880MPD2     N12965   2.399   1.647   0.387  0.0547 -0.1580  0.0957
  880MPD2    H512966   2.413   1.710   0.309  0.2442 -1.1192 -0.6420
  880MPD2    N112967   2.145   2.003   0.573 -0.2151 -0.2804 -0.5299
  880MPD2    H712968   2.127   2.062   0.654 -0.7841 -2.5808  0.9882
  881MPD2     C12969   1.930   2.857  17.712 -0.1581  0.3930 -0.7746
  881MPD2    C112970   1.931   2.728  17.660 -0.4077  0.1812  0.2804
  881MPD2    C212971   1.954   2.623   0.017  0.3253  0.2475  0.4431
  881MPD2    C312972   1.917   2.641   0.148 -0.0539  0.1073 -0.0918
  881MPD2    C412973   1.893   2.776   0.189 -0.3025 -0.3581  0.4678
  881MPD2    C512974   1.909   2.876   0.105  0.1234 -0.5352 -0.6455
  881MPD2     H12975   1.970   2.519  17.727 -2.3676 -0.3070  0.9677
  881MPD2    H112976   1.860   2.798   0.289  1.1631  0.6157  0.7319
  881MPD2    H212977   1.909   2.944  17.651 -0.8026 -0.1094 -1.2705
  881MPD2    H312978   1.895   2.975   0.148 -1.7417 -1.1834  0.2212
  881MPD2     N12979   1.906   2.538   0.244 -0.0574  0.3239 -0.3531
  881MPD2    H512980   1.886   2.563   0.340 -1.6029 -1.2130 -0.2747
  881MPD2    N112981   1.958   2.712  17.517  0.1315  0.4248 -0.1850
  881MPD2    H712982   1.945   2.791  17.454 -1.0647  1.1134  0.9362
  882MPD2     C12983   0.750   4.444  14.347  0.0349  0.2165 -0.3363
  882MPD2    C112984   0.681   4.522  14.437  0.5809 -0.1409 -0.2902
  882MPD2    C212985   0.542   4.507  14.451  0.4586  0.4402 -0.3696
  882MPD2    C312986   0.472   4.404  14.385 -0.0705  0.6362 -0.7057
  882MPD2    C412987   0.549   4.325  14.307 -0.0425  0.2006 -0.6386
  882MPD2    C512988   0.684   4.341  14.286  0.0005 -0.1651  0.1764
  882MPD2     H12989   0.486   4.578  14.510  1.4757  1.8495 -1.1134
  882MPD2    H112990   0.494   4.245  14.258  1.3507 -0.5206 -1.0541
  882MPD2    H212991   0.857   4.449  14.332 -0.1898  1.7389 -1.4036
  882MPD2    H312992   0.739   4.270  14.225  0.5577  0.4559 -0.0432
  882MPD2     N12993   0.332   4.385  14.387  0.2633 -0.1295 -0.8319
  882MPD2    H512994   0.292   4.304  14.341  0.8347 -0.5036 -0.6742
  882MPD2    N112995   0.753   4.623  14.504  0.0229  0.2542  0.4144
  882MPD2    H712996   0.847   4.636  14.469 -0.2090  0.2679 -0.2058
  883MPD2     C12997   2.257   3.985  16.174  0.3690 -0.0964 -0.0641
  883MPD2    C112998   2.306   4.113  16.141  0.2065  0.1181  0.2253
  883MPD2    C212999   2.374   4.194  16.238  0.4217  0.1149  0.3422
  883MPD2    C313000   2.406   4.131  16.353  0.0639  0.9819 -0.0923
  883MPD2    C413001   2.362   4.004  16.385  0.1420 -0.7915  0.6494
  883MPD2    C513002   2.287   3.931  16.296  0.5177  0.6343 -0.3813
  883MPD2     H13003   2.410   4.293  16.214 -1.4455  0.7743  0.2834
  883MPD2    H113004   2.390   3.967  16.483 -1.7561  1.4250  2.0481
  883MPD2    H213005   2.196   3.927  16.106 -0.7812 -0.1762  1.0496
  883MPD2    H313006   2.257   3.830  16.323  0.2765  1.0033  0.7371
  883MPD2     N13007   2.492   4.206  16.439  0.1472 -0.1647  0.2680
  883MPD2    H513008   2.532   4.280  16.382 -1.4668  0.2787 -0.2916
  883MPD2    N113009   2.294   4.170  16.013 -0.2554 -0.0998  0.1909
  883MPD2    H713010   2.333   4.262  15.993  0.6837 -0.1756  1.6529
  884MPD2     C13011   4.410   0.406  14.994  0.0672 -0.2005  0.2245
  884MPD2    C113012   4.386   0.522  14.925  0.1431 -0.4253 -0.4320
  884MPD2    C213013   4.250   0.556  14.911  0.0587  0.1110  0.2239
  884MPD2    C313014   4.151   0.482  14.978 -0.6578 -0.1188 -0.1379
  884MPD2    C413015   4.184   0.371  15.057 -0.0149  0.7657  0.0863
  884MPD2    C513016   4.313   0.331  15.066  0.3907 -0.0492  0.3548
  884MPD2     H13017   4.228   0.644  14.851  0.3296 -0.8525 -1.2831
  884MPD2    H113018   4.113   0.315  15.117  0.8700 -0.3373  0.1062
  884MPD2    H213019   4.513   0.374  15.009 -0.0757 -1.5836 -1.7384
  884MPD2    H313020   4.353   0.245  15.120  0.1520  0.6968  1.7392
  884MPD2     N13021   4.029   0.548  14.980  0.4075 -0.1705  0.0012
  884MPD2    H513022   4.017   0.634  14.928  2.6894 -0.6400 -1.2748
  884MPD2    N113023   4.488   0.597  14.861  0.1955 -0.2921 -0.8139
  884MPD2    H713024   4.459   0.684  14.818  0.4494 -0.7394 -1.8906
  885MPD2     C13025   2.170   0.849   0.035  1.1567  0.6998 -0.2938
  885MPD2    C113026   2.309   0.822   0.020 -0.1241 -0.4972  0.2186
  885MPD2    C213027   2.354   0.822  17.622  0.1010  0.2427 -0.2049
  885MPD2    C313028   2.285   0.877  17.519 -0.5866 -0.8526  0.1068
  885MPD2    C413029   2.151   0.887  17.533  0.6851  0.1277 -0.1899
  885MPD2    C513030   2.098   0.872  17.658  0.3694  0.0756  0.3907
  885MPD2     H13031   2.459   0.802  17.603  0.1088 -0.0013  0.1125
  885MPD2    H113032   2.082   0.919  17.456 -1.1322 -0.7829  1.0520
  885MPD2    H213033   2.115   0.844   0.128  1.0696  0.0854 -0.3791
  885MPD2    H313034   1.992   0.891  17.664  0.5546  1.0185  0.6979
  885MPD2     N13035   2.356   0.907  17.405  0.1995 -0.1831 -0.1902
  885MPD2    H513036   2.453   0.877  17.399 -0.2816 -1.7512 -0.1679
  885MPD2    N113037   2.391   0.784   0.127  0.3985  0.0441  0.2749
  885MPD2    H713038   2.341   0.773   0.215 -0.3575  1.1165 -0.0216
  886MPD2     C13039   3.924   3.885  15.647 -0.7589 -0.6565 -0.5225
  886MPD2    C113040   4.052   3.926  15.632  0.8004 -0.6303  0.2257
  886MPD2    C213041   4.081   4.049  15.568  0.5645 -0.4901  0.6834
  886MPD2    C313042   3.985   4.124  15.507  0.1006  0.2366  0.1066
  886MPD2    C413043   3.850   4.092  15.533  0.1438  0.3428  0.1207
  886MPD2    C513044   3.826   3.978  15.611  0.5343 -0.3189  0.5940
  886MPD2     H13045   4.185   4.075  15.548 -0.7645  3.4989 -1.0754
  886MPD2    H113046   3.762   4.148  15.503 -0.2704 -0.1802  0.3713
  886MPD2    H213047   3.896   3.793  15.696 -0.0544 -1.5492 -1.8021
  886MPD2    H313048   3.724   3.944  15.624  1.0879 -1.4787  1.9165
  886MPD2     N13049   4.027   4.237  15.430 -0.4934 -0.2801 -0.0909
  886MPD2    H513050   4.127   4.246  15.415 -0.9140  1.3301 -1.8077
  886MPD2    N113051   4.165   3.853  15.675  0.0094 -0.0187 -0.5966
  886MPD2    H713052   4.254   3.901  15.669 -1.9964  3.7806  0.3760
  887MPD2     C13053   0.098   3.991  15.997  0.2469  0.0455 -0.5442
  887MPD2    C113054   4.695   4.013  15.966  0.2798 -0.5318  0.0202
  887MPD2    C213055   4.649   4.141  15.987  0.4184  0.6536 -0.1641
  887MPD2    C313056   4.719   4.248  16.033 -0.3220 -0.3016 -0.1443
  887MPD2    C413057   0.110   4.228  16.075 -0.0543  0.7924 -0.0172
  887MPD2    C513058   0.163   4.097  16.063 -0.6783  0.0450 -0.3095
  887MPD2     H13059   4.547   4.162  15.956  0.1812  0.0797  0.2150
  887MPD2    H113060   0.167   4.306  16.122  0.0740  0.8221 -0.2196
  887MPD2    H213061   0.146   3.894  15.990 -0.7926 -0.5109 -0.0219
  887MPD2    H313062   0.259   4.075  16.109 -0.0171  0.7699 -1.3452
  887MPD2     N13063   4.645   4.365  16.046 -0.3846  0.6958  0.0038
  887MPD2    H513064   4.546   4.353  16.026 -0.0436  1.1862 -1.9313
  887MPD2    N113065   4.612   3.915  15.903  0.4602 -0.1747 -0.8098
  887MPD2    H713066   4.531   3.955  15.856 -0.1685 -0.6414 -0.1122
  888MPD2     C13067   1.520   4.056  14.943  0.2681  0.2644 -0.6158
  888MPD2    C113068   1.524   4.102  15.074 -0.1682 -0.0806 -0.4476
  888MPD2    C213069   1.586   4.221  15.102  0.3086  0.0292 -0.8504
  888MPD2    C313070   1.649   4.291  15.003  0.3803  0.4658  0.5069
  888MPD2    C413071   1.632   4.247  14.873 -0.2641  0.4660  0.5039
  888MPD2    C513072   1.573   4.134  14.843  0.2725 -0.0793  0.4361
  888MPD2     H13073   1.587   4.264  15.202 -0.7337  0.0843 -0.8622
  888MPD2    H113074   1.681   4.291  14.787  1.3131  0.2771  1.3140
  888MPD2    H213075   1.455   3.982  14.897 -0.3090  1.4792 -1.7503
  888MPD2    H313076   1.566   4.114  14.736 -2.3228  6.0010 -0.5377
  888MPD2     N13077   1.718   4.409  15.040 -0.3146 -0.0990 -0.0465
  888MPD2    H513078   1.706   4.425  15.140 -1.3823  0.9223 -0.3439
  888MPD2    N113079   1.457   4.036  15.182  0.4297  0.0915  0.3131
  888MPD2    H713080   1.458   4.088  15.269 -0.5499 -1.8232  1.4693
  889MPD2     C13081   1.353   4.132  13.065 -0.6146  0.7015 -0.0469
  889MPD2    C113082   1.359   3.998  13.108 -0.4821 -0.3173 -0.0709
  889MPD2    C213083   1.385   3.983  13.242  1.0582 -0.0003 -0.0896
  889MPD2    C313084   1.382   4.087  13.332 -0.6365  0.1005  0.2061
  889MPD2    C413085   1.372   4.218  13.293 -0.0651  0.0795 -0.3130
  889MPD2    C513086   1.361   4.241  13.158  0.4803 -0.1603 -0.0737
  889MPD2     H13087   1.387   3.883  13.282 -2.0927 -0.0074  0.0550
  889MPD2    H113088   1.374   4.304  13.358 -3.7888  0.0985 -0.2250
  889MPD2    H213089   1.372   4.153  12.960  3.2270 -2.4478 -0.0006
  889MPD2    H313090   1.351   4.344  13.125 -0.0300 -0.1193  0.2147
  889MPD2     N13091   1.413   4.050  13.465 -0.0399 -0.1771 -0.3035
  889MPD2    H513092   1.419   3.950  13.483  0.3918 -0.0853  0.0713
  889MPD2    N113093   1.366   3.893  13.009 -0.2471  0.0751  0.3668
  889MPD2    H713094   1.387   3.799  13.043 -0.0582 -0.6842 -1.8293
  890MPD2     C13095   0.530   0.284  14.583 -0.0707  0.0395  0.6515
  890MPD2    C113096   0.587   0.392  14.638  0.2792  0.5033  0.0123
  890MPD2    C213097   0.558   0.417  14.773  0.3810 -0.0835  0.0458
  890MPD2    C313098   0.457   0.352  14.846  0.3001  0.0427  0.1398
  890MPD2    C413099   0.403   0.241  14.785 -0.1380 -0.3272 -0.2906
  890MPD2    C513100   0.438   0.214  14.653 -0.0574  0.3996  0.2230
  890MPD2     H13101   0.598   0.498  14.833  0.9279 -0.6094  0.3877
  890MPD2    H113102   0.327   0.183  14.836  1.1481 -0.6045  1.2797
  890MPD2    H213103   0.536   0.264  14.477  1.5278 -0.7769  0.8847
  890MPD2    H313104   0.385   0.137  14.598 -2.6697  0.9729  1.9499
  890MPD2     N13105   0.423   0.382  14.979 -0.1112  0.5801 -0.3479
  890MPD2    H513106   0.484   0.442  15.033  1.1372  0.3546 -1.5172
  890MPD2    N113107   0.670   0.470  14.558 -0.0003 -0.8022 -0.0725
  890MPD2    H713108   0.682   0.446  14.460  0.6712  0.8135 -0.3939
  891MPD2     C13109   3.371   3.751  16.529  0.0920  0.2610  0.3406
  891MPD2    C113110   3.268   3.701  16.610  0.5939 -0.2983  0.3212
  891MPD2    C213111   3.309   3.636  16.722  0.1396  0.4022 -0.6511
  891MPD2    C313112   3.444   3.635  16.758 -0.5075  0.4592 -0.1998
  891MPD2    C413113   3.539   3.710  16.690  0.1338 -0.4057 -0.0905
  891MPD2    C513114   3.501   3.757  16.570 -0.4611 -0.2082  0.8891
  891MPD2     H13115   3.248   3.583  16.794  0.9385  1.2197  0.6439
  891MPD2    H113116   3.639   3.737  16.723  0.2652  1.0272 -1.6739
  891MPD2    H213117   3.350   3.802  16.436  1.6319  2.1408  1.0239
  891MPD2    H313118   3.574   3.805  16.507 -1.8628  0.0518 -0.5601
  891MPD2     N13119   3.492   3.569  16.871  0.2805  0.2796  0.0476
  891MPD2    H513120   3.424   3.533  16.937  1.2514  1.5966  1.7597
  891MPD2    N113121   3.133   3.712  16.560  0.0039 -0.8233  0.7469
  891MPD2    H713122   3.119   3.758  16.471  0.4590  0.4004  1.3036
  892MPD2     C13123   4.322   0.217  14.714  0.8580 -0.0836 -0.8221
  892MPD2    C113124   4.255   0.114  14.649 -0.2214 -0.2576 -0.5176
  892MPD2    C213125   4.322   4.730  14.629 -0.1094 -0.6480  0.5518
  892MPD2    C313126   4.462   4.725  14.645  0.6334  0.6411 -0.4015
  892MPD2    C413127   4.523   0.102  14.691 -0.0174  0.3603  0.1739
  892MPD2    C513128   4.450   0.207  14.739  0.0201  0.4022 -0.5187
  892MPD2     H13129   4.274   4.641  14.590  1.5932 -1.5832  0.6276
  892MPD2    H113130   4.630   0.123  14.691 -0.0997  0.7606  1.0674
  892MPD2    H213131   4.271   0.310  14.738  3.0912  1.0097 -0.3293
  892MPD2    H313132   4.506   0.294  14.770 -1.0177  0.4591  1.1632
  892MPD2     N13133   4.544   4.618  14.609  0.0206  0.0188  0.1897
  892MPD2    H513134   4.644   4.621  14.626  0.3014  2.2699 -1.8611
  892MPD2    N113135   4.119   0.122  14.612  0.1061 -0.2699  0.2712
  892MPD2    H713136   4.079   0.030  14.598 -1.9835  0.5177  1.1634
  893MPD2     C13137   1.048   3.715   1.891  0.1820 -0.0219 -0.5976
  893MPD2    C113138   0.984   3.705   1.767 -0.7453 -0.5038  0.2199
  893MPD2    C213139   0.858   3.760   1.759 -0.6111 -0.0514 -0.4412
  893MPD2    C313140   0.794   3.808   1.868  0.3651  0.1919 -0.5596
  893MPD2    C413141   0.863   3.814   1.989 -0.5257 -0.1354  0.1054
  893MPD2    C513142   0.986   3.759   2.007 -1.2823  0.3220  0.2177
  893MPD2     H13143   0.802   3.763   1.666 -2.6644 -0.4479  0.8055
  893MPD2    H113144   0.818   3.839   2.084 -2.3053 -1.0698 -0.4807
  893MPD2    H213145   1.148   3.672   1.893  0.1375 -0.1943 -2.8441
  893MPD2    H313146   1.020   3.755   2.110 -0.8636 -2.6043 -0.0384
  893MPD2     N13147   0.662   3.856   1.874 -0.0141 -0.0056  0.2420
  893MPD2    H513148   0.632   3.912   1.953  3.4270 -0.2231  1.6908
  893MPD2    N113149   1.053   3.638   1.661  0.5336 -0.6836 -0.4983
  893MPD2    H713150   1.127   3.573   1.683 -0.7143 -2.4492 -1.4921
  894MPD2     C13151   3.733   1.068   1.675 -0.0366 -0.4684 -0.6548
  894MPD2    C113152   3.809   1.016   1.573 -0.4029  0.0530  0.6014
  894MPD2    C213153   3.900   1.102   1.514 -0.7749  0.5407  0.3914
  894MPD2    C313154   3.910   1.241   1.543 -0.9661  0.4997  0.0085
  894MPD2    C413155   3.826   1.288   1.639 -0.2769  0.4157 -0.5251
  894MPD2    C513156   3.745   1.202   1.708  0.0993  0.3404 -0.1061
  894MPD2     H13157   3.963   1.054   1.440 -0.9177 -0.8103  1.1419
  894MPD2    H113158   3.827   1.394   1.665 -0.4170  0.0748  0.8651
  894MPD2    H213159   3.677   1.003   1.742 -0.0119  1.0288  0.8029
  894MPD2    H313160   3.685   1.238   1.791  1.6352  1.2262  0.6147
  894MPD2     N13161   4.007   1.312   1.472 -0.6520  0.5800 -0.0667
  894MPD2    H513162   4.058   1.269   1.396  0.1587 -2.3859  2.1581
  894MPD2    N113163   3.813   0.878   1.537 -0.3811  0.6057  0.5019
  894MPD2    H713164   3.886   0.851   1.472 -1.2258  1.2209 -0.7171
  895MPD2     C13165   3.499   3.498  13.889  0.9955 -0.4244 -0.4534
  895MPD2    C113166   3.575   3.594  13.820  0.1628  0.3298  0.0432
  895MPD2    C213167   3.692   3.560  13.758 -0.0770  0.1698 -0.1871
  895MPD2    C313168   3.730   3.427  13.751  0.2237 -0.2981 -0.9643
  895MPD2    C413169   3.667   3.335  13.838  0.4734 -0.1338  0.3884
  895MPD2    C513170   3.550   3.371  13.899  0.5520 -0.1170  0.2484
  895MPD2     H13171   3.722   3.636  13.687 -1.7056  2.0346  1.1417
  895MPD2    H113172   3.696   3.230  13.842 -1.0462 -0.6109 -1.0774
  895MPD2    H213173   3.412   3.519  13.950  0.6638 -0.0552 -1.0630
  895MPD2    H313174   3.487   3.294  13.942 -0.6530  0.7863  0.1045
  895MPD2     N13175   3.822   3.372  13.657  0.4537  0.8419  0.1051
  895MPD2    H513176   3.848   3.274  13.661  1.2109  0.8510 -3.9984
  895MPD2    N113177   3.538   3.729  13.800  0.4274  0.4071  0.1784
  895MPD2    H713178   3.595   3.789  13.741  0.7489 -1.5201 -1.4670
  896MPD2     C13179   4.662   2.272   1.265 -0.2652  0.2893 -0.5008
  896MPD2    C113180   4.634   2.326   1.138  0.1748  0.4138 -0.2649
  896MPD2    C213181   4.544   2.263   1.058 -0.0288  0.2452 -0.3943
  896MPD2    C313182   4.493   2.140   1.093  0.2508 -0.7169 -0.3775
  896MPD2    C413183   4.529   2.083   1.213 -0.2460 -0.8012 -0.5500
  896MPD2    C513184   4.608   2.150   1.302 -0.8932 -0.2258  0.2046
  896MPD2     H13185   4.521   2.303   0.959 -2.7553 -0.6992 -0.1597
  896MPD2    H113186   4.498   1.983   1.241  1.0594 -0.7486  1.0817
  896MPD2    H213187   4.719   2.333   1.334 -1.6960  1.3260 -0.2280
  896MPD2    H313188   4.638   2.108   1.397  0.7637 -1.3296 -0.7989
  896MPD2     N13189   4.411   2.075   0.994  0.2567 -0.5261  0.0688
  896MPD2    H513190   4.389   2.135   0.915  1.2629  0.4350  0.5275
  896MPD2    N113191   4.698   2.449   1.099  0.1998  0.6791 -0.2664
  896MPD2    H713192   0.029   2.477   1.172  0.0059  0.0350  0.1455
  897MPD2     C13193   2.587   4.411  11.121  0.2238 -0.5561  0.3378
  897MPD2    C113194   2.547   4.297  11.051 -0.6269 -1.2388 -0.1399
  897MPD2    C213195   2.408   4.274  11.050  0.3636  0.0972 -0.8180
  897MPD2    C313196   2.321   4.358  11.109  0.0202  0.3399 -0.1204
  897MPD2    C413197   2.368   4.470  11.172  0.8549  0.5955 -0.2669
  897MPD2    C513198   2.499   4.486  11.184 -0.2571 -0.3762  0.4395
  897MPD2     H13199   2.362   4.193  10.994  0.6194 -0.2240 -0.5641
  897MPD2    H113200   2.299   4.547  11.207 -1.2069 -1.6794  0.7038
  897MPD2    H213201   2.691   4.439  11.127  0.0924  0.5637 -2.5203
  897MPD2    H313202   2.544   4.568  11.239 -1.6209  0.7819 -0.1827
  897MPD2     N13203   2.180   4.330  11.114  0.5444 -0.7583  0.1544
  897MPD2    H513204   2.160   4.235  11.085 -1.6461 -0.1451 -0.3205
  897MPD2    N113205   2.644   4.217  10.988 -0.1503  0.0591  0.3238
  897MPD2    H713206   2.738   4.253  10.978  0.1491 -0.8117  0.0170
  898MPD2     C13207   3.742   4.105   0.480 -0.3148 -0.3250 -0.0370
  898MPD2    C113208   3.817   4.219   0.504  0.7378  0.0321  0.4907
  898MPD2    C213209   3.828   4.303   0.392  0.5796 -0.2264 -0.9593
  898MPD2    C313210   3.763   4.275   0.278  0.3838 -0.6184 -0.2050
  898MPD2    C413211   3.688   4.156   0.254 -0.3087  0.1499 -0.3629
  898MPD2    C513212   3.685   4.075   0.355 -0.4842 -0.2520 -0.2144
  898MPD2     H13213   3.888   4.393   0.402  0.0272  0.0667 -0.2414
  898MPD2    H113214   3.632   4.136   0.163 -0.6454  2.3566 -0.6313
  898MPD2    H213215   3.729   4.036   0.563  1.6841  0.2924  0.7982
  898MPD2    H313216   3.619   3.989   0.355 -0.1838 -0.4774 -0.8921
  898MPD2     N13217   3.774   4.369   0.171  0.3009 -0.3208  0.0737
  898MPD2    H513218   3.819   4.455   0.201 -0.3190  0.0842 -0.1432
  898MPD2    N113219   3.883   4.263   0.622  0.0518  0.4491  0.2675
  898MPD2    H713220   3.941   4.345   0.610 -0.3716  0.3946 -2.1115
  899MPD2     C13221   4.571   0.078  16.900  0.4486  0.2209  0.1497
  899MPD2    C113222   4.655   0.101  17.007  0.4724 -0.5640  0.4422
  899MPD2    C213223   4.642   0.042  17.126  0.0267  0.2780  0.2417
  899MPD2    C313224   4.528   4.700  17.145  0.5654 -0.4259 -0.3780
  899MPD2    C413225   4.446   4.673  17.038  0.1515 -0.4365 -0.0109
  899MPD2    C513226   4.465   4.733  16.919 -0.9536  0.3232 -0.0103
  899MPD2     H13227   4.716   0.059  17.204  0.8874 -1.3777 -0.2079
  899MPD2    H113228   4.367   4.599  17.045 -1.3512  1.3304  1.7088
  899MPD2    H213229   4.575   0.128  16.803 -1.0175 -0.7292 -0.3951
  899MPD2    H313230   4.404   4.700  16.836 -0.8869 -1.0013  0.4625
  899MPD2     N13231   4.478   4.655  17.269  0.0791 -0.2192  0.5147
  899MPD2    H513232   4.380   4.634  17.281 -0.3190  0.5576 -1.5334
  899MPD2    N113233   0.030   0.182  16.977  0.2790 -0.0490  0.0833
  899MPD2    H713234   0.035   0.215  16.881  0.8784  0.1564  0.1808
  900MPD2     C13235   4.183   1.633  12.566 -0.9140 -0.7329 -0.1720
  900MPD2    C113236   4.076   1.549  12.525  0.6654 -0.3084  0.2020
  900MPD2    C213237   3.959   1.617  12.485 -0.5923 -0.8321 -0.2760
  900MPD2    C313238   3.948   1.754  12.480 -0.1142  0.1772 -0.0839
  900MPD2    C413239   4.055   1.833  12.520 -0.4459  0.0043 -1.2538
  900MPD2    C513240   4.163   1.770  12.566 -0.0832 -0.2002  0.3417
  900MPD2     H13241   3.885   1.560  12.429 -0.4007  0.8786 -2.2758
  900MPD2    H113242   4.061   1.941  12.510 -1.3193  0.1293 -0.4504
  900MPD2    H213243   4.281   1.599  12.596 -1.3355 -1.0376  0.8728
  900MPD2    H313244   4.241   1.839  12.597 -2.1502  1.4615  1.8375
  900MPD2     N13245   3.820   1.803  12.464 -0.3351  0.2046  0.2378
  900MPD2    H513246   3.746   1.739  12.441 -1.5617  2.8829 -3.2679
  900MPD2    N113247   4.100   1.411  12.511  0.5656  0.2494  0.2922
  900MPD2    H713248   4.198   1.385  12.518  0.7979  0.8795 -0.5563
  901MPD2     C13249   4.033   0.494  11.938 -0.7336  0.1344  0.8630
  901MPD2    C113250   4.046   0.440  12.065  1.0631 -0.0200 -0.5377
  901MPD2    C213251   4.073   0.513  12.173  0.0772 -0.5396  0.1059
  901MPD2    C313252   4.071   0.657  12.159 -0.5962  0.0198 -0.5348
  901MPD2    C413253   4.073   0.707  12.039 -0.3718  0.5447 -0.2582
  901MPD2    C513254   4.059   0.625  11.929 -0.3801  0.0894 -0.2337
  901MPD2     H13255   4.067   0.463  12.268  0.0677 -1.7596 -0.5432
  901MPD2    H113256   4.087   0.812  12.016 -0.7898  0.8038  0.6782
  901MPD2    H213257   4.022   0.437  11.846 -0.0457  0.9955  0.2365
  901MPD2    H313258   4.053   0.673  11.832 -0.0460 -0.3064 -0.4479
  901MPD2     N13259   4.069   0.743  12.275  0.7667 -0.3098  0.3055
  901MPD2    H513260   4.069   0.704  12.369  0.2263  1.0202  0.8545
  901MPD2    N113261   4.049   0.295  12.074  0.2320 -0.3796  0.4982
  901MPD2    H713262   4.033   0.250  11.984 -0.0150  1.8376 -0.5834
  902MPD2     C13263   3.338   4.226  13.034 -0.8409 -0.4208 -0.3771
  902MPD2    C113264   3.292   4.261  12.906  0.5934 -0.0554  0.9675
  902MPD2    C213265   3.385   4.265  12.801 -0.8969  0.0819 -0.8000
  902MPD2    C313266   3.511   4.220  12.819  0.3113 -0.2823 -0.1064
  902MPD2    C413267   3.555   4.173  12.942  0.1891  0.2185  0.2182
  902MPD2    C513268   3.466   4.179  13.049 -0.8470 -0.2151  0.0243
  902MPD2     H13269   3.351   4.295  12.703  0.8186 -0.7763 -1.6590
  902MPD2    H113270   3.655   4.134  12.958  0.2076 -0.1175 -0.7256
  902MPD2    H213271   3.282   4.232  13.127  0.5344  0.7756  0.3785
  902MPD2    H313272   3.497   4.158  13.151 -1.1128 -0.8856 -0.0332
  902MPD2     N13273   3.595   4.229  12.706  0.4048  0.4044  0.2822
  902MPD2    H513274   3.551   4.260  12.621  1.4733 -0.8614 -0.7313
  902MPD2    N113275   3.160   4.311  12.893  0.5923  0.2694  0.1914
  902MPD2    H713276   3.101   4.312  12.975 -1.1922  2.6712 -1.1191
  903MPD2     C13277   3.836   4.571  11.976 -0.2546 -0.4862  0.1729
  903MPD2    C113278   3.751   4.539  12.082 -0.5307 -0.1945 -0.5856
  903MPD2    C213279   3.621   4.511  12.045  0.4439  0.1373  0.1291
  903MPD2    C313280   3.578   4.508  11.917  0.4559 -0.6391 -0.0451
  903MPD2    C413281   3.666   4.549  11.811  0.2269  0.6841 -0.9781
  903MPD2    C513282   3.789   4.584  11.845  0.4287 -0.1531 -0.0107
  903MPD2     H13283   3.563   4.462  12.123  1.5596  0.9207  1.4561
  903MPD2    H113284   3.642   4.531  11.706  0.3061 -2.8325 -0.3812
  903MPD2    H213285   3.940   4.595  11.994 -0.7235  1.3917  0.4294
  903MPD2    H313286   3.864   4.611  11.771 -0.6327  1.7644 -0.3826
  903MPD2     N13287   3.457   4.441  11.899 -0.3292  0.2609  0.3076
  903MPD2    H513288   3.420   4.386  11.975  1.6981 -2.2190 -0.4667
  903MPD2    N113289   3.801   4.514  12.214  0.3217  0.9097 -0.2672
  903MPD2    H713290   3.902   4.519  12.221  0.1834  2.1370  0.7792
  904MPD2     C13291   3.574   3.040  14.092  0.5108 -0.0414  0.8317
  904MPD2    C113292   3.521   3.144  14.173  0.0211  0.6116 -0.3830
  904MPD2    C213293   3.607   3.240  14.217  0.5849  0.0222 -0.2089
  904MPD2    C313294   3.743   3.239  14.189  0.0617  0.3235  0.2852
  904MPD2    C413295   3.790   3.135  14.117  0.3106 -0.1772  0.1960
  904MPD2    C513296   3.706   3.033  14.067  0.1254  0.2968 -0.1918
  904MPD2     H13297   3.570   3.325  14.272 -2.0080 -0.2412 -1.5007
  904MPD2    H113298   3.895   3.119  14.100  0.3104  1.4840 -1.3555
  904MPD2    H213299   3.516   2.959  14.049  0.9276  0.8047 -1.3090
  904MPD2    H313300   3.748   2.952  14.010 -0.2281  0.5478 -0.8140
  904MPD2     N13301   3.821   3.350  14.223 -0.5554  0.4022 -0.1353
  904MPD2    H513302   3.759   3.421  14.260 -1.8232 -1.0093  0.4796
  904MPD2    N113303   3.387   3.168  14.195 -0.1248 -0.1515  0.0088
  904MPD2    H713304   3.361   3.256  14.238  0.7121  0.0814  0.0274
  905MPD2     C13305   3.206   3.624  13.597 -0.2394 -0.5181  0.2953
  905MPD2    C113306   3.238   3.509  13.658  0.1885 -0.1157  0.5407
  905MPD2    C213307   3.337   3.432  13.595 -0.7628  0.8577  0.2853
  905MPD2    C313308   3.399   3.471  13.478 -0.2970 -0.6239  0.4332
  905MPD2    C413309   3.366   3.592  13.425  0.0468 -0.3208 -0.2594
  905MPD2    C513310   3.264   3.661  13.479  0.1147  0.4252 -0.0789
  905MPD2     H13311   3.371   3.343  13.647 -1.1587  0.3110 -0.3939
  905MPD2    H113312   3.407   3.628  13.332  0.4056  1.4057  0.5713
  905MPD2    H213313   3.144   3.692  13.654 -1.0750  0.0950 -1.3228
  905MPD2    H313314   3.258   3.766  13.451 -0.3337  0.3484 -0.2767
  905MPD2     N13315   3.501   3.383  13.424  0.0955  0.3264 -0.3280
  905MPD2    H513316   3.525   3.301  13.479  0.4323 -0.2186 -1.2734
  905MPD2    N113317   3.168   3.471  13.775  0.0161  0.6713  0.0501
  905MPD2    H713318   3.120   3.537  13.834 -0.3756 -1.1543  1.7944
  906MPD2     C13319   0.821   4.164  11.222 -0.0912 -0.1362  0.6117
  906MPD2    C113320   0.845   4.077  11.126 -0.3437  0.0388  0.0183
  906MPD2    C213321   0.832   3.942  11.148  0.0373 -0.5114 -0.2758
  906MPD2    C313322   0.800   3.890  11.272 -0.3345 -0.4885  0.2804
  906MPD2    C413323   0.782   3.983  11.376 -0.1550  0.2572 -0.5981
  906MPD2    C513324   0.780   4.116  11.346 -0.2962  0.2062 -0.1399
  906MPD2     H13325   0.869   3.875  11.071  0.9969  0.8120 -0.9787
  906MPD2    H113326   0.754   3.962  11.478 -1.0666 -1.4357 -1.1885
  906MPD2    H213327   0.825   4.272  11.212  0.4662 -0.3378 -1.2719
  906MPD2    H313328   0.749   4.184  11.423 -0.2125 -0.9272  0.8959
  906MPD2     N13329   0.820   3.756  11.313 -0.2226  0.7387  0.4772
  906MPD2    H513330   0.802   3.737  11.411 -2.2804  0.2760  0.0203
  906MPD2    N113331   0.864   4.132  10.994 -0.1821 -0.5203 -0.0092
  906MPD2    H713332   0.871   4.233  10.980 -1.9040 -0.2665  0.9841
  907MPD2     C13333   4.094   2.691  15.755 -0.4046  0.1440  0.2815
  907MPD2    C113334   4.141   2.563  15.728 -0.2195  0.0922  0.6799
  907MPD2    C213335   4.212   2.493  15.822  0.9386 -0.1063  0.0119
  907MPD2    C313336   4.233   2.551  15.949 -0.6175  0.1826 -0.2138
  907MPD2    C413337   4.186   2.680  15.967  0.6120  0.2873 -0.8855
  907MPD2    C513338   4.110   2.751  15.878 -0.1980 -0.3461 -0.3102
  907MPD2     H13339   4.251   2.394  15.802 -0.1064 -0.4629 -0.2248
  907MPD2    H113340   4.198   2.737  16.059  0.9910 -0.4406 -0.4926
  907MPD2    H213341   4.031   2.743  15.683 -0.0683  0.6195  0.3297
  907MPD2    H313342   4.070   2.848  15.904  1.3860  0.0909  0.4971
  907MPD2     N13343   4.320   2.484  16.044  0.8335  0.4392 -0.3602
  907MPD2    H513344   4.358   2.393  16.020  2.7619  1.0829  0.2598
  907MPD2    N113345   4.113   2.501  15.608 -1.3808 -0.6228 -0.6407
  907MPD2    H713346   4.135   2.402  15.609  0.9464 -0.1350 -1.7068
  908MPD2     C13347   2.323   3.951  10.072 -0.1794 -0.6099  0.0337
  908MPD2    C113348   2.385   4.072  10.086 -0.0778  0.6155 -0.1108
  908MPD2    C213349   2.481   4.090  10.192  0.7634 -0.0495 -0.0799
  908MPD2    C313350   2.509   3.989  10.275 -0.1949 -0.9271  0.4749
  908MPD2    C413351   2.441   3.870  10.257  0.5679 -0.4095  0.6078
  908MPD2    C513352   2.348   3.856  10.162  0.2613  0.1667 -0.3690
  908MPD2     H13353   2.538   4.182  10.197 -0.5205  0.5296  3.7213
  908MPD2    H113354   2.458   3.782  10.319  0.5759 -0.5554  0.4013
  908MPD2    H213355   2.247   3.925   9.998 -1.0947  2.5436 -0.1393
  908MPD2    H313356   2.295   3.762  10.147  2.7467 -1.2584 -0.2822
  908MPD2     N13357   2.588   4.023  10.388 -0.4254 -0.1775 -0.0168
  908MPD2    H513358   2.615   4.120  10.383  0.1298 -0.3601 -0.6502
  908MPD2    N113359   2.363   4.173   9.987 -0.0414 -0.6252 -0.5869
  908MPD2    H713360   2.284   4.165   9.924 -0.8935 -0.6431  0.4941
  909MPD2     C13361   2.078   1.546  11.313 -0.0748 -0.1173 -0.1163
  909MPD2    C113362   2.158   1.659  11.340 -0.2855 -0.4708 -1.4302
  909MPD2    C213363   2.161   1.714  11.465 -0.1917  0.1117  0.1331
  909MPD2    C313364   2.087   1.650  11.562 -0.0840  0.3434  0.3842
  909MPD2    C413365   2.015   1.536  11.536  0.1320 -0.3729  0.3620
  909MPD2    C513366   2.007   1.486  11.409 -0.2947 -0.2064  0.2225
  909MPD2     H13367   2.203   1.812  11.485 -0.1212  0.0420  0.3314
  909MPD2    H113368   1.964   1.471  11.606 -2.8969  0.3909 -1.1479
  909MPD2    H213369   2.070   1.508  11.212  1.3132 -0.9310  0.0822
  909MPD2    H313370   1.958   1.392  11.388 -3.3768  1.5214 -0.2000
  909MPD2     N13371   2.094   1.707  11.691 -0.2245 -0.1529  0.0539
  909MPD2    H513372   2.159   1.784  11.702 -0.4129  0.4535 -3.1319
  909MPD2    N113373   2.230   1.718  11.235  0.3637 -0.1274 -0.5989
  909MPD2    H713374   2.239   1.818  11.245  3.0194 -0.4336 -0.1179
  910MPD2     C13375   3.757   2.876  16.037  0.5960 -0.2547  0.4573
  910MPD2    C113376   3.757   2.750  15.991 -0.0944 -0.6600  0.8327
  910MPD2    C213377   3.749   2.724  15.859 -0.7666  0.2393 -1.1061
  910MPD2    C313378   3.756   2.831  15.767 -0.1980  0.0177 -0.2147
  910MPD2    C413379   3.766   2.957  15.813  0.2054  0.3367 -0.2239
  910MPD2    C513380   3.761   2.977  15.947  0.1629  0.6314 -0.6025
  910MPD2     H13381   3.754   2.620  15.827 -2.4118 -0.2165  0.0678
  910MPD2    H113382   3.781   3.045  15.752  1.0525 -0.1609 -0.7328
  910MPD2    H213383   3.777   2.900  16.140  0.9193  0.8989  0.1193
  910MPD2    H313384   3.767   3.078  15.984 -3.2266  0.4560  0.4596
  910MPD2     N13385   3.746   2.812  15.628 -0.3117 -0.3482 -0.1725
  910MPD2    H513386   3.754   2.892  15.566  0.8819  0.1128  0.5927
  910MPD2    N113387   3.793   2.640  16.075  0.2953 -0.3468 -0.2512
  910MPD2    H713388   3.828   2.563  16.019 -0.6878 -2.0009  1.3955
  911MPD2     C13389   1.516   3.704  16.118 -0.3028 -0.0441  0.2200
  911MPD2    C113390   1.512   3.717  16.250 -0.3652  0.3258  0.3004
  911MPD2    C213391   1.446   3.832  16.300  0.9458 -0.0189 -0.4747
  911MPD2    C313392   1.381   3.921  16.211 -0.1909  0.0344  0.9667
  911MPD2    C413393   1.391   3.898  16.077  0.4346  0.7224  0.0438
  911MPD2    C513394   1.455   3.788  16.033 -0.6767 -0.4466  0.2768
  911MPD2     H13395   1.443   3.846  16.408 -0.5797 -2.4457 -0.1834
  911MPD2    H113396   1.346   3.969  16.009 -0.7288  1.4479  1.5717
  911MPD2    H213397   1.558   3.616  16.069  2.1499  2.4841 -2.1944
  911MPD2    H313398   1.457   3.772  15.926 -0.5037  1.5112 -0.0069
  911MPD2     N13399   1.309   4.036  16.249 -0.5363 -0.1235  0.5728
  911MPD2    H513400   1.266   4.088  16.173  1.1679 -1.0130 -1.0102
  911MPD2    N113401   1.574   3.622  16.326 -0.3128 -0.0871  0.3728
  911MPD2    H713402   1.616   3.542  16.279  1.3971  2.2943 -2.1777
  912MPD2     C13403   1.103   4.083  15.767 -0.1021  0.2814 -0.6365
  912MPD2    C113404   1.070   4.066  15.901  0.6057  0.1448  0.8798
  912MPD2    C213405   1.055   3.935  15.950 -0.6149 -0.2682  0.2791
  912MPD2    C313406   1.085   3.825  15.867 -0.0367  0.9700 -0.6435
  912MPD2    C413407   1.095   3.846  15.734  0.0982 -0.5314 -0.5079
  912MPD2    C513408   1.108   3.975  15.689 -0.8645 -1.0322  0.5245
  912MPD2     H13409   1.046   3.919  16.057  0.9729 -0.1504  0.4331
  912MPD2    H113410   1.107   3.760  15.668 -0.9401 -0.0275 -1.3535
  912MPD2    H213411   1.118   4.180  15.722  0.5221 -0.2648 -1.6068
  912MPD2    H313412   1.124   3.985  15.582 -0.4624 -1.5624  0.5326
  912MPD2     N13413   1.101   3.704  15.931 -0.4382 -0.4034  0.4903
  912MPD2    H513414   1.084   3.717  16.030  1.6728  0.7948  0.6899
  912MPD2    N113415   1.053   4.181  15.983  0.1310 -0.7595 -0.2307
  912MPD2    H713416   1.075   4.276  15.955 -2.8893  0.1644  0.4881
  913MPD2     C13417   2.069   1.313   9.770  0.0379  0.4181 -0.1734
  913MPD2    C113418   2.189   1.375   9.779 -0.1216 -0.0949  0.2642
  913MPD2    C213419   2.207   1.489   9.706 -0.2669 -0.0087  0.1887
  913MPD2    C313420   2.098   1.548   9.646 -0.2885  0.3023  0.7600
  913MPD2    C413421   1.986   1.479   9.631 -0.0952  0.4024 -0.3394
  913MPD2    C513422   1.970   1.358   9.682  0.2349 -0.6158  0.2996
  913MPD2     H13423   2.300   1.545   9.705 -0.2604 -0.0559 -2.7729
  913MPD2    H113424   1.901   1.521   9.578 -0.7243 -1.4083 -0.7632
  913MPD2    H213425   2.055   1.217   9.818  0.7803  0.3289 -0.1469
  913MPD2    H313426   1.878   1.305   9.665  0.2018 -0.6270  0.5138
  913MPD2     N13427   2.098   1.671   9.578  0.3889 -0.2785 -0.3362
  913MPD2    H513428   2.018   1.698   9.522 -0.0756 -0.2690  0.3304
  913MPD2    N113429   2.296   1.302   9.843  0.5348 -0.0638  0.0663
  913MPD2    H713430   2.273   1.217   9.892  1.0997 -0.2452  0.0180
  914MPD2     C13431   4.651   0.535  11.806 -0.1633 -0.4125 -0.0098
  914MPD2    C113432   4.570   0.556  11.913 -0.4097 -0.0510 -0.0623
  914MPD2    C213433   4.481   0.462  11.962 -0.3662  0.2573  0.3390
  914MPD2    C313434   4.481   0.340  11.901 -0.1963  0.5828 -0.1136
  914MPD2    C413435   4.556   0.316  11.795 -0.1386  0.2175 -0.0663
  914MPD2    C513436   4.640   0.414  11.747  0.3786 -0.1536 -0.0388
  914MPD2     H13437   4.418   0.484  12.047  0.0050 -0.2534  0.7538
  914MPD2    H113438   4.556   0.223  11.739 -1.3908  0.2687 -0.1403
  914MPD2    H213439   4.711   0.615  11.766 -1.6865  0.0529 -1.3354
  914MPD2    H313440   4.694   0.390  11.656  0.8520 -3.2253  1.0573
  914MPD2     N13441   4.408   0.240  11.969 -0.1850 -0.2170  0.0223
  914MPD2    H513442   4.360   0.274  12.052  0.2547 -0.6387  0.4513
  914MPD2    N113443   4.570   0.687  11.967  0.5339 -0.0038 -0.3160
  914MPD2    H713444   4.644   0.749  11.935  0.8034 -0.2814 -0.2367
  915MPD2     C13445   2.678   4.598  15.588 -0.9057  0.5472  0.8390
  915MPD2    C113446   2.639   4.723  15.556  0.3610 -0.4508  0.0978
  915MPD2    C213447   2.660   0.090  15.652  0.1152  0.1350  0.0276
  915MPD2    C313448   2.715   0.064  15.777 -0.0488 -1.0642 -0.5025
  915MPD2    C413449   2.736   4.664  15.816  0.6539 -0.1589  0.6139
  915MPD2    C513450   2.712   4.571  15.716 -0.3085 -0.8329  0.6893
  915MPD2     H13451   2.645   0.194  15.625 -0.2338  0.1295  0.1969
  915MPD2    H113452   2.773   4.625  15.910  0.6599 -0.0155  0.6725
  915MPD2    H213453   2.674   4.518  15.516  1.3278  1.9924 -0.8826
  915MPD2    H313454   2.743   4.469  15.734  0.0922 -0.6908  0.8030
  915MPD2     N13455   2.722   0.177  15.864 -0.6979  0.3242 -0.5028
  915MPD2    H513456   2.685   0.267  15.833 -1.9659 -0.0906 -0.1876
  915MPD2    N113457   2.590   0.015  15.426 -0.1650 -0.5027  0.1235
  915MPD2    H713458   2.581   4.669  15.365 -0.2545 -0.2290 -0.2197
  916MPD2     C13459   0.684   3.780  15.826  0.1866 -0.3529 -0.3372
  916MPD2    C113460   0.714   3.690  15.923 -0.3388  0.0932  0.1717
  916MPD2    C213461   0.748   3.557  15.897 -0.1573 -0.0973  0.5847
  916MPD2    C313462   0.754   3.519  15.768 -1.0097  0.0962  0.8866
  916MPD2    C413463   0.722   3.614  15.670 -0.3385  0.1210  0.1438
  916MPD2    C513464   0.676   3.739  15.701  0.3047 -0.3871  0.8858
  916MPD2     H13465   0.784   3.487  15.972 -2.5745 -1.9623 -0.0042
  916MPD2    H113466   0.723   3.593  15.564 -1.3655  0.6855  0.0252
  916MPD2    H213467   0.649   3.881  15.841 -1.7585 -1.2498  1.1134
  916MPD2    H313468   0.663   3.805  15.617  1.1547 -0.2037  0.8974
  916MPD2     N13469   0.810   3.389  15.746 -0.5951  0.3045 -0.7956
  916MPD2    H513470   0.821   3.333  15.830 -0.5964 -0.1762 -1.1196
  916MPD2    N113471   0.721   3.738  16.052  0.0684  0.0972  0.6529
  916MPD2    H713472   0.698   3.836  16.069 -1.7419  0.0489 -1.4812
  917MPD2     C13473   1.129   1.022  11.276 -0.6102 -0.0685  0.9784
  917MPD2    C113474   1.125   1.060  11.405 -0.6276  0.0548 -0.2045
  917MPD2    C213475   1.153   1.183  11.448 -0.4276 -0.3060 -0.0044
  917MPD2    C313476   1.220   1.265  11.359 -0.1115 -0.4133 -0.4109
  917MPD2    C413477   1.247   1.224  11.231 -0.1228 -0.4826 -0.2655
  917MPD2    C513478   1.196   1.103  11.187 -0.3838  0.2843 -0.2850
  917MPD2     H13479   1.131   1.226  11.545 -1.4332 -0.1931 -0.2860
  917MPD2    H113480   1.285   1.294  11.157  0.3797 -3.7203 -3.0317
  917MPD2    H213481   1.093   0.927  11.239  0.8386 -0.3994  0.4177
  917MPD2    H313482   1.218   1.088  11.082  0.8035  2.5917 -0.3683
  917MPD2     N13483   1.266   1.400  11.389 -0.2258  0.5547 -0.4376
  917MPD2    H513484   1.309   1.458  11.317  0.0245 -0.0995 -0.8115
  917MPD2    N113485   1.061   0.985  11.504  0.2979  0.5541  0.3261
  917MPD2    H713486   1.043   1.039  11.587 -1.9698  1.5158 -0.8022
  918MPD2     C13487   0.874   1.272  12.264  0.5904 -0.2158  0.5002
  918MPD2    C113488   0.986   1.244  12.189 -0.1516  0.4665 -0.5115
  918MPD2    C213489   0.975   1.151  12.090  0.3924 -0.7960  0.6009
  918MPD2    C313490   0.854   1.094  12.061  0.0182  0.3756 -0.0156
  918MPD2    C413491   0.742   1.117  12.142  0.3058  0.5018 -0.8149
  918MPD2    C513492   0.749   1.215  12.240  0.2087 -0.8400  0.7005
  918MPD2     H13493   1.060   1.123  12.029 -0.9219 -2.2019 -0.5799
  918MPD2    H113494   0.643   1.075  12.132  0.4713 -0.3707  1.1194
  918MPD2    H213495   0.872   1.349  12.341  2.6646 -1.0302  1.3688
  918MPD2    H313496   0.656   1.246  12.287  1.1521 -0.5478  2.3541
  918MPD2     N13497   0.854   0.999  11.948 -0.8213 -0.0563 -0.1031
  918MPD2    H513498   0.942   1.001  11.898 -0.0574  1.8442  1.3062
  918MPD2    N113499   1.118   1.290  12.220 -0.5053 -0.0313  0.0193
  918MPD2    H713500   1.189   1.260  12.154  1.5643 -0.1121  2.2802
  919MPD2     C13501   1.792   0.820  12.075  0.5484 -0.3171 -0.4325
  919MPD2    C113502   1.808   0.725  11.971  0.6342  0.3992  0.0396
  919MPD2    C213503   1.869   0.765  11.852 -0.2669  0.2355 -0.5728
  919MPD2    C313504   1.922   0.900  11.838  0.5870 -0.1747 -0.3057
  919MPD2    C413505   1.905   0.987  11.941  0.5400 -0.0272  1.0960
  919MPD2    C513506   1.847   0.948  12.057  0.5065 -0.4044  0.0893
  919MPD2     H13507   1.899   0.699  11.771  0.2838 -1.1734  0.7923
  919MPD2    H113508   1.937   1.091  11.931 -0.1291 -0.0294 -1.0889
  919MPD2    H213509   1.744   0.794  12.169 -2.0653  0.0942 -1.6696
  919MPD2    H313510   1.834   1.020  12.137 -2.1743 -0.9863  0.1877
  919MPD2     N13511   1.988   0.953  11.730  0.0195 -0.2414  0.5066
  919MPD2    H513512   2.014   1.051  11.735  2.5129 -0.8223 -1.1242
  919MPD2    N113513   1.783   0.590  11.987 -0.1125  0.7089  0.6796
  919MPD2    H713514   1.797   0.534  11.904  2.1997  3.3068 -0.6890
  920MPD2     C13515   1.802   1.076  10.766 -0.3937 -0.2330  0.1314
  920MPD2    C113516   1.803   0.955  10.831 -0.0636 -0.4394  0.7265
  920MPD2    C213517   1.847   0.958  10.966  0.3619  0.0837 -0.0996
  920MPD2    C313518   1.893   1.076  11.023 -0.9021  0.1289  0.2868
  920MPD2    C413519   1.893   1.193  10.950  0.0062 -0.1148 -0.1608
  920MPD2    C513520   1.850   1.191  10.820  0.7393 -0.2086 -0.6252
  920MPD2     H13521   1.857   0.867  11.023  1.0437  1.3404  1.7955
  920MPD2    H113522   1.912   1.290  10.994 -0.0244 -0.0400 -0.3131
  920MPD2    H213523   1.770   1.092  10.663 -1.0115  3.1343  0.8375
  920MPD2    H313524   1.857   1.282  10.761 -0.9973  0.4099  0.0987
  920MPD2     N13525   1.939   1.072  11.156  0.5072 -0.0241  0.5083
  920MPD2    H513526   1.918   0.987  11.209 -5.0550  0.5436 -0.8341
  920MPD2    N113527   1.767   0.838  10.764  0.4052  0.2271 -0.1109
  920MPD2    H713528   1.785   0.757  10.823 -1.3911 -1.7145 -2.2319
  921MPD2     C13529   2.376   3.654  16.939 -0.8371 -0.7347 -0.3794
  921MPD2    C113530   2.393   3.619  16.808  0.1336 -0.0249  0.6157
  921MPD2    C213531   2.286   3.568  16.734 -0.1370 -0.4881 -0.1689
  921MPD2    C313532   2.165   3.550  16.795  0.0640  0.4263 -0.8128
  921MPD2    C413533   2.158   3.585  16.928  0.3134  0.3751 -0.1090
  921MPD2    C513534   2.254   3.638  16.998  0.3884 -0.2369  0.7198
  921MPD2     H13535   2.285   3.549  16.628 -0.0387  0.8508 -0.4075
  921MPD2    H113536   2.059   3.587  16.973  0.6435  2.9100  0.4964
  921MPD2    H213537   2.459   3.698  16.992 -0.2257 -0.9236 -1.1891
  921MPD2    H313538   2.222   3.673  17.096 -0.1222  1.3450 -0.0213
  921MPD2     N13539   2.055   3.509  16.711 -0.2943  0.1374 -0.8543
  921MPD2    H513540   2.073   3.471  16.619  1.3687 -3.9910  1.1762
  921MPD2    N113541   2.517   3.657  16.744 -0.3226 -0.5955  0.0380
  921MPD2    H713542   2.592   3.686  16.807  0.7318 -1.1954 -0.9408
  922MPD2     C13543   3.231   1.786  17.082  0.3192  0.0046 -0.0498
  922MPD2    C113544   3.162   1.768  17.202  0.4568 -0.3648  0.4520
  922MPD2    C213545   3.121   1.642  17.245 -0.3240  0.4513  0.3213
  922MPD2    C313546   3.139   1.528  17.170  0.2283  0.0130 -0.5215
  922MPD2    C413547   3.205   1.548  17.050 -0.9621  0.3039 -0.3435
  922MPD2    C513548   3.253   1.670  17.009 -0.3665 -0.4047  0.0128
  922MPD2     H13549   3.067   1.640  17.338 -1.8019  0.9290 -0.5224
  922MPD2    H113550   3.229   1.462  16.988  1.4459  2.0099 -1.7768
  922MPD2    H213551   3.260   1.882  17.044 -0.1880  0.4873  0.7706
  922MPD2    H313552   3.303   1.674  16.913 -0.4563  0.9388  0.0215
  922MPD2     N13553   3.085   1.405  17.220  0.5199  0.2661 -0.2125
  922MPD2    H513554   3.018   1.414  17.295 -0.6569  1.3164 -1.4055
  922MPD2    N113555   3.118   1.877  17.281 -0.6353 -0.4873 -0.1926
  922MPD2    H713556   3.070   1.845  17.364 -0.4638 -2.2086 -0.7618
  923MPD2     C13557   3.956   4.331   8.967 -0.4475  0.2774 -0.9046
  923MPD2    C113558   4.003   4.384   9.086  0.1035 -0.3972  0.0043
  923MPD2    C213559   4.134   4.351   9.122 -0.1277 -0.2759 -0.1924
  923MPD2    C313560   4.218   4.285   9.032 -0.1540 -0.3713 -1.1970
  923MPD2    C413561   4.171   4.235   8.914 -0.0806  0.5339  0.4204
  923MPD2    C513562   4.043   4.260   8.889 -0.6013  0.0358  0.5823
  923MPD2     H13563   4.161   4.391   9.219  0.7776  1.2216 -1.0626
  923MPD2    H113564   4.232   4.173   8.850 -0.8787  1.1761 -0.9551
  923MPD2    H213565   3.855   4.340   8.930  0.0094  0.0722 -2.1738
  923MPD2    H313566   3.995   4.219   8.801 -1.4434  2.8093 -0.2711
  923MPD2     N13567   4.353   4.265   9.064 -0.5325 -0.0867  0.1799
  923MPD2    H513568   4.401   4.214   8.991  1.0562  0.5367  0.7861
  923MPD2    N113569   3.904   4.436   9.172 -0.8232 -0.4606 -0.3402
  923MPD2    H713570   3.811   4.439   9.131 -1.1619  1.1663  0.5299
  924MPD2     C13571   4.502   1.672  16.043 -0.1627  0.8721 -0.1915
  924MPD2    C113572   4.527   1.704  16.170 -0.3523  0.1307  1.3594
  924MPD2    C213573   4.552   1.842  16.206  0.5224  0.0471 -0.9887
  924MPD2    C313574   4.545   1.941  16.106 -0.4712  0.4707 -0.0316
  924MPD2    C413575   4.503   1.901  15.983  0.0914  0.2989  0.0899
  924MPD2    C513576   4.497   1.774  15.947 -0.9405  0.2833  0.1164
  924MPD2     H13577   4.569   1.865  16.311  3.3846  0.8755 -1.6169
  924MPD2    H113578   4.502   1.976  15.904  0.3922  0.8589  0.6245
  924MPD2    H213579   4.504   1.572  16.002 -0.9858  0.1874  1.4174
  924MPD2    H313580   4.497   1.736  15.846  0.5376  2.5165 -0.7159
  924MPD2     N13581   4.572   2.076  16.139 -0.0903 -0.0909 -0.3013
  924MPD2    H513582   4.582   2.138  16.059  0.3655 -0.5747 -0.6111
  924MPD2    N113583   4.514   1.599  16.266  0.2469  0.1820 -0.6308
  924MPD2    H713584   4.451   1.525  16.236 -2.3357  2.0507  0.2148
  925MPD2     C13585   3.715   4.136  15.029 -0.3739  0.3254 -0.4129
  925MPD2    C113586   3.617   4.118  14.930 -0.3065 -0.5015  0.6247
  925MPD2    C213587   3.503   4.057  14.968  0.4936 -1.2253 -0.2874
  925MPD2    C313588   3.474   4.020  15.106 -0.6486  0.4239 -0.0042
  925MPD2    C413589   3.571   4.038  15.204  0.4070  0.4812 -0.5045
  925MPD2    C513590   3.688   4.099  15.158 -0.1553  0.9065  0.5645
  925MPD2     H13591   3.427   4.038  14.893 -0.4052 -2.8122  1.0199
  925MPD2    H113592   3.546   4.008  15.306  0.2370  0.9772 -0.3977
  925MPD2    H213593   3.809   4.186  15.008  1.1379 -2.6786 -0.7774
  925MPD2    H313594   3.764   4.120  15.232  0.2782  2.4095 -0.3111
  925MPD2     N13595   3.354   3.958  15.155 -0.3079  0.7476  0.2865
  925MPD2    H513596   3.333   3.954  15.255  0.6674  2.2334  0.5488
  925MPD2    N113597   3.621   4.140  14.791 -0.4414 -0.5462  0.2467
  925MPD2    H713598   3.540   4.112  14.736 -0.4530 -1.0882  0.5424
  926MPD2     C13599   1.675   2.865  13.453 -0.4780  0.4625  0.1814
  926MPD2    C113600   1.708   2.993  13.468 -0.0594  0.4163 -0.6013
  926MPD2    C213601   1.800   3.059  13.390  0.8007  0.2010 -0.0862
  926MPD2    C313602   1.858   3.001  13.283 -0.1920 -0.1386 -0.1150
  926MPD2    C413603   1.811   2.873  13.259 -0.2620  0.2462  0.0691
  926MPD2    C513604   1.726   2.805  13.343  0.3690  0.6953  0.2488
  926MPD2     H13605   1.814   3.166  13.404 -1.1898  0.7677 -2.3977
  926MPD2    H113606   1.852   2.822  13.173  1.0755 -0.7469  1.2833
  926MPD2    H213607   1.609   2.805  13.515  0.7318 -0.5952  0.4251
  926MPD2    H313608   1.712   2.701  13.315  2.1740  0.5447 -0.0884
  926MPD2     N13609   1.963   3.064  13.201 -0.7256 -0.4805 -0.0973
  926MPD2    H513610   1.971   3.034  13.105 -0.8351 -2.8746  0.6420
  926MPD2    N113611   1.647   3.070  13.566 -0.2170 -0.4891 -0.0626
  926MPD2    H713612   1.677   3.167  13.576 -0.2946 -0.3055 -1.5663
  927MPD2     C13613   1.197   0.715   0.208 -0.1898 -0.2776 -0.0194
  927MPD2    C113614   1.226   0.604   0.132 -0.6419  0.7275 -0.2744
  927MPD2    C213615   1.324   0.602   0.028  0.2744  0.2018 -0.9461
  927MPD2    C313616   1.380   0.721  17.726 -0.2312  0.6600 -0.0049
  927MPD2    C413617   1.346   0.835   0.060  0.8746  0.3836 -0.1821
  927MPD2    C513618   1.264   0.828   0.166  0.5503  0.1808 -0.6537
  927MPD2     H13619   1.348   0.505  17.720  0.8651 -0.0799  0.0178
  927MPD2    H113620   1.392   0.931   0.041  0.6363  0.6547  0.6472
  927MPD2    H213621   1.127   0.713   0.291 -0.7235  2.3861 -0.4127
  927MPD2    H313622   1.237   0.919   0.219 -1.4573  0.2106 -1.7536
  927MPD2     N13623   1.464   0.725  17.607  0.0073  0.2276  0.0165
  927MPD2    H513624   1.488   0.641  17.555 -0.3320  0.2948 -0.2452
  927MPD2    N113625   1.155   0.488   0.184 -0.0646 -0.7945 -0.2462
  927MPD2    H713626   1.093   0.506   0.262  0.7244 -1.7851  0.5980
  928MPD2     C13627   3.781   3.774   0.504  0.4804 -0.4730  0.9028
  928MPD2    C113628   3.875   3.785   0.603 -0.3288  0.0473  0.0197
  928MPD2    C213629   4.004   3.736   0.574  0.0676  0.2497  0.2506
  928MPD2    C313630   4.042   3.697   0.450  0.6096  0.2267  0.3002
  928MPD2    C413631   3.948   3.696   0.347  0.0995  0.5433  0.7300
  928MPD2    C513632   3.818   3.735   0.373  0.1796 -0.4997 -0.5646
  928MPD2     H13633   4.081   3.733   0.650  1.4651  0.2825 -1.1755
  928MPD2    H113634   3.973   3.667   0.246 -0.4476  2.0173  0.1781
  928MPD2    H213635   3.677   3.805   0.512  0.4995 -0.4117  0.9200
  928MPD2    H313636   3.750   3.724   0.290  1.2198  1.3465 -1.6776
  928MPD2     N13637   4.168   3.658   0.409  0.0899 -0.4514  0.5630
  928MPD2    H513638   4.182   3.661   0.308  0.6045  0.2528  0.6602
  928MPD2    N113639   3.837   3.840   0.728  0.3350 -0.4611  0.0665
  928MPD2    H713640   3.737   3.849   0.742  0.4169  0.3962  0.1048
  929MPD2     C13641   0.515   3.648  10.660 -0.7372 -0.4230  0.6967
  929MPD2    C113642   0.398   3.595  10.708 -0.0036  0.3796 -0.1711
  929MPD2    C213643   0.289   3.596  10.619 -0.5193  0.3094 -0.8684
  929MPD2    C313644   0.294   3.648  10.495 -0.2284 -0.3087  0.1336
  929MPD2    C413645   0.406   3.714  10.456  0.5157  0.8014  0.7216
  929MPD2    C513646   0.519   3.714  10.538  0.0291 -0.0996 -0.2989
  929MPD2     H13647   0.187   3.586  10.655  0.9972 -3.6068  2.4513
  929MPD2    H113648   0.399   3.769  10.362  1.9464  0.5834  0.4827
  929MPD2    H213649   0.602   3.643  10.724 -0.8701 -0.9281  0.8386
  929MPD2    H313650   0.605   3.772  10.505 -0.3202  1.0416  0.8261
  929MPD2     N13651   0.182   3.652  10.408 -0.5321 -0.4333  0.0225
  929MPD2    H513652   0.184   3.718  10.330 -0.0611 -0.8727 -0.3341
  929MPD2    N113653   0.394   3.544  10.843  0.2788  0.2482 -0.1495
  929MPD2    H713654   0.482   3.537  10.892  0.8046 -0.1785 -1.1381
  930MPD2     C13655   2.069   1.086  14.141  0.9732 -0.8372 -0.4496
  930MPD2    C113656   2.080   1.197  14.058  0.1741 -0.1605 -0.6616
  930MPD2    C213657   2.044   1.184  13.930 -0.0075  0.4947  1.1952
  930MPD2    C313658   2.009   1.067  13.874 -0.1993 -0.5119  0.4662
  930MPD2    C413659   2.005   0.957  13.956  0.5245  0.3642  0.0416
  930MPD2    C513660   2.030   0.962  14.089  0.6228  1.0900  0.5068
  930MPD2     H13661   2.038   1.273  13.868 -0.6739 -0.1999  0.2587
  930MPD2    H113662   1.985   0.859  13.916  0.9543  0.3654 -0.1683
  930MPD2    H213663   2.091   1.098  14.247 -1.8964 -3.5747  0.4515
  930MPD2    H313664   2.028   0.872  14.150 -0.1232  0.9234  0.2351
  930MPD2     N13665   1.972   1.051  13.736  1.2024  0.1798 -0.5984
  930MPD2    H513666   1.931   0.966  13.698 -1.3956  1.3998 -0.5904
  930MPD2    N113667   2.123   1.316  14.117  0.0089 -0.1295 -0.1106
  930MPD2    H713668   2.138   1.311  14.217  1.3655  0.0329 -0.3040
  931MPD2     C13669   1.466   4.514   0.369  0.1226  0.2248 -0.0676
  931MPD2    C113670   1.366   4.563   0.448 -0.0809 -0.2478 -0.1201
  931MPD2    C213671   1.353   4.520   0.582 -0.2653 -0.4787 -0.3160
  931MPD2    C313672   1.448   4.437   0.637  0.8582 -0.5965  0.2497
  931MPD2    C413673   1.561   4.404   0.556  0.1953 -0.3788  0.0995
  931MPD2    C513674   1.566   4.440   0.424 -0.8615  0.3177 -0.5163
  931MPD2     H13675   1.273   4.555   0.647  0.6400 -2.4082  1.8307
  931MPD2    H113676   1.638   4.333   0.582 -0.0788 -0.9550 -0.6471
  931MPD2    H213677   1.464   4.537   0.264 -3.0557 -1.7241 -0.4574
  931MPD2    H313678   1.642   4.405   0.356 -0.5102  0.6478 -0.2920
  931MPD2     N13679   1.449   4.395   0.774 -0.4835 -0.0693 -0.2734
  931MPD2    H513680   1.529   4.343   0.808 -0.0186  0.3741 -0.7064
  931MPD2    N113681   1.271   4.659   0.395  0.0199  0.2959  0.1041
  931MPD2    H713682   1.302   4.693   0.304 -1.0930  3.4218  0.8853
  932MPD2     C13683   3.294   4.533  10.941  0.5222  0.1279 -0.2726
  932MPD2    C113684   3.398   4.578  11.022  0.7026  0.0577 -0.4400
  932MPD2    C213685   3.444   4.500  11.124  0.0876 -0.5777 -0.0403
  932MPD2    C313686   3.423   4.365  11.118 -0.5900 -0.7134 -0.6462
  932MPD2    C413687   3.328   4.310  11.036 -0.5557  0.2183  0.1660
  932MPD2    C513688   3.266   4.399  10.945  0.3298  0.4475 -0.2051
  932MPD2     H13689   3.528   4.536  11.182  1.4616 -2.0341 -1.1699
  932MPD2    H113690   3.308   4.203  11.042  0.4932  0.0845  1.3604
  932MPD2    H213691   3.251   4.596  10.864 -2.8806 -0.4519  1.1462
  932MPD2    H313692   3.199   4.353  10.874 -0.6647  2.0063 -0.2566
  932MPD2     N13693   3.494   4.274  11.202 -0.2703 -0.0587 -0.0512
  932MPD2    H513694   3.481   4.175  11.185 -1.2226  0.4935 -2.5686
  932MPD2    N113695   3.449   4.714  11.016 -0.6521 -0.2227  0.1185
  932MPD2    H713696   3.512   0.012  11.088 -2.9882  1.0353  1.6232
  933MPD2     C13697   3.281   3.675   0.956 -0.1733 -0.0371  0.3535
  933MPD2    C113698   3.323   3.750   1.060 -0.1124  0.1187  0.9002
  933MPD2    C213699   3.228   3.791   1.148 -0.2720  0.5522  0.7203
  933MPD2    C313700   3.103   3.738   1.152 -0.0096 -0.4363  0.2258
  933MPD2    C413701   3.064   3.663   1.042 -0.2892  0.2837  0.6350
  933MPD2    C513702   3.152   3.625   0.943  0.2063 -0.3705 -0.1038
  933MPD2     H13703   3.256   3.867   1.220  0.0469  0.9129  0.2171
  933MPD2    H113704   2.967   3.616   1.038  0.0828 -0.3581 -0.7610
  933MPD2    H213705   3.350   3.641   0.880 -0.2010 -3.5451  1.8989
  933MPD2    H313706   3.123   3.561   0.861 -1.1024 -0.6500  0.5647
  933MPD2     N13707   3.013   3.783   1.250  0.5341  0.5466 -0.4162
  933MPD2    H513708   3.042   3.852   1.318  2.3673 -0.0771 -0.5646
  933MPD2    N113709   3.466   3.782   1.057 -0.0451  0.3021  0.3242
  933MPD2    H713710   3.515   3.747   0.975 -0.1360  1.5246 -0.2451
  934MPD2     C13711   4.561   0.430   2.151  0.8254  0.8816 -0.6802
  934MPD2    C113712   4.683   0.423   2.089  0.4781  0.1004 -0.1244
  934MPD2    C213713   4.694   0.446   1.953 -0.1699 -0.3389  0.5160
  934MPD2    C313714   4.581   0.484   1.882  0.3054 -0.5331 -0.6006
  934MPD2    C413715   4.461   0.503   1.946 -0.0372 -0.1533  0.7074
  934MPD2    C513716   4.451   0.472   2.077  0.0250  0.5253  0.3419
  934MPD2     H13717   0.054   0.427   1.903 -0.0615  1.2792  0.0922
  934MPD2    H113718   4.375   0.537   1.890  0.1284  0.5752  0.8951
  934MPD2    H213719   4.547   0.408   2.257  0.5472  1.7243 -0.5416
  934MPD2    H313720   4.364   0.492   2.138 -0.3507  0.6307 -0.2284
  934MPD2     N13721   4.577   0.499   1.739  0.2730  0.0389 -0.0913
  934MPD2    H513722   4.491   0.519   1.691  0.3719  0.7063  0.0180
  934MPD2    N113723   0.065   0.385   2.152 -0.0815 -0.5814  0.0185
  934MPD2    H713724   0.151   0.379   2.097 -0.2239 -0.0934 -0.2567
  935MPD2     C13725   0.453   0.028   1.116  0.1410  0.2740 -0.4289
  935MPD2    C113726   0.354   0.068   1.029 -0.3183  0.2479 -0.5192
  935MPD2    C213727   0.256   0.159   1.080 -0.1683  0.7913  0.1801
  935MPD2    C313728   0.262   0.193   1.217  0.4004  0.1284 -1.0547
  935MPD2    C413729   0.366   0.148   1.301 -0.1771 -0.1131 -0.4701
  935MPD2    C513730   0.465   0.072   1.247  0.5616 -0.2939 -0.3008
  935MPD2     H13731   0.176   0.197   1.017  0.5328 -0.3928 -1.4068
  935MPD2    H113732   0.364   0.179   1.404 -1.5528 -0.9938 -0.2348
  935MPD2    H213733   0.533   4.694   1.089 -0.0774  0.9530 -2.8042
  935MPD2    H313734   0.549   0.029   1.300  0.1716 -2.3061 -1.3238
  935MPD2     N13735   0.172   0.277   1.286 -0.0661  0.2889  0.0331
  935MPD2    H513736   0.195   0.314   1.377 -1.2863  0.4885  0.2650
  935MPD2    N113737   0.347   0.017   0.896 -0.3200 -0.1363  1.2155
  935MPD2    H713738   0.267   0.054   0.844  0.8967 -2.6116 -2.4422
  936MPD2     C13739   3.878   2.636  12.305 -0.1037  0.7177 -0.5376
  936MPD2    C113740   3.921   2.545  12.398  0.4403 -0.4239  0.3849
  936MPD2    C213741   4.048   2.552  12.445  0.1199 -0.0268 -0.3911
  936MPD2    C313742   4.141   2.643  12.386  0.2867 -0.6878  0.1657
  936MPD2    C413743   4.101   2.728  12.287  0.5954 -0.3174  0.0481
  936MPD2    C513744   3.968   2.726  12.248  0.1312 -0.2613  1.2206
  936MPD2     H13745   4.068   2.495  12.535  0.1613  0.7113  0.0707
  936MPD2    H113746   4.172   2.793  12.237 -1.3666  1.6812 -0.1270
  936MPD2    H213747   3.772   2.632  12.281 -0.1609  0.1539 -0.2150
  936MPD2    H313748   3.919   2.791  12.177  1.7172  0.3874  0.7195
  936MPD2     N13749   4.282   2.656  12.429  0.5606 -0.0313  0.1648
  936MPD2    H513750   4.328   2.736  12.388 -1.8328  0.6120 -1.2955
  936MPD2    N113751   3.841   2.454  12.465 -0.3841 -0.4770  0.5385
  936MPD2    H713752   3.887   2.408  12.543 -0.5647 -1.9770 -0.2365
  937MPD2     C13753   1.942   4.726  11.625  0.2218  0.3196 -0.2451
  937MPD2    C113754   2.005   0.082  11.706  0.6845  0.3053 -0.0542
  937MPD2    C213755   2.117   0.150  11.647 -0.1113 -0.2479  0.6175
  937MPD2    C313756   2.180   0.119  11.524  0.7014  0.3338 -0.3447
  937MPD2    C413757   2.107   0.022  11.451 -0.1743  0.3994  0.1370
  937MPD2    C513758   1.985   4.696  11.498  0.1418  0.1398 -0.3974
  937MPD2     H13759   2.163   0.226  11.709  1.3704  1.0216 -2.0168
  937MPD2    H113760   2.140   4.715  11.356  0.7669  0.2862  0.5106
  937MPD2    H213761   1.854   4.672  11.656  0.7376  1.3726  3.1273
  937MPD2    H313762   1.933   4.615  11.448  0.3657 -0.7695  0.8529
  937MPD2     N13763   2.307   0.166  11.491  0.0223 -0.4180 -1.0967
  937MPD2    H513764   2.353   0.229  11.556  0.5168 -1.8253 -0.0633
  937MPD2    N113765   1.938   0.144  11.811 -0.0031 -0.0351  0.7548
  937MPD2    H713766   1.979   0.231  11.845  0.0676 -0.3453  1.4642
  938MPD2     C13767   4.344   0.389   0.945  0.0838  0.2649  0.2092
  938MPD2    C113768   4.249   0.416   1.045  0.0824  0.3866  0.2067
  938MPD2    C213769   4.208   0.322   1.124  0.1467 -0.1897  0.0180
  938MPD2    C313770   4.249   0.197   1.117 -0.6841 -0.5307 -0.1961
  938MPD2    C413771   4.354   0.169   1.035 -0.2314 -0.1551  0.6307
  938MPD2    C513772   4.409   0.268   0.954  0.3055 -0.4432  1.0154
  938MPD2     H13773   4.133   0.353   1.196 -0.3551 -2.2735  0.3697
  938MPD2    H113774   4.402   0.072   1.029 -0.8204 -0.3713 -0.6152
  938MPD2    H213775   4.368   0.453   0.861  0.0640 -1.3065 -0.9824
  938MPD2    H313776   4.497   0.242   0.895  0.2201 -2.0326  1.5731
  938MPD2     N13777   4.191   0.093   1.200 -0.2387  0.8615 -0.0378
  938MPD2    H513778   4.232   4.734   1.197  3.0390  2.3255 -1.5008
  938MPD2    N113779   4.184   0.539   1.053  0.5094 -0.1608 -0.0838
  938MPD2    H713780   4.116   0.562   1.125  0.4570 -2.5725  0.6327
  939MPD2     C13781   0.183   2.267   0.778 -0.0709  1.0186  0.1448
  939MPD2    C113782   0.129   2.263   0.647  0.1127  0.2627  0.1519
  939MPD2    C213783   0.216   2.232   0.544 -0.8137  0.1612 -0.1784
  939MPD2    C313784   0.354   2.213   0.562  0.0471  0.0275  0.5235
  939MPD2    C413785   0.395   2.212   0.693  0.1411  0.4602 -0.4453
  939MPD2    C513786   0.311   2.234   0.803 -0.0948  0.1141  0.3747
  939MPD2     H13787   0.188   2.235   0.440  0.4367  0.4053 -0.5123
  939MPD2    H113788   0.502   2.200   0.707  0.2247  1.1303 -0.5414
  939MPD2    H213789   0.119   2.289   0.863 -0.0755  2.4537 -0.2339
  939MPD2    H313790   0.348   2.234   0.905 -1.0196 -0.4252  0.7118
  939MPD2     N13791   0.436   2.185   0.447 -0.4844 -0.2540 -0.4050
  939MPD2    H513792   0.391   2.172   0.357  0.5816 -0.5757 -0.8915
  939MPD2    N113793   4.731   2.313   0.634 -0.9139  0.3393  0.1493
  939MPD2    H713794   4.682   2.326   0.723 -1.2017  0.7671 -0.0735
  940MPD2     C13795   0.093   2.940  13.005  0.2938  0.2727 -0.0327
  940MPD2    C113796   0.083   2.801  12.999 -0.8083  0.2683 -0.2110
  940MPD2    C213797   0.102   2.738  12.876 -0.4251 -0.9061  0.1162
  940MPD2    C313798   0.132   2.803  12.761 -0.5930 -0.7477  0.1240
  940MPD2    C413799   0.146   2.939  12.769 -0.3300 -0.4126 -0.3714
  940MPD2    C513800   0.130   3.007  12.890 -0.4359 -0.2267 -0.0863
  940MPD2     H13801   0.088   2.630  12.877 -0.6331 -0.8404  3.6777
  940MPD2    H113802   0.159   2.998  12.679 -0.9101 -0.2775 -0.3665
  940MPD2    H213803   0.073   2.995  13.095 -1.8108  0.5086 -0.6633
  940MPD2    H313804   0.127   3.115  12.892 -1.2837 -0.2304 -1.0174
  940MPD2     N13805   0.143   2.744  12.631  0.0176  0.4336  0.1028
  940MPD2    H513806   0.153   2.800  12.548  1.8527  1.1135  0.7944
  940MPD2    N113807   0.044   2.708  13.104 -0.7395 -0.2789  0.5817
  940MPD2    H713808   0.065   2.611  13.085  0.3484 -0.1239  0.9899
  941MPD2     C13809   3.940   2.404   9.860 -0.8771  0.0665 -0.7835
  941MPD2    C113810   4.024   2.345   9.951  0.2207  0.7428 -0.5457
  941MPD2    C213811   3.989   2.234  10.031 -0.2362  0.7065  0.0868
  941MPD2    C313812   3.861   2.174  10.014  0.1568 -0.2856 -0.1774
  941MPD2    C413813   3.776   2.231   9.923 -0.4199 -0.4015  0.1625
  941MPD2    C513814   3.810   2.349   9.858  0.3296 -0.0708 -0.2198
  941MPD2     H13815   4.049   2.191  10.110 -1.6019 -0.3533  0.5554
  941MPD2    H113816   3.676   2.196   9.900 -0.4915 -0.8513  1.1536
  941MPD2    H213817   3.963   2.499   9.814  2.7704  0.3987  1.6544
  941MPD2    H313818   3.735   2.392   9.793 -0.7503 -0.6197  0.6665
  941MPD2     N13819   3.806   2.069  10.094  0.1253 -0.0609 -0.1585
  941MPD2    H513820   3.715   2.035  10.067  1.2546 -1.3928 -2.2897
  941MPD2    N113821   4.153   2.400   9.971  0.4246 -0.1627 -0.5497
  941MPD2    H713822   4.207   2.367  10.050 -2.2359 -3.4743 -0.0947
  942MPD2     C13823   3.241   4.231   9.430  0.1100  0.0386 -0.4693
  942MPD2    C113824   3.333   4.186   9.520 -0.3957 -0.5129 -0.6491
  942MPD2    C213825   3.467   4.165   9.487 -0.2262  0.2172 -0.0283
  942MPD2    C313826   3.511   4.190   9.362  0.6256  0.3480  1.0763
  942MPD2    C413827   3.410   4.236   9.277  0.0428  0.8301 -0.1732
  942MPD2    C513828   3.285   4.259   9.308  0.2674 -0.2505 -0.1796
  942MPD2     H13829   3.535   4.129   9.563  0.1743  2.7364  0.8009
  942MPD2    H113830   3.435   4.264   9.176 -1.3120  0.2895 -0.6581
  942MPD2    H213831   3.138   4.250   9.460  0.0072  1.3774 -1.6532
  942MPD2    H313832   3.215   4.289   9.231  0.0625 -2.9857 -1.0813
  942MPD2     N13833   3.638   4.182   9.304 -0.3690 -0.0527  0.5431
  942MPD2    H513834   3.646   4.178   9.203 -0.7433 -0.7030  0.5430
  942MPD2    N113835   3.304   4.170   9.661 -0.6052 -1.1365  0.5484
  942MPD2    H713836   3.377   4.122   9.712  0.9665 -0.5503 -1.1781
  943MPD2     C13837   2.589   3.506   9.620 -0.4054  0.0970  0.0138
  943MPD2    C113838   2.492   3.419   9.664 -0.5166  0.1299 -0.5703
  943MPD2    C213839   2.469   3.416   9.797 -0.0043  0.7215  0.8585
  943MPD2    C313840   2.551   3.495   9.883  0.7680  0.4301 -0.2919
  943MPD2    C413841   2.640   3.588   9.832  0.2773  0.2234  0.0281
  943MPD2    C513842   2.650   3.598   9.698 -0.0881  0.3176  0.9346
  943MPD2     H13843   2.402   3.339   9.834  1.9447 -1.9526 -1.2697
  943MPD2    H113844   2.700   3.660   9.886  2.2289 -2.5368  1.5081
  943MPD2    H213845   2.628   3.501   9.518  0.6780  3.0449  0.2932
  943MPD2    H313846   2.710   3.673   9.648 -0.4081 -0.4585 -0.6154
  943MPD2     N13847   2.553   3.487  10.025  0.2341  0.2393 -0.0844
  943MPD2    H513848   2.631   3.536  10.068 -0.0674 -1.4831  2.4281
  943MPD2    N113849   2.435   3.329   9.571 -0.8112 -0.2161  0.4712
  943MPD2    H713850   2.479   3.332   9.479  0.6843  0.8025  1.2252
  944MPD2     C13851   1.464   1.484  10.701 -0.1805  0.2267  0.0503
  944MPD2    C113852   1.598   1.488  10.710 -1.1664 -0.5862 -0.5458
  944MPD2    C213853   1.659   1.514  10.828 -0.0373  0.3320 -0.6081
  944MPD2    C313854   1.583   1.532  10.941  0.3279 -0.0294  0.2928
  944MPD2    C413855   1.450   1.518  10.934  0.0504  0.0911 -0.6920
  944MPD2    C513856   1.386   1.503  10.813  0.3775 -0.2804  0.3559
  944MPD2     H13857   1.766   1.511  10.844  0.0780  0.5158 -1.3116
  944MPD2    H113858   1.388   1.535  11.021 -0.1657 -0.9411 -0.6430
  944MPD2    H213859   1.419   1.462  10.604 -1.8782  2.3735  0.3672
  944MPD2    H313860   1.278   1.497  10.815  0.5170 -2.2416  1.8086
  944MPD2     N13861   1.646   1.570  11.061 -0.6287  0.0105  0.1383
  944MPD2    H513862   1.746   1.579  11.048 -1.1145  2.8529 -1.4717
  944MPD2    N113863   1.676   1.451  10.594 -0.5352  0.0117  0.3038
  944MPD2    H713864   1.628   1.397  10.523  0.9815 -0.9240 -0.0091
    1TMC1    C113865   1.400   1.649  14.453 -0.4555 -0.3817  0.4241
    1TMC1    C213866   1.425   1.683  14.319  0.3366 -0.0784 -0.1530
    1TMC1    C313867   1.482   1.584  14.239 -0.4019  0.2187 -0.0322
    1TMC1    C413868   1.429   1.523  14.500  0.1105 -0.6950  0.0142
    1TMC1    C513869   1.501   1.436  14.417  0.3609  0.0070 -0.8494
    1TMC1    C613870   1.525   1.462  14.288  0.1311  0.3553 -0.3163
    1TMC1     C13871   1.306   1.722  14.535  0.3449  0.1130  0.3173
    1TMC1     O13872   1.271   1.662  14.638 -0.2771 -0.4922 -0.0370
    1TMC1     H13873   1.408   1.781  14.277  0.6493 -0.9525 -2.3154
    1TMC1    H113874   1.423   1.492  14.604 -0.5578  0.1399  0.2285
    1TMC1    H213875   1.557   1.380  14.225 -0.7603 -1.0232  1.0332
    1TMC1    C713876   1.499   1.297  14.458  0.2868  0.1085 -0.3437
    1TMC1    C813877   1.496   1.608  14.093 -0.3421 -0.0994  0.0619
    1TMC1    O113878   1.425   1.255  14.544 -0.1107  0.5624 -0.5897
    1TMC1    O213879   1.570   1.530  14.034  0.3809 -0.1503 -0.5569
    1TMC1    O313880   1.611   1.230  14.418 -0.1155  0.0381  0.3528
    1TMC1    H313881   1.669   1.279  14.356  1.7246 -1.2049  1.0941
    1TMC1    O513882   1.370   1.622  14.063 -0.1582  0.3735  0.0136
    1TMC1    H513883   1.316   1.639  14.143  1.2288 -0.2014  1.0775
    2MPD2     C13884   0.942   2.078  14.593  0.6486  0.1290 -0.2400
    2MPD2    C113885   0.994   2.092  14.467 -0.2171  0.0422  0.1037
    2MPD2    C213886   1.095   2.008  14.421 -0.1461 -0.0199 -0.4581
    2MPD2    C313887   1.145   1.909  14.502 -0.5031 -0.3335 -0.8412
    2MPD2    C413888   1.076   1.888  14.621  0.0838 -0.6120 -0.0375
    2MPD2    C513889   0.981   1.972  14.669  0.4207 -0.6827  0.4875
    2MPD2     H13890   1.123   2.016  14.317 -0.2451 -0.2520 -0.5006
    2MPD2    H113891   1.101   1.802  14.683 -0.6140 -1.3236 -0.7523
    2MPD2    H213892   0.855   2.134  14.624  0.1345 -0.2558 -0.9938
    2MPD2    H313893   0.923   1.956  14.759  0.6443 -2.2587  0.3525
    2MPD2     N13894   1.245   1.822  14.461 -0.1151  1.0397 -0.7165
    2MPD2    H513895   1.258   1.832  14.361 -3.7554 -1.1154 -1.3987
    2MPD2    N113896   0.928   2.183  14.384  0.1845  0.7489 -0.4750
    2MPD2    H713897   0.859   2.244  14.427 -0.0632  0.5465 -0.5906
    3TMC2    C113898   0.849   2.286  14.177  0.8617 -0.3901 -0.9747
    3TMC2    C213899   0.840   2.407  14.239 -0.0449  0.1664 -0.2195
    3TMC2    C313900   0.772   2.505  14.171  0.3521  0.2517  0.3453
    3TMC2    C413901   0.792   2.262  14.056 -0.2034 -0.0993  0.4277
    3TMC2    C513902   0.721   2.358  13.989  0.7528  0.4377 -0.1821
    3TMC2    C613903   0.709   2.481  14.050  0.1182 -0.0762  0.3702
    3TMC2     C13904   0.940   2.194  14.240  0.6435 -0.2721 -0.2312
    3TMC2     O13905   1.002   2.121  14.165  0.2273 -0.2741 -0.3191
    3TMC2     H13906   0.888   2.437  14.331  0.2888  0.4062 -0.4733
    3TMC2    H113907   0.811   2.171  14.000 -0.9590  0.7117 -1.1356
    3TMC2    H213908   0.663   2.561  13.992 -1.6745  0.3235  2.3628
    3TMC2    C713909   0.693   2.347  13.851 -0.1095 -0.5110 -0.4796
    3TMC2    C813910   0.760   2.629  14.240  0.6969  0.6961  0.2251
    3TMC2    O113911   0.657   2.234  13.813 -0.4042 -0.3124 -0.0511
    3TMC2    O213912   0.836   2.659  14.330  0.3858  0.2538 -0.0985
    3TMC2    O513913   0.635   2.671  14.229 -0.0833  0.1323  0.1329
    3TMC2    H513914   0.582   2.634  14.155 -0.1437  0.8797 -0.2017
    4TMC2    C113915   0.412   3.183  13.529  0.1305  0.2139 -0.0453
    4TMC2    C213916   0.434   3.226  13.398  0.1696 -0.0697  0.7790
    4TMC2    C313917   0.517   3.162  13.317 -0.6834  0.3335  0.3135
    4TMC2    C413918   0.487   3.093  13.588  0.0968  0.2622  0.8204
    4TMC2    C513919   0.575   3.032  13.507 -0.0242 -0.0160 -0.3688
    4TMC2    C613920   0.590   3.055  13.373  0.2459  0.5957  0.2835
    4TMC2     C13921   0.295   3.215  13.605  0.1519  0.2757 -0.3326
    4TMC2     O13922   0.276   3.136  13.698  0.3370  0.3310  0.4670
    4TMC2     H13923   0.380   3.312  13.360  2.0487  1.0005  0.5646
    4TMC2    H113924   0.474   3.067  13.692  1.5141 -2.2182  0.3825
    4TMC2    H213925   0.672   3.009  13.318  0.3153  1.4601 -0.3427
    4TMC2    C713926   0.618   2.905  13.557 -0.7104  0.2907  0.0722
    4TMC2    C813927   0.501   3.179  13.178  0.3717 -0.3130 -0.4327
    4TMC2    O113928   0.648   2.904  13.677  0.1923 -0.0850  0.0310
    4TMC2    O213929   0.515   3.289  13.128 -0.1717 -0.4317 -0.0297
    4TMC2    O513930   0.418   3.087  13.128  0.4716  0.2546  0.0755
    4TMC2    H513931   0.419   3.011  13.191 -1.3170 -1.2165 -1.6688
    5MPD2     C13932   4.551   3.357  13.654 -0.7331  0.4587 -0.3113
    5MPD2    C113933   4.586   3.363  13.520 -0.3269  0.7113  0.0675
    5MPD2    C213934   4.717   3.360  13.482  0.1657  0.4284 -0.8622
    5MPD2    C313935   0.077   3.328  13.573  0.4864  0.4565  0.3122
    5MPD2    C413936   0.044   3.318  13.701 -0.6002  0.2365 -0.2379
    5MPD2    C513937   4.649   3.331  13.746  0.0805 -0.8267 -0.4139
    5MPD2     H13938   0.009   3.381  13.379 -0.4269  0.8063 -0.9313
    5MPD2    H113939   0.114   3.295  13.781  0.6756 -2.6380 -2.1935
    5MPD2    H213940   4.449   3.356  13.693 -1.0035  0.3923 -1.0147
    5MPD2    H313941   4.619   3.323  13.849 -0.2875 -0.7486 -0.5158
    5MPD2     N13942   0.211   3.305  13.544  0.0799  0.1913  0.8180
    5MPD2    H513943   0.238   3.340  13.452  0.4011  0.1560  0.8968
    5MPD2    N113944   4.479   3.377  13.422 -0.6978 -0.0639  0.2565
    5MPD2    H713945   4.384   3.388  13.457 -1.3629 -2.3982 -0.8964
    6MPD1     C13946   3.820   0.293  13.119  0.0158 -0.1274 -0.0245
    6MPD1    C113947   3.847   0.239  12.998  0.1679  0.1516 -0.0466
    6MPD1    C213948   3.843   0.100  12.993 -0.3538 -0.3049 -0.0793
    6MPD1    C313949   3.829   0.014  13.102  0.5206  0.0308  0.8154
    6MPD1    C413950   3.811   0.074  13.225  0.4715  0.2087  0.1382
    6MPD1    C513951   3.802   0.217  13.231 -0.5121 -0.7502  0.4585
    6MPD1     H13952   3.870   0.061  12.895 -0.2487 -0.1007 -0.1312
    6MPD1    H113953   3.799   0.023  13.320 -0.1866  0.3150  0.1159
    6MPD1    H213954   3.832   0.400  13.136 -0.2968  0.2111 -2.0086
    6MPD1    H313955   3.768   0.254  13.327 -0.8912  0.7920 -0.2561
    6MPD1     N13956   3.827   4.602  13.089  0.0729 -0.0281  0.0971
    6MPD1    H513957   3.809   4.542  13.169 -2.1582 -0.8371 -1.0251
    6MPD1    N113958   3.855   0.319  12.883 -0.9342 -0.0300 -0.5099
    6MPD1    H613959   3.901   0.282  12.800 -1.0472  0.0173 -0.5948
    6MPD1    H713960   3.877   0.416  12.906  1.9400 -0.1572 -2.7281
    7MPD2     C13961   4.006   3.970  13.452 -0.4189  0.5264 -1.2012
    7MPD2    C113962   3.982   3.933  13.320  0.4665  0.6899 -0.7343
    7MPD2    C213963   4.016   3.804  13.281 -0.3982 -0.2219  0.2830
    7MPD2    C313964   4.085   3.718  13.363 -0.8513  0.3357  0.0114
    7MPD2    C413965   4.110   3.758  13.489 -0.5674  0.1819 -0.5374
    7MPD2    C513966   4.075   3.879  13.537  0.1765 -0.3851  1.1486
    7MPD2     H13967   4.002   3.781  13.175  0.6379 -0.6477  0.2359
    7MPD2    H113968   4.166   3.690  13.553 -0.2563  1.9002  1.0059
    7MPD2    H213969   3.974   4.067  13.489  0.3048 -0.0397  0.9128
    7MPD2    H313970   4.101   3.902  13.639  1.3903  0.3087  0.6878
    7MPD2     N13971   4.116   3.585  13.327 -0.0438 -0.1492 -0.3260
    7MPD2    H513972   4.186   3.535  13.380 -1.1212 -2.9138 -1.4903
    7MPD2    N113973   3.936   4.021  13.221 -0.7700 -0.2230 -0.1819
    7MPD2    H713974   3.935   3.985  13.126 -1.3264 -0.1312 -0.2119
    8TMC3    C113975   4.160   3.428  13.154 -1.1370 -0.1451 -0.1035
    8TMC3    C213976   4.254   3.391  13.242  0.2529  0.0455  0.6415
    8TMC3    C313977   4.386   3.399  13.200  0.2669 -0.7791 -0.0408
    8TMC3    C413978   4.183   3.464  13.020 -0.2584  0.0161 -0.4128
    8TMC3    C513979   4.314   3.463  12.975  0.1093 -0.4975  0.5620
    8TMC3    C613980   4.411   3.438  13.071  0.0395 -0.9906 -0.0953
    8TMC3     C13981   4.078   3.531  13.206  0.6038  0.4238  0.0629
    8TMC3     O13982   3.985   3.564  13.135 -0.8267  0.1501 -0.2292
    8TMC3     H13983   4.221   3.346  13.336 -1.6815 -1.2683 -0.6760
    8TMC3    H113984   4.101   3.503  12.959  0.1709  0.8072 -0.4803
    8TMC3    H213985   4.510   3.459  13.033 -0.5072  2.3177  0.3109
    8TMC3    C713986   4.336   3.590  12.908  0.2427 -0.3689 -0.7816
    8TMC3    C813987   4.499   3.382  13.287 -0.4828 -0.4391  0.5647
    8TMC3    O113988   4.409   3.671  12.956 -0.3829 -0.2395 -0.3388
    8TMC3    O213989   4.593   3.354  13.218  0.0485  0.0965 -0.3552
    9TMC3    C113990   3.865   4.394  12.977  0.1804 -0.5212 -0.5211
    9TMC3    C213991   3.938   4.348  12.867 -0.3740 -0.6024 -0.0852
    9TMC3    C313992   4.015   4.238  12.896 -0.7897 -0.3920 -0.2189
    9TMC3    C413993   3.853   4.337  13.098 -0.3330 -0.3381 -0.4575
    9TMC3    C513994   3.933   4.228  13.117  0.3554  0.1442  0.3605
    9TMC3    C613995   4.008   4.173  13.016 -0.6926  0.2054  0.0054
    9TMC3     C13996   3.828   4.534  12.964  1.1011  0.3747  0.4079
    9TMC3     O13997   3.832   4.579  12.855 -0.2366 -0.0936  0.1286
    9TMC3     H13998   3.956   4.404  12.777 -1.2142  1.1948  0.8683
    9TMC3    H113999   3.785   4.369  13.176 -0.8803  0.1299 -1.1269
    9TMC3    H214000   4.085   4.100  13.042 -0.3905  0.6064  0.2387
    9TMC3    C714001   3.907   4.153  13.241  0.4965  0.1650 -0.0824
    9TMC3    C814002   4.098   4.181  12.793  0.7240 -0.1033 -0.2605
    9TMC3    O114003   3.880   4.223  13.342  0.0380 -0.0054 -0.3584
    9TMC3    O214004   4.120   4.238  12.683 -0.2941 -0.2482  0.2302
   10MPD2     C14005   4.246   3.727  12.591 -0.0422  0.0202 -0.5714
   10MPD2    C114006   4.258   3.722  12.728 -0.8199  0.1664  0.1319
   10MPD2    C214007   4.246   3.839  12.810  0.0273  0.2012 -0.3553
   10MPD2    C314008   4.196   3.953  12.747  0.8451 -0.3728 -0.3919
   10MPD2    C414009   4.184   3.958  12.612 -0.1458 -0.0839  0.5972
   10MPD2    C514010   4.208   3.850  12.533  0.1721  0.5172  0.5216
   10MPD2     H14011   4.253   3.846  12.918  5.4298 -1.1633 -0.5908
   10MPD2    H114012   4.138   4.044  12.564  2.1318 -0.1410 -1.6377
   10MPD2    H214013   4.253   3.638  12.529  0.3801  1.4673 -2.6037
   10MPD2    H314014   4.206   3.855  12.425  0.7111  0.1578  0.4934
   10MPD2     N14015   4.143   4.051  12.829 -0.8010  0.6379 -0.4357
   10MPD2    H514016   4.119   4.019  12.923 -1.7297  1.6123 -0.3443
   10MPD2    N114017   4.271   3.600  12.790 -0.0452 -0.4534  0.2109
   10MPD2    H714018   4.233   3.518  12.743 -1.2084  1.3151 -1.9294
   11MPD2     C14019   0.605   2.396  13.568  0.5116  0.1805  0.3726
   11MPD2    C114020   0.657   2.491  13.646  0.4740 -0.1920  0.0613
   11MPD2    C214021   0.665   2.626  13.612  0.8784  0.9665 -0.6414
   11MPD2    C314022   0.606   2.667  13.501 -0.4759 -0.5758 -0.3921
   11MPD2    C414023   0.546   2.573  13.417 -0.4398 -0.3620  0.0181
   11MPD2    C514024   0.545   2.439  13.453 -0.0751 -0.0869  0.1841
   11MPD2     H14025   0.707   2.695  13.684 -1.4108  3.4679 -1.7414
   11MPD2    H114026   0.495   2.605  13.327  1.7942 -1.6074 -1.6834
   11MPD2    H214027   0.612   2.290  13.589  1.8524 -0.1375 -1.6790
   11MPD2    H314028   0.490   2.359  13.406  0.2300 -0.1806 -0.0096
   11MPD2     N14029   0.598   2.799  13.465 -0.3554  0.0546 -0.5168
   11MPD2    H514030   0.562   2.816  13.372  1.4496 -2.1516 -1.6041
   11MPD2    N114031   0.705   2.468  13.777  0.1078 -0.0519 -0.4857
   11MPD2    H714032   0.746   2.546  13.828  0.9668 -0.6788 -0.2123
    1MPD1     C14033   2.702   3.861   0.002 -0.1283  0.2559 -0.8059
    1MPD1    C114034   2.630   3.858  17.619 -1.4121 -0.2747 -0.6935
    1MPD1    C214035   2.703   3.880  17.506  0.2103  1.0889  1.2702
    1MPD1    C314036   2.840   3.868  17.502 -0.2744 -0.2432 -0.4950
    1MPD1    C414037   2.907   3.857  17.618  0.3077  0.3223  0.0306
    1MPD1    C514038   2.839   3.862   0.001 -0.1344 -0.4807 -0.5144
    1MPD1     H14039   2.655   3.911  17.414  1.6565 -0.6111 -0.0441
    1MPD1    H114040   3.015   3.853  17.620  0.2475 -1.3042 -0.6510
    1MPD1    H214041   2.656   3.870   0.100 -1.4693  0.4970 -1.4472
    1MPD1    H314042   2.901   3.860   0.089 -1.7012  3.1842  0.6599
    1MPD1     N14043   2.921   3.888  17.382 -0.5500 -0.2250  0.1104
    1MPD1    H514044   3.022   3.893  17.393 -0.4970 -1.2688  0.1765
    1MPD1    N114045   2.493   3.884  17.625 -0.6558 -0.3341 -0.6518
    1MPD1    H614046   2.443   3.852  17.542  0.0699 -0.3432 -1.0814
    1MPD1    H714047   2.448   3.843  17.707 -0.0467  0.4905  0.1012
    2MPD1     C14048   3.832   3.807  17.138  1.2302 -0.0091 -0.3154
    2MPD1    C114049   3.788   3.873  17.022  0.2623 -0.5213  0.3253
    2MPD1    C214050   3.653   3.874  16.986 -0.1339 -0.2897 -0.4800
    2MPD1    C314051   3.558   3.833  17.075  0.1886 -0.5580  0.0005
    2MPD1    C414052   3.603   3.773  17.194 -0.4991 -0.1606 -0.1646
    2MPD1    C514053   3.735   3.753  17.224 -0.6820 -0.4347  0.3371
    2MPD1     H14054   3.611   3.903  16.890 -0.0773  0.2726 -0.3357
    2MPD1    H114055   3.539   3.736  17.272  1.7413 -2.4037  0.6064
    2MPD1    H214056   3.939   3.794  17.151  1.3382  0.1846 -0.9623
    2MPD1    H314057   3.759   3.702  17.316  0.7805  0.3463  0.3854
    2MPD1     N14058   3.418   3.855  17.043 -0.2344  0.0192 -0.4193
    2MPD1    H514059   3.407   3.892  16.949  0.6287  0.2107 -0.4438
    2MPD1    N114060   3.889   3.903  16.927  0.2169 -0.3845 -0.6160
    2MPD1    H614061   3.848   3.961  16.854 -0.8504 -0.9546 -0.4745
    2MPD1    H714062   3.977   3.933  16.968  0.1591 -1.4051  0.2677
    3TMC3    C114063   3.186   3.854  17.083  0.1086  0.2554 -0.7281
    3TMC3    C214064   3.165   3.914  16.969 -0.1043  0.8611 -0.4261
    3TMC3    C314065   3.044   3.974  16.947 -0.3829  0.3137 -0.5994
    3TMC3    C414066   3.094   3.844  17.182 -0.0919 -0.2107 -0.7222
    3TMC3    C514067   2.983   3.921  17.163  0.5584 -0.7259 -0.0926
    3TMC3    C614068   2.947   3.973  17.045 -0.1701  0.2623  0.0135
    3TMC3     C14069   3.316   3.816  17.125 -0.0666  1.0297 -0.0750
    3TMC3     O14070   3.328   3.766  17.238  0.3576  0.4692 -0.4289
    3TMC3     H14071   3.235   3.898  16.887  2.1507  0.9011  1.4966
    3TMC3    H114072   3.100   3.779  17.269  1.0927  1.1720  0.2273
    3TMC3    H214073   2.853   4.022  17.021 -0.4563 -0.3949 -0.2037
    3TMC3    C714074   2.871   3.897  17.251  0.4471 -0.7438 -0.5832
    3TMC3    C814075   3.001   3.990  16.813 -0.0432 -0.1718  0.5458
    3TMC3    O114076   2.762   3.882  17.205  0.1913  0.4206 -0.2609
    3TMC3    O214077   2.886   3.971  16.785  0.1947 -0.6573  0.1837
    4MPD1     C14078   3.123   4.070  16.317 -0.1997  0.3978  0.9105
    4MPD1    C114079   3.237   4.083  16.396  0.3074 -0.2896 -0.1357
    4MPD1    C214080   3.231   4.053  16.526  0.1178  0.2312  0.5261
    4MPD1    C314081   3.110   4.037  16.597 -1.2839  0.4378  0.2744
    4MPD1    C414082   2.995   4.037  16.521 -0.0528 -0.4623  0.1324
    4MPD1    C514083   3.002   4.056  16.381 -0.1771  0.0545  0.6646
    4MPD1     H14084   3.320   4.041  16.587  1.1254  2.9069 -0.3982
    4MPD1    H114085   2.902   4.028  16.576 -0.8270  1.9362 -0.7754
    4MPD1    H214086   3.122   4.091  16.211  0.5054  1.0626  1.0348
    4MPD1    H314087   2.915   4.061  16.316 -1.1438 -4.3554  1.6160
    4MPD1     N14088   3.110   4.020  16.735 -0.0049 -0.5682  0.6594
    4MPD1    H514089   3.199   4.033  16.780  0.7861 -2.0142 -0.4908
    4MPD1    N114090   3.361   4.092  16.327  0.0378  0.3210 -0.4734
    4MPD1    H614091   3.407   4.004  16.306  0.9323  0.5000  0.7422
    4MPD1    H714092   3.351   4.139  16.238  1.7622 -1.8109 -1.7781
    1TCq1    O114093   2.940   3.509   9.605 -0.2800  0.5982 -0.1310
    1TCq1    C114094   2.909   3.396   9.530 -0.3375  0.1937 -0.0519
    1TCq1    O214095   2.895   3.392   9.403  0.4638 -0.1292  0.0416
    1TCq1    C214096   2.951   3.292   9.613  0.9096 -0.7900 -0.6487
    1TCq1    C314097   2.933   3.295   9.749  0.1994  0.1605 -0.2175
    1TCq1    C414098   3.019   3.222   9.828  0.1610 -0.5338 -0.3101
    1TCq1    C514099   3.118   3.145   9.774 -1.1566 -0.3686 -0.1288
    1TCq1    C614100   3.129   3.138   9.638  0.4248  0.0163 -0.5100
    1TCq1    C714101   3.038   3.209   9.557 -0.0265  0.1712 -0.7244
    1TCq1    C814102   3.230   3.053   9.577 -0.0256  0.3157  0.2682
    1TCq1    O414103   3.255   3.066   9.458 -0.2807  0.0691 -0.0280
    1TCq1    C914104   2.978   3.213   9.962  0.0891 -1.0784  0.0824
    1TCq1    O514105   3.046   3.133  10.031  0.0215  0.4231 -0.0808
    1TCq1    O614106   2.886   3.288  10.000 -0.2429 -0.0441  0.0620
    1TCq1    H114107   2.957   3.501   9.702  0.2134 -0.6708 -0.3127
    1TCq1    H214108   2.837   3.330   9.786  0.3313 -0.0940  0.3781
    1TCq1    H314109   3.184   3.088   9.838 -0.5541  0.2430 -0.1961
    1TCq1    H414110   3.056   3.204   9.451 -0.9036 -2.0687 -0.7702
    2MPD1     C14111   3.543   2.643   9.593  0.4864 -0.4342  0.3420
    2MPD1    C114112   3.498   2.667   9.724  0.2923  0.7042  0.2036
    2MPD1    C214113   3.412   2.770   9.736  0.5312  0.6645  1.0379
    2MPD1    C314114   3.362   2.849   9.634 -0.1901  0.0401 -0.2552
    2MPD1    C414115   3.407   2.829   9.504  0.2854 -0.0113  0.6299
    2MPD1    C514116   3.495   2.719   9.491 -0.0046 -0.8630 -0.1756
    2MPD1     H14117   3.384   2.794   9.838  0.5459 -1.0885  1.4538
    2MPD1    H114118   3.377   2.883   9.415  2.8665  1.8345  0.8913
    2MPD1    H214119   3.606   2.559   9.567  3.7001  1.5411  1.7727
    2MPD1    H314120   3.522   2.688   9.390  0.9585 -2.3731  0.5433
    2MPD1     N14121   3.289   2.967   9.667  0.1010 -0.0326  0.8952
    2MPD1    H514122   3.271   2.971   9.767 -0.2119  0.7969  0.8103
    2MPD1    N114123   3.563   2.594   9.827  0.3596  0.4184  0.0192
    2MPD1    H614124   3.656   2.624   9.855 -0.1280  1.7210  0.2287
    2MPD1    H714125   3.504   2.599   9.910 -0.8204  0.5546 -0.8207
    1TMC1    C114126   1.822   4.219  16.742 -0.8720  0.0697 -0.3095
    1TMC1    C214127   1.802   4.099  16.805 -0.7509 -0.1756 -0.0285
    1TMC1    C314128   1.741   3.998  16.734 -0.9278  1.0317  0.2952
    1TMC1    C414129   1.792   4.246  16.606  0.0677 -0.1317 -0.0811
    1TMC1    C514130   1.711   4.152  16.554  0.3155 -0.4052 -0.0841
    1TMC1    C614131   1.688   4.028  16.608  0.5501 -0.6552 -0.2072
    1TMC1     C14132   1.907   4.315  16.817  0.4526  0.4990 -0.5437
    1TMC1     O14133   1.997   4.279  16.890  0.0092 -0.4384  1.1044
    1TMC1     H14134   1.835   4.073  16.905 -0.7251  2.0266  0.5298
    1TMC1    H114135   1.854   4.317  16.551  1.0536 -0.0658  1.1177
    1TMC1    H214136   1.631   3.950  16.558  2.4555 -2.6511  0.6903
    1TMC1    C714137   1.679   4.171  16.414  0.0982  0.1225 -0.1154
    1TMC1    C814138   1.716   3.874  16.797 -0.5981  0.6903  0.3783
    1TMC1    O114139   1.688   4.077  16.334 -0.3722 -0.0674  0.5287
    1TMC1    O214140   1.761   3.854  16.912 -0.4741 -0.6026  0.0184
    1TMC1    O314141   1.686   4.302  16.390  0.1473 -0.2937 -0.6205
    1TMC1    H314142   1.677   4.339  16.481  1.2226 -0.0072 -0.6282
    1TMC1    O514143   1.588   3.869  16.773 -0.0485 -0.3525  0.1470
    1TMC1    H514144   1.561   3.846  16.681  3.6061 -1.7804 -0.5625
    2MPD1     C14145   2.038   0.072  16.882  0.7988  0.0978 -0.2089
    2MPD1    C114146   1.957   0.049  16.772  0.2460  0.3238 -0.4823
    2MPD1    C214147   1.899   4.667  16.748  0.6565 -0.0605 -1.6165
    2MPD1    C314148   1.933   4.561  16.824  0.2335 -0.3917  0.0792
    2MPD1    C414149   2.025   4.575  16.924  0.5432 -0.5399  0.3524
    2MPD1    C514150   2.073   4.699  16.962  0.1313  0.6311  0.3651
    2MPD1     H14151   1.819   4.663  16.676 -1.0830  0.5514  0.2846
    2MPD1    H114152   2.056   4.492  16.986  0.0439  0.2000  1.5908
    2MPD1    H214153   2.080   0.168  16.907 -1.4666  0.5382  1.9370
    2MPD1    H314154   2.139   4.699  17.049 -0.7156 -2.7525  1.0015
    2MPD1     N14155   1.878   4.439  16.775 -0.0358 -0.4216  0.0536
    2MPD1    H514156   1.796   4.441  16.716 -0.4968 -0.7270  0.6805
    2MPD1    N114157   1.922   0.165  16.697 -0.4451 -0.0612 -0.5513
    2MPD1    H614158   1.880   0.133  16.610  0.1936  1.2239 -1.3204
    2MPD1    H714159   2.000   0.228  16.683 -1.1593  0.8435 -0.4877
    1MPD1     C14160   1.288   0.344  11.958  0.1116  0.5348 -0.9888
    1MPD1    C114161   1.309   0.218  11.906 -0.0772 -0.0146  0.6021
    1MPD1    C214162   1.405   0.198  11.810 -0.5425 -0.7110 -0.0622
    1MPD1    C314163   1.501   0.295  11.786  0.5863 -0.1705 -0.4099
    1MPD1    C414164   1.492   0.415  11.853 -0.2215  0.1719  0.4413
    1MPD1    C514165   1.390   0.432  11.942 -0.6236 -0.2375 -0.3533
    1MPD1     H14166   1.406   0.104  11.757 -2.1717 -0.4917 -0.4744
    1MPD1    H114167   1.575   0.484  11.850  1.3015 -1.6854 -0.2639
    1MPD1    H214168   1.201   0.377  12.014 -0.3153  0.4816 -1.6192
    1MPD1    H314169   1.384   0.524  11.999  0.8528  0.1697 -0.8681
    1MPD1     N14170   1.599   0.283  11.684  0.0440  0.2537 -0.4901
    1MPD1    H514171   1.596   0.192  11.639 -2.0456  0.0925 -0.0186
    1MPD1    N114172   1.199   0.135  11.916 -0.0961  0.1045 -0.2097
    1MPD1    H614173   1.121   0.160  11.856 -0.4575  1.3900  0.7993
    1MPD1    H714174   1.164   0.147  12.011  0.7353  1.3282 -0.0627
    2MPD1     C14175   0.356   3.853  11.697  1.2996  0.0063 -0.8350
    2MPD1    C114176   0.345   3.750  11.613  0.1537  0.5779 -0.2067
    2MPD1    C214177   0.367   3.770  11.473 -0.3660 -0.0840  0.0225
    2MPD1    C314178   0.403   3.898  11.423 -0.0151  0.4317  0.7876
    2MPD1    C414179   0.405   4.006  11.509 -0.2420  0.2399 -0.0890
    2MPD1    C514180   0.376   3.979  11.646 -0.5077  0.0261 -0.0494
    2MPD1     H14181   0.358   3.681  11.410 -0.7084 -1.6885  2.3341
    2MPD1    H114182   0.427   4.109  11.486 -0.1656  0.4908  1.1091
    2MPD1    H214183   0.360   3.835  11.804 -0.3143  1.2452 -0.5786
    2MPD1    H314184   0.377   4.067  11.709 -0.6751 -0.0783  0.0976
    2MPD1     N14185   0.428   3.934  11.285  0.2996  0.1506  0.0273
    2MPD1    H514186   0.457   4.030  11.271  1.0052  0.0661  0.8894
    2MPD1    N114187   0.327   3.616  11.661  0.9320  0.2544 -0.1400
    2MPD1    H614188   0.258   3.573  11.600  0.0408 -0.4021  1.3377
    2MPD1    H714189   0.279   3.621  11.751 -0.2924  0.5340 -0.8143
    3MPD1     C14190   4.510   3.846  10.532  0.3104  1.4585  0.0915
    3MPD1    C114191   4.516   3.773  10.648  0.1969  0.3882 -0.2648
    3MPD1    C214192   4.633   3.791  10.722  0.0512 -0.6343  0.1072
    3MPD1    C314193   0.003   3.866  10.673  0.3308 -1.0707  0.0675
    3MPD1    C414194   4.722   3.941  10.563  0.2607 -0.6185  0.2694
    3MPD1    C514195   4.609   3.931  10.490  0.1199 -0.2271  0.0245
    3MPD1     H14196   4.646   3.742  10.818 -2.8831 -0.5249  0.5650
    3MPD1    H114197   0.079   3.988  10.528  0.5636 -0.2136  1.5775
    3MPD1    H214198   4.425   3.833  10.465  2.4219 -1.9463 -1.9395
    3MPD1    H314199   4.592   3.977  10.393  1.2362  3.0896  1.4276
    3MPD1     N14200   0.118   3.884  10.756 -0.4998 -0.1951  0.8497
    3MPD1    H514201   0.116   3.847  10.851 -1.3191 -0.4172  0.7458
    3MPD1    N114202   4.411   3.685  10.681 -0.3540 -0.0185  0.0064
    3MPD1    H614203   4.324   3.734  10.663 -2.6172 -4.1212 -0.2200
    3MPD1    H714204   4.411   3.652  10.777 -0.9727 -0.4025 -0.1293
    4MPD2     C14205   1.542   0.575  10.992  0.0324 -0.3223  0.7407
    4MPD2    C114206   1.577   0.444  11.016  0.2269 -0.6753  0.3267
    4MPD2    C214207   1.515   0.341  10.954  0.4146 -0.1795  0.1820
    4MPD2    C314208   1.405   0.357  10.870 -0.1951  0.1794 -0.2072
    4MPD2    C414209   1.363   0.482  10.847  0.3208 -0.1616  0.0112
    4MPD2    C514210   1.432   0.586  10.910 -0.1632  0.7341  0.2853
    4MPD2     H14211   1.549   0.242  10.982 -1.3951 -1.5574 -2.4020
    4MPD2    H114212   1.278   0.514  10.787 -0.7274 -2.1652  0.4376
    4MPD2    H214213   1.580   0.659  11.048 -0.2573  0.1044  0.2926
    4MPD2    H314214   1.388   0.682  10.886  0.1817  0.6073 -0.8929
    4MPD2     N14215   1.345   0.240  10.817  0.5058  0.3614  0.2625
    4MPD2    H514216   1.391   0.151  10.832  0.5883  0.5289  0.9870
    4MPD2    N114217   1.670   0.407  11.118  0.2043  0.4477 -0.0232
    4MPD2    H714218   1.667   0.307  11.134 -0.3837  0.7507  1.6930
    5TMC3    C114219   1.819   0.405  11.305 -0.1580 -0.2778 -0.5713
    5TMC3    C214220   1.786   0.435  11.432  0.6235 -0.3724  0.3767
    5TMC3    C314221   1.747   0.330  11.513  0.1953  0.0463 -0.5961
    5TMC3    C414222   1.828   0.281  11.270 -0.6067 -0.0224 -0.3582
    5TMC3    C514223   1.786   0.178  11.351 -1.1472  0.8549  0.2318
    5TMC3    C614224   1.739   0.193  11.475  0.3305  1.0762 -0.2675
    5TMC3     C14225   1.751   0.487  11.200 -0.6398  1.0015  1.3276
    5TMC3     O14226   1.760   0.607  11.209  0.8129 -0.3619 -0.5318
    5TMC3     H14227   1.753   0.536  11.455 -1.9723 -0.5182 -2.5979
    5TMC3    H114228   1.863   0.257  11.171 -0.3930  2.1724 -0.8218
    5TMC3    H214229   1.719   0.111  11.543 -2.0358  2.8934  1.2415
    5TMC3    C714230   1.723   0.078  11.272 -0.7914  1.0448 -0.8224
    5TMC3    C814231   1.698   0.374  11.646 -0.1307  0.0413  0.7374
    5TMC3    O114232   1.700   0.112  11.157  0.0204 -0.7541 -0.9082
    5TMC3    O214233   1.730   0.486  11.683  0.2562 -0.1407 -0.1795
    6TMC3    C114234   0.406   3.923  11.047 -0.0749 -0.2608  0.5353
    6TMC3    C214235   0.331   3.882  10.938  0.2430  0.2242 -0.1231
    6TMC3    C314236   0.330   3.957  10.826  0.4951  0.1420 -0.0469
    6TMC3    C414237   0.480   4.040  11.042 -0.5571 -0.6450 -0.6043
    6TMC3    C514238   0.486   4.102  10.924 -0.4188 -0.6697 -0.0840
    6TMC3    C614239   0.419   4.064  10.813 -0.3210 -0.6125 -0.1213
    6TMC3     C14240   0.401   3.855  11.177  0.0507 -0.3431 -0.8492
    6TMC3     O14241   0.373   3.737  11.177 -0.1296 -0.1376 -0.7511
    6TMC3     H14242   0.271   3.792  10.945  0.3837  0.1868  0.6431
    6TMC3    H114243   0.551   4.070  11.117 -0.7507 -2.2710  0.2421
    6TMC3    H214244   0.430   4.127  10.725  0.0316 -1.4823 -0.6961
    6TMC3    C714245   0.559   4.231  10.905  0.1749 -0.4648  0.0396
    6TMC3    C814246   0.236   3.943  10.720 -0.0147  0.1619  0.4872
    6TMC3    O114247   0.614   4.267  10.805  0.1889  0.0199 -0.6419
    6TMC3    O214248   0.266   3.989  10.611 -0.1898  0.7171  0.0222
    7MPD2     C14249   1.420   4.419  11.185 -0.1720  0.3746  0.0748
    7MPD2    C114250   1.440   4.528  11.111 -0.4420  0.9135  0.8412
    7MPD2    C214251   1.499   4.630  11.169  0.4261  0.6356  0.7452
    7MPD2    C314252   1.573   4.613  11.283 -0.1231 -0.6311 -0.6601
    7MPD2    C414253   1.553   4.500  11.365 -0.0984  0.2503 -0.1756
    7MPD2    C514254   1.479   4.406  11.305 -0.3606 -0.0166 -0.1488
    7MPD2     H14255   1.511   4.719  11.109  0.2850  1.2353  1.6074
    7MPD2    H114256   1.614   4.462  11.446 -0.3280  0.9659  0.3236
    7MPD2    H214257   1.370   4.332  11.144 -0.6873  0.5066  0.4251
    7MPD2    H314258   1.456   4.310  11.351 -0.2612 -0.5417 -1.1762
    7MPD2     N14259   1.673   4.698  11.336  0.4131 -0.4908  0.1571
    7MPD2    H514260   1.704   4.681  11.431 -0.1266  0.2767  0.4659
    7MPD2    N114261   1.377   4.539  10.980  0.0048 -0.1447 -0.0416
    7MPD2    H714262   1.319   4.457  10.962 -0.6053 -0.0156  1.3031
    8TMC3    C114263   1.315   4.637  10.767 -0.9811  1.0135 -0.0141
    8TMC3    C214264   1.192   4.585  10.785 -0.3493  0.2921  0.0184
    8TMC3    C314265   1.079   4.666  10.792  0.3025 -0.0165  0.3379
    8TMC3    C414266   1.314   0.023  10.702 -0.3159 -0.0224  0.3138
    8TMC3    C514267   1.203   0.099  10.709  0.6624 -0.1656 -0.3504
    8TMC3    C614268   1.085   0.063  10.759  0.4653  0.1122 -0.8562
    8TMC3     C14269   1.389   4.643  10.889  0.5795 -0.0325 -0.6008
    8TMC3     O14270   1.472   4.731  10.886  0.1011 -0.1248  0.2148
    8TMC3     H14271   1.178   4.482  10.816  1.2260  0.3975  1.0479
    8TMC3    H114272   1.406   0.064  10.663 -0.4013  0.8256  0.9891
    8TMC3    H214273   0.996   0.125  10.762 -0.3766 -1.1143 -0.3942
    8TMC3    C714274   1.229   0.236  10.756 -0.3203 -0.0378  0.3312
    8TMC3    C814275   0.954   4.595  10.830  0.1899 -0.2092 -0.2021
    8TMC3    O114276   1.141   0.325  10.756  0.2926  0.2227  0.1665
    8TMC3    O214277   0.932   4.500  10.761  1.1640 -0.0485  0.0246
    9MPD2     C14278   0.743   4.670  11.115 -0.4267  0.3611 -0.0153
    9MPD2    C114279   0.787   4.593  11.007 -0.0602  0.1541 -0.5306
    9MPD2    C214280   0.729   4.468  10.973 -0.2537 -0.3383  0.2457
    9MPD2    C314281   0.621   4.428  11.049  0.6145 -0.1551 -0.1427
    9MPD2    C414282   0.585   4.494  11.162 -0.2030  0.7244 -0.0581
    9MPD2    C514283   0.644   4.617  11.193 -0.5986  0.2241 -0.2577
    9MPD2     H14284   0.746   4.430  10.872  3.3478 -2.0159  1.4662
    9MPD2    H114285   0.491   4.476  11.214  0.6985 -1.7883  0.7239
    9MPD2    H214286   0.793   0.028  11.146  0.0464  0.7822 -2.0583
    9MPD2    H314287   0.603   4.668  11.280 -0.3622  2.1455 -1.2733
    9MPD2     N14288   0.556   4.304  11.022  0.0025  0.1224  0.7017
    9MPD2    H514289   0.496   4.274  11.098 -0.7465 -1.3342 -0.4555
    9MPD2    N114290   0.895   4.647  10.941  0.2275 -0.7103 -0.1351
    9MPD2    H714291   0.942   4.726  10.983 -0.1112  0.9901 -2.9611
    1MPD1     C14292   1.581   3.097  16.560  0.3089 -0.2468  0.0464
    1MPD1    C114293   1.473   3.069  16.476  0.6078  0.0433 -0.1854
    1MPD1    C214294   1.347   3.111  16.517  0.8424  0.1974 -0.1433
    1MPD1    C314295   1.326   3.174  16.643  0.0258  0.3259  0.1075
    1MPD1    C414296   1.434   3.192  16.723  0.6069 -0.0564 -0.0793
    1MPD1    C514297   1.558   3.144  16.687  0.0689 -0.5334  1.1149
    1MPD1     H14298   1.260   3.097  16.453 -1.1599 -2.1988  3.0728
    1MPD1    H114299   1.417   3.246  16.816  1.8921  0.9447 -0.4354
    1MPD1    H214300   1.680   3.090  16.518 -0.5166 -0.1849 -1.9137
    1MPD1    H314301   1.634   3.165  16.762 -0.1290 -0.6161  1.3371
    1MPD1     N14302   1.205   3.232  16.673 -0.6763 -0.7373 -0.5395
    1MPD1    H514303   1.200   3.263  16.770  0.6246 -0.1503 -0.6674
    1MPD1    N114304   1.495   3.031  16.342 -0.0073  0.1395 -0.3715
    1MPD1    H614305   1.423   2.984  16.288  0.5281 -1.4388  0.3066
    1MPD1    H714306   1.575   2.981  16.306 -0.9649 -0.8652 -1.0923
    2TMC2    C114307   0.768   3.285  16.750 -0.4391  0.0101 -0.2534
    2TMC2    C214308   0.792   3.383  16.844 -0.2399 -0.1315 -0.2219
    2TMC2    C314309   0.910   3.446  16.839 -0.0714 -0.8330  0.0239
    2TMC2    C414310   0.863   3.244  16.660 -0.3398 -0.7542 -0.3675
    2TMC2    C514311   0.984   3.302  16.663 -0.4137  0.0371 -0.4391
    2TMC2    C614312   1.011   3.400  16.756 -0.7301 -0.0180  0.3190
    2TMC2     C14313   0.636   3.217  16.771 -0.7556 -0.3649 -0.2050
    2TMC2     O14314   0.588   3.206  16.881  0.4143  0.3800  0.0036
    2TMC2     H14315   0.711   3.433  16.897  0.3990  0.3557  0.2796
    2TMC2    H114316   0.843   3.148  16.614  0.5234 -1.6274  1.1132
    2TMC2    H214317   1.107   3.450  16.749 -0.4081 -0.8340 -1.1038
    2TMC2    C714318   1.090   3.241  16.594 -0.1690 -1.0720  0.6731
    2TMC2    C814319   0.950   3.544  16.937 -0.2151  0.0880 -0.1801
    2TMC2    O114320   1.068   3.199  16.481  0.0156  0.2114 -0.3460
    2TMC2    O214321   1.067   3.550  16.975  0.2995  0.3749 -0.5039
    2TMC2    O514322   0.859   3.633  16.955 -0.1025  0.1479  0.0074
    2TMC2    H514323   0.776   3.604  16.912  0.8181 -0.2396 -1.5299
    3MPD1     C14324   0.288   2.895  16.586  0.4502  0.4875  0.3470
    3MPD1    C114325   0.359   2.948  16.481  0.2501 -0.9313 -0.3212
    3MPD1    C214326   0.453   3.049  16.509  0.1590 -0.4507  0.2866
    3MPD1    C314327   0.486   3.079  16.637 -0.0819 -0.1886  0.1715
    3MPD1    C414328   0.407   3.028  16.745 -0.4623 -0.5462  0.2239
    3MPD1    C514329   0.307   2.943  16.715 -0.4591  0.8524 -0.2912
    3MPD1     H14330   0.513   3.102  16.435 -1.2358  0.9118  0.1372
    3MPD1    H114331   0.406   3.062  16.848 -1.4316 -2.5413  0.8657
    3MPD1    H214332   0.210   2.824  16.565  0.4182 -0.4662  3.6858
    3MPD1    H314333   0.233   2.910  16.787  0.4852  0.6180  0.5635
    3MPD1     N14334   0.594   3.167  16.650  0.8535  0.0538  0.3866
    3MPD1    H514335   0.651   3.191  16.570 -0.3551  0.5505 -0.3296
    3MPD1    N114336   0.324   2.914  16.349 -0.5322 -0.6339 -0.8079
    3MPD1    H614337   0.313   2.814  16.330 -1.0654 -0.6254 -0.5627
    3MPD1    H714338   0.395   2.945  16.284  0.5077  0.4446  0.8461
    1TMC1    C114339   3.729   2.074  13.220  0.2972  0.1474 -0.4634
    1TMC1    C214340   3.612   2.127  13.180  0.3444  0.0583 -0.5177
    1TMC1    C314341   3.518   2.041  13.124  0.9163 -0.2364  0.2637
    1TMC1    C414342   3.756   1.941  13.206 -0.8674  0.2589  0.0888
    1TMC1    C514343   3.660   1.864  13.144 -0.2404  0.5693 -0.7652
    1TMC1    C614344   3.536   1.914  13.099  0.2960 -0.3488 -0.2354
    1TMC1     C14345   3.812   2.154  13.317  0.0495  0.1574 -0.1429
    1TMC1     O14346   3.797   2.274  13.333 -0.1605  0.1055 -0.9388
    1TMC1     H14347   3.583   2.229  13.201  0.8410 -0.7042  3.9254
    1TMC1    H114348   3.850   1.889  13.225 -1.0512 -0.9567 -2.2027
    1TMC1    H214349   3.461   1.856  13.047 -1.7145  2.7668 -0.7847
    1TMC1    C714350   3.697   1.723  13.157 -0.0293 -0.5353 -0.6270
    1TMC1    C814351   3.381   2.097  13.124 -0.0485 -0.2630 -0.4850
    1TMC1    O114352   3.801   1.683  13.115 -0.1046 -0.4412  0.6829
    1TMC1    O214353   3.345   2.213  13.116  0.2355  0.3853  0.3196
    1TMC1    O314354   3.576   1.661  13.125  0.1411 -0.2858 -0.2889
    1TMC1    H314355   3.507   1.706  13.179 -1.3958 -0.2290 -2.3149
    1TMC1    O514356   3.315   2.010  13.200 -0.1668 -0.8168  0.0614
    1TMC1    H514357   3.363   1.930  13.228 -0.3402 -0.7143  0.6457
    2MPD2     C14358   4.052   2.239  13.438 -0.9137 -0.9064  0.1620
    2MPD2    C114359   3.999   2.116  13.450  0.1364 -0.2680 -0.1802
    2MPD2    C214360   4.078   2.019  13.501 -0.2965 -0.1840 -0.2672
    2MPD2    C314361   4.198   2.047  13.554 -1.0383  0.4080 -0.1681
    2MPD2    C414362   4.254   2.171  13.537  0.3976 -0.1647 -0.1127
    2MPD2    C514363   4.177   2.267  13.483 -0.3816 -0.2829 -0.0292
    2MPD2     H14364   4.026   1.927  13.525  0.4041 -0.9484 -1.7289
    2MPD2    H114365   4.354   2.199  13.568  0.4264 -1.4249  0.9368
    2MPD2    H214366   4.012   2.321  13.381  0.7303  1.1224  1.9136
    2MPD2    H314367   4.226   2.363  13.468  1.9141 -0.9191  3.6431
    2MPD2     N14368   4.270   1.945  13.625  0.2898 -0.2583 -0.0569
    2MPD2    H514369   4.238   1.849  13.619 -1.6462  0.2024  2.9076
    2MPD2    N114370   3.888   2.073  13.387  0.6013  0.2213  0.4946
    2MPD2    H714371   3.863   1.974  13.385 -1.0612  0.5686  3.9321
    3TCq1    O114372   4.275   1.533  13.936  0.5294 -0.3834 -0.1991
    3TCq1    C114373   4.382   1.499  13.858  0.3913 -0.0410 -0.1534
    3TCq1    O214374   4.437   1.389  13.874 -0.7570 -0.3060  0.8355
    3TCq1    C214375   4.451   1.614  13.794 -0.0769  0.0559  0.2306
    3TCq1    C314376   4.586   1.610  13.798  0.4099  0.4219  0.4761
    3TCq1    C414377   4.653   1.726  13.772 -0.1653 -0.5260 -0.5000
    3TCq1    C514378   4.579   1.838  13.761  0.6851 -0.4419 -0.5018
    3TCq1    C614379   4.448   1.845  13.768 -0.8342  0.6037 -0.4541
    3TCq1    C714380   4.381   1.729  13.772 -0.9980  0.1800  0.1957
    3TCq1    C814381   4.386   1.962  13.698 -0.0054  0.3369 -0.1153
    3TCq1    O414382   4.432   2.066  13.733  0.6692 -0.1005  0.4592
    3TCq1    C914383   0.060   1.723  13.768 -0.2694 -0.6385  0.3253
    3TCq1    O514384   0.122   1.830  13.744  0.2961 -0.4671  0.1862
    3TCq1    O614385   0.111   1.624  13.821  0.3006  1.0647 -0.1405
    3TCq1    H114386   4.276   1.631  13.948  1.1091 -0.3881 -0.1985
    3TCq1    H214387   4.637   1.519  13.827  0.5404  0.1953 -0.4593
    3TCq1    H314388   4.635   1.929  13.744 -1.8907  1.2339 -0.0716
    3TCq1    H414389   4.274   1.731  13.760 -1.0824 -1.9680  0.6057
    1MPD2     C14390   3.367   3.002  14.884 -0.1375 -0.4428  0.4074
    1MPD2    C114391   3.236   3.028  14.860  0.7587 -0.3846 -0.2772
    1MPD2    C214392   3.153   2.917  14.852 -0.5518 -0.3365 -1.1632
    1MPD2    C314393   3.202   2.795  14.894 -0.3761 -0.0403  0.2710
    1MPD2    C414394   3.338   2.775  14.930 -0.7159 -0.0569 -0.8437
    1MPD2    C514395   3.420   2.882  14.908 -0.5439  0.4502 -0.2930
    1MPD2     H14396   3.050   2.912  14.817 -0.1136 -0.8347 -2.4068
    1MPD2    H114397   3.373   2.675  14.955 -0.2174 -0.4087 -2.9055
    1MPD2    H214398   3.433   3.087  14.875 -0.4693 -0.0008  2.1012
    1MPD2    H314399   3.525   2.856  14.910 -0.4112  0.9715 -0.5275
    1MPD2     N14400   3.108   2.697  14.897  0.0369  0.0701 -0.1272
    1MPD2    H514401   3.017   2.724  14.863  1.0593  1.1017 -2.0128
    1MPD2    N114402   3.187   3.160  14.837  0.8139  0.3304 -0.5326
    1MPD2    H714403   3.254   3.236  14.835  0.6707  0.3604 -3.7439
    2TMC3    C114404   3.008   3.312  14.778 -0.2874  0.1521 -0.3655
    2TMC3    C214405   2.871   3.322  14.772 -0.5264  1.0591 -0.0391
    2TMC3    C314406   2.817   3.392  14.669 -0.0317  0.4004 -0.2622
    2TMC3    C414407   3.092   3.368  14.684 -0.5059 -0.3751  0.0821
    2TMC3    C514408   3.036   3.450  14.590  0.4446 -0.4476  0.0156
    2TMC3    C614409   2.898   3.457  14.572 -0.1529 -0.8161  0.5824
    2TMC3     C14410   3.051   3.190  14.840 -0.2010 -0.6124  0.8477
    2TMC3     O14411   2.956   3.122  14.871  0.8860 -0.1851  0.0625
    2TMC3     H14412   2.812   3.293  14.859  0.4279 -1.6879 -0.3206
    2TMC3    H114413   3.199   3.351  14.682 -0.3694  0.5662 -0.7540
    2TMC3    H214414   2.865   3.513  14.486  0.7698  0.0460  0.7822
    2TMC3    C714415   3.100   3.571  14.555  0.7646 -0.2752  0.1481
    2TMC3    C814416   2.710   3.317  14.608  0.8685  0.6017 -0.1181
    2TMC3    O114417   3.043   3.642  14.474  0.1251 -0.4006 -0.2760
    2TMC3    O214418   2.640   3.366  14.523  0.0880 -0.2821 -0.1139
    3TCq1    O114419   4.190   3.905  15.142 -0.0833 -0.2487  0.2423
    3TCq1    C114420   4.107   3.957  15.053  0.7629 -0.2823  0.0682
    3TCq1    O214421   4.082   4.073  15.037 -0.6283 -0.0061  0.1213
    3TCq1    C214422   4.009   3.852  15.022 -0.4315  0.0037 -0.6100
    3TCq1    C314423   3.992   3.734  15.099  0.9250 -0.0445 -0.3937
    3TCq1    C414424   3.877   3.661  15.069  0.1852 -0.2682  0.6589
    3TCq1    C514425   3.801   3.691  14.961  0.4542 -0.3771  0.6492
    3TCq1    C614426   3.824   3.796  14.878 -0.3423 -0.8756 -0.9548
    3TCq1    C714427   3.931   3.878  14.910 -0.0308 -0.2212  0.6063
    3TCq1    C814428   3.731   3.832  14.776 -0.4165 -0.4478  0.0407
    3TCq1    O414429   3.773   3.889  14.675 -0.4519  0.4418  0.2551
    3TCq1    C914430   3.841   3.553  15.157 -0.5490 -0.7269 -0.0117
    3TCq1    O514431   3.727   3.500  15.133  0.2805 -1.5235 -0.4227
    3TCq1    O614432   3.924   3.521  15.247 -0.0666  0.0211 -0.2323
    3TCq1    H114433   4.200   3.809  15.121 -0.3479 -0.3784  0.7278
    3TCq1    H214434   4.053   3.715  15.187  0.0784  1.6001  0.5652
    3TCq1    H314435   3.716   3.627  14.939 -0.1459  1.6863 -3.0271
    3TCq1    H414436   3.949   3.971  14.858  1.2392 -0.8066  0.0132
    4MPD2     C14437   3.484   3.895  14.615 -0.9669 -0.2053 -0.0842
    4MPD2    C114438   3.495   3.793  14.710  0.1857  0.4805 -0.0820
    4MPD2    C214439   3.396   3.703  14.724 -0.6364  0.1526 -0.7111
    4MPD2    C314440   3.295   3.699  14.628 -0.1613 -0.4768  0.5582
    4MPD2    C414441   3.286   3.797  14.521  0.0792 -0.3440 -0.8810
    4MPD2    C514442   3.377   3.905  14.533  0.3582  0.6171 -0.2509
    4MPD2     H14443   3.404   3.618  14.790  0.5880  0.7581 -0.0645
    4MPD2    H114444   3.211   3.792  14.444  0.0727 -1.1854 -0.8285
    4MPD2    H214445   3.564   3.960  14.581 -0.6247 -0.7007 -0.2119
    4MPD2    H314446   3.364   3.981  14.457 -1.2940  0.2879 -0.2824
    4MPD2     N14447   3.206   3.592  14.637 -0.3951 -0.1777 -0.0746
    4MPD2    H514448   3.230   3.519  14.703 -1.0651 -0.6009 -0.2885
    4MPD2    N114449   3.609   3.776  14.790  0.1433  0.0042  0.0734
    4MPD2    H714450   3.603   3.712  14.869 -2.6782 -1.5019 -1.3558
    5TMC2    C114451   2.782   2.573  14.842 -0.5372  0.2264 -0.7361
    5TMC2    C214452   2.720   2.572  14.962 -0.5736 -0.2560 -0.8828
    5TMC2    C314453   2.791   2.529  15.073  0.4878 -0.8292 -0.0249
    5TMC2    C414454   2.915   2.550  14.834 -0.4231 -0.5871  0.4725
    5TMC2    C514455   2.981   2.504  14.945 -0.3387 -0.0494  0.1086
    5TMC2    C614456   2.920   2.484  15.064 -0.9218 -0.1808 -0.4263
    5TMC2     C14457   2.764   2.702  14.788  0.5051  0.3102  0.0851
    5TMC2     O14458   2.863   2.778  14.800  0.4003 -0.1151 -0.4739
    5TMC2     H14459   2.613   2.584  14.974 -0.5135 -0.8307  0.2382
    5TMC2    H114460   2.963   2.570  14.739 -0.7463 -2.1296 -0.0114
    5TMC2    H214461   2.980   2.448  15.147 -0.7217  0.8102 -0.1468
    5TMC2    C714462   3.111   2.571  14.949  0.1953  0.2444 -0.9929
    5TMC2    C814463   2.712   2.519  15.195  0.1713 -0.0821 -0.2650
    5TMC2    O114464   3.200   2.527  15.016  0.3333 -0.3969 -0.2253
    5TMC2    O214465   2.589   2.511  15.198 -0.1288  0.2787 -0.1637
    5TMC2    O514466   2.799   2.503  15.302 -0.6780 -0.2550 -0.1557
    5TMC2    H514467   2.888   2.541  15.288 -1.3739  2.0427  1.6764
    6MPD2     C14468   2.542   3.085  14.523 -0.3830 -0.4416  0.1603
    6MPD2    C114469   2.645   3.080  14.614 -0.1796 -0.0211 -0.1738
    6MPD2    C214470   2.669   2.963  14.687 -0.1525  0.0614  0.1469
    6MPD2    C314471   2.601   2.842  14.662  0.0356 -0.0399  0.2430
    6MPD2    C414472   2.505   2.852  14.557 -0.0995  0.2635  0.0704
    6MPD2    C514473   2.479   2.967  14.487  0.4003  0.2220 -0.3027
    6MPD2     H14474   2.755   2.966  14.753  1.3046  1.8626 -1.8528
    6MPD2    H114475   2.449   2.763  14.531  1.3165 -1.0983  1.6877
    6MPD2    H214476   2.520   3.174  14.464  1.4024 -1.4913 -2.1056
    6MPD2    H314477   2.407   2.965  14.405  0.9971  0.3826 -0.8291
    6MPD2     N14478   2.636   2.726  14.736 -0.0975 -0.0594 -0.5061
    6MPD2    H514479   2.577   2.645  14.726 -0.1539  0.0567 -1.1276
    6MPD2    N114480   2.718   3.191  14.658 -0.0484  0.5618  0.0298
    6MPD2    H714481   2.781   3.174  14.735 -0.3615 -0.2099  0.1161
  945NH3     N114482   4.104   0.640  14.351 -0.3250 -0.4084 -0.6077
  945NH3     H214483   4.055   0.632  14.263 -2.6903 -3.6474  1.0156
  945NH3     H314484   4.035   0.646  14.425  0.1832  0.2313 -0.1750
  945NH3     H414485   4.145   0.733  14.352  2.8098 -1.8081  0.3021
  946SOD     NA14486   1.247   1.268   9.560  0.7134 -0.0988  0.1699
  947SOD     NA14487   3.773   3.313  12.533  0.2636  0.2430  0.4678
  948SOD     NA14488   2.841   2.753   9.733  0.2241  0.5550 -0.1056
  949SOD     NA14489   0.411   1.545  13.413 -0.2674 -0.1039  0.1791
  950SOD     NA14490   1.088   0.019   7.721 -0.2521  0.4050  0.0830
  951SOD     NA14491   4.694   2.897  11.787  0.1977 -0.5118 -0.1748
  952SOD     NA14492   1.613   1.941  16.098 -0.2139 -0.0289 -0.0273
  953SOD     NA14493   2.880   0.514  16.588  0.3538 -0.2913 -0.1279
  954SOL     OW14494   1.023   0.469   5.039 -0.1057 -0.3245 -0.2148
  954SOL    HW114495   1.101   0.430   5.078  0.2657 -1.2998 -1.9415
  954SOL    HW214496   0.973   0.496   5.116 -0.2996  0.1693 -0.5177
  955SOL     OW14497   1.752   0.790   5.699 -0.7398 -0.0886  0.1175
  955SOL    HW114498   1.785   0.764   5.613 -0.7069 -2.7740  0.9436
  955SOL    HW214499   1.664   0.818   5.673 -0.3930  1.5517  0.6908
  956SOL     OW14500   4.270   3.257   4.568  1.0866  0.2127  0.0568
  956SOL    HW114501   4.249   3.350   4.556  0.9201  0.3547  1.5332
  956SOL    HW214502   4.242   3.239   4.658  0.6612  0.7104  0.0277
  957SOL     OW14503   4.726   1.029   7.137  0.1434  0.1794 -0.4879
  957SOL    HW114504   0.050   1.017   7.212  0.1841 -0.6039 -0.6510
  957SOL    HW214505   4.683   1.109   7.167  3.0644  0.7227  2.2509
  958SOL     OW14506   2.693   3.699   5.936 -0.3405 -0.3823  0.5326
  958SOL    HW114507   2.708   3.605   5.922 -1.4180 -0.0331 -3.1322
  958SOL    HW214508   2.750   3.741   5.871 -1.0851 -0.8771 -0.4518
  959SOL     OW14509   4.046   1.444   2.995 -0.0351  0.4499 -0.5400
  959SOL    HW114510   4.020   1.367   3.045  1.1966 -0.9944 -2.1035
  959SOL    HW214511   4.082   1.405   2.915  0.2103  0.6644 -0.5350
  960SOL     OW14512   2.419   2.118   7.920 -0.0559 -0.3089  0.4257
  960SOL    HW114513   2.358   2.064   7.870  0.2403  0.3808 -0.6668
  960SOL    HW214514   2.359   2.143   7.990 -0.7976 -0.8001 -0.0242
  961SOL     OW14515   3.658   4.290   9.052  0.5839  0.5825  0.3999
  961SOL    HW114516   3.629   4.226   8.987  1.7999  1.2017 -0.7505
  961SOL    HW214517   3.604   4.361   9.019  1.6401  1.8221  1.3360
  962SOL     OW14518   2.074   3.701   4.425 -0.1831 -0.4066  0.0356
  962SOL    HW114519   2.166   3.684   4.402 -0.8800  0.8235 -3.7721
  962SOL    HW214520   2.046   3.724   4.336  0.0362 -2.3667 -0.5551
  963SOL     OW14521   0.882   4.008   5.704 -0.1679 -0.0228 -0.2193
  963SOL    HW114522   0.952   3.946   5.685 -1.1598 -1.6997  1.6625
  963SOL    HW214523   0.849   4.017   5.615 -1.2780 -1.5439  0.0386
  964SOL     OW14524   2.806   3.774   6.556  0.4510 -0.4250  0.4123
  964SOL    HW114525   2.826   3.864   6.531  0.7683  0.0079  2.1987
  964SOL    HW214526   2.892   3.754   6.593  0.5806 -2.6211 -1.0569
  965SOL     OW14527   3.191   2.293   0.883  0.1749  0.5381  0.4049
  965SOL    HW114528   3.185   2.342   0.801  0.4951  1.2338  0.7979
  965SOL    HW214529   3.197   2.200   0.860  1.9048  0.2827  1.8706
  966SOL     OW14530   4.201   0.485   2.982 -0.0963  0.2403  0.2305
  966SOL    HW114531   4.195   0.398   2.942  0.5093  0.3260 -0.0511
  966SOL    HW214532   4.271   0.483   3.047  0.4798  2.3007 -0.3302
  967SOL     OW14533   0.137   1.213   6.455 -1.0686 -0.1580 -0.7052
  967SOL    HW114534   0.049   1.184   6.431 -1.0506 -1.7151  1.0348
  967SOL    HW214535   0.183   1.189   6.375 -0.0956 -1.3166  0.2067
  968SOL     OW14536   4.531   0.981   7.404 -0.5763 -0.3550  0.0908
  968SOL    HW114537   4.525   0.997   7.499 -2.5432  1.4988 -0.3531
  968SOL    HW214538   4.609   0.926   7.392 -0.5694 -0.3360  0.0508
  969SOL     OW14539   4.116   0.818   1.376 -0.2485  0.4897  0.0708
  969SOL    HW114540   4.174   0.779   1.441 -0.8714 -0.1616  0.2415
  969SOL    HW214541   4.078   0.740   1.336 -1.4509  0.4203  1.3425
  970SOL     OW14542   1.068   4.212   9.546  0.5226 -0.2664 -0.4366
  970SOL    HW114543   1.155   4.202   9.507  0.9851  0.0152  0.5238
  970SOL    HW214544   1.014   4.154   9.492 -3.2578  3.1277 -0.2696
  971SOL     OW14545   4.519   1.200   5.491  0.0468 -0.0358 -0.2335
  971SOL    HW114546   4.440   1.226   5.444 -1.2076 -0.9828  1.3794
  971SOL    HW214547   4.593   1.201   5.431  0.3847  0.8163  0.1978
  972SOL     OW14548   4.457   1.471  13.502  0.0897 -0.0489  0.3015
  972SOL    HW114549   4.550   1.447  13.510 -0.3205 -1.5332  0.6576
  972SOL    HW214550   4.423   1.386  13.475 -2.0542  1.2070 -0.9480
  973SOL     OW14551   0.006   3.491   7.077  0.4066  0.0957 -0.2517
  973SOL    HW114552   0.091   3.533   7.066  0.5498  0.1481  0.9714
  973SOL    HW214553   0.033   3.399   7.086 -1.4660 -0.5766 -1.5040
  974SOL     OW14554   1.676   4.027   2.524 -0.1353  0.3157 -0.1638
  974SOL    HW114555   1.734   4.072   2.463  0.9340  2.8211  2.7116
  974SOL    HW214556   1.651   3.953   2.469  1.1229 -0.8616  0.8365
  975SOL     OW14557   0.228   2.661   8.693  0.0673 -0.2348 -0.7886
  975SOL    HW114558   0.164   2.590   8.696  0.4178 -0.5464 -0.6854
  975SOL    HW214559   0.257   2.674   8.783  1.0241 -1.3470 -0.9349
  976SOL     OW14560   4.420   3.203   1.388  0.3111  0.3728  0.0579
  976SOL    HW114561   4.336   3.248   1.397  0.8906  1.4547 -0.0036
  976SOL    HW214562   4.402   3.127   1.443  1.0825 -0.5186 -0.9173
  977SOL     OW14563   1.574   3.294   7.422  0.4285 -0.1074 -0.1876
  977SOL    HW114564   1.633   3.253   7.486 -0.0584 -1.4366 -0.5992
  977SOL    HW214565   1.512   3.222   7.420  0.2647  0.0976 -2.1436
  978SOL     OW14566   1.436   1.230  15.044 -0.2199 -0.1652  0.6874
  978SOL    HW114567   1.513   1.266  15.088 -0.0880 -0.5242  0.7588
  978SOL    HW214568   1.424   1.145  15.087 -2.2636 -0.7424 -0.9935
  979SOL     OW14569   1.145   2.812  12.321 -0.1785  0.2213 -0.3702
  979SOL    HW114570   1.053   2.819  12.297 -0.3000 -0.1848 -0.0042
  979SOL    HW214571   1.144   2.732  12.374  0.1486 -0.9640 -2.1493
  980SOL     OW14572   4.311   0.886   3.107 -0.1656  0.1981  0.8111
  980SOL    HW114573   4.302   0.845   3.193 -2.6653  0.3009  0.5931
  980SOL    HW214574   4.391   0.843   3.078 -2.0270 -2.4283 -0.3430
  981SOL     OW14575   1.384   1.209   3.888  0.0845 -0.3964 -0.5769
  981SOL    HW114576   1.290   1.203   3.901  0.3684 -0.6210  1.3922
  981SOL    HW214577   1.393   1.285   3.830 -0.2118 -0.9345 -1.3319
  982SOL     OW14578   4.507   2.845   0.234  0.1242 -0.3092  0.7983
  982SOL    HW114579   4.454   2.766   0.224  1.0100 -0.5958 -1.5608
  982SOL    HW214580   4.449   2.920   0.218  0.1936 -0.9552 -2.4361
  983SOL     OW14581   0.789   4.163  13.033  0.4889 -0.2661  0.8879
  983SOL    HW114582   0.875   4.162  12.991  0.2273  1.9500  0.3184
  983SOL    HW214583   0.801   4.117  13.116  1.8491 -1.4693  0.0384
  984SOL     OW14584   3.481   3.744  10.300  0.2078  0.1749  0.3820
  984SOL    HW114585   3.512   3.704  10.219  1.7676  1.8183  0.1572
  984SOL    HW214586   3.462   3.833  10.271  0.0261 -0.3956 -1.2825
  985SOL     OW14587   4.344   3.333   5.871  0.1038  0.0162 -0.0308
  985SOL    HW114588   4.288   3.386   5.929 -0.1374  1.1483 -1.3024
  985SOL    HW214589   4.417   3.388   5.842  0.6179  0.0959  1.4216
  986SOL     OW14590   0.413   2.670  13.000 -0.3008  0.3245  0.0428
  986SOL    HW114591   0.423   2.742  12.937  0.0786 -2.2883 -2.9155
  986SOL    HW214592   0.497   2.633  12.970 -0.9243 -0.3920 -0.8055
  987SOL     OW14593   0.972   2.686   1.800 -0.4512  0.1955  0.5035
  987SOL    HW114594   0.999   2.721   1.715  0.6485  1.9425  1.5697
  987SOL    HW214595   1.040   2.733   1.848  1.5310  0.1915 -2.3385
  988SOL     OW14596   1.474   4.158  12.706 -0.2993  0.2754  0.2216
  988SOL    HW114597   1.456   4.252  12.697 -0.1684  0.2040 -0.6844
  988SOL    HW214598   1.397   4.129  12.658  1.0942  0.4768 -2.0907
  989SOL     OW14599   0.109   3.246  16.034 -0.3205 -0.0976 -0.1393
  989SOL    HW114600   0.158   3.218  16.111 -2.1931  0.0742  1.1165
  989SOL    HW214601   0.067   3.328  16.056  0.4535  0.6851 -1.5641
  990SOL     OW14602   1.521   3.867  12.133  0.1845 -0.2643  0.0954
  990SOL    HW114603   1.469   3.880  12.053  0.6863  2.2998  0.1837
  990SOL    HW214604   1.460   3.895  12.202 -1.7787 -0.4945 -1.5400
  991SOL     OW14605   1.045   4.116   0.910 -0.3011 -0.3322  0.3785
  991SOL    HW114606   1.043   4.131   0.815 -1.4721  1.4935  0.6732
  991SOL    HW214607   1.138   4.100   0.920 -0.4907 -0.9457  1.1664
  992SOL     OW14608   0.140   1.658   0.894 -0.5085 -0.7263 -0.1759
  992SOL    HW114609   0.088   1.647   0.814 -1.4325  1.1287  0.1808
  992SOL    HW214610   0.171   1.748   0.881  1.4586 -0.8342  3.9152
  993SOL     OW14611   4.281   0.125   3.758 -0.0532  0.3785  0.0661
  993SOL    HW114612   4.210   0.154   3.815 -1.3614  1.1277 -1.9268
  993SOL    HW214613   4.243   0.156   3.676 -0.0840  1.3946  0.4638
  994SOL     OW14614   2.221   1.131   5.161 -0.6292  0.0235  0.1152
  994SOL    HW114615   2.206   1.225   5.154 -0.5869 -0.0028 -0.3485
  994SOL    HW214616   2.300   1.122   5.106 -1.2186 -0.3892 -0.6671
  995SOL     OW14617   4.365   1.055  13.271 -0.2221 -0.2963  0.0859
  995SOL    HW114618   4.406   1.135  13.239  1.3674 -1.6954 -1.3553
  995SOL    HW214619   4.276   1.060  13.237 -0.1305 -1.7215 -0.3816
  996SOL     OW14620   3.017   1.166  13.433 -0.3346 -0.2261 -0.2348
  996SOL    HW114621   3.014   1.073  13.407 -1.0024 -0.5209  0.9320
  996SOL    HW214622   2.927   1.190  13.415 -0.4812 -0.6099 -0.0019
  997SOL     OW14623   0.011   1.729   3.416 -0.6478 -0.2505  0.3217
  997SOL    HW114624   0.039   1.774   3.496  2.0862  0.0793 -0.7966
  997SOL    HW214625   4.696   1.660   3.460 -0.7279  0.7880  1.8561
  998SOL     OW14626   2.166   2.420   4.552 -0.5926 -0.9641 -0.4067
  998SOL    HW114627   2.234   2.483   4.576  0.1553 -1.9536  0.0771
  998SOL    HW214628   2.091   2.478   4.537  2.0679  1.8806 -2.5842
  999SOL     OW14629   1.508   2.670   3.161  0.4732 -0.5788  0.2355
  999SOL    HW114630   1.558   2.737   3.208 -2.5155 -0.2992  3.0367
  999SOL    HW214631   1.502   2.702   3.071  1.2360  0.7661  0.6521
 1000SOL     OW14632   1.199   4.071   2.928 -0.2018 -0.0610  0.0713
 1000SOL    HW114633   1.262   4.001   2.905  1.2271  0.6329  1.9392
 1000SOL    HW214634   1.234   4.082   3.016  0.9934 -1.9819 -0.1485
 1001SOL     OW14635   2.330   0.980   9.040 -0.6645  0.3525 -0.4877
 1001SOL    HW114636   2.386   1.057   9.042  0.5597 -0.5190 -1.3660
 1001SOL    HW214637   2.388   0.914   9.076 -2.0395  0.9839  2.8692
 1002SOL     OW14638   0.005   4.010   8.629 -0.2726  0.6198  0.9706
 1002SOL    HW114639   0.067   4.064   8.580 -1.5097  0.7577 -0.4048
 1002SOL    HW214640   0.023   4.033   8.721 -1.7941  1.7403  0.9894
 1003SOL     OW14641   3.579   3.458  10.482 -0.1903 -0.0895  0.0967
 1003SOL    HW114642   3.578   3.442  10.576  2.1434  1.8128  0.4436
 1003SOL    HW214643   3.494   3.420  10.459  0.4930 -1.0848 -0.8406
 1004SOL     OW14644   3.940   4.550  14.035  0.4784  0.0745 -0.2081
 1004SOL    HW114645   4.024   4.594  14.050  0.7207 -0.3211 -0.4272
 1004SOL    HW214646   3.948   4.465  14.078 -3.0372  0.6901  1.7204
 1005SOL     OW14647   1.260   0.219   4.160 -0.1197  0.0179  0.2600
 1005SOL    HW114648   1.192   0.207   4.094 -0.7082  0.4537  0.7836
 1005SOL    HW214649   1.318   0.148   4.132 -0.1495 -0.1453  0.6129
 1006SOL     OW14650   4.578   3.114  10.690 -0.0004 -0.3866  0.3751
 1006SOL    HW114651   4.538   3.123  10.603  0.4592 -0.2405  0.1801
 1006SOL    HW214652   4.660   3.162  10.681  0.0764 -0.4425  0.7906
 1007SOL     OW14653   1.624   0.860   1.275  0.2991  0.4015  0.1464
 1007SOL    HW114654   1.567   0.924   1.316 -1.0998 -0.6623 -0.1358
 1007SOL    HW214655   1.603   0.779   1.321  0.3115  0.2107 -0.1782
 1008SOL     OW14656   2.878   4.544   3.830 -0.0930 -0.3036  0.8165
 1008SOL    HW114657   2.894   4.477   3.763  0.2423 -1.8825  2.4847
 1008SOL    HW214658   2.858   4.616   3.770  2.8933 -0.1993 -0.0497
 1009SOL     OW14659   3.849   2.081  17.505  0.0551  0.0274  0.0872
 1009SOL    HW114660   3.811   2.093  17.592 -0.3454  0.2032 -0.1109
 1009SOL    HW214661   3.821   2.162  17.461  1.0347 -0.2123 -0.9664
 1010SOL     OW14662   3.890   2.407   7.770  0.3156 -0.3843 -0.2134
 1010SOL    HW114663   3.976   2.371   7.791  0.9145  0.1157 -1.8291
 1010SOL    HW214664   3.848   2.390   7.854 -0.9385 -0.9909 -0.9677
 1011SOL     OW14665   2.829   3.015   3.225  0.1346 -0.9620 -0.2522
 1011SOL    HW114666   2.883   2.990   3.300  2.2448 -0.1222 -1.4750
 1011SOL    HW214667   2.830   2.931   3.180  0.6852 -1.0544 -0.0713
 1012SOL     OW14668   4.711   0.449   3.273  0.2268 -0.0132 -0.2834
 1012SOL    HW114669   0.033   0.379   3.306 -1.3226 -0.5478  1.2821
 1012SOL    HW214670   4.684   0.406   3.192  0.7937  0.6019 -0.7867
 1013SOL     OW14671   3.858   3.383   1.930 -0.2989  0.0693 -0.0135
 1013SOL    HW114672   3.914   3.315   1.967 -0.1974 -0.7699 -1.7419
 1013SOL    HW214673   3.786   3.381   1.993  1.3923 -0.7948  1.8843
 1014SOL     OW14674   1.182   2.048   7.490  0.2322 -0.2785  0.0487
 1014SOL    HW114675   1.097   2.006   7.503 -1.2086  2.4579 -0.5994
 1014SOL    HW214676   1.176   2.045   7.395 -0.0827  2.3426 -0.0181
 1015SOL     OW14677   2.203   2.652  13.493  0.1741 -0.5127  0.1960
 1015SOL    HW114678   2.240   2.666  13.581  0.9925 -0.1711 -0.2079
 1015SOL    HW214679   2.148   2.729  13.483 -0.3203 -0.8432  0.3517
 1016SOL     OW14680   0.966   1.417   1.121  0.3274  0.2972 -0.2138
 1016SOL    HW114681   1.048   1.466   1.113 -1.6412  3.3379 -1.6918
 1016SOL    HW214682   0.916   1.474   1.180  0.3733 -0.2918  0.3942
 1017SOL     OW14683   4.106   2.294  17.172 -0.0408  0.0742  0.6199
 1017SOL    HW114684   4.136   2.384  17.157 -1.5765  0.4559 -0.1536
 1017SOL    HW214685   4.036   2.283  17.108  0.8806 -0.5238 -0.2773
 1018SOL     OW14686   3.310   1.952   9.171  0.1398 -0.0206 -0.7904
 1018SOL    HW114687   3.235   1.903   9.137 -1.3965  1.9869 -0.2210
 1018SOL    HW214688   3.265   2.012   9.230  2.0074  1.8614 -1.3023
 1019SOL     OW14689   3.225   3.937   4.775  0.2564 -0.7426 -0.2597
 1019SOL    HW114690   3.249   3.846   4.757  1.1254  0.1509 -3.5002
 1019SOL    HW214691   3.299   3.973   4.823 -0.4691 -0.1275  0.3983
 1020SOL     OW14692   3.610   3.876   4.075  0.4280 -0.3857 -0.4285
 1020SOL    HW114693   3.657   3.811   4.023  0.6623 -0.9747  0.5270
 1020SOL    HW214694   3.524   3.856   4.037 -0.2191 -1.2812  1.5292
 1021SOL     OW14695   3.765   0.145   4.929 -0.2559  0.4201 -0.5924
 1021SOL    HW114696   3.709   0.125   5.004 -1.0620  2.8369 -0.5217
 1021SOL    HW214697   3.826   0.072   4.937 -0.0857  0.4424 -1.6885
 1022SOL     OW14698   3.615   0.660   0.279 -0.0477  0.1480  0.2601
 1022SOL    HW114699   3.700   0.703   0.290  0.5554 -1.6263  2.4098
 1022SOL    HW214700   3.610   0.609   0.359 -3.3097  0.9551  0.5850
 1023SOL     OW14701   3.365   2.566   2.675 -0.9598 -0.1294  0.2299
 1023SOL    HW114702   3.361   2.633   2.607  2.5741 -0.3958 -0.2454
 1023SOL    HW214703   3.302   2.496   2.656 -1.3800  0.0194  1.1017
 1024SOL     OW14704   0.667   2.693   5.579  0.3232 -0.2259  0.1421
 1024SOL    HW114705   0.582   2.696   5.534  1.1710  0.0714 -1.4553
 1024SOL    HW214706   0.682   2.599   5.589 -0.6527 -0.3491  0.5045
 1025SOL     OW14707   3.311   2.537   4.979  0.4607 -0.2649 -0.2548
 1025SOL    HW114708   3.377   2.562   4.915 -1.0193 -0.9751 -2.0620
 1025SOL    HW214709   3.351   2.458   5.014  0.4170 -0.1109  0.1439
 1026SOL     OW14710   0.793   4.420  10.308 -0.0834  0.9337  0.1886
 1026SOL    HW114711   0.758   4.462  10.229  0.3635  0.0795 -0.4605
 1026SOL    HW214712   0.718   4.381  10.353 -0.7640  2.6630  0.5593
 1027SOL     OW14713   0.873   2.454   5.863  0.3340  0.4622  0.1318
 1027SOL    HW114714   0.860   2.465   5.957 -0.3624 -0.7926  0.1754
 1027SOL    HW214715   0.953   2.401   5.867 -0.5752 -0.8150  1.2310
 1028SOL     OW14716   0.273   3.383   7.636  0.5372  0.2649 -0.0694
 1028SOL    HW114717   0.287   3.297   7.596 -0.5185 -0.9556  2.2259
 1028SOL    HW214718   0.245   3.432   7.559 -3.1804  0.3039  1.3373
 1029SOL     OW14719   1.628   1.807   4.202 -0.0077 -0.1047 -0.0808
 1029SOL    HW114720   1.594   1.881   4.152  0.1835 -0.2402 -0.4072
 1029SOL    HW214721   1.609   1.736   4.141  5.4148 -2.3548  0.8399
 1030SOL     OW14722   3.331   0.725   7.819  0.3905 -0.5202 -0.1519
 1030SOL    HW114723   3.285   0.759   7.896  2.2576 -1.5910  1.4403
 1030SOL    HW214724   3.425   0.723   7.839  0.2279 -0.0204  0.6483
 1031SOL     OW14725   0.708   1.741   1.856  0.6062 -0.2262  0.1812
 1031SOL    HW114726   0.674   1.693   1.781  0.8922 -1.3346  0.7590
 1031SOL    HW214727   0.634   1.734   1.917 -0.9875  3.6467 -1.2986
 1032SOL     OW14728   4.574   1.651   5.979 -0.1867  0.0992 -0.0062
 1032SOL    HW114729   4.597   1.559   5.972 -1.5743 -0.1930 -0.8674
 1032SOL    HW214730   4.547   1.680   5.892  1.8460  0.2404 -0.5699
 1033SOL     OW14731   1.457   4.409   1.475 -0.0758  0.2943  0.2130
 1033SOL    HW114732   1.492   4.463   1.405  0.7990 -2.8391 -1.8002
 1033SOL    HW214733   1.366   4.401   1.448  0.0300 -4.7053  1.2721
 1034SOL     OW14734   3.175   2.042  11.831 -0.1419 -0.0969 -0.0228
 1034SOL    HW114735   3.092   2.033  11.878 -0.2469 -0.5687 -0.3021
 1034SOL    HW214736   3.141   2.090  11.755 -1.3106 -1.4114 -0.3321
 1035SOL     OW14737   0.179   4.370   4.927  1.0052 -0.0943 -0.2102
 1035SOL    HW114738   0.118   4.371   4.853 -2.6158  0.2336  2.7921
 1035SOL    HW214739   0.144   4.291   4.968 -2.4979  0.8788 -1.3858
 1036SOL     OW14740   3.086   4.627   0.275 -0.4549  0.1287  0.0299
 1036SOL    HW114741   3.041   4.560   0.224 -1.0323 -0.5313  1.3862
 1036SOL    HW214742   3.120   4.695   0.217 -1.2337  0.0987 -0.4675
 1037SOL     OW14743   3.480   0.110  12.050  0.2171  0.0986  0.1376
 1037SOL    HW114744   3.546   0.160  12.003 -0.7284  0.5313 -0.7289
 1037SOL    HW214745   3.533   0.068  12.118 -0.1152 -1.9435 -0.8471
 1038SOL     OW14746   2.222   3.576   5.431  0.0471  0.2315  0.1561
 1038SOL    HW114747   2.224   3.520   5.353 -2.1941  0.4402 -0.0375
 1038SOL    HW214748   2.214   3.507   5.496  2.6226 -0.9545 -0.7761
 1039SOL     OW14749   4.046   1.522   0.516 -0.1208  0.6258  0.0514
 1039SOL    HW114750   4.091   1.483   0.441  1.8597  0.8983  1.0782
 1039SOL    HW214751   4.067   1.614   0.500 -0.3304  0.3611 -1.7286
 1040SOL     OW14752   2.649   1.567   2.808 -0.1147 -0.1724  0.0367
 1040SOL    HW114753   2.726   1.620   2.791 -1.1473  0.9623 -1.0683
 1040SOL    HW214754   2.591   1.634   2.771  0.8824  0.5203 -0.2640
 1041SOL     OW14755   2.716   0.193   5.542  0.2611 -0.0610 -0.4297
 1041SOL    HW114756   2.658   0.252   5.591 -0.4107 -0.8798 -0.2339
 1041SOL    HW214757   2.684   0.111   5.579  0.6592 -1.2960 -2.8173
 1042SOL     OW14758   0.720   4.170   7.376 -0.5217 -0.2130 -0.0206
 1042SOL    HW114759   0.787   4.145   7.438 -1.5499 -0.1836  1.1032
 1042SOL    HW214760   0.733   4.265   7.382  0.5426 -0.4751  1.5247
 1043SOL     OW14761   0.730   1.448  10.106  0.0858 -0.1203  0.2151
 1043SOL    HW114762   0.699   1.491  10.186  0.9135 -0.0149  0.4831
 1043SOL    HW214763   0.824   1.463  10.108 -0.2124  1.9499 -1.8713
 1044SOL     OW14764   4.319   0.787   1.962 -0.2774  0.5042 -0.4990
 1044SOL    HW114765   4.337   0.822   2.049  1.4331 -2.4893  0.3722
 1044SOL    HW214766   4.227   0.762   1.969 -0.4799  1.6247  0.7116
 1045SOL     OW14767   0.974   1.639  17.139  0.0803  1.3957 -0.3195
 1045SOL    HW114768   0.969   1.594  17.055 -0.3871  1.3578 -0.2728
 1045SOL    HW214769   1.017   1.719  17.108  0.9028  1.5793  1.2807
 1046SOL     OW14770   3.354   1.979   8.224 -0.0633  0.0683 -0.4027
 1046SOL    HW114771   3.299   1.980   8.302 -1.5301 -0.0080 -1.4510
 1046SOL    HW214772   3.433   1.934   8.254 -1.0860  0.8887  3.5070
 1047SOL     OW14773   3.025   2.130  11.638  0.6237 -0.1603  0.1336
 1047SOL    HW114774   2.971   2.059  11.602 -0.5351  0.6442  0.3058
 1047SOL    HW214775   2.962   2.186  11.682 -0.8284 -1.0282 -0.8463
 1048SOL     OW14776   0.398   2.259   7.321 -0.0463 -0.1067 -0.2701
 1048SOL    HW114777   0.405   2.164   7.321 -1.1167 -0.1835 -1.0631
 1048SOL    HW214778   0.481   2.275   7.277  0.5574 -1.3756  0.4189
 1049SOL     OW14779   3.069   3.522  16.976 -0.3798  0.3553  0.2547
 1049SOL    HW114780   3.002   3.515  17.044 -1.0859 -0.1512 -0.4891
 1049SOL    HW214781   3.025   3.544  16.894 -0.0051  0.8620  0.1926
 1050SOL     OW14782   1.017   3.895   2.870  0.5642  0.7464  0.7194
 1050SOL    HW114783   1.087   3.832   2.884 -0.8903 -0.6010  2.0753
 1050SOL    HW214784   1.077   3.969   2.867  0.5042  0.7275 -0.5829
 1051SOL     OW14785   3.922   2.790   8.167 -0.0856  0.0406 -0.5188
 1051SOL    HW114786   3.884   2.702   8.156 -0.0698  0.3300 -2.9258
 1051SOL    HW214787   4.011   2.757   8.176 -0.5172 -1.4995 -1.8353
 1052SOL     OW14788   1.661   1.245   9.374  0.0174  0.7661  0.1845
 1052SOL    HW114789   1.637   1.330   9.410  1.1916  0.8355  0.8166
 1052SOL    HW214790   1.660   1.182   9.447  0.6605 -1.2383 -1.5204
 1053SOL     OW14791   2.113   4.070   4.363 -0.4997 -0.5153 -0.7516
 1053SOL    HW114792   2.087   4.038   4.277 -2.4371  1.9826 -1.0872
 1053SOL    HW214793   2.180   4.133   4.336  1.4092 -2.3511 -0.3293
 1054SOL     OW14794   4.136   4.458   9.593  0.0989 -0.0640 -0.0248
 1054SOL    HW114795   4.154   4.373   9.554  0.3817 -0.8354  1.7694
 1054SOL    HW214796   4.115   4.510   9.516 -0.4279  0.0141  0.1702
 1055SOL     OW14797   3.065   1.381  11.043 -0.0326  0.0048 -0.3316
 1055SOL    HW114798   3.002   1.363  10.973 -1.2098  0.7142  0.5485
 1055SOL    HW214799   3.036   1.327  11.116 -1.5592  3.6965  1.7811
 1056SOL     OW14800   3.617   2.408  10.948 -0.5184  0.4196  0.0586
 1056SOL    HW114801   3.668   2.396  11.028 -1.2152 -2.3339  0.0646
 1056SOL    HW214802   3.546   2.347  10.964  1.1564 -2.1833 -2.4794
 1057SOL     OW14803   0.086   4.672   7.805  0.0287  0.2089 -0.0559
 1057SOL    HW114804   0.018   4.733   7.835 -0.6295  0.5792 -2.2564
 1057SOL    HW214805   0.111   4.624   7.884 -0.6629  0.2947  0.2190
 1058SOL     OW14806   2.016   1.115   2.753 -0.2742  0.2590  0.3656
 1058SOL    HW114807   1.989   1.131   2.843 -1.9625  0.1584 -0.1119
 1058SOL    HW214808   2.082   1.184   2.749  0.9451 -0.8243  1.8015
 1059SOL     OW14809   4.161   2.293   8.459 -0.1450  0.0673 -0.0963
 1059SOL    HW114810   4.193   2.232   8.526  0.3683  1.3000  0.7839
 1059SOL    HW214811   4.086   2.338   8.500  1.3508  1.5502  1.0427
 1060SOL     OW14812   3.470   1.343   2.994 -0.0728 -0.6361 -0.5592
 1060SOL    HW114813   3.423   1.419   2.960  2.2434  1.2882  0.5033
 1060SOL    HW214814   3.553   1.349   2.946 -0.5087 -0.2937 -1.2784
 1061SOL     OW14815   2.162   0.161   4.570  0.2281  0.8316  0.2188
 1061SOL    HW114816   2.087   0.103   4.560  1.9720 -1.2848 -0.5773
 1061SOL    HW214817   2.220   0.115   4.631  0.3504  0.7595  0.0484
 1062SOL     OW14818   2.969   3.410   8.216  0.3140 -0.2914  0.1704
 1062SOL    HW114819   3.060   3.380   8.212 -0.1839 -1.6487 -0.7672
 1062SOL    HW214820   2.957   3.395   8.310 -0.4280 -2.0680 -0.1971
 1063SOL     OW14821   4.566   1.474   3.453  0.1626  0.1569 -0.6571
 1063SOL    HW114822   4.473   1.455   3.447  0.5627 -1.8318 -0.5784
 1063SOL    HW214823   4.577   1.440   3.542  1.6385  2.3810  0.0214
 1064SOL     OW14824   3.012   4.149   5.434 -0.6214  0.0822 -0.0383
 1064SOL    HW114825   3.073   4.214   5.399  0.0328 -0.8588 -0.6200
 1064SOL    HW214826   2.938   4.180   5.383  1.6835  0.7549 -2.9543
 1065SOL     OW14827   1.789   4.464   2.965 -0.3231 -0.6325 -0.0189
 1065SOL    HW114828   1.857   4.522   3.000  0.3231  0.5694 -3.1690
 1065SOL    HW214829   1.714   4.489   3.019 -1.1502  0.1967 -1.5171
 1066SOL     OW14830   1.915   2.492  15.077  0.1310  0.2974 -0.0378
 1066SOL    HW114831   1.860   2.554  15.028  0.7332  1.0131  0.1848
 1066SOL    HW214832   1.861   2.461  15.149  2.9900 -2.9873  0.6694
 1067SOL     OW14833   2.112   4.557   5.848  0.5511 -0.5881  0.3501
 1067SOL    HW114834   2.196   4.602   5.842 -0.0964  0.0368 -3.8441
 1067SOL    HW214835   2.134   4.464   5.855 -2.5553 -1.4592 -1.3026
 1068SOL     OW14836   3.421   0.567  17.516 -0.3906  0.2991  0.6395
 1068SOL    HW114837   3.467   0.594  17.437 -0.3171  1.0256  0.9256
 1068SOL    HW214838   3.501   0.540  17.560 -0.1707 -1.8260 -1.0491
 1069SOL     OW14839   0.334   0.093   8.789  0.0127  0.2402 -0.1911
 1069SOL    HW114840   0.240   0.081   8.774 -0.2394  1.0384  0.7404
 1069SOL    HW214841   0.339   0.189   8.781  1.5788 -0.0077 -2.1428
 1070SOL     OW14842   4.330   4.664   6.532  0.7306 -0.5168 -0.2359
 1070SOL    HW114843   4.275   0.002   6.500 -0.9650 -1.2215  1.0697
 1070SOL    HW214844   4.408   4.710   6.564 -0.1235  1.0574 -0.3995
 1071SOL     OW14845   2.815   0.365  17.722 -0.6335  0.6981 -0.2970
 1071SOL    HW114846   2.852   0.381   0.073 -1.8718 -1.6288  0.6791
 1071SOL    HW214847   2.848   0.443  17.676 -0.0903  1.1402  0.8520
 1072SOL     OW14848   2.627   0.943  10.527  0.2738  0.0928  1.0228
 1072SOL    HW114849   2.657   0.953  10.617  2.0782 -2.1243  0.6838
 1072SOL    HW214850   2.679   1.003  10.473 -0.1795 -0.8570 -0.4654
 1073SOL     OW14851   0.026   1.970  13.542 -0.2411  0.0375  0.1945
 1073SOL    HW114852   0.067   1.917  13.611 -1.9888  0.0331  1.1992
 1073SOL    HW214853   0.095   2.029  13.511 -0.3248 -0.5102 -1.0455
 1074SOL     OW14854   2.838   3.715   4.307  0.2681 -0.3812  0.8015
 1074SOL    HW114855   2.805   3.799   4.276  0.8791  0.6677  2.9803
 1074SOL    HW214856   2.919   3.721   4.357  1.9081  0.1109 -1.9761
 1075SOL     OW14857   3.187   2.427   6.889  0.8221  0.3851 -0.2991
 1075SOL    HW114858   3.181   2.347   6.940 -0.8636 -0.5176 -1.9342
 1075SOL    HW214859   3.179   2.493   6.959  2.7060 -1.5751  1.7606
 1076SOL     OW14860   0.736   3.032   7.232  0.3838  0.2590  0.0110
 1076SOL    HW114861   0.814   2.992   7.270 -0.2430 -0.7188  0.2698
 1076SOL    HW214862   0.754   3.000   7.144 -0.8329 -0.4985  0.0369
 1077SOL     OW14863   3.179   4.048   2.922 -0.1977 -0.3245  0.1225
 1077SOL    HW114864   3.149   4.051   2.832  2.3705  1.5080 -0.6752
 1077SOL    HW214865   3.205   3.956   2.920 -0.3000 -0.3287 -0.8869
 1078SOL     OW14866   3.786   0.135   8.482 -0.2544 -0.0097 -0.5230
 1078SOL    HW114867   3.763   0.176   8.398 -1.3164  3.6392  1.5197
 1078SOL    HW214868   3.701   0.102   8.512 -0.1490  0.6603  0.5279
 1079SOL     OW14869   2.277   1.136   8.133  0.3541  0.2095 -0.5358
 1079SOL    HW114870   2.346   1.202   8.122  0.3183  0.4191  0.5263
 1079SOL    HW214871   2.285   1.091   8.049 -0.4162  0.0110 -0.5031
 1080SOL     OW14872   4.663   3.290   4.325 -0.1860 -0.3738  0.3637
 1080SOL    HW114873   4.621   3.368   4.360  0.3304  0.5157 -0.9827
 1080SOL    HW214874   4.621   3.215   4.367 -0.3717 -0.7173 -0.4406
 1081SOL     OW14875   1.697   3.554   1.018 -0.1520 -0.9846  0.2519
 1081SOL    HW114876   1.767   3.613   0.990 -0.7140 -0.4584 -0.0450
 1081SOL    HW214877   1.632   3.623   1.025  2.9483  1.7279  2.7978
 1082SOL     OW14878   0.193   0.942  15.183 -0.5888  0.1588 -0.5768
 1082SOL    HW114879   0.256   1.012  15.199 -0.0773 -0.2595 -0.7350
 1082SOL    HW214880   0.222   0.874  15.244 -0.8619 -0.4684 -1.1407
 1083SOL     OW14881   4.070   1.335   5.202 -0.1140 -0.4821  0.1460
 1083SOL    HW114882   4.028   1.262   5.156 -0.5748  0.2421 -0.5805
 1083SOL    HW214883   4.159   1.336   5.166 -0.5438 -1.8857 -0.9470
 1084SOL     OW14884   2.208   2.478  16.404  0.3632 -0.1979 -0.1356
 1084SOL    HW114885   2.194   2.469  16.310 -2.7664 -2.0623  0.4968
 1084SOL    HW214886   2.279   2.542  16.404 -0.9888  1.3035 -0.1315
 1085SOL     OW14887   4.690   3.365  14.488  0.1077  0.2665 -0.1169
 1085SOL    HW114888   0.018   3.370  14.560  1.3100  1.8150 -1.2660
 1085SOL    HW214889   0.015   3.340  14.418  0.5871  0.8378  0.0832
 1086SOL     OW14890   0.838   4.407   6.250 -0.2312 -0.3547 -0.6105
 1086SOL    HW114891   0.765   4.470   6.251  1.1287  1.1896  0.2934
 1086SOL    HW214892   0.862   4.412   6.342  0.8655 -3.1925 -0.7405
 1087SOL     OW14893   3.699   1.803  14.766  0.1453  0.2570  0.1033
 1087SOL    HW114894   3.630   1.784  14.830  0.5107  0.4898  0.5604
 1087SOL    HW214895   3.772   1.754  14.803  0.7439  1.2559  0.2389
 1088SOL     OW14896   2.420   4.727   2.933  0.8512 -0.7151  0.3284
 1088SOL    HW114897   2.489   0.031   2.987  1.8129  1.4999 -2.4315
 1088SOL    HW214898   2.390   0.068   2.882 -0.1743 -0.3775  1.4163
 1089SOL     OW14899   0.865   2.410   4.015  0.3045 -0.4725  0.0120
 1089SOL    HW114900   0.804   2.374   4.079 -1.8737  1.7636 -0.7605
 1089SOL    HW214901   0.822   2.375   3.937  0.5880  0.4241 -0.5523
 1090SOL     OW14902   0.528   1.233   1.516  0.1194  0.0991  0.4291
 1090SOL    HW114903   0.504   1.303   1.455 -0.3107 -1.1681 -0.8424
 1090SOL    HW214904   0.459   1.243   1.582  1.2255 -0.2411  1.6249
 1091SOL     OW14905   2.232   3.908  10.716 -0.5695  0.2536  0.3279
 1091SOL    HW114906   2.310   3.869  10.756 -0.9078 -2.4237 -1.6440
 1091SOL    HW214907   2.158   3.859  10.750 -1.1951  0.1897 -1.1413
 1092SOL     OW14908   4.172   2.345   1.137  0.4946 -0.1779 -0.0792
 1092SOL    HW114909   4.259   2.305   1.143  2.5441  3.9916 -2.2414
 1092SOL    HW214910   4.174   2.394   1.055  0.0367  0.7529  0.4693
 1093SOL     OW14911   0.170   1.481   5.652 -0.0637 -0.0070  0.0168
 1093SOL    HW114912   0.219   1.460   5.732  0.9238 -0.2843 -0.6677
 1093SOL    HW214913   0.216   1.437   5.581  0.2620 -0.1970  0.3439
 1094SOL     OW14914   3.724   0.899  12.500 -0.0300  0.1477 -0.3653
 1094SOL    HW114915   3.716   0.837  12.427 -0.0238  0.1282 -0.3493
 1094SOL    HW214916   3.644   0.881  12.549 -0.2193 -0.6431 -0.9586
 1095SOL     OW14917   2.283   2.257   3.086  0.4404  0.2163 -0.3495
 1095SOL    HW114918   2.233   2.332   3.054 -0.8848 -1.5063 -2.3461
 1095SOL    HW214919   2.214   2.213   3.135 -0.8183  1.1648 -1.2704
 1096SOL     OW14920   0.805   2.538   2.070  0.5233 -0.1932  0.4119
 1096SOL    HW114921   0.791   2.628   2.042 -1.5253 -0.6798 -0.1333
 1096SOL    HW214922   0.800   2.489   1.988 -0.7656  1.2515 -0.3561
 1097SOL     OW14923   0.257   0.162   4.683 -0.2932  0.4850  0.4572
 1097SOL    HW114924   0.316   0.142   4.755 -0.6268 -0.1248  0.5708
 1097SOL    HW214925   0.275   0.255   4.670  2.4481 -0.1721 -0.3745
 1098SOL     OW14926   2.402   0.093   4.239 -0.2231  0.2882 -0.1150
 1098SOL    HW114927   2.315   0.132   4.233 -0.9557 -1.5623 -1.9725
 1098SOL    HW214928   2.400   0.041   4.158 -0.5722  2.6627 -1.6396
 1099SOL     OW14929   3.023   4.397   5.083  0.3967  0.1524  0.2851
 1099SOL    HW114930   3.057   4.459   5.018  0.0596 -0.2731 -0.3032
 1099SOL    HW214931   3.053   4.312   5.052 -1.0115 -0.9711  1.9940
 1100SOL     OW14932   4.052   2.550   7.242 -0.4006 -0.2465  0.4160
 1100SOL    HW114933   4.044   2.598   7.325  0.8641  2.4358 -0.9973
 1100SOL    HW214934   4.142   2.575   7.218 -0.2077 -2.2909 -0.9244
 1101SOL     OW14935   4.262   2.232  12.684  0.2981  0.5026 -0.4223
 1101SOL    HW114936   4.271   2.309  12.627  1.6934 -0.8615 -2.0162
 1101SOL    HW214937   4.322   2.249  12.756  0.1479 -1.5282  0.1726
 1102SOL     OW14938   0.159   2.025   4.145  0.2675  0.3218 -0.3399
 1102SOL    HW114939   0.178   2.012   4.052 -1.7150 -0.3124 -0.6752
 1102SOL    HW214940   0.064   2.037   4.134  0.1871  0.8598  1.0297
 1103SOL     OW14941   1.104   4.342  11.082 -0.1976  0.2755 -0.2645
 1103SOL    HW114942   1.084   4.426  11.124  2.5820  0.5207  0.5820
 1103SOL    HW214943   1.138   4.289  11.153 -0.1693  0.7297  0.0616
 1104SOL     OW14944   3.073   0.577   8.261 -0.0053 -0.2290  0.1971
 1104SOL    HW114945   3.063   0.669   8.285  1.3584 -0.2713  0.9311
 1104SOL    HW214946   3.102   0.590   8.171  0.0288 -0.3009  0.1979
 1105SOL     OW14947   3.206   0.883   1.244 -0.4322  0.1320  0.3149
 1105SOL    HW114948   3.146   0.938   1.194 -1.0134  1.9465  3.0387
 1105SOL    HW214949   3.149   0.806   1.248 -0.2392 -0.0555 -0.5150
 1106SOL     OW14950   4.379   0.347  13.806  0.2210  0.0718 -0.0030
 1106SOL    HW114951   4.429   0.389  13.736 -0.3798 -0.5769 -0.8158
 1106SOL    HW214952   4.296   0.395  13.802 -1.4497 -3.0359 -2.0378
 1107SOL     OW14953   1.977   3.146   6.083 -0.1581 -0.9167 -0.3127
 1107SOL    HW114954   2.020   3.111   6.161  3.5078 -0.5020 -2.1401
 1107SOL    HW214955   1.950   3.232   6.115 -2.5745 -2.0359  0.6255
 1108SOL     OW14956   3.634   0.241   8.283 -0.1030 -0.1482 -0.0885
 1108SOL    HW114957   3.573   0.301   8.326  0.8847  1.2693 -0.6531
 1108SOL    HW214958   3.575   0.223   8.209 -0.8427  1.3786  0.1197
 1109SOL     OW14959   4.482   4.113   8.835 -0.1914 -0.3290 -0.0516
 1109SOL    HW114960   4.462   4.091   8.744 -0.0201  0.1637 -0.2091
 1109SOL    HW214961   4.551   4.179   8.823 -1.8748  0.8551 -3.0774
 1110SOL     OW14962   2.554   4.398  12.727 -0.1410  0.1474  0.6261
 1110SOL    HW114963   2.518   4.371  12.812 -0.2026  0.9663  0.8650
 1110SOL    HW214964   2.641   4.360  12.731 -0.4798 -0.6399  0.4095
 1111SOL     OW14965   4.593   2.064   2.347 -0.0106  0.4087 -0.4666
 1111SOL    HW114966   4.562   2.008   2.276  0.4991 -0.1882 -0.2174
 1111SOL    HW214967   4.683   2.034   2.343 -0.9115 -1.9302 -2.7301
 1112SOL     OW14968   4.457   3.508   1.163  0.4292 -0.4371  0.4432
 1112SOL    HW114969   4.403   3.584   1.182  0.1334 -0.9832  1.7954
 1112SOL    HW214970   4.402   3.429   1.157  0.2129 -0.2264 -0.3426
 1113SOL     OW14971   1.691   3.571   3.383 -0.0792  0.5918 -0.8568
 1113SOL    HW114972   1.754   3.513   3.341 -2.0895 -1.1170 -1.4978
 1113SOL    HW214973   1.742   3.648   3.408  2.0388 -1.3594  0.9373
 1114SOL     OW14974   0.369   1.130  13.434  0.1542  0.2331  0.3198
 1114SOL    HW114975   0.364   1.052  13.490 -0.7488  1.0128  1.3245
 1114SOL    HW214976   0.303   1.116  13.366 -0.5258 -0.8138  1.2009
 1115SOL     OW14977   2.513   2.580   1.855  0.0070 -0.4081 -0.3915
 1115SOL    HW114978   2.589   2.565   1.800  1.1747  1.8376  0.6203
 1115SOL    HW214979   2.517   2.675   1.853 -1.4259 -0.3374  0.0755
 1116SOL     OW14980   2.828   2.078  14.661  0.0408 -0.5636 -0.2927
 1116SOL    HW114981   2.795   2.080  14.572 -0.6491 -1.8137 -0.0689
 1116SOL    HW214982   2.759   2.049  14.721 -0.9830  1.3249 -0.5464
 1117SOL     OW14983   2.167   2.142   4.539 -0.0225  0.1121 -0.3979
 1117SOL    HW114984   2.085   2.109   4.575 -0.2014  1.2472  0.2241
 1117SOL    HW214985   2.160   2.237   4.548  1.9701  0.3610 -1.2033
 1118SOL     OW14986   4.521   1.688  13.191  0.1386 -0.2426 -0.0538
 1118SOL    HW114987   4.427   1.706  13.190  0.3491  0.6061 -2.5647
 1118SOL    HW214988   4.537   1.715  13.282 -3.9125  3.3905 -0.4191
 1119SOL     OW14989   1.428   0.613   4.076 -0.3891  0.2405  0.3991
 1119SOL    HW114990   1.382   0.549   4.022  0.3237  0.0864 -0.0236
 1119SOL    HW214991   1.462   0.676   4.013 -1.2071  0.0555 -0.2205
 1120SOL     OW14992   0.586   0.045   0.189  0.5767 -0.9260  0.2697
 1120SOL    HW114993   0.616   0.133   0.214 -1.1392 -0.2599  0.0615
 1120SOL    HW214994   0.538   0.057   0.107  0.1721 -0.4541  0.5720
 1121SOL     OW14995   0.122   3.735   8.050 -0.2049  0.3967  0.8772
 1121SOL    HW114996   0.028   3.754   8.038 -0.3080 -1.8168 -1.7492
 1121SOL    HW214997   0.150   3.675   7.981 -0.4546 -0.8350  1.8360
 1122SOL     OW14998   3.484   3.578  15.030  0.7860  0.1275  0.8381
 1122SOL    HW114999   3.406   3.532  15.061  0.3078  1.7473  2.0346
 1122SOL    HW215000   3.548   3.554  15.097  3.1973  0.6479 -1.2590
 1123SOL     OW15001   2.209   4.467  16.206 -0.1263  0.0088 -0.2187
 1123SOL    HW115002   2.174   4.385  16.242  0.2206 -0.7927 -1.7170
 1123SOL    HW215003   2.203   4.449  16.112  1.1794 -2.1527  0.0958
 1124SOL     OW15004   0.693   2.739   7.334 -0.4915 -0.5709  0.8012
 1124SOL    HW115005   0.610   2.722   7.378 -1.0065  3.6023  1.4423
 1124SOL    HW215006   0.676   2.814   7.276 -0.0353 -1.2108 -0.1648
 1125SOL     OW15007   1.956   1.396   5.410 -0.0333 -0.1810  0.0718
 1125SOL    HW115008   1.890   1.374   5.476 -0.3072  2.2759  0.6385
 1125SOL    HW215009   1.958   1.491   5.422 -0.0279 -0.3047  1.0578
 1126SOL     OW15010   1.119   1.971  15.681 -0.0032 -0.4492  0.3135
 1126SOL    HW115011   1.090   2.056  15.647  3.2777  0.4136 -0.2740
 1126SOL    HW215012   1.036   1.937  15.713  0.0911  0.8534  1.9770
 1127SOL     OW15013   1.137   1.803   1.029  0.1382  0.4628 -0.1542
 1127SOL    HW115014   1.199   1.836   0.964  2.3626 -0.0544  1.6672
 1127SOL    HW215015   1.055   1.848   1.012 -0.1926 -0.2159 -0.3829
 1128SOL     OW15016   2.505   4.445   6.001  0.2398  0.4816  0.8481
 1128SOL    HW115017   2.564   4.373   5.980  0.7165  0.4373  2.3202
 1128SOL    HW215018   2.502   4.441   6.097  0.6527  0.2927  0.8503
 1129SOL     OW15019   2.572   0.863   7.234 -0.2962  0.2259  0.1246
 1129SOL    HW115020   2.479   0.857   7.258 -0.0329  1.1688  1.3724
 1129SOL    HW215021   2.602   0.778   7.266  0.3104  0.3569 -0.0891
 1130SOL     OW15022   0.477   4.041   3.500 -0.5170 -0.4621  0.4004
 1130SOL    HW115023   0.503   3.950   3.514 -1.0509 -0.6497  0.1415
 1130SOL    HW215024   0.484   4.088   3.584  0.0893  0.4311 -0.1537
 1131SOL     OW15025   2.680   1.807   8.686  0.6926  0.5409 -0.8776
 1131SOL    HW115026   2.667   1.797   8.592 -2.0543  0.3879 -0.4737
 1131SOL    HW215027   2.757   1.864   8.681  0.7978  0.2252 -2.8846
 1132SOL     OW15028   3.081   0.438   3.113  0.2457  0.4629  0.8326
 1132SOL    HW115029   3.129   0.366   3.154 -2.4124 -0.0008  3.1301
 1132SOL    HW215030   3.134   0.435   3.034  0.2989  0.5847  0.8653
 1133SOL     OW15031   1.587   0.369   2.922 -0.7259  0.1066 -0.1407
 1133SOL    HW115032   1.594   0.300   2.988  2.0980  0.0520 -0.5131
 1133SOL    HW215033   1.524   0.430   2.961 -1.0167  0.1942 -0.7547
 1134SOL     OW15034   0.209   0.254   6.629  0.4827  0.7116 -0.7489
 1134SOL    HW115035   0.132   0.311   6.624 -0.0338  0.2701  2.0115
 1134SOL    HW215036   0.282   0.305   6.593  0.6107  0.6405 -0.5882
 1135SOL     OW15037   2.075   3.413  12.358 -0.7944 -0.3755 -0.1079
 1135SOL    HW115038   2.032   3.378  12.435 -1.9784  3.3140  0.9106
 1135SOL    HW215039   2.004   3.470  12.329  0.9972  2.1041  0.3847
 1136SOL     OW15040   3.638   4.098   4.738 -0.3946 -0.0235 -0.0801
 1136SOL    HW115041   3.652   4.160   4.667  0.7181  3.3789  3.0981
 1136SOL    HW215042   3.705   4.121   4.802 -1.8640  2.0319  0.7168
 1137SOL     OW15043   2.414   4.663   4.448  0.3708  0.0763  0.1816
 1137SOL    HW115044   2.341   4.611   4.413 -0.6941  1.0151  0.9905
 1137SOL    HW215045   2.421   4.726   4.375 -0.4427  0.6322  0.5809
 1138SOL     OW15046   2.304   3.880   7.010 -0.1078  0.7531 -0.3389
 1138SOL    HW115047   2.288   3.948   6.946  2.0210  1.1996 -0.3736
 1138SOL    HW215048   2.240   3.890   7.081  1.7607  1.8058  1.2139
 1139SOL     OW15049   3.393   2.112  15.588 -0.5290 -0.1489  0.4819
 1139SOL    HW115050   3.317   2.157  15.624 -0.2619 -0.6194  1.6461
 1139SOL    HW215051   3.425   2.179  15.529 -0.4620  0.3407  1.0728
 1140SOL     OW15052   3.086   4.481   4.003  0.0049  0.1060 -0.2280
 1140SOL    HW115053   3.005   4.508   3.959 -0.1097 -1.1838 -0.7910
 1140SOL    HW215054   3.086   4.388   3.982 -0.0129  0.3450 -1.2881
 1141SOL     OW15055   3.919   4.366   3.500  0.0179 -0.0926  0.6380
 1141SOL    HW115056   3.955   4.311   3.569  1.8583  0.3482  0.0493
 1141SOL    HW215057   3.898   4.296   3.438  3.2901  0.1747 -0.8247
 1142SOL     OW15058   0.204   1.740   9.283  0.2900 -0.5200 -0.8790
 1142SOL    HW115059   0.130   1.799   9.267 -1.5195 -2.4682  0.3319
 1142SOL    HW215060   0.182   1.684   9.208  0.3536 -1.2481 -0.3524
 1143SOL     OW15061   0.302   3.146   0.158 -0.4386  0.5751  0.0787
 1143SOL    HW115062   0.367   3.166   0.091 -0.6994 -1.7189 -0.8374
 1143SOL    HW215063   0.287   3.231   0.200  0.3093  1.3585 -1.2531
 1144SOL     OW15064   2.660   1.482   4.991  0.3484 -0.4782  0.1238
 1144SOL    HW115065   2.574   1.462   4.954 -0.0516  2.2981 -0.4650
 1144SOL    HW215066   2.646   1.530   5.073  1.5257 -0.7609  0.4966
 1145SOL     OW15067   2.295   2.615  15.934  0.0419  0.5378 -0.3326
 1145SOL    HW115068   2.387   2.589  15.926 -0.2040 -0.4723  0.0739
 1145SOL    HW215069   2.310   2.705  15.961  1.7858  0.8582 -2.4228
 1146SOL     OW15070   4.524   3.816   6.825  0.1789 -0.0085 -0.7426
 1146SOL    HW115071   4.462   3.782   6.889  0.4803  2.2697  0.7778
 1146SOL    HW215072   4.612   3.800   6.861 -0.4869  0.0808  0.9196
 1147SOL     OW15073   4.214   1.044   8.169 -0.1959 -0.6447  0.1500
 1147SOL    HW115074   4.166   0.963   8.154 -1.0536 -0.4609  1.8459
 1147SOL    HW215075   4.174   1.092   8.096  0.6926 -0.3940 -0.1737
 1148SOL     OW15076   3.884   0.518  16.523  0.1609 -0.5299  0.5547
 1148SOL    HW115077   3.940   0.442  16.539 -0.6840 -0.7312  2.6258
 1148SOL    HW215078   3.870   0.541  16.615  1.0313 -0.4744  0.6735
 1149SOL     OW15079   4.186   0.049  14.967  0.3056 -0.2527 -0.0004
 1149SOL    HW115080   4.243   0.100  14.909 -1.1587  0.4515 -0.8398
 1149SOL    HW215081   4.100   0.091  14.961 -0.8509 -2.6263  0.0557
 1150SOL     OW15082   1.979   3.551   6.900 -0.2906 -0.1034 -0.3657
 1150SOL    HW115083   1.949   3.625   6.952  1.0791 -0.9784  1.7072
 1150SOL    HW215084   2.058   3.592   6.863  0.5990 -0.9720  0.5524
 1151SOL     OW15085   3.458   0.391  10.556 -0.9212  0.1520 -0.2195
 1151SOL    HW115086   3.529   0.455  10.564  0.7597 -1.9513  1.3533
 1151SOL    HW215087   3.506   0.315  10.524 -1.7155 -1.0245  1.3882
 1152SOL     OW15088   3.396   3.330   3.668 -0.3094  0.1052 -0.0661
 1152SOL    HW115089   3.369   3.243   3.637 -0.2722 -0.9497  2.8805
 1152SOL    HW215090   3.314   3.355   3.711  0.9516  0.0731  2.3562
 1153SOL     OW15091   0.610   4.384  15.006 -0.2514 -0.6141  0.4023
 1153SOL    HW115092   0.584   4.383  14.914 -0.6925  0.6816  0.5055
 1153SOL    HW215093   0.525   4.414  15.038 -0.4413 -0.6200 -0.0982
 1154SOL     OW15094   4.717   4.197   2.669 -0.1150 -0.6262 -0.3845
 1154SOL    HW115095   4.655   4.126   2.648 -0.8853 -0.3700  0.9829
 1154SOL    HW215096   0.005   4.163   2.756  2.0034  2.1760  0.1659
 1155SOL     OW15097   3.068   2.298  13.154 -0.7619 -0.1956 -0.0746
 1155SOL    HW115098   3.037   2.324  13.067  0.5397  0.0013 -0.4823
 1155SOL    HW215099   3.161   2.283  13.138  0.0598  0.5872  3.8540
 1156SOL     OW15100   2.112   0.895  17.068  0.3746  0.2433 -0.0838
 1156SOL    HW115101   2.168   0.824  17.037  2.5844  0.6533  2.9434
 1156SOL    HW215102   2.058   0.834  17.117  0.3963  0.2163 -0.0931
 1157SOL     OW15103   0.453   0.474   4.427 -0.3456  0.5071 -0.3611
 1157SOL    HW115104   0.439   0.547   4.367 -1.1093  1.3470  0.8324
 1157SOL    HW215105   0.548   0.483   4.439 -0.0743  1.1127 -2.9549
 1158SOL     OW15106   2.054   1.287   5.907 -0.7213  0.9181 -0.4020
 1158SOL    HW115107   2.111   1.252   5.976 -1.7958 -0.5733 -0.2639
 1158SOL    HW215108   2.010   1.361   5.949  0.0599  2.9660 -3.1819
 1159SOL     OW15109   1.385   2.372  16.020 -0.7989  0.3426  0.2434
 1159SOL    HW115110   1.295   2.368  15.989 -1.1453  0.4354  1.2336
 1159SOL    HW215111   1.432   2.419  15.950  0.2687 -0.0961  0.6589
 1160SOL     OW15112   1.071   4.351  12.652 -0.1131  0.0514 -0.5800
 1160SOL    HW115113   1.032   4.429  12.690  1.2186  0.1354  0.6067
 1160SOL    HW215114   0.989   4.301  12.645 -1.4318  2.1657 -0.1878
 1161SOL     OW15115   1.588   2.202   7.373 -0.2874  0.2770  0.1300
 1161SOL    HW115116   1.579   2.294   7.398 -1.2833  0.0389  0.6343
 1161SOL    HW215117   1.679   2.207   7.343 -0.6857  3.9344 -0.3744
 1162SOL     OW15118   2.460   4.475   2.116 -0.2044  0.2696  0.0234
 1162SOL    HW115119   2.443   4.442   2.205 -2.0732 -0.6094 -0.6470
 1162SOL    HW215120   2.508   4.557   2.130  0.9772 -0.6020  1.0510
 1163SOL     OW15121   0.184   0.391  17.374 -0.6379  0.0081 -0.3686
 1163SOL    HW115122   0.169   0.354  17.461 -0.0321  0.9979  0.1576
 1163SOL    HW215123   0.167   0.324  17.308 -1.4634  0.4235 -0.5692
 1164SOL     OW15124   4.292   0.444   8.161  0.1706  0.1448  0.2338
 1164SOL    HW115125   4.259   0.441   8.071 -1.8938  1.3832  0.9481
 1164SOL    HW215126   4.288   0.535   8.190 -0.2886 -0.3393  1.6647
 1165SOL     OW15127   0.756   1.603   7.069  0.3510  0.3383  0.1480
 1165SOL    HW115128   0.697   1.678   7.058  1.2924  0.9657 -0.6818
 1165SOL    HW215129   0.777   1.598   7.162 -0.2403  1.5731  0.3445
 1166SOL     OW15130   1.594   1.003  11.497 -0.3233 -0.7054 -0.6049
 1166SOL    HW115131   1.608   0.941  11.568 -1.7406 -0.0108  0.2854
 1166SOL    HW215132   1.515   1.051  11.523 -0.2918 -1.9225  1.7385
 1167SOL     OW15133   1.652   2.712   6.301 -0.3328 -0.1175 -1.0216
 1167SOL    HW115134   1.648   2.734   6.208  2.3616  1.1088 -0.8332
 1167SOL    HW215135   1.746   2.702   6.318 -0.6874  0.0522  0.9505
 1168SOL     OW15136   4.711   2.446   6.200  0.3340 -0.7956 -0.0848
 1168SOL    HW115137   4.727   2.469   6.109  1.0330 -2.9474 -0.5029
 1168SOL    HW215138   0.055   2.472   6.249 -0.0641  0.5038 -0.1438
 1169SOL     OW15139   4.259   3.345   8.393 -0.2048  0.2405 -0.4945
 1169SOL    HW115140   4.242   3.291   8.316  1.3767  0.5621 -1.0785
 1169SOL    HW215141   4.215   3.428   8.376 -1.1730 -0.2363 -0.3567
 1170SOL     OW15142   4.058   1.396   8.427 -0.6914  0.4208  0.1296
 1170SOL    HW115143   4.125   1.328   8.427  0.2983  1.4056  1.7222
 1170SOL    HW215144   4.083   1.445   8.348 -1.1768 -1.0454 -0.9178
 1171SOL     OW15145   0.594   1.282   1.114  0.1728  0.6141 -0.4241
 1171SOL    HW115146   0.604   1.351   1.179  0.5270  1.1634 -1.0604
 1171SOL    HW215147   0.684   1.265   1.086 -0.0120  0.3601 -0.8561
 1172SOL     OW15148   1.462   1.517   8.674 -0.4844  0.4128  0.7455
 1172SOL    HW115149   1.511   1.452   8.624  0.0198  0.6027  0.9970
 1172SOL    HW215150   1.523   1.590   8.683 -0.9276  0.7892  0.6722
 1173SOL     OW15151   3.163   2.553   9.784 -0.6862 -0.4187 -0.8761
 1173SOL    HW115152   3.255   2.545   9.811 -0.7949  0.3769 -0.2865
 1173SOL    HW215153   3.165   2.519   9.695  1.4260  1.8629 -1.7203
 1174SOL     OW15154   2.757   1.344   9.692 -0.1010  0.0396 -0.4664
 1174SOL    HW115155   2.683   1.345   9.631 -0.2477 -1.8263 -0.3403
 1174SOL    HW215156   2.762   1.438   9.709 -2.4651 -0.2486  1.8233
 1175SOL     OW15157   2.729   4.236   4.061 -0.2214 -0.5356  0.0684
 1175SOL    HW115158   2.775   4.164   4.018  1.3940  1.7821 -2.0989
 1175SOL    HW215159   2.684   4.270   3.983 -0.5741  1.6437  1.2457
 1176SOL     OW15160   4.481   0.190  10.646  0.1080  0.3477  0.2613
 1176SOL    HW115161   4.437   0.179  10.561 -2.4352  0.5761  1.5527
 1176SOL    HW215162   4.419   0.149  10.706  1.5097 -3.0332 -0.6256
 1177SOL     OW15163   2.946   3.307   0.723 -0.0425 -0.0615 -0.0479
 1177SOL    HW115164   2.885   3.237   0.700 -0.7788  0.5710 -0.0444
 1177SOL    HW215165   2.953   3.293   0.817  1.8204 -1.0363 -0.3346
 1178SOL     OW15166   3.482   3.195  16.610  0.6243  0.5631 -0.3730
 1178SOL    HW115167   3.425   3.254  16.561  2.3481  0.5337 -2.3840
 1178SOL    HW215168   3.432   3.165  16.687  2.3057 -1.4225 -0.0530
 1179SOL     OW15169   2.377   2.344  15.084 -0.4554 -0.0313  0.1279
 1179SOL    HW115170   2.284   2.364  15.090 -0.4740 -0.3506  0.8359
 1179SOL    HW215171   2.420   2.415  15.132 -2.4311  0.4427  1.1919
 1180SOL     OW15172   2.625   2.625   1.048 -0.6129 -0.3469 -0.0532
 1180SOL    HW115173   2.630   2.604   1.141 -1.8391 -1.0081 -0.1291
 1180SOL    HW215174   2.535   2.658   1.044 -0.1857  0.6990 -1.2391
 1181SOL     OW15175   4.663   0.367   5.640 -0.1914  0.1716 -0.5672
 1181SOL    HW115176   4.654   0.281   5.680 -1.4294  0.2232 -0.7393
 1181SOL    HW215177   4.590   0.408   5.686 -0.8794  0.6477 -2.0978
 1182SOL     OW15178   3.867   3.572   3.430 -0.9927  0.2700  0.1300
 1182SOL    HW115179   3.811   3.503   3.467 -1.9712  2.1259  2.1276
 1182SOL    HW215180   3.806   3.624   3.379  0.5075  2.5321  0.6419
 1183SOL     OW15181   1.960   0.126   4.093  0.4650  0.4124 -0.1966
 1183SOL    HW115182   2.000   0.171   4.019 -2.1516  2.4697 -0.3403
 1183SOL    HW215183   2.033   0.133   4.156  2.0867 -0.0049 -2.0234
 1184SOL     OW15184   2.823   1.414   7.492  0.5254  0.1829 -0.1335
 1184SOL    HW115185   2.906   1.381   7.526  1.5398  2.0168 -0.8813
 1184SOL    HW215186   2.767   1.340   7.516  2.0937 -1.6160 -2.0574
 1185SOL     OW15187   4.020   3.725   6.508 -0.4478  0.4821  0.5247
 1185SOL    HW115188   4.107   3.700   6.476 -0.5294  2.0762 -0.9612
 1185SOL    HW215189   4.021   3.820   6.499  0.6673  0.3380 -1.0306
 1186SOL     OW15190   3.135   2.785   9.184 -0.0477 -0.3277 -0.5882
 1186SOL    HW115191   3.137   2.879   9.165  2.8344 -0.9657 -3.4346
 1186SOL    HW215192   3.223   2.761   9.156  0.3988  1.4174 -0.6807
 1187SOL     OW15193   3.947   2.383  14.044  0.2044 -0.1357 -0.0555
 1187SOL    HW115194   3.896   2.461  14.021 -1.1020 -1.4587 -1.7568
 1187SOL    HW215195   3.941   2.329  13.964  0.8569  0.2538 -0.3646
 1188SOL     OW15196   2.038   1.102  10.404 -0.0068 -0.0418  0.3161
 1188SOL    HW115197   2.048   1.007  10.408 -0.4746 -0.0674  0.9090
 1188SOL    HW215198   2.078   1.134  10.485 -1.2232  2.6982 -0.1528
 1189SOL     OW15199   1.487   3.851  11.549 -0.4012 -0.3448  0.1618
 1189SOL    HW115200   1.483   3.807  11.464 -2.9584 -0.8566  0.5278
 1189SOL    HW215201   1.428   3.926  11.545  0.8724  0.5942 -0.9025
 1190SOL     OW15202   0.750   1.415   3.152  0.0871  0.2319  0.1668
 1190SOL    HW115203   0.753   1.511   3.148  0.7017  0.0899 -2.7928
 1190SOL    HW215204   0.657   1.396   3.141 -0.2579  2.0360 -0.0709
 1191SOL     OW15205   4.501   2.833   3.293 -0.3852  0.0169 -0.2338
 1191SOL    HW115206   4.546   2.765   3.243  2.3611  3.9544 -2.9837
 1191SOL    HW215207   4.513   2.807   3.385 -4.1544 -0.1244  0.2392
 1192SOL     OW15208   1.773   1.600   9.363 -0.2227 -0.0231 -0.1165
 1192SOL    HW115209   1.682   1.585   9.338  0.3968 -1.5255 -1.4625
 1192SOL    HW215210   1.804   1.569   9.278 -0.3409  0.4074 -0.3195
 1193SOL     OW15211   0.589   3.548  11.636 -0.4198  0.5449 -0.2052
 1193SOL    HW115212   0.549   3.477  11.586  0.7088  0.5191 -1.0743
 1193SOL    HW215213   0.506   3.590  11.659 -1.6837 -0.3734 -3.0766
 1194SOL     OW15214   4.307   1.117   7.309 -0.8435  0.5658 -0.5470
 1194SOL    HW115215   4.387   1.063   7.309 -1.6068 -0.5836 -0.2283
 1194SOL    HW215216   4.319   1.191   7.250  0.1988 -0.9039 -2.1849
 1195SOL     OW15217   4.253   3.928   4.357 -0.1165 -0.4981  0.1887
 1195SOL    HW115218   4.290   4.007   4.396  2.1662 -1.7318  0.5550
 1195SOL    HW215219   4.161   3.951   4.367  0.3687  1.1424  0.8517
 1196SOL     OW15220   0.463   3.200   1.192 -0.3044  0.4425  0.5289
 1196SOL    HW115221   0.380   3.195   1.145 -0.3570 -0.0056  0.6754
 1196SOL    HW215222   0.510   3.142   1.131  0.5472  0.2838  1.3362
 1197SOL     OW15223   0.783   3.824   3.326  0.1288 -0.1759  0.0132
 1197SOL    HW115224   0.787   3.899   3.266 -1.0283  0.9128  1.2863
 1197SOL    HW215225   0.867   3.833   3.371 -0.4501  0.0877  1.0397
 1198SOL     OW15226   2.548   4.464   5.745  0.2592 -0.4508  0.4852
 1198SOL    HW115227   2.515   4.441   5.832 -1.0863  0.7007  0.2765
 1198SOL    HW215228   2.619   4.401   5.742  2.1067  1.7864 -3.1518
 1199SOL     OW15229   1.651   1.054   3.516 -0.2544 -0.2550  0.5582
 1199SOL    HW115230   1.558   1.070   3.497 -0.5568 -1.9733  0.5780
 1199SOL    HW215231   1.653   1.086   3.606  1.3343  0.2043  0.3559
 1200SOL     OW15232   1.914   0.304   3.252  0.6392 -0.7029  0.0934
 1200SOL    HW115233   1.951   0.260   3.176 -0.4453  2.2905 -2.1636
 1200SOL    HW215234   1.939   0.391   3.221  1.5987 -1.3166 -0.7995
 1201SOL     OW15235   1.363   1.757   5.171 -0.5206  0.0141 -0.5018
 1201SOL    HW115236   1.295   1.696   5.199 -0.5665  1.0976  1.7129
 1201SOL    HW215237   1.440   1.701   5.173  0.9856  2.1202  0.5869
 1202SOL     OW15238   0.935   4.717  14.245  0.0247 -0.1728 -0.2660
 1202SOL    HW115239   0.859   0.033  14.273  0.6713 -1.4092  3.6477
 1202SOL    HW215240   0.923   4.721  14.150 -2.2633 -0.8697 -0.0076
 1203SOL     OW15241   4.111   3.340   8.874 -0.2566 -0.2012 -0.0068
 1203SOL    HW115242   4.092   3.423   8.919 -0.9117 -0.9090  1.0182
 1203SOL    HW215243   4.061   3.353   8.794 -1.4955 -1.6709  0.5376
 1204SOL     OW15244   4.170   1.986   9.935 -0.1442 -0.1599 -0.3295
 1204SOL    HW115245   4.208   1.970  10.021  3.2186  1.5451 -1.5084
 1204SOL    HW215246   4.234   1.935   9.885 -1.1484 -1.8041  0.0654
 1205SOL     OW15247   0.491   1.169   4.423  0.2632 -0.2337  0.0860
 1205SOL    HW115248   0.462   1.097   4.479 -0.2928  0.0649  0.1789
 1205SOL    HW215249   0.548   1.218   4.482 -1.9299  1.6538  0.6541
 1206SOL     OW15250   1.393   3.851   1.798 -0.2727 -0.1819  0.0853
 1206SOL    HW115251   1.374   3.944   1.815 -0.4375 -0.1450 -0.3146
 1206SOL    HW215252   1.458   3.864   1.729  1.7100  0.1217  2.0033
 1207SOL     OW15253   2.909   2.970   7.034  0.5497 -0.7038  0.3178
 1207SOL    HW115254   2.876   2.985   7.123 -0.0796 -1.1392  0.1542
 1207SOL    HW215255   2.992   2.925   7.047  1.6357  1.0657 -0.4851
 1208SOL     OW15256   1.378   4.167   5.646 -0.4714 -0.6059 -0.5000
 1208SOL    HW115257   1.411   4.253   5.673  0.7340 -1.0206 -0.6731
 1208SOL    HW215258   1.329   4.187   5.566  1.1956 -2.3534 -1.9591
 1209SOL     OW15259   1.146   1.468  13.924 -0.8875  0.2456 -0.1244
 1209SOL    HW115260   1.151   1.381  13.884 -3.2375  0.6430 -1.2443
 1209SOL    HW215261   1.237   1.485  13.950 -1.2055  1.4295  0.1861
 1210SOL     OW15262   1.668   3.170   9.008 -0.2849 -0.1397 -0.3340
 1210SOL    HW115263   1.672   3.258   9.045  0.8519  0.2236 -1.3048
 1210SOL    HW215264   1.577   3.148   8.988  0.1169 -0.7635 -1.4820
 1211SOL     OW15265   0.842   2.041   5.468 -0.0314  0.0297  0.9822
 1211SOL    HW115266   0.756   2.028   5.508 -1.5869  1.6939 -1.8579
 1211SOL    HW215267   0.898   1.968   5.496  0.4757 -0.1956 -0.6681
 1212SOL     OW15268   4.605   3.531  16.798  0.4951  0.2286  0.5704
 1212SOL    HW115269   4.520   3.515  16.756  0.7986  0.0917  0.0006
 1212SOL    HW215270   4.659   3.546  16.721 -0.5868 -0.7414 -0.3880
 1213SOL     OW15271   3.029   2.639   8.190  0.3776  0.3040  0.0882
 1213SOL    HW115272   2.949   2.642   8.244  0.1869  0.2195 -0.1890
 1213SOL    HW215273   2.993   2.674   8.109  3.0613 -0.6656 -1.5021
 1214SOL     OW15274   2.487   0.336   4.978 -0.6547  0.1498 -0.4992
 1214SOL    HW115275   2.527   0.252   5.000 -0.9795  0.1903  0.2558
 1214SOL    HW215276   2.552   0.390   5.023 -0.6401 -1.8071  1.8273
 1215SOL     OW15277   3.141   2.590   6.658  1.1121  0.1725  0.3936
 1215SOL    HW115278   3.191   2.541   6.724  0.8617  1.4486  1.5351
 1215SOL    HW215279   3.222   2.620   6.616 -0.1585 -0.1744 -2.2501
 1216SOL     OW15280   3.226   2.050  12.288  0.1037  0.5451 -0.1357
 1216SOL    HW115281   3.167   2.085  12.355 -0.0434 -0.9418  0.4905
 1216SOL    HW215282   3.307   2.097  12.310 -0.5751  1.0117  1.3503
 1217SOL     OW15283   0.079   0.692   7.877  0.1609 -0.1370 -0.0180
 1217SOL    HW115284   0.032   0.715   7.957  0.5475 -2.0358  0.7665
 1217SOL    HW215285   0.051   0.600   7.874 -1.1054  0.1598  2.7704
 1218SOL     OW15286   3.579   3.637   0.801  0.0665  0.0049 -0.2121
 1218SOL    HW115287   3.575   3.541   0.797  1.6188 -0.1618  2.2452
 1218SOL    HW215288   3.507   3.665   0.745  1.5884 -0.1659 -2.2666
 1219SOL     OW15289   3.167   4.676   7.394  0.1341 -0.1789 -0.0458
 1219SOL    HW115290   3.105   4.608   7.420 -0.8929  1.2300  1.2146
 1219SOL    HW215291   3.133   0.017   7.443  1.2316  1.1639 -1.3364
 1220SOL     OW15292   4.054   3.600   9.065 -0.0252  0.3982  0.6311
 1220SOL    HW115293   4.089   3.658   8.998 -1.3315 -0.3762 -0.7368
 1220SOL    HW215294   4.028   3.661   9.133 -1.7492 -1.5262  1.7086
 1221SOL     OW15295   4.671   2.861  15.565 -0.4398  0.0132 -0.3276
 1221SOL    HW115296   4.675   2.954  15.545 -1.2364  0.4845  1.6524
 1221SOL    HW215297   4.581   2.843  15.538  0.2688 -1.0029 -1.9960
 1222SOL     OW15298   3.287   2.308   2.017 -0.1254 -0.1016  0.0093
 1222SOL    HW115299   3.287   2.402   1.998 -2.3658 -0.2660 -0.8196
 1222SOL    HW215300   3.194   2.295   2.002 -0.4954  2.6303 -0.0669
 1223SOL     OW15301   4.398   0.631   7.901 -0.1143 -0.0685  0.0626
 1223SOL    HW115302   4.406   0.536   7.889  0.9616 -0.1205  1.2289
 1223SOL    HW215303   4.412   0.641   7.995  0.3305  1.8020 -0.2194
 1224SOL     OW15304   1.221   2.816   4.615  0.3161  0.0028 -0.9124
 1224SOL    HW115305   1.128   2.795   4.602  0.3006  0.9702 -2.4115
 1224SOL    HW215306   1.249   2.866   4.538  1.0736  0.9725 -0.0130
 1225SOL     OW15307   3.563   3.664   2.808  0.3777  0.5460 -0.1264
 1225SOL    HW115308   3.479   3.709   2.814  0.7526  1.0921  0.9118
 1225SOL    HW215309   3.567   3.622   2.894  0.0659  0.4017 -0.1810
 1226SOL     OW15310   0.585   1.471   0.558  0.3097 -0.0715  0.6675
 1226SOL    HW115311   0.553   1.555   0.526 -1.0243 -1.0665 -0.6075
 1226SOL    HW215312   0.508   1.430   0.596 -0.8652 -0.2454 -1.8985
 1227SOL     OW15313   3.700   4.154  17.244 -0.0733 -0.7060  0.6083
 1227SOL    HW115314   3.631   4.195  17.296  0.2691  0.9226 -0.2150
 1227SOL    HW215315   3.674   4.063  17.225  0.3299 -0.7163  0.0917
 1228SOL     OW15316   4.131   2.053   4.018 -0.3338 -0.2913 -0.1353
 1228SOL    HW115317   4.067   1.990   4.050  1.9440 -3.5099 -1.8948
 1228SOL    HW215318   4.118   2.066   3.924 -1.6042  1.7517  0.3360
 1229SOL     OW15319   0.106   3.405  15.767 -0.3962  0.4495  0.1903
 1229SOL    HW115320   0.137   3.338  15.707 -1.0436 -1.8850  2.4226
 1229SOL    HW215321   0.073   3.353  15.841 -0.0005  0.3618  0.3088
 1230SOL     OW15322   0.555   2.814   2.839  0.2184 -0.2018  0.4269
 1230SOL    HW115323   0.476   2.859   2.809  0.3166 -1.0802 -1.1548
 1230SOL    HW215324   0.561   2.735   2.785  1.3711  0.1071  0.1172
 1231SOL     OW15325   0.877   1.895   3.427  0.0961 -0.0792  0.0102
 1231SOL    HW115326   0.827   1.822   3.464 -0.0301  0.5758  1.1285
 1231SOL    HW215327   0.967   1.863   3.437  0.7719  2.0862  0.8278
 1232SOL     OW15328   4.620   3.155   3.002 -0.2197  0.5481 -0.5397
 1232SOL    HW115329   4.571   3.129   3.080 -1.8107 -0.8190 -1.9770
 1232SOL    HW215330   4.572   3.105   2.935  0.7011 -0.9028 -0.0951
 1233SOL     OW15331   3.040   0.743   5.578  0.2302  0.0754 -0.0683
 1233SOL    HW115332   3.034   0.811   5.645 -1.9256  0.7822 -0.9731
 1233SOL    HW215333   3.135   0.746   5.566  0.4279  0.9613  1.6827
 1234SOL     OW15334   2.559   2.397  12.681  0.1250 -0.1754  0.1911
 1234SOL    HW115335   2.488   2.350  12.637 -0.0066 -0.1728  0.4009
 1234SOL    HW215336   2.631   2.338  12.659  1.4080  0.9114  1.4575
 1235SOL     OW15337   1.119   3.065   1.516 -0.1828  0.0867 -0.3570
 1235SOL    HW115338   1.167   3.039   1.594 -0.7840  0.9475  0.3018
 1235SOL    HW215339   1.029   3.077   1.547 -0.2193  3.0719 -1.6585
 1236SOL     OW15340   4.577   4.651   4.032  0.0153  0.2964  0.2752
 1236SOL    HW115341   4.562   4.643   3.938 -0.5344 -1.9258  0.5519
 1236SOL    HW215342   4.562   0.010   4.052  0.0643  0.1421  1.0205
 1237SOL     OW15343   3.164   0.773   8.031 -0.2447  0.2398 -0.2108
 1237SOL    HW115344   3.143   0.810   8.116 -0.9083 -0.1674 -0.1992
 1237SOL    HW215345   3.096   0.817   7.980 -0.4820  1.1570  0.9006
 1238SOL     OW15346   3.807   1.260   3.599  0.1790  0.0959  0.3313
 1238SOL    HW115347   3.787   1.177   3.643  0.3181  0.1140  0.4291
 1238SOL    HW215348   3.773   1.324   3.661  0.5783  1.2875 -0.6926
 1239SOL     OW15349   3.614   1.658  14.381 -0.0853 -0.5538 -0.2595
 1239SOL    HW115350   3.602   1.619  14.295  1.9704 -0.5926 -0.5383
 1239SOL    HW215351   3.592   1.750  14.363 -1.1393 -0.6893  0.3247
 1240SOL     OW15352   3.098   4.187  11.202 -0.1912 -0.4713  0.0092
 1240SOL    HW115353   3.109   4.154  11.291  0.7574  0.6567  0.3203
 1240SOL    HW215354   3.140   4.274  11.202  0.3230 -0.7171  0.2585
 1241SOL     OW15355   2.252   1.060   7.205  0.0308  0.4893 -0.2007
 1241SOL    HW115356   2.193   1.076   7.131  0.5799  1.5012 -0.4226
 1241SOL    HW215357   2.264   1.141   7.255 -0.5664  0.4493  0.0129
 1242SOL     OW15358   1.027   2.720   7.549 -0.2819 -0.4987  0.3432
 1242SOL    HW115359   1.035   2.625   7.557  0.8995 -0.3192  1.4553
 1242SOL    HW215360   1.000   2.730   7.640  1.2364 -0.2348  0.7730
 1243SOL     OW15361   2.355   1.253   2.088 -0.6252  0.6337 -0.4928
 1243SOL    HW115362   2.408   1.287   2.016  2.8922 -0.9426  1.3151
 1243SOL    HW215363   2.348   1.335   2.138  3.3559 -1.6684  3.8308
 1244SOL     OW15364   3.546   0.067  12.307  0.3593  0.1915 -0.2512
 1244SOL    HW115365   3.627   0.115  12.327  2.0322 -2.3047 -0.9182
 1244SOL    HW215366   3.572   4.709  12.316 -0.0306  0.1349  0.3350
 1245SOL     OW15367   1.597   2.626  14.830  0.0247  0.2544  0.0591
 1245SOL    HW115368   1.576   2.582  14.912 -1.2964 -0.0983 -0.4773
 1245SOL    HW215369   1.679   2.661  14.864 -0.7002  4.2613 -2.3613
 1246SOL     OW15370   2.503   2.510   2.244  0.0151 -0.1199  0.1482
 1246SOL    HW115371   2.571   2.575   2.262 -2.2298  2.4156 -0.5190
 1246SOL    HW215372   2.455   2.506   2.327  1.1192  1.6662  0.8662
 1247SOL     OW15373   4.013   0.514   6.067 -0.2309  0.3818 -0.2407
 1247SOL    HW115374   3.954   0.587   6.048 -0.1631  0.9244  1.6348
 1247SOL    HW215375   4.006   0.456   5.991  1.3276  0.7744 -0.7011
 1248SOL     OW15376   1.889   3.776  10.649  0.3158 -0.0045 -0.0763
 1248SOL    HW115377   1.800   3.746  10.629  0.4864 -1.4214  1.3479
 1248SOL    HW215378   1.937   3.700  10.683  1.3564  0.8890  0.4707
 1249SOL     OW15379   4.627   0.963   2.393  0.0205 -0.1748  0.4404
 1249SOL    HW115380   4.617   1.058   2.401 -0.0082 -0.0337 -1.2175
 1249SOL    HW215381   4.660   0.958   2.303 -1.2163 -1.0427  0.0324
 1250SOL     OW15382   0.587   3.460   4.732  1.0312 -0.3181  0.2848
 1250SOL    HW115383   0.500   3.425   4.717  0.0206  0.9234  3.1285
 1250SOL    HW215384   0.586   3.541   4.681  1.0039 -0.8904 -0.6115
 1251SOL     OW15385   0.851   1.954   7.268  0.3832 -0.6697 -0.3157
 1251SOL    HW115386   0.784   1.978   7.204  0.9980 -0.6146 -0.9377
 1251SOL    HW215387   0.895   2.039   7.270 -1.3293  0.2304 -0.4842
 1252SOL     OW15388   4.015   2.997  11.118  0.0090 -0.8640  0.2441
 1252SOL    HW115389   3.944   2.933  11.119 -0.9235  0.2478  4.0189
 1252SOL    HW215390   4.063   2.982  11.036  1.5295  0.9985  0.8104
 1253SOL     OW15391   2.245   0.680  17.000 -0.3719 -0.0696 -0.0999
 1253SOL    HW115392   2.165   0.631  16.980 -0.0316 -0.6127 -0.1200
 1253SOL    HW215393   2.305   0.610  17.024 -0.1619 -0.1579 -0.8926
 1254SOL     OW15394   2.706   0.800   5.165 -1.0081 -0.3222  0.1182
 1254SOL    HW115395   2.761   0.778   5.240  0.0431 -2.1949 -1.1906
 1254SOL    HW215396   2.717   0.895   5.164 -0.2066 -0.3963  2.5278
 1255SOL     OW15397   3.565   0.079   1.149 -0.1681 -0.3290  0.4544
 1255SOL    HW115398   3.507   0.014   1.190 -0.3666  0.3778  1.2922
 1255SOL    HW215399   3.576   0.139   1.222 -1.8371 -0.0420  0.4745
 1256SOL     OW15400   3.821   2.759   0.536 -0.5538 -0.0036 -0.2063
 1256SOL    HW115401   3.836   2.843   0.493 -0.3557  0.5187  0.8822
 1256SOL    HW215402   3.725   2.752   0.533 -0.4509 -1.0946 -0.7010
 1257SOL     OW15403   0.817   2.212   8.205  0.0247  0.3942 -0.1881
 1257SOL    HW115404   0.806   2.208   8.300 -0.1329  1.1342 -0.1711
 1257SOL    HW215405   0.906   2.179   8.193 -0.6262 -2.2792  2.5136
 1258SOL     OW15406   2.149   4.073   1.932 -0.2475 -0.0507 -0.6075
 1258SOL    HW115407   2.183   4.161   1.950 -1.9544  0.0447  2.1880
 1258SOL    HW215408   2.222   4.026   1.972  1.6958  0.9177 -3.0435
 1259SOL     OW15409   3.842   0.951   7.197  0.4449  0.7695 -0.1545
 1259SOL    HW115410   3.875   0.864   7.175 -4.2503 -1.0828  0.1729
 1259SOL    HW215411   3.747   0.943   7.184  0.6535  0.7724 -1.7232
 1260SOL     OW15412   1.607   1.295   7.104 -0.2133 -0.0423 -0.2205
 1260SOL    HW115413   1.647   1.243   7.173  0.1549  0.3223 -0.1567
 1260SOL    HW215414   1.515   1.301   7.128 -0.2756 -2.1881  0.0622
 1261SOL     OW15415   3.969   0.637   3.805 -0.3200  0.1332  0.0001
 1261SOL    HW115416   3.986   0.657   3.897 -0.0201 -0.5271  0.0874
 1261SOL    HW215417   3.921   0.555   3.798  1.1307 -0.8703  1.8580
 1262SOL     OW15418   3.544   1.982   9.958 -0.0509  0.2609  0.2339
 1262SOL    HW115419   3.562   1.953   9.868  0.4533 -1.3628  0.8570
 1262SOL    HW215420   3.477   2.050   9.948 -0.3636  0.0547  0.9314
 1263SOL     OW15421   0.186   3.082  13.948 -0.1002 -0.0720 -0.6826
 1263SOL    HW115422   0.173   2.988  13.935 -1.7719 -0.1012  1.2265
 1263SOL    HW215423   0.186   3.118  13.859 -0.7326  0.9764 -0.2558
 1264SOL     OW15424   0.936   2.529  11.319 -0.0087 -0.2011 -0.3329
 1264SOL    HW115425   0.997   2.557  11.250  0.5023 -0.6460 -0.0611
 1264SOL    HW215426   0.927   2.614  11.362  2.2510 -0.1229 -0.0195
 1265SOL     OW15427   3.115   0.111   6.726 -0.1019  0.2771  0.1400
 1265SOL    HW115428   3.199   0.082   6.690 -1.0908 -1.2742 -0.9074
 1265SOL    HW215429   3.144   0.157   6.805  0.8314  0.4650 -0.3169
 1266SOL     OW15430   3.761   0.565   8.479 -0.2317 -0.5751 -0.0707
 1266SOL    HW115431   3.731   0.493   8.535  0.0732 -1.0368 -0.5041
 1266SOL    HW215432   3.718   0.640   8.521  1.3822 -0.3536  1.1721
 1267SOL     OW15433   1.168   2.186  11.823  0.5918  0.3841 -0.2427
 1267SOL    HW115434   1.105   2.232  11.767 -0.3294 -1.6885 -0.8907
 1267SOL    HW215435   1.230   2.150  11.760  0.3577  0.6067 -0.6030
 1268SOL     OW15436   4.613   1.506   0.919 -0.0625  0.6247  0.0125
 1268SOL    HW115437   4.522   1.476   0.923  0.4362 -0.7850  0.9800
 1268SOL    HW215438   4.649   1.444   0.855 -0.5911 -0.7054  0.9852
 1269SOL     OW15439   1.900   2.233   6.698  0.0068 -0.0034  0.3248
 1269SOL    HW115440   1.983   2.199   6.731  0.1313 -0.8823 -0.9062
 1269SOL    HW215441   1.936   2.317   6.669  3.1384 -0.8551  1.7997
 1270SOL     OW15442   2.464   0.875   9.444 -0.1440  0.1722 -0.0899
 1270SOL    HW115443   2.482   0.804   9.506 -0.1068  1.4682  1.3850
 1270SOL    HW215444   2.369   0.886   9.447 -0.1345 -0.5872  3.1986
 1271SOL     OW15445   2.706   1.850   4.095 -0.0532  0.1432 -0.7434
 1271SOL    HW115446   2.795   1.883   4.109  0.3279 -0.5702 -1.4414
 1271SOL    HW215447   2.728   1.787   4.026 -0.8872  0.1371 -0.9994
 1272SOL     OW15448   4.224   4.669   5.807 -0.0244  0.4576  0.1489
 1272SOL    HW115449   4.133   4.644   5.823 -0.3729  0.8162 -1.2997
 1272SOL    HW215450   4.274   4.591   5.782 -0.8394 -0.4922  1.4952
 1273SOL     OW15451   2.468   0.630   7.877  0.2695  0.7402 -0.3426
 1273SOL    HW115452   2.481   0.661   7.788  3.8540 -0.2885 -0.1467
 1273SOL    HW215453   2.418   0.699   7.920  1.7050  1.4866  0.1182
 1274SOL     OW15454   4.329   0.875   3.881 -0.1086 -0.0733  0.3869
 1274SOL    HW115455   4.241   0.867   3.918  0.0909  0.5300  0.9909
 1274SOL    HW215456   4.379   0.834   3.952 -1.5041 -1.1275  0.7551
 1275SOL     OW15457   4.177   3.746  11.230  0.2452  0.2552 -0.4031
 1275SOL    HW115458   4.087   3.776  11.226  0.5583  1.0637 -1.3364
 1275SOL    HW215459   4.227   3.806  11.174  1.2994 -2.4949 -2.4316
 1276SOL     OW15460   0.905   3.059   4.812 -0.4445  0.4763 -0.4502
 1276SOL    HW115461   0.871   2.970   4.808 -0.4144  0.5435 -1.9321
 1276SOL    HW215462   0.954   3.069   4.731  1.5143 -0.9742  0.5685
 1277SOL     OW15463   2.583   3.239   6.435 -0.1601 -0.5408  0.0244
 1277SOL    HW115464   2.622   3.235   6.348 -2.4496  2.1473 -1.1384
 1277SOL    HW215465   2.638   3.187   6.493 -0.4718  0.1600  0.9548
 1278SOL     OW15466   1.259   0.275  11.121 -0.3225  0.2921  0.2019
 1278SOL    HW115467   1.299   0.294  11.036  0.1697 -0.5685  0.2451
 1278SOL    HW215468   1.324   0.299  11.187 -1.2520  0.3441  1.0998
 1279SOL     OW15469   2.929   1.951   0.027 -0.6737  0.2534 -0.6047
 1279SOL    HW115470   2.893   1.879   0.079  1.6905  0.3634  1.1653
 1279SOL    HW215471   2.961   2.014   0.091  0.4097  0.6594 -1.5592
 1280SOL     OW15472   3.004   1.104  14.339 -0.2289  0.1340  0.1138
 1280SOL    HW115473   3.050   1.125  14.421  1.5363 -1.6989 -0.4198
 1280SOL    HW215474   2.980   1.013  14.351  0.6514 -0.0608  0.4396
 1281SOL     OW15475   2.571   2.565   6.619 -0.5441 -0.5608  0.3724
 1281SOL    HW115476   2.493   2.620   6.622 -1.1203 -1.1680 -3.0861
 1281SOL    HW215477   2.593   2.546   6.710 -2.4048  0.7018  1.0723
 1282SOL     OW15478   3.041   4.285   3.282 -0.3070  0.6734 -0.4495
 1282SOL    HW115479   3.069   4.276   3.191 -0.6465  0.8156 -0.5687
 1282SOL    HW215480   3.111   4.235   3.325  1.0590  2.8004 -0.2119
 1283SOL     OW15481   0.647   1.261  10.986  0.1455  0.3191 -0.1971
 1283SOL    HW115482   0.618   1.332  11.044 -0.3700 -0.2603  0.2563
 1283SOL    HW215483   0.589   1.188  11.006  1.5727 -1.0867 -1.1785
 1284SOL     OW15484   3.233   3.399   3.865 -0.2276 -0.0065 -0.0208
 1284SOL    HW115485   3.272   3.371   3.948 -0.3244 -0.2906 -0.0709
 1284SOL    HW215486   3.152   3.349   3.873 -0.3162  0.1559  0.0707
 1285SOL     OW15487   2.744   0.097   0.547 -0.1733 -0.3852  0.5003
 1285SOL    HW115488   2.823   0.044   0.549  0.1939  0.1198 -0.6480
 1285SOL    HW215489   2.675   0.038   0.579 -0.2031 -0.1115  0.9524
 1286SOL     OW15490   3.872   0.610  14.559  0.2358 -0.0013 -0.0521
 1286SOL    HW115491   3.933   0.559  14.610 -0.7636 -1.4227 -0.2876
 1286SOL    HW215492   3.899   0.702  14.562 -0.5518  0.1462  2.6842
 1287SOL     OW15493   0.737   0.975   0.966  0.1885 -0.4128  0.1745
 1287SOL    HW115494   0.773   1.062   0.984 -2.4100  0.8078 -0.5816
 1287SOL    HW215495   0.736   0.967   0.871  0.2229  0.1913  0.1194
 1288SOL     OW15496   2.240   2.314   6.551  0.3425 -0.9326 -0.1581
 1288SOL    HW115497   2.201   2.243   6.501 -1.1838 -0.9811  1.1034
 1288SOL    HW215498   2.336   2.310   6.545  0.4862  2.6436 -0.7398
 1289SOL     OW15499   1.516   2.001   4.056 -0.4671 -0.1915  0.0347
 1289SOL    HW115500   1.471   2.077   4.093  0.9322  0.6643 -0.0207
 1289SOL    HW215501   1.571   2.040   3.988  2.5906 -2.0744  1.4303
 1290SOL     OW15502   0.367   3.292   5.920 -0.4361  0.5611  0.0089
 1290SOL    HW115503   0.433   3.353   5.952 -0.8875  0.8615  0.3495
 1290SOL    HW215504   0.319   3.270   5.999 -0.0952  0.8911  0.3063
 1291SOL     OW15505   3.235   2.095   5.890 -0.1348  0.2590  0.3432
 1291SOL    HW115506   3.227   2.000   5.904  2.8447 -0.1077 -0.6142
 1291SOL    HW215507   3.239   2.098   5.795 -1.2990  0.8728  0.3133
 1292SOL     OW15508   3.490   2.423   1.341 -0.4828  0.3320 -0.3209
 1292SOL    HW115509   3.465   2.406   1.432  1.3140 -0.9905 -0.0713
 1292SOL    HW215510   3.436   2.500   1.325 -1.6329 -0.6350 -1.1085
 1293SOL     OW15511   1.522   3.246   0.502  0.0574  0.2258  0.5234
 1293SOL    HW115512   1.527   3.160   0.460  1.7072  0.8655 -0.5872
 1293SOL    HW215513   1.433   3.249   0.537 -1.2231  0.4915 -2.7224
 1294SOL     OW15514   2.393   3.078   7.490  0.3403  0.4695 -0.2327
 1294SOL    HW115515   2.307   3.042   7.514  0.6185 -1.9741 -2.8374
 1294SOL    HW215516   2.392   3.161   7.538 -1.8902  0.3082  0.0126
 1295SOL     OW15517   1.032   2.631  14.496 -0.6512 -0.2738  0.0935
 1295SOL    HW115518   0.974   2.647  14.421 -0.5518 -3.3620 -0.6373
 1295SOL    HW215519   0.993   2.553  14.535  0.9265 -0.1505  1.9230
 1296SOL     OW15520   0.547   4.239   4.725 -0.4581 -0.1338 -0.2825
 1296SOL    HW115521   0.530   4.301   4.795  0.0075  0.2000 -0.4654
 1296SOL    HW215522   0.589   4.289   4.655 -0.2353  0.7931  0.5183
 1297SOL     OW15523   4.331   2.279   1.402 -0.5078 -0.5857  0.3376
 1297SOL    HW115524   4.388   2.287   1.478 -0.3531  0.1055  0.1523
 1297SOL    HW215525   4.341   2.185   1.386  0.2907 -0.3352 -0.6556
 1298SOL     OW15526   3.054   0.975   8.795 -0.8887  0.3577 -0.6683
 1298SOL    HW115527   3.050   1.054   8.848 -1.3443 -1.2693  1.7102
 1298SOL    HW215528   2.969   0.942   8.824 -1.1240  1.9504  0.4594
 1299SOL     OW15529   4.238   4.580  16.645 -0.5097 -0.4107 -0.1388
 1299SOL    HW115530   4.148   4.552  16.628 -0.3820 -0.5592 -0.5672
 1299SOL    HW215531   4.290   4.505  16.614 -1.6535 -1.2015 -0.1404
 1300SOL     OW15532   3.560   4.637   8.435 -0.1541  0.0335  0.0303
 1300SOL    HW115533   3.538   4.709   8.494 -1.8020  0.4905 -1.1280
 1300SOL    HW215534   3.517   4.559   8.470  1.9782 -0.1132  2.3064
 1301SOL     OW15535   1.228   2.739  12.060  0.4381 -0.6128  0.4264
 1301SOL    HW115536   1.182   2.774  12.137 -2.2848 -0.0664 -1.4286
 1301SOL    HW215537   1.302   2.800  12.061  1.4858 -1.9090  2.0853
 1302SOL     OW15538   3.200   3.184   8.311 -0.4146 -0.4376  0.6985
 1302SOL    HW115539   3.210   3.231   8.228 -0.6732 -1.1079  0.2878
 1302SOL    HW215540   3.277   3.205   8.364 -0.1885 -1.0998  0.6251
 1303SOL     OW15541   0.570   1.926  10.554 -0.2890  0.3976 -0.2391
 1303SOL    HW115542   0.522   1.963  10.480 -2.3835  0.5348  1.2123
 1303SOL    HW215543   0.652   1.897  10.513 -1.7514 -1.2301 -1.9852
 1304SOL     OW15544   0.202   3.435   4.368 -0.5899  0.2020  0.7634
 1304SOL    HW115545   0.198   3.515   4.317  0.7187  1.0358  1.9831
 1304SOL    HW215546   0.109   3.416   4.362  0.0824 -2.1269 -2.5164
 1305SOL     OW15547   1.895   2.238   2.537  0.0845  0.1227 -0.3337
 1305SOL    HW115548   1.860   2.253   2.625  0.4687 -0.5133 -0.0691
 1305SOL    HW215549   1.988   2.254   2.556  0.0494 -0.5575  0.4095
 1306SOL     OW15550   1.738   0.700   5.202  0.2714  0.0213 -0.1097
 1306SOL    HW115551   1.742   0.691   5.107  2.1526 -0.6971  0.0186
 1306SOL    HW215552   1.644   0.709   5.218  0.2947  1.1845 -0.6292
 1307SOL     OW15553   3.900   3.680  12.859  0.6488  0.1578  0.7093
 1307SOL    HW115554   3.850   3.640  12.788  2.2035  0.3124 -0.4854
 1307SOL    HW215555   3.890   3.616  12.930 -2.1558 -0.1794 -0.0072
 1308SOL     OW15556   2.863   2.825   8.855 -0.0309 -0.4647  0.6343
 1308SOL    HW115557   2.872   2.820   8.760  3.1995  0.7411  0.8836
 1308SOL    HW215558   2.923   2.758   8.887  0.3847 -1.1745 -1.6814
 1309SOL     OW15559   1.377   1.989   4.995 -0.1093 -0.1413 -0.6120
 1309SOL    HW115560   1.287   2.014   4.973  0.1944  1.6421  0.1103
 1309SOL    HW215561   1.367   1.923   5.063  0.0175 -1.1576 -1.5982
 1310SOL     OW15562   0.615   2.807   6.483 -0.2872  0.7697  0.3265
 1310SOL    HW115563   0.656   2.836   6.402 -1.9964 -1.3301 -1.2661
 1310SOL    HW215564   0.672   2.843   6.551 -0.2492 -1.4581  1.4586
 1311SOL     OW15565   3.285   1.007   3.575 -0.6048 -0.3959 -0.0613
 1311SOL    HW115566   3.366   1.058   3.581  0.3614 -1.8825 -0.5292
 1311SOL    HW215567   3.301   0.940   3.509  0.0311 -2.2394  1.9470
 1312SOL     OW15568   0.197   0.630  12.848 -0.1162 -0.1094  0.6036
 1312SOL    HW115569   0.108   0.598  12.835 -0.2259  1.6341 -3.0009
 1312SOL    HW215570   0.182   0.723  12.864 -2.4779 -0.4305  0.1775
 1313SOL     OW15571   1.143   1.443   9.411  0.0825  0.0075  0.0661
 1313SOL    HW115572   1.147   1.537   9.426 -2.7962  0.1366 -0.0141
 1313SOL    HW215573   1.066   1.436   9.355  0.9545  0.0759 -1.1416
 1314SOL     OW15574   4.535   2.514  10.961 -0.1030 -0.5751 -0.1313
 1314SOL    HW115575   4.608   2.481  11.014 -0.5590  0.6729  1.2542
 1314SOL    HW215576   4.575   2.547  10.880 -0.4262 -0.9844 -0.4592
 1315SOL     OW15577   3.791   4.550   4.554 -0.2127  0.1263 -0.3002
 1315SOL    HW115578   3.879   4.584   4.568 -0.2320  0.4031 -0.8349
 1315SOL    HW215579   3.752   4.635   4.534 -1.3675 -0.4195 -0.3673
 1316SOL     OW15580   3.480   1.654  12.010 -0.1219  0.1889 -0.4676
 1316SOL    HW115581   3.391   1.633  11.981  0.2127  1.3662 -2.3263
 1316SOL    HW215582   3.472   1.640  12.105  2.3788 -0.7722 -0.3936
 1317SOL     OW15583   4.495   3.299  16.407  1.1807 -0.5178  0.0501
 1317SOL    HW115584   4.416   3.253  16.377  0.4307 -0.1095  1.3959
 1317SOL    HW215585   4.453   3.356  16.471  0.7547 -2.0661  1.1517
 1318SOL     OW15586   2.197   0.694   6.299  0.2272 -0.2658  0.2956
 1318SOL    HW115587   2.135   0.684   6.371 -0.6756  0.6838 -0.3522
 1318SOL    HW215588   2.142   0.673   6.224  0.3169 -0.7782  0.3736
 1319SOL     OW15589   0.304   0.755   0.504 -0.0014 -0.2378  0.2797
 1319SOL    HW115590   0.223   0.717   0.540  1.0078 -2.1355  0.5683
 1319SOL    HW215591   0.362   0.752   0.580 -0.6299  0.3997  0.7859
 1320SOL     OW15592   3.054   3.914   5.858  0.0689  0.4614 -0.0148
 1320SOL    HW115593   3.093   3.924   5.772 -1.1531 -1.3140 -0.7863
 1320SOL    HW215594   3.063   3.819   5.867  0.3184  0.5578  0.7975
 1321SOL     OW15595   2.788   2.315  11.710 -0.1802  0.4119 -0.0043
 1321SOL    HW115596   2.748   2.284  11.791 -1.1725  0.4863 -0.4688
 1321SOL    HW215597   2.730   2.286  11.640  0.6947  0.0849 -0.5979
 1322SOL     OW15598   3.919   4.638   3.766  0.4078  0.0278  0.4702
 1322SOL    HW115599   3.885   4.549   3.771  1.2600 -0.3882 -1.0871
 1322SOL    HW215600   3.890   4.669   3.852  2.8029  0.4136  1.1491
 1323SOL     OW15601   3.119   4.018   4.102 -0.1284  0.0275 -0.0146
 1323SOL    HW115602   3.127   3.923   4.114  0.4418  0.2839  1.6946
 1323SOL    HW215603   3.027   4.035   4.081 -0.2122  1.0167  1.1297
 1324SOL     OW15604   3.439   3.807   2.160 -0.2100  0.0495  0.0225
 1324SOL    HW115605   3.509   3.753   2.196 -0.4250 -0.8096 -0.8379
 1324SOL    HW215606   3.375   3.748   2.120 -0.8382 -0.1195  1.2911
 1325SOL     OW15607   1.874   4.441   7.097  0.1126  0.1589  0.3266
 1325SOL    HW115608   1.825   4.394   7.165  0.0321 -1.1166 -0.6064
 1325SOL    HW215609   1.960   4.438   7.139 -0.7830  0.7753  2.1829
 1326SOL     OW15610   4.480   3.154   1.750 -0.0942 -0.1846 -0.1669
 1326SOL    HW115611   4.513   3.233   1.793 -1.8313 -0.3325  1.4605
 1326SOL    HW215612   4.531   3.089   1.798  1.9909  1.0533 -0.7070
 1327SOL     OW15613   2.287   3.105  11.396  0.2463  0.3451  0.2394
 1327SOL    HW115614   2.234   3.111  11.476  0.5462  1.2104  0.3738
 1327SOL    HW215615   2.282   3.011  11.381  0.5107  0.2582  0.6873
 1328SOL     OW15616   2.040   1.553   3.217 -1.5529  0.1571 -0.0220
 1328SOL    HW115617   1.981   1.489   3.256 -1.5803 -1.3867 -2.6444
 1328SOL    HW215618   2.124   1.508   3.227 -0.2219  2.6424  0.0396
 1329SOL     OW15619   3.131   0.221  10.209  0.1393 -0.1001 -0.0647
 1329SOL    HW115620   3.146   0.295  10.150 -2.9750  0.8746  0.3767
 1329SOL    HW215621   3.130   0.150  10.145 -0.0118 -0.0192 -0.1525
 1330SOL     OW15622   0.128   1.032   3.448 -0.2033 -0.2818  0.1202
 1330SOL    HW115623   0.157   0.954   3.495 -0.8063 -1.3165 -1.2205
 1330SOL    HW215624   0.035   1.017   3.466 -0.2785 -1.0514 -0.8866
 1331SOL     OW15625   3.766   0.549   7.334  0.2316 -0.2218 -0.6732
 1331SOL    HW115626   3.686   0.535   7.284 -1.1947 -0.7610  1.7385
 1331SOL    HW215627   3.825   0.579   7.265  0.3513  1.7522  0.2889
 1332SOL     OW15628   1.569   0.316   6.426  0.5856 -0.5049  0.0362
 1332SOL    HW115629   1.557   0.272   6.342 -0.2438 -1.2687  0.5601
 1332SOL    HW215630   1.663   0.335   6.422  0.5234 -0.3133 -0.4763
 1333SOL     OW15631   4.046   2.151   6.488  0.5215 -0.1406  0.1746
 1333SOL    HW115632   4.113   2.178   6.551 -0.6769  3.8100 -0.2311
 1333SOL    HW215633   4.077   2.070   6.447  0.3057 -0.4211  0.5725
 1334SOL     OW15634   1.995   2.442   7.404  0.1156 -0.7159  0.1404
 1334SOL    HW115635   2.041   2.422   7.486 -0.2213 -0.9818  0.2609
 1334SOL    HW215636   2.061   2.496   7.359 -0.1293 -2.2112 -1.9811
 1335SOL     OW15637   1.260   3.145  14.092 -0.0439 -0.0186  0.5100
 1335SOL    HW115638   1.337   3.092  14.113 -0.3444 -0.2586  1.0085
 1335SOL    HW215639   1.246   3.110  14.004  0.0085  0.6145  0.2544
 1336SOL     OW15640   1.368   0.899  13.612 -0.0158 -0.1288  0.7368
 1336SOL    HW115641   1.374   0.852  13.529 -3.4562 -2.3708  1.7837
 1336SOL    HW215642   1.282   0.939  13.597 -0.7264 -1.4185  1.3738
 1337SOL     OW15643   0.307   3.777   4.810 -0.4082  0.0712 -0.6457
 1337SOL    HW115644   0.306   3.868   4.779 -0.1691  0.1206 -0.5056
 1337SOL    HW215645   0.213   3.775   4.828 -0.3440 -2.0972 -0.5315
 1338SOL     OW15646   3.502   2.961   8.360  0.3843  0.1416 -0.0474
 1338SOL    HW115647   3.579   2.981   8.306  0.2604 -0.3323 -0.4036
 1338SOL    HW215648   3.514   3.033   8.422  0.6115  0.0138  0.0581
 1339SOL     OW15649   4.054   0.254   6.779 -0.6219 -0.0640 -0.6641
 1339SOL    HW115650   4.109   0.178   6.800  0.5625  1.1555  0.6271
 1339SOL    HW215651   4.105   0.319   6.827 -0.3596 -0.4700 -0.3925
 1340SOL     OW15652   3.649   3.152   1.184  0.1392  0.0314 -0.1383
 1340SOL    HW115653   3.633   3.063   1.154  0.4932  0.2446 -0.9765
 1340SOL    HW215654   3.712   3.131   1.254  1.1037  0.0369 -0.9978
 1341SOL     OW15655   4.203   3.343   1.519  0.6216 -0.5955  0.2967
 1341SOL    HW115656   4.173   3.321   1.607  1.4163 -2.0446  0.2129
 1341SOL    HW215657   4.258   3.421   1.531  0.3797 -0.8642  3.2324
 1342SOL     OW15658   1.060   4.026   8.857 -0.0781  0.0354 -0.1454
 1342SOL    HW115659   1.003   3.994   8.927 -0.0129 -0.4626 -0.3176
 1342SOL    HW215660   0.999   4.047   8.786  0.4500 -0.4771 -0.7448
 1343SOL     OW15661   3.957   2.129   4.458 -0.1115 -0.1712  0.3440
 1343SOL    HW115662   4.035   2.133   4.403 -0.5326  1.0644 -0.1600
 1343SOL    HW215663   3.965   2.048   4.509  1.1536 -0.7148 -0.7357
 1344SOL     OW15664   0.278   1.430   9.774  0.6725 -0.0179  0.6340
 1344SOL    HW115665   0.313   1.341   9.785  1.8209  0.3849  0.1960
 1344SOL    HW215666   0.209   1.422   9.708 -0.9104 -1.2874  2.4602
 1345SOL     OW15667   2.226   1.347   8.332 -0.2121 -0.3502 -0.2456
 1345SOL    HW115668   2.222   1.296   8.413  2.5644  0.0372  0.1169
 1345SOL    HW215669   2.211   1.277   8.269 -0.4074  1.3673 -2.0886
 1346SOL     OW15670   2.432   3.684   2.885  0.1575 -0.0894  0.2930
 1346SOL    HW115671   2.520   3.650   2.903  0.8765  1.6130 -0.0089
 1346SOL    HW215672   2.426   3.741   2.962 -1.2327  0.1658 -0.0125
 1347SOL     OW15673   4.141   3.715   7.716 -0.0177  0.2263  0.0667
 1347SOL    HW115674   4.204   3.647   7.694  1.1267  1.1422  0.5244
 1347SOL    HW215675   4.105   3.746   7.633  0.2581 -1.1057 -0.5553
 1348SOL     OW15676   1.263   3.191   0.305  0.6350  0.3505  0.1999
 1348SOL    HW115677   1.278   3.102   0.275 -0.6225  0.6943 -1.4845
 1348SOL    HW215678   1.247   3.177   0.398 -1.0861 -0.8277 -0.2765
 1349SOL     OW15679   1.373   3.379   4.302 -0.2589  0.0780 -0.6187
 1349SOL    HW115680   1.396   3.396   4.210  0.8755  0.5590 -0.2427
 1349SOL    HW215681   1.366   3.459   4.353  0.2134  0.4040 -1.0669
 1350SOL     OW15682   0.827   4.438  13.221  0.3273 -0.0983 -0.4336
 1350SOL    HW115683   0.758   4.446  13.287  0.2143 -0.3398 -0.5245
 1350SOL    HW215684   0.781   4.458  13.140  1.6406  0.9896 -0.9155
 1351SOL     OW15685   2.267   1.512  12.574 -0.1115  0.4257 -0.2210
 1351SOL    HW115686   2.218   1.492  12.654  2.1791 -0.3497  0.9985
 1351SOL    HW215687   2.350   1.535  12.615 -0.1480  0.2409 -0.0453
 1352SOL     OW15688   0.434   3.302  11.756  0.4145 -0.4944  0.2812
 1352SOL    HW115689   0.351   3.324  11.715  1.2550  0.2709 -0.9871
 1352SOL    HW215690   0.476   3.384  11.729  1.0178 -1.3409 -1.3031
 1353SOL     OW15691   0.047   3.721   6.588 -1.0993  0.3788 -0.3876
 1353SOL    HW115692   0.074   3.706   6.679  0.7927  0.8504 -0.8731
 1353SOL    HW215693   0.105   3.796   6.571  1.6292 -1.2160  1.7645
 1354SOL     OW15694   1.893   2.132   5.326 -0.0532 -0.4118  0.1641
 1354SOL    HW115695   1.916   2.088   5.244 -2.4566 -1.2453 -0.0457
 1354SOL    HW215696   1.902   2.225   5.307 -0.7612 -0.2065  0.8339
 1355SOL     OW15697   4.604   0.118   7.901 -0.1917  0.0188 -1.1453
 1355SOL    HW115698   4.559   0.040   7.934 -1.8995  1.2979 -0.4355
 1355SOL    HW215699   4.532   0.159   7.853 -0.6335  1.3495  0.6514
 1356SOL     OW15700   2.955   1.591   6.132 -0.0474 -0.3873 -1.0069
 1356SOL    HW115701   2.957   1.503   6.169  2.6415 -0.2367 -0.8066
 1356SOL    HW215702   3.049   1.607   6.133 -0.1927  0.4999 -1.4697
 1357SOL     OW15703   2.112   0.770   0.622 -0.0744 -0.2226  0.8813
 1357SOL    HW115704   2.164   0.765   0.542  0.4747  2.4376  1.0761
 1357SOL    HW215705   2.031   0.808   0.589 -0.1800 -1.4378 -0.2416
 1358SOL     OW15706   1.692   3.798   9.122 -0.1801  0.5138 -0.1337
 1358SOL    HW115707   1.717   3.727   9.063 -2.1709 -1.7276  1.6910
 1358SOL    HW215708   1.774   3.847   9.124 -1.1557  2.1582 -0.7991
 1359SOL     OW15709   4.299   3.170  14.609  0.8235  0.2082  0.0473
 1359SOL    HW115710   4.218   3.146  14.563  1.0090 -1.1645  0.4375
 1359SOL    HW215711   4.341   3.231  14.549  0.3371 -1.9952 -2.5252
 1360SOL     OW15712   3.234   1.565   5.844 -0.7724 -0.1670 -0.6540
 1360SOL    HW115713   3.259   1.651   5.810 -1.7040  0.2264 -0.3369
 1360SOL    HW215714   3.295   1.509   5.794 -1.5086 -0.0540 -1.6832
 1361SOL     OW15715   4.027   2.366   4.837  0.0401 -0.1816  0.4029
 1361SOL    HW115716   4.116   2.330   4.838 -0.0712 -0.4471  1.3716
 1361SOL    HW215717   3.971   2.292   4.863 -0.2307 -0.2650 -0.4068
 1362SOL     OW15718   1.296   1.908   5.465  0.3321 -0.2902 -0.7111
 1362SOL    HW115719   1.332   1.957   5.390  1.9250  0.0402  0.2690
 1362SOL    HW215720   1.225   1.868   5.415 -2.3809  2.5619  0.8829
 1363SOL     OW15721   1.137   1.570   8.820  0.0945  0.0673 -0.4630
 1363SOL    HW115722   1.070   1.633   8.849  0.1756 -0.4525  0.8591
 1363SOL    HW215723   1.185   1.607   8.746  1.6690  1.9779  1.5138
 1364SOL     OW15724   0.936   1.726   6.073  0.1312  0.1978 -0.2827
 1364SOL    HW115725   0.933   1.728   6.169  1.1645 -3.4771 -0.1609
 1364SOL    HW215726   0.968   1.637   6.059  3.5065  1.2348  0.9142
 1365SOL     OW15727   0.282   3.811   4.421  0.3897  0.3998 -0.6133
 1365SOL    HW115728   0.258   3.886   4.475  0.0303  0.9899 -1.6083
 1365SOL    HW215729   0.195   3.792   4.388  0.8813 -0.7313 -1.2679
 1366SOL     OW15730   1.547   2.752   2.886 -0.0148 -0.3207 -0.1860
 1366SOL    HW115731   1.478   2.737   2.822  1.1654  0.0060 -1.5189
 1366SOL    HW215732   1.624   2.721   2.839 -0.0269 -2.9187  1.5285
 1367SOL     OW15733   3.212   1.756  11.685 -0.3416  0.2229 -0.4823
 1367SOL    HW115734   3.261   1.830  11.721  0.5263 -0.0074 -1.1792
 1367SOL    HW215735   3.166   1.740  11.767  2.4352 -1.6032  0.7287
 1368SOL     OW15736   3.128   3.736   7.123  0.8176 -0.4137 -0.0751
 1368SOL    HW115737   3.055   3.676   7.139 -0.2621  0.7366 -0.6749
 1368SOL    HW215738   3.099   3.810   7.175  0.5856 -0.4520 -0.1482
 1369SOL     OW15739   3.232   2.627  17.147  0.0282 -0.4682 -0.1657
 1369SOL    HW115740   3.152   2.583  17.178 -0.3551 -0.1924 -0.7724
 1369SOL    HW215741   3.207   2.670  17.066 -0.2798 -1.3419 -0.5391
 1370SOL     OW15742   3.138   2.505   3.588  0.6075 -0.0337  0.3040
 1370SOL    HW115743   3.178   2.428   3.547  0.7646  0.3648 -0.2867
 1370SOL    HW215744   3.094   2.482   3.669  0.4327 -2.3508 -0.4433
 1371SOL     OW15745   0.009   2.001  14.038  0.1280  0.1617  0.3142
 1371SOL    HW115746   0.028   1.916  14.078  3.5689  0.9369  0.3198
 1371SOL    HW215747   4.648   2.002  14.029  0.2194 -2.1304 -0.8278
 1372SOL     OW15748   4.308   0.446   1.641 -0.3079  0.3549 -0.1976
 1372SOL    HW115749   4.253   0.377   1.678 -2.3556  1.2213 -1.5583
 1372SOL    HW215750   4.241   0.511   1.617  0.1054  1.1623  0.8237
 1373SOL     OW15751   2.828   3.456  15.449 -0.3340  0.3956  0.0176
 1373SOL    HW115752   2.850   3.418  15.364  0.7231 -1.4914  1.1361
 1373SOL    HW215753   2.806   3.382  15.505 -0.6973 -1.3392 -2.4350
 1374SOL     OW15754   4.321   2.075   4.488  0.0512  0.1561 -0.6307
 1374SOL    HW115755   4.258   2.123   4.435  1.1996  1.7913 -0.5052
 1374SOL    HW215756   4.352   2.149   4.540 -1.7052  0.9991 -0.7880
 1375SOL     OW15757   1.695   1.673   8.458 -0.8554 -0.1849  0.1204
 1375SOL    HW115758   1.764   1.688   8.523 -1.1187  0.0789  0.3360
 1375SOL    HW215759   1.649   1.757   8.459  1.0696  0.9033 -0.2807
 1376SOL     OW15760   0.857   2.430  11.750 -0.2957 -0.0201 -0.0366
 1376SOL    HW115761   0.874   2.520  11.779  0.0569 -0.3522  0.8040
 1376SOL    HW215762   0.865   2.386  11.835  1.3229 -1.9888 -1.2189
 1377SOL     OW15763   4.456   3.317  14.177 -0.1062  0.0449 -0.0288
 1377SOL    HW115764   4.454   3.410  14.199 -2.2817 -0.0454  0.0989
 1377SOL    HW215765   4.458   3.283  14.266  3.4197  0.8783  0.2110
 1378SOL     OW15766   2.609   2.847   8.578 -0.0851 -0.0251 -0.6169
 1378SOL    HW115767   2.606   2.925   8.633 -0.8411 -1.2828  1.1405
 1378SOL    HW215768   2.705   2.844   8.576 -0.1096 -0.0046 -1.5874
 1379SOL     OW15769   0.265   2.960   3.970  0.4105  0.7381  0.0480
 1379SOL    HW115770   0.325   2.946   4.043 -2.6377  0.2454  2.4684
 1379SOL    HW215771   0.272   2.881   3.915  1.4782 -1.4516  3.3573
 1380SOL     OW15772   0.330   4.522   4.515  0.5482  0.1563 -0.2298
 1380SOL    HW115773   0.419   4.502   4.545  0.0628 -1.2002  0.3370
 1380SOL    HW215774   0.350   4.486   4.429  0.7592  1.7601 -0.8504
 1381SOL     OW15775   2.800   2.303   8.777  0.9106  0.0320 -0.6013
 1381SOL    HW115776   2.808   2.363   8.703 -0.1851  0.5151 -0.3422
 1381SOL    HW215777   2.888   2.270   8.793  0.5105 -0.5344  0.4343
 1382SOL     OW15778   1.573   4.656  11.657 -0.1506  0.1807 -0.2679
 1382SOL    HW115779   1.611   4.637  11.743 -3.0399 -3.3827  0.1917
 1382SOL    HW215780   1.497   4.598  11.651  1.3628 -1.5975 -2.1771
 1383SOL     OW15781   4.277   2.501   2.443 -0.2192 -0.0442  0.3411
 1383SOL    HW115782   4.368   2.521   2.466 -0.1052 -1.4834  1.1121
 1383SOL    HW215783   4.250   2.570   2.383  0.0555 -0.5241 -0.3256
 1384SOL     OW15784   0.644   0.471   2.498  0.2452 -0.1127  0.0213
 1384SOL    HW115785   0.740   0.468   2.504  0.2081 -0.6629  0.2783
 1384SOL    HW215786   0.616   0.388   2.535  1.0499 -1.0097 -1.3721
 1385SOL     OW15787   1.934   0.766   2.131  1.1222  0.0412 -0.0521
 1385SOL    HW115788   1.899   0.770   2.042  1.1680  0.2195 -0.0630
 1385SOL    HW215789   1.877   0.829   2.175  2.4957  1.3396 -0.1223
 1386SOL     OW15790   0.956   0.803   8.928  0.3540  0.2617 -0.4009
 1386SOL    HW115791   0.921   0.889   8.906 -0.0890 -0.3543 -2.1751
 1386SOL    HW215792   0.991   0.778   8.842 -0.6200 -0.0384 -0.7159
 1387SOL     OW15793   0.663   4.656   2.381 -0.2691 -0.1698  0.1973
 1387SOL    HW115794   0.641   4.690   2.295  3.0485 -0.0921 -0.6205
 1387SOL    HW215795   0.582   4.615   2.411 -1.2082  0.1030 -2.0285
 1388SOL     OW15796   3.396   1.675   7.853 -0.7474  0.3920 -0.4659
 1388SOL    HW115797   3.443   1.626   7.921 -0.6127 -0.0459 -0.8786
 1388SOL    HW215798   3.401   1.766   7.884 -0.0915  0.1899  0.0193
 1389SOL     OW15799   0.403   2.665   7.380  0.5580 -0.4838 -0.2926
 1389SOL    HW115800   0.372   2.614   7.455 -1.7523  0.4064 -0.6169
 1389SOL    HW215801   0.362   2.748   7.401 -0.8677 -1.6877  1.6453
 1390SOL     OW15802   0.736   0.516   0.547  0.2221  0.7088 -0.0315
 1390SOL    HW115803   0.660   0.562   0.584 -0.7985 -0.2151 -0.9711
 1390SOL    HW215804   0.691   0.474   0.474 -1.0994  0.1157  1.1190
 1391SOL     OW15805   0.025   3.248  12.268  0.0132  0.3652  0.1675
 1391SOL    HW115806   0.108   3.205  12.289 -0.2210  0.1842  0.7122
 1391SOL    HW215807   4.700   3.175  12.285  1.2902 -1.0901 -1.6110
 1392SOL     OW15808   3.664   3.448   8.215 -0.0658 -0.1594 -0.0389
 1392SOL    HW115809   3.693   3.498   8.138 -2.1830 -0.1213 -0.8149
 1392SOL    HW215810   3.630   3.373   8.166  0.5006 -0.8128  0.5807
 1393SOL     OW15811   3.440   1.594   5.581  0.1300 -0.1995  0.0209
 1393SOL    HW115812   3.437   1.685   5.554  0.1688 -0.1799  0.0831
 1393SOL    HW215813   3.446   1.545   5.498  0.0401 -2.4781  1.3469
 1394SOL     OW15814   0.471   0.117   6.100 -0.2011  0.0736 -0.3014
 1394SOL    HW115815   0.385   0.150   6.124 -0.2431 -0.5026  0.3207
 1394SOL    HW215816   0.444   0.046   6.042 -0.1814 -1.8384  2.0213
 1395SOL     OW15817   4.458   3.880  15.292 -0.1800  0.3496  0.1917
 1395SOL    HW115818   4.506   3.954  15.256 -2.4536  2.3595  1.3511
 1395SOL    HW215819   4.371   3.919  15.284 -0.2930  0.4370  1.9010
 1396SOL     OW15820   1.081   0.938   4.663 -0.1609  0.5159 -0.5118
 1396SOL    HW115821   1.117   0.982   4.586  2.0152 -0.3930 -0.0093
 1396SOL    HW215822   1.078   0.847   4.635  0.9062 -0.0240  1.1281
 1397SOL     OW15823   4.441   3.127   4.076 -0.3569  0.0376 -1.0519
 1397SOL    HW115824   4.397   3.141   4.160  0.8825  0.0815 -0.3969
 1397SOL    HW215825   4.365   3.100   4.024  0.3828 -1.8685 -1.1680
 1398SOL     OW15826   2.437   4.618  16.327 -0.7081 -0.7723  0.4987
 1398SOL    HW115827   2.487   4.615  16.246  0.9083  1.4806  1.4217
 1398SOL    HW215828   2.348   4.587  16.311 -0.1871 -1.8794 -0.2972
 1399SOL     OW15829   0.707   2.803   3.052 -0.4280 -0.0888 -0.1509
 1399SOL    HW115830   0.778   2.762   3.001 -0.3075  0.7872 -0.7009
 1399SOL    HW215831   0.649   2.813   2.976 -0.5346 -2.9905 -0.4601
 1400SOL     OW15832   1.757   1.102  10.416 -0.0358  0.1846  0.4916
 1400SOL    HW115833   1.735   1.022  10.464 -1.6116  1.0199  1.1506
 1400SOL    HW215834   1.853   1.104  10.418 -0.0210 -0.6708  0.6126
 1401SOL     OW15835   2.234   2.793   5.389  0.6543  0.2103  0.4430
 1401SOL    HW115836   2.233   2.753   5.476  0.1116 -0.7936 -0.0158
 1401SOL    HW215837   2.188   2.728   5.336  1.5232 -0.2139  0.2100
 1402SOL     OW15838   2.825   3.803  14.520  0.0719 -0.5231  0.0199
 1402SOL    HW115839   2.909   3.759  14.507 -0.1530 -1.4568  1.7445
 1402SOL    HW215840   2.794   3.789  14.430  0.8473 -1.5443 -0.0896
 1403SOL     OW15841   0.716   1.165   9.725 -0.2444 -0.3047 -0.2359
 1403SOL    HW115842   0.666   1.222   9.784 -1.8106  0.8980 -2.7068
 1403SOL    HW215843   0.655   1.134   9.657 -1.5490 -0.5999  1.0717
 1404SOL     OW15844   3.504   1.028   3.034 -0.1520  0.1164 -0.2571
 1404SOL    HW115845   3.575   0.966   3.052  0.2983  0.7863  0.2663
 1404SOL    HW215846   3.550   1.112   3.035  2.4863 -1.3036 -0.6201
 1405SOL     OW15847   4.396   2.110   6.399  0.6040 -0.7068 -0.3886
 1405SOL    HW115848   4.343   2.128   6.476  0.2068  0.4157 -0.9208
 1405SOL    HW215849   4.333   2.141   6.333  0.5705 -0.0060 -0.0323
 1406SOL     OW15850   0.043   0.433   0.881  0.2614  0.0513  0.0452
 1406SOL    HW115851   0.024   0.521   0.912 -0.5395 -0.5740  1.3481
 1406SOL    HW215852   0.034   0.396   0.969 -0.3180 -0.6238 -0.2971
 1407SOL     OW15853   4.043   3.178  15.505 -0.2763 -0.6361 -0.2244
 1407SOL    HW115854   4.000   3.213  15.427 -0.3803 -0.4173 -0.0699
 1407SOL    HW215855   3.997   3.229  15.572  1.6600 -1.5294  1.7906
 1408SOL     OW15856   0.407   2.485   5.901  0.3314 -0.0748  0.0457
 1408SOL    HW115857   0.347   2.422   5.941 -1.7577  0.5914 -2.0663
 1408SOL    HW215858   0.351   2.562   5.891  1.9483  0.9452 -1.0977
 1409SOL     OW15859   3.206   0.364   9.731  0.3401  0.1226  0.5795
 1409SOL    HW115860   3.260   0.422   9.785  0.6102 -0.9646  1.4719
 1409SOL    HW215861   3.186   0.302   9.801  2.4271 -0.3160  0.7958
 1410SOL     OW15862   3.495   3.236   7.029 -0.2062  0.6782  0.1452
 1410SOL    HW115863   3.473   3.293   6.955  3.9774  0.7642 -0.9884
 1410SOL    HW215864   3.515   3.312   7.083 -1.5864  1.8088 -0.9057
 1411SOL     OW15865   1.269   1.354   0.790 -0.1760 -0.7479  0.1532
 1411SOL    HW115866   1.347   1.386   0.746 -0.4840 -1.0620 -0.6307
 1411SOL    HW215867   1.298   1.372   0.879  3.1125  0.2691 -1.1369
 1412SOL     OW15868   1.822   4.068   6.643 -0.2638  0.0741  0.2557
 1412SOL    HW115869   1.882   4.088   6.715  0.2718  2.4187 -0.8552
 1412SOL    HW215870   1.816   4.149   6.593  1.6918  0.3610  0.4888
 1413SOL     OW15871   0.212   3.949   8.209 -0.2686 -0.1515  0.3198
 1413SOL    HW115872   0.117   3.943   8.224 -0.5096 -0.5292 -1.3034
 1413SOL    HW215873   0.217   3.870   8.155 -3.4284 -0.3262  0.2733
 1414SOL     OW15874   1.319   2.903  13.458 -0.0515  0.2924 -0.0520
 1414SOL    HW115875   1.377   2.877  13.529 -1.9140 -0.9214  1.0198
 1414SOL    HW215876   1.380   2.945  13.398  0.6864 -0.5161  0.1313
 1415SOL     OW15877   2.827   3.625   2.522 -0.2378  0.2147 -0.6164
 1415SOL    HW115878   2.893   3.622   2.453  0.5193  0.7018  0.0975
 1415SOL    HW215879   2.868   3.586   2.599  1.1747  2.1508 -0.3874
 1416SOL     OW15880   3.425   3.097   4.512  0.1150 -1.0359 -0.3916
 1416SOL    HW115881   3.364   3.148   4.566 -2.0115  0.4960 -4.2897
 1416SOL    HW215882   3.502   3.154   4.514 -0.5696 -0.1697  1.6942
 1417SOL     OW15883   1.129   0.155  14.312  0.4375 -0.2056 -0.1409
 1417SOL    HW115884   1.054   0.102  14.286  0.1526 -0.2486  0.7884
 1417SOL    HW215885   1.157   0.124  14.398  1.0027 -0.4433 -0.4146
 1418SOL     OW15886   0.087   2.140  14.288  0.8431 -0.3703 -0.0088
 1418SOL    HW115887   0.113   2.088  14.212  1.1892 -2.8057  1.7852
 1418SOL    HW215888   0.029   2.198  14.239  1.0399 -0.8765 -0.8355
 1419SOL     OW15889   1.261   4.401  15.587  0.3637  0.1955  0.1373
 1419SOL    HW115890   1.280   4.491  15.560 -0.4474 -0.4095 -2.4476
 1419SOL    HW215891   1.247   4.372  15.497  1.7470  0.4076 -0.1469
 1420SOL     OW15892   0.480   0.478   7.266 -0.2658  0.7956  0.0635
 1420SOL    HW115893   0.553   0.539   7.270  0.7719 -0.4491 -0.0093
 1420SOL    HW215894   0.516   0.401   7.310 -1.5665  0.0453 -0.1634
 1421SOL     OW15895   4.535   4.278  12.786 -0.1348  0.3834 -0.1032
 1421SOL    HW115896   4.550   4.306  12.696  0.5281 -0.9240 -0.4123
 1421SOL    HW215897   4.488   4.352  12.823  0.6141  0.8042 -0.0104
 1422SOL     OW15898   3.566   1.668  15.060  0.2559 -0.0924  0.3474
 1422SOL    HW115899   3.478   1.631  15.046  0.8885 -1.5018  0.1022
 1422SOL    HW215900   3.563   1.708  15.147 -0.7760  0.1041  0.2229
 1423SOL     OW15901   3.940   2.511   0.549  0.4357  0.0840  0.7120
 1423SOL    HW115902   3.882   2.471   0.614 -4.0338  0.4395 -3.0631
 1423SOL    HW215903   3.883   2.587   0.536 -1.2987 -1.5706 -1.2669
 1424SOL     OW15904   1.839   3.288   4.390  0.1523 -0.3328 -0.0757
 1424SOL    HW115905   1.806   3.300   4.300 -2.2234  0.7718  0.9443
 1424SOL    HW215906   1.803   3.204   4.419 -1.8689  0.4765 -0.2299
 1425SOL     OW15907   3.953   0.511   7.700 -0.2003 -0.3846  0.0729
 1425SOL    HW115908   3.922   0.480   7.615 -3.5029  1.2481  0.6868
 1425SOL    HW215909   4.024   0.570   7.675 -1.1474  0.9612  0.5471
 1426SOL     OW15910   4.655   0.838   4.355 -0.1329  0.0543 -0.0219
 1426SOL    HW115911   4.660   0.930   4.328 -2.1922 -0.3004 -1.6262
 1426SOL    HW215912   0.010   0.823   4.385  0.0388 -1.1925 -1.1799
 1427SOL     OW15913   3.399   2.416   5.790 -0.3505 -0.3127 -0.5710
 1427SOL    HW115914   3.317   2.411   5.839  0.1186 -1.5434  0.1019
 1427SOL    HW215915   3.377   2.446   5.702 -2.0666  0.5612  0.1679
 1428SOL     OW15916   3.230   1.904   1.424  0.4363 -0.0532 -0.1382
 1428SOL    HW115917   3.261   1.988   1.390  1.1066  0.5838  2.0755
 1428SOL    HW215918   3.309   1.854   1.443  0.2539 -0.4565 -0.4327
 1429SOL     OW15919   2.979   0.713   7.540  0.0910 -0.2703 -0.3343
 1429SOL    HW115920   3.070   0.723   7.569  0.2335  0.1399 -0.9285
 1429SOL    HW215921   2.966   0.620   7.557 -0.8827 -0.4482 -2.0680
 1430SOL     OW15922   3.005   2.739   9.901 -0.1470 -0.7303  0.0966
 1430SOL    HW115923   2.973   2.675   9.965  0.6550 -0.4074  0.8164
 1430SOL    HW215924   3.058   2.681   9.847  2.0062  1.0390  0.2960
 1431SOL     OW15925   3.086   4.231   3.824  0.0029  0.7067 -0.2664
 1431SOL    HW115926   3.090   4.144   3.861 -0.2421  0.4846 -0.7629
 1431SOL    HW215927   3.009   4.225   3.767  0.7736  0.4827 -1.3015
 1432SOL     OW15928   2.830   0.009   4.658 -0.3592  0.1137 -0.1882
 1432SOL    HW115929   2.816   4.705   4.571  1.7359 -1.2524  0.0834
 1432SOL    HW215930   2.771   4.685   4.707  1.9021 -2.1985 -0.2072
 1433SOL     OW15931   2.321   3.184  12.255  0.4528 -0.4545 -0.3560
 1433SOL    HW115932   2.388   3.152  12.195 -0.0588 -0.2048 -1.0572
 1433SOL    HW215933   2.237   3.193  12.210 -1.4419 -1.5587  2.9627
 1434SOL     OW15934   1.147   2.013   6.213 -0.1841  0.1817 -0.1783
 1434SOL    HW115935   1.110   1.954   6.279  3.2443  0.1435  1.7117
 1434SOL    HW215936   1.091   2.091   6.218 -2.1592 -1.1742 -1.0795
 1435SOL     OW15937   0.849   4.143   8.086 -0.1546  0.1078  0.0929
 1435SOL    HW115938   0.942   4.128   8.099 -0.3107 -1.5235 -0.6222
 1435SOL    HW215939   0.832   4.234   8.111 -1.5036  0.5380 -2.3698
 1436SOL     OW15940   4.649   1.910  15.383 -0.5307 -0.4297 -0.5923
 1436SOL    HW115941   0.009   1.928  15.376 -0.5741 -1.4965 -4.1646
 1436SOL    HW215942   4.640   1.902  15.288 -0.5613  2.2786 -0.8082
 1437SOL     OW15943   0.359   4.606   2.477  0.0835 -0.0085  0.0275
 1437SOL    HW115944   0.300   4.623   2.403 -0.7737 -0.5208  0.5876
 1437SOL    HW215945   0.304   4.548   2.530  0.9861 -0.2500  0.6911
 1438SOL     OW15946   3.606   3.308  15.005  0.3847  0.4611 -0.1109
 1438SOL    HW115947   3.678   3.287  14.946  1.5257 -1.6122  2.0274
 1438SOL    HW215948   3.652   3.385  15.039 -0.5292  2.1380 -2.7487
 1439SOL     OW15949   3.397   0.039  16.148  0.5739 -0.0311 -0.1430
 1439SOL    HW115950   3.426   4.682  16.147 -1.0437 -0.5377 -0.4705
 1439SOL    HW215951   3.461   0.080  16.207  0.7628  0.9049 -0.9972
 1440SOL     OW15952   4.043   2.040   7.688  0.4804  0.0957  0.2420
 1440SOL    HW115953   3.957   2.042   7.647  1.7439  0.4335 -2.4379
 1440SOL    HW215954   4.097   1.988   7.628  0.2774 -0.0900  0.2239
 1441SOL     OW15955   0.206   2.420  17.361 -0.0217 -0.6060 -0.0617
 1441SOL    HW115956   0.299   2.413  17.337 -0.1180 -1.0564 -0.3194
 1441SOL    HW215957   0.208   2.395  17.453 -0.1090  1.4978  0.5040
 1442SOL     OW15958   3.120   4.528   4.835 -0.2185  0.2567  0.4804
 1442SOL    HW115959   3.177   4.455   4.809 -0.3614  0.0095  0.8646
 1442SOL    HW215960   3.111   4.582   4.756  0.4094 -1.3730 -0.7140
 1443SOL     OW15961   1.609   2.694   0.742 -0.2641  0.3101  0.0840
 1443SOL    HW115962   1.561   2.649   0.811  0.7702  0.2470  0.7640
 1443SOL    HW215963   1.658   2.617   0.712  0.1448  0.1085  1.2701
 1444SOL     OW15964   1.344   1.403   2.459  0.8479 -0.6027  0.0787
 1444SOL    HW115965   1.344   1.471   2.526 -1.5285 -0.4758 -0.0404
 1444SOL    HW215966   1.420   1.442   2.416  0.9451  1.0818  1.7802
 1445SOL     OW15967   2.331   1.164   5.743 -0.3669  0.6822  0.1518
 1445SOL    HW115968   2.239   1.175   5.717 -0.4283 -1.1376 -0.4060
 1445SOL    HW215969   2.338   1.070   5.757 -0.1546  0.8575  1.2017
 1446SOL     OW15970   0.395   4.142   5.748 -0.2036  0.4418  0.1748
 1446SOL    HW115971   0.331   4.184   5.691  1.0341 -0.4704 -1.8755
 1446SOL    HW215972   0.346   4.068   5.785  0.8256 -0.0362  0.5996
 1447SOL     OW15973   0.174   0.381  16.359 -0.6313  0.2798  0.3178
 1447SOL    HW115974   0.122   0.454  16.394 -2.6073 -2.2018  2.5262
 1447SOL    HW215975   0.239   0.435  16.313  1.4849 -1.5595  1.1911
 1448SOL     OW15976   2.654   1.160   5.491  0.5280 -0.7238  0.2043
 1448SOL    HW115977   2.588   1.211   5.444  2.5007  0.3267 -1.4825
 1448SOL    HW215978   2.698   1.232   5.537  0.6465 -0.5233 -0.2209
 1449SOL     OW15979   2.317   1.898   9.870 -0.0929 -0.1077 -0.1872
 1449SOL    HW115980   2.272   1.827   9.916  1.0863 -1.5527 -1.2705
 1449SOL    HW215981   2.340   1.853   9.789  0.0574 -1.1436  0.4368
 1450SOL     OW15982   1.369   3.226   5.716  0.2363  0.5093 -0.4829
 1450SOL    HW115983   1.354   3.243   5.623  1.7665  1.7839 -0.4762
 1450SOL    HW215984   1.448   3.172   5.709  0.7750  1.3113 -0.4703
 1451SOL     OW15985   3.096   1.611   3.373 -0.5059 -0.0660 -0.2498
 1451SOL    HW115986   3.136   1.608   3.286  2.5063  1.3049  1.0961
 1451SOL    HW215987   3.147   1.682   3.411 -3.5316  2.7553 -1.4717
 1452SOL     OW15988   0.865   1.879  12.365 -0.6157 -0.4988  0.2023
 1452SOL    HW115989   0.845   1.834  12.283  0.2647 -2.8841  1.3013
 1452SOL    HW215990   0.931   1.819  12.400  1.2551  0.4625 -1.6588
 1453SOL     OW15991   3.253   3.393   7.219 -0.7827  0.1476  0.2554
 1453SOL    HW115992   3.246   3.440   7.136 -1.6637  2.3236  1.5549
 1453SOL    HW215993   3.348   3.389   7.221 -0.8495 -0.7506  1.6588
 1454SOL     OW15994   2.972   2.316   1.665 -0.0407 -0.1501  0.5491
 1454SOL    HW115995   2.911   2.242   1.664 -2.7285  2.0975 -0.5112
 1454SOL    HW215996   3.041   2.289   1.604  1.0284  1.2918  1.1291
 1455SOL     OW15997   1.592   1.771   5.898  0.0566 -0.1043 -0.0812
 1455SOL    HW115998   1.580   1.775   5.803  0.3574 -0.7163 -0.1451
 1455SOL    HW215999   1.546   1.852   5.920  1.4006  0.5083  0.5443
 1456SOL     OW16000   4.515   0.520  17.565  0.3409  0.6698  0.2536
 1456SOL    HW116001   4.517   0.448  17.629 -0.7115  0.8464  0.4805
 1456SOL    HW216002   4.550   0.465  17.495  0.0339  0.7629  0.0304
 1457SOL     OW16003   0.018   1.405   8.782 -0.2716 -0.1698  0.5224
 1457SOL    HW116004   4.669   1.358   8.778 -1.0152  1.3194 -1.2787
 1457SOL    HW216005   0.082   1.342   8.747  0.0850 -0.4438  1.6804
 1458SOL     OW16006   3.707   2.338   1.885  0.1735  0.2736 -0.1496
 1458SOL    HW116007   3.717   2.261   1.829  0.7439 -0.2309  0.6539
 1458SOL    HW216008   3.677   2.299   1.967 -2.1197  1.5367 -0.3844
 1459SOL     OW16009   4.109   1.556   7.580 -0.0729 -0.3572 -0.1383
 1459SOL    HW116010   4.017   1.551   7.554 -0.0631 -1.2588 -0.0157
 1459SOL    HW216011   4.125   1.462   7.572 -0.5269 -0.3570 -0.9728
 1460SOL     OW16012   3.227   0.376   8.589 -0.0455 -0.2957  0.5224
 1460SOL    HW116013   3.146   0.325   8.594  0.8080 -1.8378 -1.3417
 1460SOL    HW216014   3.286   0.328   8.530  0.8002  1.0780  0.2657
 1461SOL     OW16015   4.523   2.812   6.922  0.1779 -0.4811  0.1365
 1461SOL    HW116016   4.453   2.799   6.858  1.0206 -1.6680 -0.5381
 1461SOL    HW216017   4.535   2.719   6.942 -0.8539 -0.8017 -0.7222
 1462SOL     OW16018   0.466   3.187   5.389  0.1641 -0.3115  0.5508
 1462SOL    HW116019   0.551   3.227   5.369  0.4749  0.1428  2.7276
 1462SOL    HW216020   0.457   3.115   5.327  0.4351  1.4557 -1.5537
 1463SOL     OW16021   2.600   0.863   5.897 -0.3732  0.3103  0.6849
 1463SOL    HW116022   2.547   0.851   5.975 -0.0637 -4.3399  0.1537
 1463SOL    HW216023   2.564   0.796   5.840  1.5997  0.9194 -1.2912
 1464SOL     OW16024   1.547   0.282   1.795 -0.6979  0.4120  0.0434
 1464SOL    HW116025   1.609   0.298   1.867 -1.2575 -1.4312  0.9358
 1464SOL    HW216026   1.606   0.247   1.728 -0.8108 -0.7509  0.5646
 1465SOL     OW16027   3.194   3.025   1.960  0.4721  0.2758 -0.7666
 1465SOL    HW116028   3.148   3.045   2.041  0.6148  0.6413 -0.7735
 1465SOL    HW216029   3.276   2.987   1.989 -0.1535 -0.1464  0.4167
 1466SOL     OW16030   2.411   1.413  12.991  0.5820  0.2074 -0.1425
 1466SOL    HW116031   2.348   1.461  13.044  0.7944  1.4733 -1.0361
 1466SOL    HW216032   2.441   1.358  13.063  0.8722  2.0909  1.1549
 1467SOL     OW16033   1.650   4.496   7.290  0.4685 -0.2019  0.2009
 1467SOL    HW116034   1.707   4.426   7.320  0.5368 -0.4565 -0.5071
 1467SOL    HW216035   1.682   4.577   7.329  0.1894 -1.4011  2.9140
 1468SOL     OW16036   3.697   1.740   8.084 -0.1687 -0.1911  0.3575
 1468SOL    HW116037   3.700   1.836   8.090  0.0769 -0.1958  0.3191
 1468SOL    HW216038   3.668   1.723   8.173 -1.6486  3.5059  0.5974
 1469SOL     OW16039   0.146   2.062   3.874 -0.0693 -0.1993  0.1513
 1469SOL    HW116040   0.097   2.138   3.841  0.0387  0.1457  0.7773
 1469SOL    HW216041   0.236   2.089   3.858  0.0107 -0.6080 -0.0916
 1470SOL     OW16042   0.033   3.979  12.224  0.5021 -0.8792 -0.3671
 1470SOL    HW116043   4.696   3.992  12.161 -0.0287 -0.5581  0.2893
 1470SOL    HW216044   0.055   4.069  12.246 -0.4031 -1.2549  2.0915
 1471SOL     OW16045   0.764   4.724  10.391  0.5058 -0.7995  0.6958
 1471SOL    HW116046   0.669   4.723  10.392  0.4537 -1.2196 -2.8337
 1471SOL    HW216047   0.781   4.692  10.302  0.3323  1.4447 -0.1461
 1472SOL     OW16048   1.391   1.334   1.411 -0.9883  0.5776  0.6111
 1472SOL    HW116049   1.347   1.370   1.488 -0.3083  0.1147  1.2174
 1472SOL    HW216050   1.416   1.413   1.363 -1.9808 -0.0271 -0.8847
 1473SOL     OW16051   0.398   3.645  15.135  0.0195  0.4825 -0.2317
 1473SOL    HW116052   0.411   3.556  15.168  2.7800  0.4743 -1.3168
 1473SOL    HW216053   0.476   3.691  15.168 -0.0170 -0.3493  0.9875
 1474SOL     OW16054   0.275   2.678   4.510 -0.0879  0.5203 -0.3828
 1474SOL    HW116055   0.284   2.672   4.414  1.3126  0.8402 -0.2797
 1474SOL    HW216056   0.361   2.650   4.541  0.6326  0.4765 -2.4187
 1475SOL     OW16057   2.321   4.477  15.246 -0.0157 -0.2083 -0.0472
 1475SOL    HW116058   2.261   4.515  15.182  0.2049 -0.5223 -0.4445
 1475SOL    HW216059   2.291   4.521  15.325  2.7176  0.0745  0.8592
 1476SOL     OW16060   1.738   1.394   8.658 -0.4348 -0.9671  0.3304
 1476SOL    HW116061   1.687   1.342   8.596 -1.6468 -0.7933  1.1745
 1476SOL    HW216062   1.772   1.464   8.601 -0.5084 -1.3691 -0.2098
 1477SOL     OW16063   3.382   3.079   0.378  0.6751 -0.5457 -0.3315
 1477SOL    HW116064   3.356   3.097   0.469 -0.0183 -0.6470 -0.5102
 1477SOL    HW216065   3.428   3.158   0.351  1.7253 -0.3550  2.0341
 1478SOL     OW16066   0.303   3.566   5.673 -0.0485  0.3181  0.0617
 1478SOL    HW116067   0.228   3.561   5.733 -0.5587 -2.0904 -0.7891
 1478SOL    HW216068   0.294   3.643   5.618  2.0153  0.3368 -0.2431
 1479SOL     OW16069   2.958   3.594   0.294  0.0523 -0.1541  0.0034
 1479SOL    HW116070   3.038   3.635   0.261  1.9197 -3.6480  0.1943
 1479SOL    HW216071   2.912   3.670   0.329 -1.1783 -1.3177  0.9169
 1480SOL     OW16072   0.950   0.733  15.018 -0.1250 -0.0533 -0.1772
 1480SOL    HW116073   0.920   0.715  15.107  1.0984  1.1330  0.4639
 1480SOL    HW216074   1.039   0.764  15.036 -0.2435  0.8180 -1.0943
 1481SOL     OW16075   1.071   3.617   2.631 -0.2874 -0.5669 -0.6492
 1481SOL    HW116076   1.119   3.684   2.583 -1.5731 -0.0293 -1.1939
 1481SOL    HW216077   0.992   3.664   2.660 -0.5008 -1.7535  0.6929
 1482SOL     OW16078   3.122   3.090   1.173  0.4659 -0.4113 -0.4046
 1482SOL    HW116079   3.174   3.170   1.185 -1.6594  0.6898  1.5180
 1482SOL    HW216080   3.101   3.069   1.264 -0.2346  2.1250  0.0269
 1483SOL     OW16081   3.824   2.841   1.921  0.4463  0.2327  0.1659
 1483SOL    HW116082   3.749   2.837   1.862  1.2670 -1.2165 -0.7960
 1483SOL    HW216083   3.872   2.758   1.915  0.1143  0.0604 -0.0890
 1484SOL     OW16084   1.307   2.475  11.183 -0.0569 -0.0478 -0.5759
 1484SOL    HW116085   1.394   2.436  11.195  0.0613  0.0560 -1.1042
 1484SOL    HW216086   1.252   2.410  11.228  0.1526 -1.7853 -2.8097
 1485SOL     OW16087   0.382   4.130   5.104  0.3359  0.3491  0.5262
 1485SOL    HW116088   0.407   4.118   5.013  1.8672  1.8872  0.7451
 1485SOL    HW216089   0.413   4.217   5.125 -0.5770  0.6043  0.8301
 1486SOL     OW16090   3.736   0.331   5.248 -0.1687  0.8764  0.1145
 1486SOL    HW116091   3.777   0.248   5.268  0.6598  1.9327  2.7691
 1486SOL    HW216092   3.806   0.395   5.257  1.3438 -0.4015 -2.4555
 1487SOL     OW16093   4.079   4.023   5.143 -0.1096 -0.0821  0.6461
 1487SOL    HW116094   4.018   3.961   5.105 -1.5145  1.7559 -0.0701
 1487SOL    HW216095   4.122   3.976   5.215  1.1768 -0.9764 -0.6910
 1488SOL     OW16096   4.119   3.250   6.472  0.1987  0.4637 -0.2685
 1488SOL    HW116097   4.193   3.296   6.433 -0.0853  0.9710 -0.2124
 1488SOL    HW216098   4.043   3.304   6.451 -1.9301 -1.3123  2.9061
 1489SOL     OW16099   0.738   1.906   9.766  0.1987  0.2376  0.1539
 1489SOL    HW116100   0.828   1.902   9.800  0.1552  0.5331  0.2985
 1489SOL    HW216101   0.687   1.878   9.842 -2.2216  3.6600 -0.2108
 1490SOL     OW16102   0.795   0.710   4.360 -0.4268  0.0659  0.1676
 1490SOL    HW116103   0.723   0.759   4.401  0.2110 -0.6651  2.1734
 1490SOL    HW216104   0.855   0.717   4.434 -1.0993 -2.2409  0.9275
 1491SOL     OW16105   3.296   4.329   4.415  0.1801 -0.0826  0.6642
 1491SOL    HW116106   3.314   4.410   4.367 -1.8687 -0.1199 -0.1708
 1491SOL    HW216107   3.200   4.329   4.420  0.0930 -0.9700 -0.9485
 1492SOL     OW16108   3.272   1.289  14.724  0.6269 -0.0466  0.4675
 1492SOL    HW116109   3.255   1.227  14.654 -0.3161 -0.6095  1.1867
 1492SOL    HW216110   3.328   1.356  14.686 -1.8275  1.9263  0.2768
 1493SOL     OW16111   3.935   1.173   4.481 -0.5664 -0.5913 -0.0256
 1493SOL    HW116112   3.910   1.103   4.421  1.4783 -1.3690  0.0310
 1493SOL    HW216113   3.969   1.122   4.554  2.0786 -0.6323 -1.2523
 1494SOL     OW16114   4.072   0.601   4.053  0.3512  0.3201  0.7531
 1494SOL    HW116115   4.155   0.556   4.069 -0.6167 -2.1118 -0.9704
 1494SOL    HW216116   4.007   0.549   4.101  0.8823 -1.0885 -0.0350
 1495SOL     OW16117   1.598   3.167  11.837 -0.1578  0.3573  0.1991
 1495SOL    HW116118   1.602   3.151  11.743  0.5915 -0.3039  0.3413
 1495SOL    HW216119   1.547   3.248  11.831 -1.5341 -0.6661 -1.9112
 1496SOL     OW16120   2.315   2.129   3.608  0.1318 -0.7344  0.1432
 1496SOL    HW116121   2.270   2.057   3.563 -0.7917  1.0843 -1.8441
 1496SOL    HW216122   2.248   2.194   3.587  1.0243  0.2096  0.1808
 1497SOL     OW16123   0.873   4.032   6.699 -0.4325 -0.3009 -0.2167
 1497SOL    HW116124   0.938   3.964   6.718 -0.5886 -0.6339 -0.8707
 1497SOL    HW216125   0.904   4.114   6.736 -0.4154 -1.0329  1.4015
 1498SOL     OW16126   0.645   4.663   2.734  0.5708  0.1874 -0.0910
 1498SOL    HW116127   0.623   4.681   2.826 -1.5326 -0.4360 -0.4824
 1498SOL    HW216128   0.562   4.627   2.703  2.4188 -2.6787 -1.7021
 1499SOL     OW16129   3.985   2.446   5.994  0.8346 -0.1067 -0.3992
 1499SOL    HW116130   3.946   2.493   6.067  1.0142 -0.2329 -0.2244
 1499SOL    HW216131   3.918   2.379   5.977 -0.8692  1.7326 -0.9608
 1500SOL     OW16132   1.586   4.423   8.929  0.0555  0.6981 -0.2804
 1500SOL    HW116133   1.620   4.512   8.937  0.5406  0.3349  1.7307
 1500SOL    HW216134   1.505   4.419   8.979  0.2462  0.9466  0.0520
 1501SOL     OW16135   4.367   2.449   9.439  0.5884 -0.0650  0.0173
 1501SOL    HW116136   4.286   2.500   9.433  1.0091  0.8118  1.8510
 1501SOL    HW216137   4.327   2.363   9.441  0.1636  0.0861 -1.6203
 1502SOL     OW16138   3.803   2.815   4.213  1.5495  0.4065  0.0176
 1502SOL    HW116139   3.854   2.750   4.165  1.4322  0.0268  0.4080
 1502SOL    HW216140   3.741   2.759   4.260  1.5917 -0.3357 -0.8112
 1503SOL     OW16141   4.058   1.526   0.807 -0.2625 -0.3494  0.0295
 1503SOL    HW116142   3.973   1.487   0.828  0.0537 -1.1836 -0.2294
 1503SOL    HW216143   4.058   1.509   0.712 -0.5884  0.9667 -0.2017
 1504SOL     OW16144   1.731   4.728   4.378  0.2431  0.6076  0.5286
 1504SOL    HW116145   1.729   0.067   4.440 -1.1556 -0.6319  1.9372
 1504SOL    HW216146   1.682   4.671   4.436  1.7975 -1.4591 -0.1828
 1505SOL     OW16147   1.369   4.035   2.591  0.5764  0.6022 -0.1283
 1505SOL    HW116148   1.392   3.998   2.676 -1.1046  1.7394  0.8044
 1505SOL    HW216149   1.455   4.062   2.557  0.6639 -1.1386 -1.2825
 1506SOL     OW16150   0.684   3.894   0.681 -0.3927 -0.3594  0.6790
 1506SOL    HW116151   0.724   3.965   0.731 -0.8407 -0.1480  0.7341
 1506SOL    HW216152   0.590   3.907   0.687 -0.6647 -1.8831 -0.2167
 1507SOL     OW16153   1.641   4.489  16.604  0.2392  0.7514 -0.4554
 1507SOL    HW116154   1.595   4.559  16.557 -0.2348  2.5113  2.6399
 1507SOL    HW216155   1.565   4.448  16.647 -0.5929 -0.1732 -2.7837
 1508SOL     OW16156   0.666   1.374   7.955  0.5129 -0.0114 -0.1222
 1508SOL    HW116157   0.646   1.317   7.880 -0.0553 -1.6766  1.2926
 1508SOL    HW216158   0.684   1.456   7.910  1.0875  0.6856  1.3809
 1509SOL     OW16159   2.001   4.663   6.073  0.4578 -0.2036  0.3731
 1509SOL    HW116160   2.044   4.602   6.013 -3.7901 -1.8108 -1.0869
 1509SOL    HW216161   2.000   4.616   6.156  1.4791  1.4609  1.3173
 1510SOL     OW16162   1.520   0.280   3.940 -0.6780  0.4126 -0.6840
 1510SOL    HW116163   1.502   0.187   3.929  3.7014 -0.5346  0.1576
 1510SOL    HW216164   1.438   0.320   3.910 -0.4478  1.6643  0.3372
 1511SOL     OW16165   0.922   3.033   9.567 -0.1153  0.0742 -0.2481
 1511SOL    HW116166   0.960   3.020   9.480  2.1162 -1.9329  1.0326
 1511SOL    HW216167   0.950   3.122   9.587 -0.3284  0.2131 -0.5573
 1512SOL     OW16168   3.660   3.447   1.135 -0.0831 -0.3061  0.2581
 1512SOL    HW116169   3.672   3.352   1.138  0.6505 -0.2417 -0.9119
 1512SOL    HW216170   3.741   3.475   1.093  0.5467 -2.3130  0.1788
 1513SOL     OW16171   0.213   0.573   6.212 -0.5983  0.7195 -0.2335
 1513SOL    HW116172   0.193   0.649   6.267 -0.2425  0.8413 -0.2731
 1513SOL    HW216173   0.248   0.619   6.136  0.5470  0.2662  0.0250
 1514SOL     OW16174   4.534   2.495   4.715 -0.1292 -0.1554 -0.3509
 1514SOL    HW116175   4.511   2.563   4.651 -0.6665  2.3362  2.4816
 1514SOL    HW216176   4.627   2.520   4.721  0.1363 -1.0074 -0.8797
 1515SOL     OW16177   3.523   3.166   6.119  0.1527  0.0238  0.4286
 1515SOL    HW116178   3.446   3.112   6.139 -0.5531  1.2270  0.9386
 1515SOL    HW216179   3.568   3.126   6.044 -0.0441  0.1912  0.2218
 1516SOL     OW16180   2.930   2.810  10.916  0.3804  0.5570 -0.3248
 1516SOL    HW116181   2.938   2.905  10.924  0.2210  0.3975  1.6801
 1516SOL    HW216182   2.854   2.804  10.859 -2.2787  0.9181  3.2361
 1517SOL     OW16183   2.534   2.034   5.245  0.6235  0.3858  0.0632
 1517SOL    HW116184   2.553   2.025   5.338  1.7419  3.5517  0.1245
 1517SOL    HW216185   2.440   2.031   5.258  0.5502  1.6004 -0.1874
 1518SOL     OW16186   0.909   4.191   2.892  0.1060 -0.1549  0.2720
 1518SOL    HW116187   0.990   4.152   2.923 -0.9144 -3.8273 -1.7469
 1518SOL    HW216188   0.890   4.243   2.971 -0.0973 -1.8303  1.3175
 1519SOL     OW16189   0.254   4.359   1.737 -0.2526 -0.4216  0.8809
 1519SOL    HW116190   0.332   4.305   1.725 -0.0133  0.1952 -0.4299
 1519SOL    HW216191   0.273   4.425   1.803 -1.1629  0.2467  0.4817
 1520SOL     OW16192   0.357   4.542   2.820 -0.3439 -0.2682 -0.5491
 1520SOL    HW116193   0.264   4.549   2.802 -0.4178 -1.6048 -0.7138
 1520SOL    HW216194   0.369   4.629   2.859 -0.1883 -0.6684  0.3052
 1521SOL     OW16195   2.434   0.974   2.150  0.3532  0.7799 -0.3899
 1521SOL    HW116196   2.399   1.062   2.136 -1.7661 -0.3758 -2.3538
 1521SOL    HW216197   2.351   0.931   2.170  0.8801 -0.4087 -0.8022
 1522SOL     OW16198   2.161   1.263  10.629  0.3909  0.2337 -0.1255
 1522SOL    HW116199   2.195   1.213  10.703 -0.2735  0.5700  0.4084
 1522SOL    HW216200   2.153   1.347  10.673  2.4462  1.5204 -2.1978
 1523SOL     OW16201   0.836   0.370   2.799 -0.0850  0.5800 -0.3593
 1523SOL    HW116202   0.850   0.421   2.719  2.3529  0.2096 -0.1826
 1523SOL    HW216203   0.805   0.289   2.759 -2.4952  0.5839  1.5225
 1524SOL     OW16204   4.128   1.944   2.562  0.1755 -0.6596  0.1319
 1524SOL    HW116205   4.127   1.855   2.528 -0.2607 -1.0050  1.0699
 1524SOL    HW216206   4.222   1.959   2.567  0.1829 -0.2408 -1.0407
 1525SOL     OW16207   0.005   0.016   9.164  0.0645  0.0260  0.6753
 1525SOL    HW116208   4.649   0.035   9.135 -0.0898 -0.6544  0.7247
 1525SOL    HW216209   4.728   4.724   9.255 -1.4528  0.4585  0.6185
 1526SOL     OW16210   1.230   3.164   0.024  0.3576  0.5693  0.3382
 1526SOL    HW116211   1.259   3.073   0.038 -2.7497 -0.0795  2.4548
 1526SOL    HW216212   1.241   3.206   0.109  1.1668  2.0012 -0.4788
 1527SOL     OW16213   0.678   4.287   2.552 -0.2170 -0.0386 -0.2163
 1527SOL    HW116214   0.621   4.269   2.477 -0.2274 -2.2841  0.3313
 1527SOL    HW216215   0.718   4.363   2.509 -0.8223  0.1159 -0.5127
 1528SOL     OW16216   4.297   3.370   2.154  0.2764 -0.3856 -0.3920
 1528SOL    HW116217   4.258   3.339   2.237  1.1288 -0.1739  0.0864
 1528SOL    HW216218   4.348   3.445   2.184 -0.0320 -0.4474  0.2899
 1529SOL     OW16219   1.059   3.123   7.551  0.1780 -0.3138 -1.1353
 1529SOL    HW116220   1.128   3.150   7.612 -0.7037  0.6481 -0.5668
 1529SOL    HW216221   0.979   3.151   7.595  0.6970  1.4516 -1.2923
 1530SOL     OW16222   2.501   1.065  13.967  0.1536  0.1920  0.2450
 1530SOL    HW116223   2.517   1.001  14.037  0.7934  0.0699 -0.0108
 1530SOL    HW216224   2.515   1.145  14.017 -1.0304 -0.2255  1.2493
 1531SOL     OW16225   0.662   3.922  16.892  0.4091  0.4537 -0.0189
 1531SOL    HW116226   0.733   3.985  16.892  1.8111 -1.1332  0.9867
 1531SOL    HW216227   0.694   3.846  16.843  0.2911  2.0931 -2.6396
 1532SOL     OW16228   3.497   2.473   7.973  0.1713 -0.2569  0.0869
 1532SOL    HW116229   3.457   2.551   7.935  0.3445 -0.0532  0.3177
 1532SOL    HW216230   3.458   2.472   8.060 -2.9038  0.3522 -1.2909
 1533SOL     OW16231   0.714   0.221   6.186 -0.6422  0.0772  0.0378
 1533SOL    HW116232   0.631   0.179   6.164  0.1330 -1.3935 -0.0428
 1533SOL    HW216233   0.718   0.272   6.105  0.7106  0.2380  0.2115
 1534SOL     OW16234   2.595   0.422   3.029  0.1277  0.6301 -0.1573
 1534SOL    HW116235   2.670   0.458   3.074  1.4648 -0.4909 -1.4692
 1534SOL    HW216236   2.628   0.413   2.939 -0.6203  1.8326 -0.5582
 1535SOL     OW16237   4.024   1.644   5.816 -0.3020  0.3856 -0.1011
 1535SOL    HW116238   3.934   1.627   5.843  0.2159 -0.4378  1.0730
 1535SOL    HW216239   4.041   1.724   5.865  1.1665 -0.4710  0.7795
 1536SOL     OW16240   4.305   4.247   6.418  0.8238 -0.7861 -0.2056
 1536SOL    HW116241   4.381   4.304   6.428 -0.6041  1.2834 -1.0338
 1536SOL    HW216242   4.310   4.183   6.489 -0.9411 -1.0254 -0.2889
 1537SOL     OW16243   2.491   1.338  16.367 -0.4343 -0.0660  0.1310
 1537SOL    HW116244   2.477   1.265  16.427 -1.2301 -0.9289 -1.1124
 1537SOL    HW216245   2.581   1.370  16.372 -0.6495  0.1184  2.5569
 1538SOL     OW16246   4.667   1.454   3.916 -0.0553  0.1613  1.2200
 1538SOL    HW116247   0.019   1.494   3.927 -0.0098  0.5323 -0.5127
 1538SOL    HW216248   4.627   1.510   3.849  0.4522 -2.3526 -1.1942
 1539SOL     OW16249   4.240   2.383  17.465 -1.0587  0.0266 -0.2815
 1539SOL    HW116250   4.194   2.309  17.425 -1.5852  0.6034 -0.7393
 1539SOL    HW216251   4.176   2.425  17.522 -1.1213  0.2799 -0.5414
 1540SOL     OW16252   3.686   1.225  10.300  0.6098 -0.2383  0.2378
 1540SOL    HW116253   3.592   1.204  10.296  0.9389 -1.4390 -1.2998
 1540SOL    HW216254   3.703   1.218  10.394 -1.8743  2.3523  0.8986
 1541SOL     OW16255   0.003   0.394   6.369 -0.0957  0.0078 -0.2885
 1541SOL    HW116256   4.694   0.440   6.297  1.5358  0.0597 -1.2342
 1541SOL    HW216257   0.093   0.423   6.353  0.6063 -1.7460  0.3851
 1542SOL     OW16258   1.566   0.062   5.485 -0.0551 -0.3350  0.4650
 1542SOL    HW116259   1.568   0.149   5.526  2.5994  0.0801 -0.5226
 1542SOL    HW216260   1.615   0.084   5.406 -3.2753 -1.3239 -1.8321
 1543SOL     OW16261   4.531   1.069   1.925  0.2922 -0.5214  0.0800
 1543SOL    HW116262   4.473   1.118   1.983  2.0441  0.3172  1.1148
 1543SOL    HW216263   4.610   1.067   1.979 -0.0780  1.4627  0.6917
 1544SOL     OW16264   0.822   4.696  10.110  0.3028  0.1396 -0.2867
 1544SOL    HW116265   0.761   4.673  10.040  1.5021 -1.9191 -0.6699
 1544SOL    HW216266   0.882   0.012  10.055  0.2129  1.1360  0.5208
 1545SOL     OW16267   3.680   4.545  14.019 -0.0198 -0.5140 -0.2717
 1545SOL    HW116268   3.668   4.613  14.086 -3.2966 -0.8244 -0.5218
 1545SOL    HW216269   3.775   4.547  14.025  0.1443 -0.8972 -2.7148
 1546SOL     OW16270   0.453   0.644   5.779  0.2424  0.1078  0.3913
 1546SOL    HW116271   0.516   0.581   5.745 -0.9092 -0.1013 -1.4073
 1546SOL    HW216272   0.444   0.611   5.868 -2.9381 -1.0683 -0.3682
 1547SOL     OW16273   2.063   0.666   6.064  0.8161 -0.0071  0.5047
 1547SOL    HW116274   2.013   0.668   5.983  1.3799 -0.1250  0.1577
 1547SOL    HW216275   2.064   0.571   6.077 -0.5063 -0.2884 -1.5095
 1548SOL     OW16276   1.072   3.713  13.044  0.0220  0.6079 -0.4514
 1548SOL    HW116277   1.044   3.775  13.111  0.9223  1.3906 -0.8109
 1548SOL    HW216278   1.039   3.764  12.970  1.0381  1.4475 -0.3266
 1549SOL     OW16279   0.079   3.655  15.174  0.2801  0.2014 -0.2590
 1549SOL    HW116280   0.063   3.691  15.086  1.0920  0.3505 -0.3479
 1549SOL    HW216281   0.163   3.697  15.192 -0.0686 -0.1382  2.0856
 1550SOL     OW16282   3.815   2.205   4.890 -0.0322  0.3039  0.2352
 1550SOL    HW116283   3.814   2.112   4.869 -0.0316  0.4740 -0.5378
 1550SOL    HW216284   3.828   2.203   4.985  3.6606  0.7764 -0.2591
 1551SOL     OW16285   3.982   2.486  17.512  0.2227  0.0512  0.3551
 1551SOL    HW116286   3.901   2.436  17.505  0.5699 -0.5163  0.3989
 1551SOL    HW216287   3.982   2.533  17.428  0.1860 -0.6896 -0.0543
 1552SOL     OW16288   0.459   4.720   8.972  0.0438  0.2131 -0.8515
 1552SOL    HW116289   0.542   0.024   8.946 -0.7937  0.3461 -3.3072
 1552SOL    HW216290   0.405   0.027   8.904  0.1712  2.9751  0.7022
 1553SOL     OW16291   4.101   2.471   3.905 -0.2875  0.2082 -0.1723
 1553SOL    HW116292   4.025   2.425   3.871 -0.9700  1.4342 -0.2835
 1553SOL    HW216293   4.118   2.537   3.838  4.0374  0.3229  1.0018
 1554SOL     OW16294   1.876   4.453   2.574 -0.1507  0.0769 -0.3318
 1554SOL    HW116295   1.956   4.499   2.549  0.6884  0.2685  2.6338
 1554SOL    HW216296   1.814   4.525   2.565 -0.2306 -0.1630 -1.6631
 1555SOL     OW16297   3.711   1.342   2.874 -0.4839 -0.1706  0.2023
 1555SOL    HW116298   3.705   1.284   2.798 -1.5847 -1.8145  1.5458
 1555SOL    HW216299   3.679   1.425   2.838 -1.2968 -0.7451 -0.4319
 1556SOL     OW16300   1.757   2.798  16.720 -0.1442  0.1250  0.3327
 1556SOL    HW116301   1.707   2.830  16.795 -3.2642 -1.2342 -1.1672
 1556SOL    HW216302   1.814   2.736  16.766 -0.5862  0.6379  1.5713
 1557SOL     OW16303   4.009   1.552   6.205 -0.6500  0.0835  0.1003
 1557SOL    HW116304   3.979   1.569   6.294 -0.2588  2.3630 -0.1967
 1557SOL    HW216305   4.097   1.528   6.232 -0.5206 -0.8942 -1.2270
 1558SOL     OW16306   0.207   4.689   6.859 -0.2698 -0.7797  0.1149
 1558SOL    HW116307   0.149   0.006   6.915  0.4382  0.8373 -0.6163
 1558SOL    HW216308   0.169   4.709   6.773  1.0303 -0.9270 -0.4966
 1559SOL     OW16309   4.642   3.860   6.127  0.2237  0.2195  0.1551
 1559SOL    HW116310   4.633   3.888   6.218 -0.2057  0.9364 -0.1008
 1559SOL    HW216311   4.715   3.916   6.098 -1.9532  1.8254 -2.2414
 1560SOL     OW16312   2.335   2.002  17.282 -0.5619 -0.1804  0.4294
 1560SOL    HW116313   2.373   1.973  17.199  1.3436  0.1175  1.1752
 1560SOL    HW216314   2.244   2.028  17.269 -0.4952 -0.1285  0.0725
 1561SOL     OW16315   1.142   2.259   5.255 -0.4566 -0.2352 -0.1572
 1561SOL    HW116316   1.081   2.287   5.323  0.7843  0.3948  0.6890
 1561SOL    HW216317   1.082   2.253   5.180  0.8806 -0.5515 -1.2091
 1562SOL     OW16318   0.938   1.013   5.311  0.0331 -0.2276 -0.2419
 1562SOL    HW116319   0.938   0.980   5.221 -1.5291 -0.5666 -0.1189
 1562SOL    HW216320   0.857   1.063   5.320 -1.7682 -3.1386 -0.2216
 1563SOL     OW16321   3.054   0.592   7.880  0.3983 -0.1790  0.3397
 1563SOL    HW116322   2.996   0.564   7.951  0.6221  0.3393  0.7247
 1563SOL    HW216323   3.113   0.653   7.924  0.2231  0.7561 -0.7299
 1564SOL     OW16324   3.239   2.446  11.475 -0.0343 -0.4841 -0.0890
 1564SOL    HW116325   3.172   2.496  11.429  1.7275  2.0531  0.1191
 1564SOL    HW216326   3.223   2.461  11.568  0.3823 -0.4663 -0.0223
 1565SOL     OW16327   1.267   2.112  17.385  0.2597 -0.0232 -0.0192
 1565SOL    HW116328   1.233   2.194  17.349  2.6544  1.2623  0.6906
 1565SOL    HW216329   1.196   2.055  17.354  1.4450 -0.9467 -0.9888
 1566SOL     OW16330   0.778   1.259  10.733 -0.1678 -0.7800  0.2360
 1566SOL    HW116331   0.768   1.165  10.723 -1.6016 -0.5484 -0.7094
 1566SOL    HW216332   0.739   1.280  10.818  1.5296  2.1303  0.2866
 1567SOL     OW16333   0.972   2.957   9.323 -0.4382  0.2277  0.2899
 1567SOL    HW116334   0.962   2.980   9.230  0.9786 -0.6607 -0.0728
 1567SOL    HW216335   1.056   2.912   9.317 -2.4463 -3.2371 -1.4705
 1568SOL     OW16336   4.200   2.668   2.976  0.2454  0.0069 -0.1202
 1568SOL    HW116337   4.144   2.704   2.908 -0.7794 -0.7020  0.3463
 1568SOL    HW216338   4.139   2.601   3.007  2.5047 -1.6957  0.6262
 1569SOL     OW16339   1.631   0.069   2.087  0.6550 -0.1397  0.1376
 1569SOL    HW116340   1.547   0.076   2.042 -0.4560 -0.6034  2.1300
 1569SOL    HW216341   1.628   0.138   2.154  0.6631  1.6210 -1.6780
 1570SOL     OW16342   0.805   1.777   6.679  0.5851 -0.0962 -0.1215
 1570SOL    HW116343   0.881   1.815   6.723  0.0885  0.8758 -0.0951
 1570SOL    HW216344   0.837   1.698   6.636 -0.3712 -0.2798 -0.5054
 1571SOL     OW16345   2.226   3.914   5.776 -0.3227  0.5772  0.5743
 1571SOL    HW116346   2.305   3.892   5.826 -1.3234  0.7799  2.2586
 1571SOL    HW216347   2.262   3.999   5.750  2.2854 -0.6503  0.1821
 1572SOL     OW16348   4.282   1.213   3.975  0.1929  0.0613 -0.0994
 1572SOL    HW116349   4.238   1.147   3.922 -0.6631  1.2573 -0.8821
 1572SOL    HW216350   4.230   1.291   3.954  0.2996 -0.0913 -0.9355
 1573SOL     OW16351   4.176   1.935   6.402  0.3347  0.6109  0.2271
 1573SOL    HW116352   4.150   1.898   6.318  1.1047 -0.1661  0.3292
 1573SOL    HW216353   4.268   1.907   6.404 -0.2847 -1.2505  2.4647
 1574SOL     OW16354   0.716   2.187   2.055 -0.3345 -0.0800  0.5583
 1574SOL    HW116355   0.782   2.217   2.117 -0.7990  0.3623  0.8441
 1574SOL    HW216356   0.640   2.207   2.110  0.1139 -0.3304  1.2707
 1575SOL     OW16357   4.007   2.855   7.497  0.0360  0.5418  0.0563
 1575SOL    HW116358   4.056   2.780   7.531  0.3252  0.5050 -0.4527
 1575SOL    HW216359   4.074   2.900   7.445 -0.3877 -1.4190 -2.1284
 1576SOL     OW16360   1.052   2.309  11.617  0.3511  0.0463  0.2278
 1576SOL    HW116361   0.998   2.287  11.542  0.3498 -0.7382  0.4551
 1576SOL    HW216362   0.995   2.367  11.669 -1.5494 -0.7304 -0.9929
 1577SOL     OW16363   1.190   1.674  15.552 -0.4644  0.5163  0.1150
 1577SOL    HW116364   1.246   1.680  15.629  0.0087  0.1076 -0.2017
 1577SOL    HW216365   1.138   1.753  15.570  1.3287  2.1875 -2.0047
 1578SOL     OW16366   1.720   3.422  17.488 -0.1768  0.3278 -0.0513
 1578SOL    HW116367   1.769   3.502  17.468 -1.9799  1.7996  1.4447
 1578SOL    HW216368   1.692   3.437  17.578 -1.9777 -1.9126 -0.2463
 1579SOL     OW16369   0.182   0.758  11.896  0.0697 -0.0980  0.0620
 1579SOL    HW116370   0.233   0.832  11.930  0.3948 -0.9407  1.3665
 1579SOL    HW216371   0.140   0.812  11.828 -0.6129  0.1063  0.6451
 1580SOL     OW16372   1.161   2.317   8.096  0.5491  0.4041 -0.1963
 1580SOL    HW116373   1.127   2.399   8.131 -0.4574 -0.4669  0.8804
 1580SOL    HW216374   1.199   2.345   8.012  0.7329 -0.1938 -0.3128
 1581SOL     OW16375   4.565   0.418  13.601  0.0190  0.6028  0.2332
 1581SOL    HW116376   4.641   0.476  13.609  0.5744  0.0885 -1.2328
 1581SOL    HW216377   4.604   0.343  13.556 -0.9851 -0.3835  1.0148
 1582SOL     OW16378   2.809   4.685   4.354 -0.5938 -0.0552  0.1511
 1582SOL    HW116379   2.766   4.611   4.398  2.8571 -0.4349  3.0023
 1582SOL    HW216380   2.783   4.678   4.263 -2.6988 -0.5015  0.7894
 1583SOL     OW16381   0.957   3.851   5.204 -0.1881 -0.2524  0.2611
 1583SOL    HW116382   0.901   3.926   5.182  1.7242  1.4574  1.2024
 1583SOL    HW216383   0.889   3.785   5.220 -1.0475  0.8414  1.1520
 1584SOL     OW16384   1.363   2.640   5.744 -0.4848  0.4378  0.2797
 1584SOL    HW116385   1.363   2.559   5.692  1.7223 -0.3070  1.4235
 1584SOL    HW216386   1.437   2.616   5.800 -1.9982  0.6215  2.3543
 1585SOL     OW16387   3.628   1.922  11.652  0.3672  0.2306 -0.0880
 1585SOL    HW116388   3.546   1.924  11.702  0.7347 -3.2301  0.6476
 1585SOL    HW216389   3.673   2.001  11.683 -1.7443  0.7561  1.6328
 1586SOL     OW16390   0.529   1.222   8.606  0.2868 -0.0798  0.0284
 1586SOL    HW116391   0.584   1.266   8.541 -0.0052  0.4283  0.1229
 1586SOL    HW216392   0.504   1.293   8.666  1.2135 -0.1528  0.5063
 1587SOL     OW16393   2.112   1.855   3.998 -1.2754  0.3254 -0.3916
 1587SOL    HW116394   2.137   1.921   4.062 -1.5217 -0.0295  0.0660
 1587SOL    HW216395   2.174   1.790   4.030 -1.2903  1.2362  1.5007
 1588SOL     OW16396   3.701   0.648   4.657 -0.3869 -0.1495 -0.4780
 1588SOL    HW116397   3.700   0.641   4.752  1.3030  2.3662 -0.2557
 1588SOL    HW216398   3.650   0.728   4.643 -2.3155 -1.2822  0.1329
 1589SOL     OW16399   0.716   2.318  14.522  0.0332  0.0403 -0.2465
 1589SOL    HW116400   0.647   2.341  14.459  0.1183 -1.2822 -0.8361
 1589SOL    HW216401   0.695   2.370  14.599  0.0864  1.2659 -1.0562
 1590SOL     OW16402   3.222   2.933   8.852 -0.1914 -0.4997 -0.2618
 1590SOL    HW116403   3.252   3.022   8.873 -3.3431  0.1980  1.2063
 1590SOL    HW216404   3.258   2.887   8.928 -1.7436  1.5763  1.7244
 1591SOL     OW16405   3.718   4.217   5.321 -0.0063 -0.2828 -0.6368
 1591SOL    HW116406   3.782   4.262   5.376  0.1556 -1.4098  0.0951
 1591SOL    HW216407   3.746   4.129   5.346 -0.0827  0.0593  0.6178
 1592SOL     OW16408   2.663   3.178  11.372  0.0408  0.1086  0.2896
 1592SOL    HW116409   2.604   3.242  11.332 -0.6361 -1.1040 -0.6532
 1592SOL    HW216410   2.725   3.231  11.421 -0.3183  1.2430 -0.4878
 1593SOL     OW16411   4.419   0.961   6.407  0.2768 -0.1628  0.0087
 1593SOL    HW116412   4.482   0.929   6.471  0.8820  1.1563  0.0776
 1593SOL    HW216413   4.421   0.891   6.343  1.5082  1.3606 -1.6119
 1594SOL     OW16414   2.559   1.888   3.502  0.0882 -0.0638 -0.0823
 1594SOL    HW116415   2.606   1.805   3.498  2.2715  1.1988 -0.5644
 1594SOL    HW216416   2.523   1.894   3.413 -0.4871  0.2385  0.1654
 1595SOL     OW16417   0.834   2.613   6.393 -0.6263  0.2502 -0.1789
 1595SOL    HW116418   0.849   2.707   6.398  0.5282  0.1504 -1.6440
 1595SOL    HW216419   0.836   2.595   6.299 -0.3606 -0.6933  0.0084
 1596SOL     OW16420   4.465   1.957   1.575 -0.4284  0.1664 -0.0148
 1596SOL    HW116421   4.427   1.945   1.662  0.6245  0.2042  0.4468
 1596SOL    HW216422   4.387   1.949   1.520 -0.1603 -2.0269 -0.0903
 1597SOL     OW16423   0.728   4.298   3.592 -0.2402 -0.8190  0.0485
 1597SOL    HW116424   0.783   4.357   3.541 -0.6350 -0.4841 -0.0011
 1597SOL    HW216425   0.770   4.214   3.574  1.9036  0.6869 -1.8422
 1598SOL     OW16426   3.178   0.603   8.701  0.3330 -0.0407  0.5339
 1598SOL    HW116427   3.265   0.644   8.695 -1.5565  3.5439 -2.4099
 1598SOL    HW216428   3.193   0.528   8.643  0.9814 -0.5453  1.3546
 1599SOL     OW16429   0.910   3.212   1.839 -0.3823 -0.0309  0.2663
 1599SOL    HW116430   0.862   3.147   1.788 -0.0644 -1.2004  1.4725
 1599SOL    HW216431   0.980   3.232   1.778  2.0266 -1.5172  2.5762
 1600SOL     OW16432   2.395   4.310   3.035 -0.2795  0.4511 -0.3272
 1600SOL    HW116433   2.409   4.228   2.987  1.1232 -1.1108  2.7884
 1600SOL    HW216434   2.456   4.366   2.985  0.1670  0.2234 -0.0341
 1601SOL     OW16435   3.064   2.216   3.834 -0.2425 -0.0563 -0.5052
 1601SOL    HW116436   2.987   2.269   3.854 -0.6044 -0.4106 -0.9644
 1601SOL    HW216437   3.135   2.255   3.886  1.0729 -0.2372 -2.1640
 1602SOL     OW16438   0.100   1.526  14.909  0.3949 -0.2951 -0.0654
 1602SOL    HW116439   0.114   1.445  14.859  0.5606 -0.6361  0.5341
 1602SOL    HW216440   0.180   1.572  14.885 -0.7221  1.4761 -0.4331
 1603SOL     OW16441   2.085   3.942  12.708  0.6661 -0.5844 -0.3792
 1603SOL    HW116442   2.167   3.908  12.745  0.7407 -0.6842 -0.6343
 1603SOL    HW216443   2.128   4.010  12.655 -0.8775  0.9669  0.3854
 1604SOL     OW16444   1.515   0.012   3.208 -0.2276 -0.1263  0.3759
 1604SOL    HW116445   1.598   4.698   3.215  0.7031  1.4318  0.0469
 1604SOL    HW216446   1.542   0.103   3.218  1.4212 -0.6389  0.5968
 1605SOL     OW16447   3.506   2.666   0.131 -0.3828  0.2649 -0.2761
 1605SOL    HW116448   3.430   2.662   0.190  0.5247 -0.0282  0.8718
 1605SOL    HW216449   3.574   2.625   0.185  1.2470 -1.4122 -3.6179
 1606SOL     OW16450   0.485   3.669   4.556 -0.1775  0.1583  0.3392
 1606SOL    HW116451   0.449   3.724   4.486  0.4576  0.9900  0.6599
 1606SOL    HW216452   0.413   3.689   4.616  1.2506 -0.5163  2.2489
 1607SOL     OW16453   0.035   0.596   3.596 -0.1415  0.0845 -0.3980
 1607SOL    HW116454   0.111   0.539   3.592  0.5261  0.9141  0.7579
 1607SOL    HW216455   0.080   0.677   3.618  0.5805 -0.3522 -0.2824
 1608SOL     OW16456   0.309   4.568  13.415  0.3406  0.1553 -0.1700
 1608SOL    HW116457   0.268   4.586  13.330 -0.8766 -2.3115 -0.1159
 1608SOL    HW216458   0.259   4.619  13.478  0.8102 -0.3366  0.5921
 1609SOL     OW16459   0.544   3.253   7.990 -0.7447  0.1283 -0.3784
 1609SOL    HW116460   0.529   3.347   8.002 -0.9301  0.0334  0.1464
 1609SOL    HW216461   0.535   3.229   8.082  1.6678  1.5301  0.2200
 1610SOL     OW16462   1.984   3.307  15.875  0.4872 -0.1839  0.1843
 1610SOL    HW116463   2.004   3.397  15.852 -0.0105 -0.1741 -0.1919
 1610SOL    HW216464   1.975   3.266  15.789  1.8001 -1.4245  0.6296
 1611SOL     OW16465   0.461   2.679   8.584  0.3846  0.0986 -0.1688
 1611SOL    HW116466   0.448   2.609   8.520 -0.3516 -1.1962  1.3980
 1611SOL    HW216467   0.372   2.677   8.619  0.9644  0.1261  1.3091
 1612SOL     OW16468   3.302   0.064   8.697  0.5306 -0.1731  0.0538
 1612SOL    HW116469   3.277   4.715   8.738  2.8050 -0.2879  1.1728
 1612SOL    HW216470   3.255   0.127   8.752  1.8064 -0.7958  1.8691
 1613SOL     OW16471   1.810   4.632   9.377 -0.1498  0.9738 -0.5312
 1613SOL    HW116472   1.732   4.686   9.387 -0.4998 -0.1470  2.7978
 1613SOL    HW216473   1.766   4.568   9.321 -0.1308  2.2620 -2.0213
 1614SOL     OW16474   3.480   0.429   4.685 -0.3525 -0.2747  0.1947
 1614SOL    HW116475   3.560   0.481   4.688  0.3153 -1.2556 -0.6335
 1614SOL    HW216476   3.508   0.338   4.670 -1.3407 -0.5711  0.1283
 1615SOL     OW16477   3.972   3.648  16.859 -0.5270  0.3168 -0.7244
 1615SOL    HW116478   3.888   3.603  16.855 -1.4002  1.8066  0.7867
 1615SOL    HW216479   3.943   3.739  16.865  1.4568  0.8128  1.2540
 1616SOL     OW16480   4.562   3.031   5.295  0.6972 -0.4001  0.0545
 1616SOL    HW116481   4.522   2.945   5.283  0.4742 -0.4549  1.2074
 1616SOL    HW216482   4.495   3.079   5.344  0.5353 -0.3955 -0.1730
 1617SOL     OW16483   1.844   3.841   0.421 -0.0203  0.1073 -0.1923
 1617SOL    HW116484   1.837   3.837   0.516  0.5918 -0.0738 -0.1559
 1617SOL    HW216485   1.913   3.776   0.408 -0.2680 -0.4934  1.6010
 1618SOL     OW16486   1.300   0.731   9.384  0.0919  0.4403  0.1435
 1618SOL    HW116487   1.364   0.788   9.341 -0.9890  1.8138  0.3617
 1618SOL    HW216488   1.243   0.794   9.428 -0.4552 -0.0515  0.1322
 1619SOL     OW16489   4.228   0.039   5.102 -0.6361  0.1544 -0.5396
 1619SOL    HW116490   4.152   4.715   5.108 -1.0040  0.6760 -0.2108
 1619SOL    HW216491   4.195   0.104   5.041  0.0716  0.3912 -0.6730
 1620SOL     OW16492   3.237   0.011   6.041 -0.3572 -0.2673 -0.0106
 1620SOL    HW116493   3.181   4.708   5.972 -0.3908  0.0471 -0.1486
 1620SOL    HW216494   3.302   0.058   5.990  0.4593  0.1761  1.4598
 1621SOL     OW16495   4.535   4.333  17.697  0.5055  1.0635 -0.3905
 1621SOL    HW116496   4.456   4.279  17.705  0.0848  1.8309  0.4897
 1621SOL    HW216497   4.580   4.305  17.617  2.1830  2.9393 -0.1029
 1622SOL     OW16498   0.192   0.470   5.629  0.3974  0.4085 -0.1263
 1622SOL    HW116499   0.100   0.444   5.633  0.8040 -1.1423 -0.7284
 1622SOL    HW216500   0.229   0.401   5.684  2.0302  0.2685 -1.4082
 1623SOL     OW16501   0.185   2.335   5.992 -0.0767  0.0133 -0.2298
 1623SOL    HW116502   0.215   2.246   5.970 -2.2199 -0.4078 -1.4770
 1623SOL    HW216503   0.122   2.361   5.925  0.2643 -0.1649 -0.6184
 1624SOL     OW16504   3.226   3.785   2.781  0.0633 -0.4913 -0.1293
 1624SOL    HW116505   3.132   3.793   2.766 -0.0019  3.3340  2.3357
 1624SOL    HW216506   3.268   3.857   2.734 -0.8701  1.1088  1.4966
 1625SOL     OW16507   4.337   0.147   5.649 -0.0013  0.3697  0.6449
 1625SOL    HW116508   4.313   0.072   5.703  2.2260 -1.2972 -0.6495
 1625SOL    HW216509   4.274   0.141   5.577 -1.3460 -0.5030  1.9230
 1626SOL     OW16510   2.657   0.864   2.829  0.5018 -0.1917  0.1224
 1626SOL    HW116511   2.742   0.869   2.785 -0.7384  1.6194 -2.0810
 1626SOL    HW216512   2.658   0.941   2.885  1.5469 -0.0182 -0.1328
 1627SOL     OW16513   1.113   3.618  13.353 -0.1448  0.3539 -0.5484
 1627SOL    HW116514   1.048   3.592  13.418 -2.2737 -0.8403 -3.1409
 1627SOL    HW216515   1.065   3.667  13.286 -0.8526  1.6602  0.9169
 1628SOL     OW16516   3.629   2.260   7.018  0.2491  0.1130 -0.6647
 1628SOL    HW116517   3.593   2.266   6.929 -0.9301  2.8708 -0.0186
 1628SOL    HW216518   3.612   2.167   7.032 -1.9963  0.5708 -0.2063
 1629SOL     OW16519   0.457   4.702   6.772  0.5194 -0.6295 -0.2972
 1629SOL    HW116520   0.363   4.701   6.792  0.5622 -2.4325 -0.1753
 1629SOL    HW216521   0.473   0.054   6.734  0.7022 -1.6533 -2.5625
 1630SOL     OW16522   3.593   4.233   2.794 -0.2279 -0.5144 -0.2145
 1630SOL    HW116523   3.620   4.142   2.805  1.6892 -0.3007 -3.0842
 1630SOL    HW216524   3.675   4.276   2.768 -1.9477  3.1257  0.3710
 1631SOL     OW16525   0.867   2.167   1.817  0.0820  0.4233 -0.1571
 1631SOL    HW116526   0.807   2.161   1.891  0.0846  0.3316 -0.1619
 1631SOL    HW216527   0.868   2.262   1.811 -1.5004  0.6643  3.1641
 1632SOL     OW16528   4.436   2.807  12.217 -0.2160 -0.2126 -0.2444
 1632SOL    HW116529   4.463   2.896  12.192  0.9944 -0.3741  0.4564
 1632SOL    HW216530   4.447   2.764  12.133 -0.4340  1.7930 -1.2983
 1633SOL     OW16531   4.640   1.985   4.540 -0.1757 -0.2493 -0.0267
 1633SOL    HW116532   4.587   1.944   4.471  0.5079  0.8471 -1.2169
 1633SOL    HW216533   4.572   2.001   4.605  0.1096  0.1258  0.1760
 1634SOL     OW16534   0.586   3.972   8.789  0.9914 -0.6250 -0.5690
 1634SOL    HW116535   0.615   4.055   8.826 -0.4519 -0.5486  0.3948
 1634SOL    HW216536   0.664   3.949   8.740  0.6352  0.2343 -1.5438
 1635SOL     OW16537   3.410   0.017   5.414  0.4324  0.3143  0.0751
 1635SOL    HW116538   3.356   4.692   5.467  1.3976 -0.1692  0.5153
 1635SOL    HW216539   3.350   0.028   5.340 -1.6003 -2.7527  1.2917
 1636SOL     OW16540   4.673   1.900   0.966 -0.6619  0.5588 -0.7661
 1636SOL    HW116541   4.646   1.980   1.011  0.1323 -0.5253  1.6808
 1636SOL    HW216542   4.664   1.915   0.872 -0.5135  2.0481 -0.5423
 1637SOL     OW16543   0.851   1.413   9.741  0.0761  0.1871  0.2047
 1637SOL    HW116544   0.796   1.465   9.683 -2.0483 -0.6168  1.5250
 1637SOL    HW216545   0.812   1.327   9.758  0.9465 -0.3297 -0.3638
 1638SOL     OW16546   4.401   2.334   3.055  0.2358  0.3592  0.4124
 1638SOL    HW116547   4.390   2.389   2.977  0.1581 -0.0673  0.1202
 1638SOL    HW216548   4.451   2.257   3.028 -1.7734 -0.4561 -0.9940
 1639SOL     OW16549   2.021   1.356   0.756 -0.0720  0.6623  0.5825
 1639SOL    HW116550   2.053   1.323   0.672  0.6021 -0.8394  1.4469
 1639SOL    HW216551   1.963   1.283   0.777  0.1789  0.5638  0.9211
 1640SOL     OW16552   1.706   2.746   3.951 -0.1577 -0.0645 -0.7953
 1640SOL    HW116553   1.744   2.670   3.994  2.6306  2.4577  1.1886
 1640SOL    HW216554   1.660   2.707   3.877 -0.2740  0.2303 -0.8798
 1641SOL     OW16555   2.538   1.165   7.288  0.0103  0.2042 -0.4732
 1641SOL    HW116556   2.554   1.089   7.232  0.0008  2.4154 -3.4603
 1641SOL    HW216557   2.510   1.232   7.226  0.4360  1.1286  0.3258
 1642SOL     OW16558   3.755   2.745  12.940  0.3340 -0.0266  0.2253
 1642SOL    HW116559   3.752   2.654  12.970 -1.0675 -0.0482 -0.0049
 1642SOL    HW216560   3.840   2.775  12.974  0.5604 -0.8694  0.4212
 1643SOL     OW16561   1.837   4.696   2.800 -0.3267 -0.0609 -0.0593
 1643SOL    HW116562   1.754   0.004   2.778 -0.7613  0.1513  2.0141
 1643SOL    HW216563   1.814   4.606   2.822  1.0397 -0.8343 -1.7890
 1644SOL     OW16564   2.138   1.525  10.767 -0.5144 -0.3016  0.3598
 1644SOL    HW116565   2.216   1.570  10.736  0.8319 -1.6764  1.7556
 1644SOL    HW216566   2.064   1.570  10.726  0.5496  1.2238  0.1274
 1645SOL     OW16567   1.664   2.077   3.853  0.2463 -0.0851 -0.5406
 1645SOL    HW116568   1.658   1.998   3.800  0.9893  0.3003 -1.1930
 1645SOL    HW216569   1.752   2.111   3.836  0.7093 -1.3089 -0.5840
 1646SOL     OW16570   4.367   0.352  16.316  0.0583  0.6358  0.0159
 1646SOL    HW116571   4.285   0.369  16.362  0.9871  1.3696  1.4278
 1646SOL    HW216572   4.414   0.303  16.383 -1.6131 -1.5718 -0.4399
 1647SOL     OW16573   3.879   3.246   7.565 -0.1368  0.0504 -0.2393
 1647SOL    HW116574   3.869   3.206   7.651  0.1443  0.1542 -0.1565
 1647SOL    HW216575   3.807   3.309   7.562  0.5040  0.7280 -1.2897
 1648SOL     OW16576   1.307   0.814   2.684 -0.3553 -0.2577  0.6515
 1648SOL    HW116577   1.227   0.767   2.710  0.4919 -2.3484 -0.4987
 1648SOL    HW216578   1.327   0.767   2.602 -1.0869 -0.2976  0.4907
 1649SOL     OW16579   1.701   2.080   6.605  0.1257 -0.0215 -0.5354
 1649SOL    HW116580   1.755   2.057   6.529 -1.6728 -1.9289 -1.2034
 1649SOL    HW216581   1.769   2.122   6.659  1.2697  1.0021 -2.7504
 1650SOL     OW16582   4.622   0.515   5.202  0.0804 -0.1731  0.0194
 1650SOL    HW116583   4.595   0.584   5.142 -0.3988 -0.3655  0.0136
 1650SOL    HW216584   4.686   0.556   5.260  0.3769  0.9447 -1.1043
 1651SOL     OW16585   3.393   4.696   5.029 -0.2341 -0.4542 -0.3330
 1651SOL    HW116586   3.457   0.004   5.087  0.5878  2.8713 -3.5598
 1651SOL    HW216587   3.316   0.019   5.028  0.1268  0.0409  0.0947
 1652SOL     OW16588   2.797   3.341   9.005  0.2944 -0.7431 -0.2035
 1652SOL    HW116589   2.852   3.268   8.979  4.8755  2.5242  0.4230
 1652SOL    HW216590   2.866   3.405   9.021 -0.9931  0.2796  1.2520
 1653SOL     OW16591   3.263   0.600   4.694  0.2843 -0.3754 -0.1167
 1653SOL    HW116592   3.227   0.557   4.772 -2.6616  1.7937 -0.2312
 1653SOL    HW216593   3.336   0.540   4.682  1.5393  1.0155  0.5140
 1654SOL     OW16594   2.253   2.511   3.212 -0.2734  0.0992  0.1268
 1654SOL    HW116595   2.190   2.552   3.272  0.8556  1.6611  0.2412
 1654SOL    HW216596   2.251   2.425   3.253  2.0366  0.3813  0.8448
 1655SOL     OW16597   2.214   3.671   2.048  0.4849 -0.4691  0.8040
 1655SOL    HW116598   2.246   3.744   2.100 -1.2579  2.0760 -1.6755
 1655SOL    HW216599   2.276   3.604   2.078 -0.4459 -1.7214 -0.0466
 1656SOL     OW16600   2.394   3.897   0.318  0.4035 -0.2092 -0.4863
 1656SOL    HW116601   2.438   3.966   0.269  0.8370 -0.5560 -0.5863
 1656SOL    HW216602   2.428   3.912   0.406 -1.0174 -0.0843  0.0444
 1657SOL     OW16603   3.040   3.396   5.850 -0.4143 -0.8963 -0.1593
 1657SOL    HW116604   2.952   3.360   5.841 -0.1652 -1.9585  1.4379
 1657SOL    HW216605   3.083   3.357   5.773 -0.6580 -1.0378 -0.2232
 1658SOL     OW16606   4.106   4.279   0.074  0.1991 -0.4550 -0.1657
 1658SOL    HW116607   4.056   4.207   0.035  0.6388 -0.3164 -0.9884
 1658SOL    HW216608   4.189   4.254   0.034  0.6158  0.4249  0.1646
 1659SOL     OW16609   1.002   4.202  12.035  0.8509  0.1542 -0.9531
 1659SOL    HW116610   0.930   4.194  11.972  0.2090 -0.6316 -0.1183
 1659SOL    HW216611   1.063   4.260  11.990  1.2637  0.4304 -0.0514
 1660SOL     OW16612   3.558   2.873  10.686 -0.0099  0.2839 -0.5136
 1660SOL    HW116613   3.467   2.900  10.700  1.4305  4.8245  0.0069
 1660SOL    HW216614   3.571   2.799  10.746  1.2081  0.6067 -0.3836
 1661SOL     OW16615   3.469   2.198   7.484  1.0831 -0.1351  0.1212
 1661SOL    HW116616   3.473   2.284   7.442  0.7252  0.8643  2.1490
 1661SOL    HW216617   3.426   2.227   7.564  0.1464 -1.1005 -0.0484
 1662SOL     OW16618   2.840   2.017   9.451  0.4559  0.5298  0.1569
 1662SOL    HW116619   2.786   2.093   9.430  1.2553  1.3388  1.0412
 1662SOL    HW216620   2.855   2.042   9.543  0.8801  0.5720  0.0756
 1663SOL     OW16621   2.678   1.130   3.437 -0.1531 -0.3763 -0.5026
 1663SOL    HW116622   2.613   1.060   3.430 -0.1404 -0.1869 -2.5338
 1663SOL    HW216623   2.743   1.081   3.486  0.8300  1.2222 -0.2279
 1664SOL     OW16624   0.142   2.750   4.176 -0.6819 -0.2540 -0.1200
 1664SOL    HW116625   0.054   2.723   4.150 -0.5205  1.5578 -2.5431
 1664SOL    HW216626   0.129   2.844   4.188  2.0314  0.3474 -1.8957
 1665SOL     OW16627   3.346   1.322   3.545  0.3902  0.5297  0.2468
 1665SOL    HW116628   3.409   1.255   3.568 -0.1851  0.1619  0.7524
 1665SOL    HW216629   3.389   1.384   3.486 -0.0553 -0.3038 -0.9575
 1666SOL     OW16630   0.871   2.313   1.103  0.3433  0.2071 -0.3593
 1666SOL    HW116631   0.886   2.377   1.173 -2.7907  0.3085  0.2358
 1666SOL    HW216632   0.949   2.259   1.118 -0.9223 -1.5590 -0.1433
 1667SOL     OW16633   0.900   1.378   4.646 -0.5898  0.3389 -0.4562
 1667SOL    HW116634   0.965   1.448   4.650  1.0468 -1.1712 -0.5348
 1667SOL    HW216635   0.942   1.314   4.703 -0.1613  0.1399 -1.0009
 1668SOL     OW16636   1.063   2.867   6.891  0.0239  0.7286 -0.1275
 1668SOL    HW116637   1.135   2.917   6.854  0.0738  1.1922  0.5902
 1668SOL    HW216638   1.073   2.784   6.845 -1.1093  0.7197 -0.3615
 1669SOL     OW16639   1.736   0.107   0.386 -0.0537  0.1657 -0.5012
 1669SOL    HW116640   1.704   0.109   0.476 -2.5373  1.5390 -1.4184
 1669SOL    HW216641   1.796   0.181   0.383 -0.3860  0.4650  0.6183
 1670SOL     OW16642   2.192   2.824   1.745 -0.0345  0.8598 -0.8418
 1670SOL    HW116643   2.224   2.782   1.665 -1.8790 -1.8922 -0.1631
 1670SOL    HW216644   2.169   2.904   1.698  2.8437  2.6232  0.7910
 1671SOL     OW16645   1.703   1.241   1.764 -0.5400  0.0192 -0.3289
 1671SOL    HW116646   1.633   1.306   1.777  0.6090  0.8414  1.7646
 1671SOL    HW216647   1.760   1.248   1.840 -1.0847  1.2226 -0.0263
 1672SOL     OW16648   1.500   2.441   1.927  0.4005 -0.3216 -0.7673
 1672SOL    HW116649   1.523   2.473   2.015  0.4109 -0.0417 -0.8719
 1672SOL    HW216650   1.439   2.510   1.901 -1.3274 -2.0250 -1.2364
 1673SOL     OW16651   2.474   0.699   2.706  0.3044 -0.0351  0.2683
 1673SOL    HW116652   2.452   0.617   2.751 -1.8815 -0.6086 -1.8586
 1673SOL    HW216653   2.549   0.730   2.757  0.9390  0.2618 -0.8170
 1674SOL     OW16654   2.320   4.555  12.355  0.5271 -0.3501 -0.0421
 1674SOL    HW116655   2.315   4.650  12.353  0.9837 -0.2953  1.1619
 1674SOL    HW216656   2.370   4.555  12.437  1.3381  0.7323 -0.5428
 1675SOL     OW16657   0.356   0.324   5.325 -0.2250  0.2439  0.2204
 1675SOL    HW116658   0.439   0.295   5.288 -0.0244  0.2426  0.6610
 1675SOL    HW216659   0.312   0.370   5.254  1.2357 -1.1068 -1.5385
 1676SOL     OW16660   3.885   0.537   3.496  0.8375  0.3166  0.1683
 1676SOL    HW116661   3.923   0.490   3.570 -1.2179  0.0378  1.0501
 1676SOL    HW216662   3.962   0.550   3.440 -0.0469 -1.6483 -1.5185
 1677SOL     OW16663   2.767   2.839  16.817 -0.2342  0.0832  0.5008
 1677SOL    HW116664   2.835   2.896  16.782  0.1780 -1.6121 -1.4460
 1677SOL    HW216665   2.689   2.876  16.774  1.8676  0.1921 -3.2048
 1678SOL     OW16666   2.078   3.004   4.068  0.3512 -0.0437  0.0429
 1678SOL    HW116667   2.049   2.990   4.158  1.2412  2.3635  0.6939
 1678SOL    HW216668   2.097   3.096   4.086 -0.1208  0.1173 -0.2731
 1679SOL     OW16669   2.073   2.194   6.973 -0.1348  0.6420  0.3362
 1679SOL    HW116670   2.136   2.126   6.951 -0.1537  0.3804  1.1139
 1679SOL    HW216671   2.007   2.131   7.001 -0.1654 -0.0329 -1.2418
 1680SOL     OW16672   3.904   0.100  11.573  0.2902  0.6184 -0.4777
 1680SOL    HW116673   3.988   0.054  11.578  0.7440  1.4073 -0.8659
 1680SOL    HW216674   3.861   0.059  11.498 -2.0881 -0.4913  1.4979
 1681SOL     OW16675   4.506   4.240   0.255 -0.4050  0.6043 -0.0135
 1681SOL    HW116676   4.511   4.221   0.161 -0.4951  4.8153 -0.8764
 1681SOL    HW216677   4.594   4.253   0.288 -0.9052  2.0471  0.7603
 1682SOL     OW16678   1.080   0.971   7.664  0.0163 -0.6575 -0.0003
 1682SOL    HW116679   1.157   0.931   7.623  0.7830  1.2929 -0.4773
 1682SOL    HW216680   1.064   0.911   7.737 -1.5807  0.0165  0.2048
 1683SOL     OW16681   1.774   0.844   3.857 -0.0149 -0.4830 -0.5267
 1683SOL    HW116682   1.840   0.912   3.842 -0.9346  0.5832  0.2901
 1683SOL    HW216683   1.814   0.792   3.927  1.4031 -1.0924 -1.7798
 1684SOL     OW16684   3.940   4.330   3.838  0.2145 -0.5444  0.3747
 1684SOL    HW116685   3.868   4.292   3.787 -0.0155 -0.2928  0.5093
 1684SOL    HW216686   4.013   4.285   3.796 -0.0400 -0.4889 -0.1318
 1685SOL     OW16687   2.888   1.685   7.892  0.0200  0.1428  0.1568
 1685SOL    HW116688   2.805   1.703   7.936 -0.9135 -0.0311 -1.5263
 1685SOL    HW216689   2.858   1.619   7.830 -1.3632  0.7647  0.1678
 1686SOL     OW16690   3.264   0.477   1.935 -0.2214 -0.3899  0.0450
 1686SOL    HW116691   3.340   0.478   1.993  1.0297  0.4210 -1.6128
 1686SOL    HW216692   3.300   0.526   1.861  0.0397 -1.0217 -0.2439
 1687SOL     OW16693   4.118   3.379   2.594 -0.1088 -0.9659  0.2797
 1687SOL    HW116694   4.035   3.336   2.611 -0.3148 -0.9079 -0.5829
 1687SOL    HW216695   4.147   3.349   2.507 -0.7576 -1.6847  0.3177
 1688SOL     OW16696   3.379   3.472   7.476  0.2338  0.1939 -0.3046
 1688SOL    HW116697   3.372   3.549   7.420 -0.1949  0.7204  0.4562
 1688SOL    HW216698   3.297   3.428   7.456 -0.3318  1.2164 -0.2548
 1689SOL     OW16699   3.033   3.928   7.279  0.0793  0.1994  0.1453
 1689SOL    HW116700   2.946   3.895   7.257 -0.0934  1.7551 -1.4853
 1689SOL    HW216701   3.019   4.022   7.275 -0.3425  0.1759  1.0553
 1690SOL     OW16702   1.114   0.464   5.742  0.6196 -0.2395 -0.1845
 1690SOL    HW116703   1.068   0.382   5.760 -2.4923  1.8390  1.2777
 1690SOL    HW216704   1.171   0.439   5.815  1.3173  0.3342 -0.5388
 1691SOL     OW16705   1.394   1.515   4.260  1.0538  0.1604 -0.0529
 1691SOL    HW116706   1.387   1.473   4.346 -0.4102  0.5596  0.0170
 1691SOL    HW216707   1.490   1.516   4.260  1.0852 -1.4124 -0.3542
 1692SOL     OW16708   4.698   4.689   3.138  0.6387  0.5121  0.4484
 1692SOL    HW116709   0.025   4.631   3.185 -1.5545 -0.5635  2.0003
 1692SOL    HW216710   4.651   4.732   3.210 -2.6913 -1.3241 -0.6127
 1693SOL     OW16711   1.509   2.923   8.746 -0.3519  0.3292  0.0269
 1693SOL    HW116712   1.556   3.007   8.744 -0.3458  0.2416 -3.7169
 1693SOL    HW216713   1.460   2.933   8.664  0.4030  1.7875 -0.2548
 1694SOL     OW16714   0.911   3.698   5.685 -0.7741 -0.1002  0.5429
 1694SOL    HW116715   0.976   3.636   5.652 -0.2956 -0.2071  1.6826
 1694SOL    HW216716   0.966   3.775   5.697 -0.0119 -0.2824 -1.8587
 1695SOL     OW16717   4.652   2.035   7.705  0.3539  0.0804 -0.3604
 1695SOL    HW116718   4.649   2.085   7.786 -4.6397  1.7841 -1.6278
 1695SOL    HW216719   4.560   2.015   7.690 -0.3467  3.1124 -0.1352
 1696SOL     OW16720   0.805   3.409   8.656 -0.3166 -0.0870 -0.1760
 1696SOL    HW116721   0.841   3.415   8.568 -1.0444  0.2196 -0.4540
 1696SOL    HW216722   0.725   3.357   8.642 -0.3390 -0.5014  1.5234
 1697SOL     OW16723   2.175   2.038   5.832 -0.7078  0.0243  0.2278
 1697SOL    HW116724   2.231   1.978   5.881  0.8099  0.2421 -1.2210
 1697SOL    HW216725   2.238   2.103   5.801  1.9791 -2.2223  0.9600
 1698SOL     OW16726   0.800   0.263   3.728  0.5682  0.6434  0.0129
 1698SOL    HW116727   0.796   0.326   3.800  0.4583 -0.8203  1.2889
 1698SOL    HW216728   0.762   0.309   3.653  0.7708 -0.2648 -0.6500
 1699SOL     OW16729   4.585   3.102   2.545 -0.0766 -0.5002  0.3899
 1699SOL    HW116730   4.559   3.040   2.476 -0.4361  0.6650 -0.5349
 1699SOL    HW216731   4.620   3.181   2.504  0.6495 -1.4256 -0.8001
 1700SOL     OW16732   3.388   4.100   7.596  0.2541  0.1576 -0.1811
 1700SOL    HW116733   3.393   4.044   7.674 -1.2648 -0.5665 -0.6044
 1700SOL    HW216734   3.381   4.032   7.529  0.2876 -0.4167  0.3943
 1701SOL     OW16735   2.669   3.792  14.264 -0.4942  0.0945  0.6205
 1701SOL    HW116736   2.659   3.835  14.180 -1.1197  0.3025  0.8017
 1701SOL    HW216737   2.576   3.794  14.288 -0.1661  2.2239  1.7169
 1702SOL     OW16738   1.740   2.438   4.361 -0.5354 -0.4100  0.1220
 1702SOL    HW116739   1.751   2.344   4.379  1.2782 -0.4777 -1.3249
 1702SOL    HW216740   1.647   2.454   4.376 -0.5842  1.0801 -1.7043
 1703SOL     OW16741   4.069   1.519   5.385 -0.4110  0.3545 -0.3126
 1703SOL    HW116742   4.063   1.444   5.325  0.6210  0.0948 -0.0914
 1703SOL    HW216743   4.001   1.490   5.445  0.1768 -0.2719  0.0444
 1704SOL     OW16744   1.050   1.040   3.633  0.1988 -0.3837  0.2391
 1704SOL    HW116745   1.066   1.134   3.637 -0.1631 -0.3768  1.2874
 1704SOL    HW216746   0.989   1.016   3.702 -0.0486 -2.7236 -0.7981
 1705SOL     OW16747   1.772   2.568   2.873 -0.3368 -0.6676  0.2513
 1705SOL    HW116748   1.716   2.538   2.802 -0.0779 -0.4451 -0.0436
 1705SOL    HW216749   1.725   2.533   2.949 -1.6743 -0.0622 -0.2815
 1706SOL     OW16750   1.719   1.497  16.948 -0.5186 -0.5984  0.2906
 1706SOL    HW116751   1.649   1.484  17.012 -0.9907  0.2927 -0.0480
 1706SOL    HW216752   1.791   1.511  17.010 -1.5417  1.9201  0.9376
 1707SOL     OW16753   0.147   1.236   4.160  0.1058 -0.0112  0.4627
 1707SOL    HW116754   0.210   1.277   4.220  3.4155 -2.0775 -1.5605
 1707SOL    HW216755   0.094   1.310   4.133 -0.7114 -0.8674 -0.2928
 1708SOL     OW16756   0.389   0.794  11.633  0.1793 -0.0451  0.0999
 1708SOL    HW116757   0.437   0.864  11.589 -0.0448  0.5705  0.8200
 1708SOL    HW216758   0.357   0.740  11.561 -2.1446 -0.8648  1.7543
 1709SOL     OW16759   3.048   0.942  11.575 -0.1966 -0.6018  0.6391
 1709SOL    HW116760   2.975   0.979  11.526  1.6543  0.4503 -1.3341
 1709SOL    HW216761   3.010   0.908  11.656 -3.4314  0.9477 -0.2575
 1710SOL     OW16762   4.589   0.996   6.897  0.2477 -0.1040 -0.2992
 1710SOL    HW116763   4.640   1.022   6.974  1.4031 -1.6356 -0.5488
 1710SOL    HW216764   4.514   1.055   6.906  0.8785  0.7819 -0.7616
 1711SOL     OW16765   2.877   0.883  12.467 -0.0944 -0.0960 -0.3919
 1711SOL    HW116766   2.899   0.802  12.422  0.0839 -0.4143  0.2817
 1711SOL    HW216767   2.833   0.841  12.541 -0.6498  4.1084  1.7106
 1712SOL     OW16768   4.233   2.006   1.410 -0.1096  0.1944 -0.8010
 1712SOL    HW116769   4.151   1.967   1.439  0.2061  0.4106  0.3653
 1712SOL    HW216770   4.218   2.025   1.317  2.1590  3.0704 -0.5865
 1713SOL     OW16771   0.774   1.227   7.365 -0.3770 -0.0733 -0.0263
 1713SOL    HW116772   0.845   1.219   7.429 -0.4079  0.7997  0.1236
 1713SOL    HW216773   0.745   1.316   7.386 -0.7875 -0.4802  1.1448
 1714SOL     OW16774   4.627   3.030  14.366 -0.0837  0.5570  0.2591
 1714SOL    HW116775   4.695   2.984  14.316  0.3116  1.7262 -0.3005
 1714SOL    HW216776   4.688   3.090  14.409  0.8136 -0.3274  0.2306
 1715SOL     OW16777   3.670   2.599   0.345  0.3232  0.4812 -0.5903
 1715SOL    HW116778   3.757   2.637   0.354  0.6672 -0.6737  0.7786
 1715SOL    HW216779   3.656   2.583   0.438 -2.1150 -0.6273 -1.1451
 1716SOL     OW16780   3.518   1.255   6.323 -1.1063 -0.6506  0.5155
 1716SOL    HW116781   3.584   1.269   6.392 -0.0378 -1.3414 -0.3699
 1716SOL    HW216782   3.432   1.235   6.360 -1.5269  0.6904  0.2609
 1717SOL     OW16783   2.941   2.401   0.366 -0.1240 -0.1784  0.1370
 1717SOL    HW116784   2.861   2.431   0.409 -0.4001  1.0383 -1.2296
 1717SOL    HW216785   2.957   2.479   0.312 -0.6747 -1.3964 -1.7603
 1718SOL     OW16786   3.272   1.790   3.835 -0.7784  0.0561 -0.3590
 1718SOL    HW116787   3.196   1.834   3.797 -1.9530 -0.3138  1.5384
 1718SOL    HW216788   3.249   1.794   3.928 -0.1298  0.2488 -0.2085
 1719SOL     OW16789   0.788   1.296   2.509 -0.0214  0.1705  0.5689
 1719SOL    HW116790   0.840   1.256   2.579 -2.4648 -0.9743  1.7206
 1719SOL    HW216791   0.813   1.388   2.520 -1.2786  0.5576  0.2130
 1720SOL     OW16792   3.346   2.795  12.963  0.0803 -0.3089  0.3129
 1720SOL    HW116793   3.271   2.775  13.018  1.0415 -1.0120  1.3659
 1720SOL    HW216794   3.403   2.725  12.994  1.4476  0.9840  0.7475
 1721SOL     OW16795   2.396   3.425  15.767  0.4109  0.2100 -0.8611
 1721SOL    HW116796   2.476   3.474  15.749 -1.0783  2.9749  0.0327
 1721SOL    HW216797   2.352   3.425  15.682 -0.6602 -1.0414 -0.3095
 1722SOL     OW16798   1.846   3.549   9.301  0.2202  0.3732 -0.1315
 1722SOL    HW116799   1.941   3.535   9.291 -0.2113 -0.4682 -3.1271
 1722SOL    HW216800   1.843   3.630   9.352  3.4293  0.2865  0.2002
 1723SOL     OW16801   3.939   1.354   8.008  0.6942 -0.7972 -0.3126
 1723SOL    HW116802   3.966   1.410   8.081 -2.0621  0.9961 -0.6541
 1723SOL    HW216803   3.952   1.419   7.939 -0.2971 -1.2625 -0.9331
 1724SOL     OW16804   4.414   3.495   6.722  0.2905  0.1712 -0.0584
 1724SOL    HW116805   4.428   3.513   6.815  0.6068 -1.1244  0.1443
 1724SOL    HW216806   4.319   3.490   6.713  0.0252  2.0794  1.6968
 1725SOL     OW16807   2.722   1.870   1.480 -0.2078 -0.3296  0.8443
 1725SOL    HW116808   2.811   1.841   1.500  0.3940  0.3882 -0.8329
 1725SOL    HW216809   2.674   1.792   1.509  0.7292 -1.3511 -0.4096
 1726SOL     OW16810   4.243   4.116   8.399  0.3702 -0.3746 -0.0537
 1726SOL    HW116811   4.227   4.206   8.371  1.1598  0.2988  1.6709
 1726SOL    HW216812   4.159   4.083   8.369  0.2247  0.6198 -0.7303
 1727SOL     OW16813   0.976   3.339  10.822 -0.0509  0.1987  0.1551
 1727SOL    HW116814   0.972   3.418  10.767  1.2400  0.7088  0.8114
 1727SOL    HW216815   1.060   3.346  10.867  1.3113  1.4104 -2.5450
 1728SOL     OW16816   1.344   3.555   2.987  0.3643  0.0822 -0.7815
 1728SOL    HW116817   1.427   3.598   2.964  0.5403 -0.2009 -0.6662
 1728SOL    HW216818   1.338   3.486   2.921  1.6499  0.7617 -1.6287
 1729SOL     OW16819   0.093   1.586   2.814  0.2855  0.1846  0.3326
 1729SOL    HW116820   0.026   1.579   2.882 -0.8053  1.4603 -0.6294
 1729SOL    HW216821   0.167   1.574   2.874  0.4858 -2.0710 -0.3701
 1730SOL     OW16822   3.603   4.156  11.817  0.2644 -0.0506  0.1788
 1730SOL    HW116823   3.606   4.184  11.909  0.6279 -0.5084  0.3094
 1730SOL    HW216824   3.687   4.194  11.792  1.1142  0.6933  4.1748
 1731SOL     OW16825   0.063   2.832   0.148 -0.0120 -0.2749 -0.4817
 1731SOL    HW116826   0.032   2.891   0.079  0.8165  0.3510 -0.3195
 1731SOL    HW216827   4.718   2.829   0.202  1.5051  2.1608  1.8886
 1732SOL     OW16828   4.636   3.148  15.446 -0.0479 -0.2351  0.2578
 1732SOL    HW116829   4.571   3.103  15.392  1.2825 -2.7173  0.7397
 1732SOL    HW216830   4.581   3.222  15.473  0.9695  0.9076 -0.7947
 1733SOL     OW16831   2.008   0.035   9.505  0.2854  0.1207  0.9226
 1733SOL    HW116832   2.055   4.705   9.558  1.9065  0.5951  0.0765
 1733SOL    HW216833   1.934   4.715   9.477  0.8773 -0.8274  1.1859
 1734SOL     OW16834   1.563   1.280   8.497 -0.0257  0.0867 -0.0375
 1734SOL    HW116835   1.526   1.276   8.409 -0.4826 -0.5589  0.1899
 1734SOL    HW216836   1.479   1.264   8.541  0.6881 -0.2383  1.2044
 1735SOL     OW16837   1.622   2.907  16.062 -0.2844 -0.0023  0.4628
 1735SOL    HW116838   1.543   2.960  16.056  1.1923  2.0192 -1.1932
 1735SOL    HW216839   1.689   2.965  16.027 -2.0043  1.8664  0.2814
 1736SOL     OW16840   3.554   1.997   0.845 -0.0414  0.0892  0.1773
 1736SOL    HW116841   3.506   1.994   0.928  1.1822 -2.4176  0.7895
 1736SOL    HW216842   3.479   1.987   0.786  0.9740 -3.1692 -0.5845
 1737SOL     OW16843   1.791   4.027  11.783 -0.2526  0.1046  0.1793
 1737SOL    HW116844   1.862   4.092  11.790 -0.4697  0.4073 -0.4329
 1737SOL    HW216845   1.805   3.984  11.699 -0.1172 -0.2055  0.3617
 1738SOL     OW16846   0.719   0.676   7.765 -0.2048  0.2161  1.2917
 1738SOL    HW116847   0.642   0.629   7.796  0.6695 -1.8027  0.4092
 1738SOL    HW216848   0.681   0.714   7.686 -0.6540  1.0968  1.9281
 1739SOL     OW16849   3.319   4.699   3.264  0.3154  0.1754 -0.0999
 1739SOL    HW116850   3.317   4.671   3.356 -1.7158  3.4520  0.8665
 1739SOL    HW216851   3.385   4.643   3.224  0.0154  0.5127 -1.0686
 1740SOL     OW16852   2.285   0.824   4.448  0.5575  0.1197 -0.3019
 1740SOL    HW116853   2.308   0.791   4.535 -1.8685  0.2657  0.4102
 1740SOL    HW216854   2.285   0.738   4.407 -2.1558 -0.4724  0.8905
 1741SOL     OW16855   2.688   3.722  11.146 -0.1272 -0.2473 -0.4020
 1741SOL    HW116856   2.719   3.726  11.055  1.3305 -0.4868  0.0796
 1741SOL    HW216857   2.608   3.772  11.137  0.6950  1.0514 -0.4972
 1742SOL     OW16858   0.984   1.633  10.800 -0.2879  0.5923  0.0753
 1742SOL    HW116859   1.008   1.545  10.772  2.6945  1.3404  0.2706
 1742SOL    HW216860   0.922   1.639  10.727 -0.2907  0.9067  0.1020
 1743SOL     OW16861   1.868   3.281  11.752  0.0992  0.7262  0.2278
 1743SOL    HW116862   1.789   3.255  11.704 -0.0770  1.9118 -0.1260
 1743SOL    HW216863   1.841   3.366  11.787  3.2592  1.8137  0.0117
 1744SOL     OW16864   0.844   2.094   9.310 -0.4362 -0.2253 -0.0882
 1744SOL    HW116865   0.936   2.071   9.305 -0.6946 -1.3806  0.5426
 1744SOL    HW216866   0.810   2.043   9.237 -0.1029 -0.8700  0.2085
 1745SOL     OW16867   3.254   3.162  11.049  0.3797  0.0007 -0.2138
 1745SOL    HW116868   3.340   3.168  11.092 -0.4153  1.9661  1.0777
 1745SOL    HW216869   3.201   3.173  11.128 -0.8515  1.2553 -1.2079
 1746SOL     OW16870   0.683   0.811  16.934  0.1474  0.0490 -0.3196
 1746SOL    HW116871   0.731   0.756  16.996 -0.0597 -1.3052 -1.3746
 1746SOL    HW216872   0.594   0.777  16.945  0.7343 -1.2336  0.3783
 1747SOL     OW16873   2.058   0.036  12.365 -0.9720 -0.1429  0.0814
 1747SOL    HW116874   2.065   0.130  12.347 -1.4827 -0.2229 -0.5672
 1747SOL    HW216875   2.089   0.030  12.455  1.2515  0.1029 -0.6706
 1748SOL     OW16876   2.652   1.358   2.602  0.2543  0.8288  0.4970
 1748SOL    HW116877   2.667   1.420   2.674  3.1273 -0.8462  1.3108
 1748SOL    HW216878   2.561   1.335   2.620  0.3157  2.6990  3.3054
 1749SOL     OW16879   1.829   3.112  15.998  0.0164  0.0158  0.1925
 1749SOL    HW116880   1.868   3.185  15.951 -0.2544 -1.0018 -1.6167
 1749SOL    HW216881   1.879   3.125  16.079  0.6568 -1.2962  0.0071
 1750SOL     OW16882   0.823   0.436   8.464  0.1678 -0.4044  0.7012
 1750SOL    HW116883   0.841   0.352   8.421  1.1503  0.7915 -1.1895
 1750SOL    HW216884   0.886   0.428   8.535 -1.7801 -0.1718  2.4709
 1751SOL     OW16885   1.495   1.416  11.754  0.0020 -0.2821  0.0927
 1751SOL    HW116886   1.537   1.497  11.725  2.6919 -1.4045  0.7908
 1751SOL    HW216887   1.493   1.441  11.846  0.0453 -0.9536  0.2817
 1752SOL     OW16888   1.372   2.462   5.517  0.1514  0.3875 -0.0878
 1752SOL    HW116889   1.343   2.372   5.525  5.3958 -1.3892 -1.1785
 1752SOL    HW216890   1.294   2.496   5.473  0.0606  1.0735  0.6088
 1753SOL     OW16891   0.991   4.263  13.710  0.2133  0.8685 -0.2471
 1753SOL    HW116892   0.985   4.338  13.769 -0.2947  0.4615  0.2206
 1753SOL    HW216893   0.988   4.308  13.626  0.9558 -0.1499 -0.8155
 1754SOL     OW16894   3.247   1.790   2.763  0.3903  0.2036 -0.3722
 1754SOL    HW116895   3.185   1.792   2.690  0.5557 -0.7009 -0.5414
 1754SOL    HW216896   3.247   1.884   2.779 -1.5839  0.2591 -0.8062
 1755SOL     OW16897   3.043   3.507   6.822  0.2961  0.2782  0.6445
 1755SOL    HW116898   3.029   3.568   6.749 -2.5204 -1.0575  0.0832
 1755SOL    HW216899   2.974   3.547   6.875 -0.1233  0.5178 -0.0723
 1756SOL     OW16900   3.846   0.684   4.342 -0.5922  0.3483 -0.1433
 1756SOL    HW116901   3.876   0.656   4.429  0.8778  2.7262  0.1137
 1756SOL    HW216902   3.867   0.614   4.281 -0.2805 -0.5867  1.0213
 1757SOL     OW16903   1.310   0.857   7.577 -0.3535  0.9348 -0.0070
 1757SOL    HW116904   1.399   0.862   7.541 -0.5489 -2.4061 -0.9364
 1757SOL    HW216905   1.316   0.784   7.638  0.4295 -0.7001 -2.0308
 1758SOL     OW16906   2.208   0.592   7.370  0.1409  0.5856 -0.1065
 1758SOL    HW116907   2.286   0.539   7.387 -0.4636 -0.0901  0.5231
 1758SOL    HW216908   2.183   0.546   7.290 -0.3509  0.6110  0.0303
 1759SOL     OW16909   3.518   0.910   8.352  0.4496  0.0373 -0.0337
 1759SOL    HW116910   3.593   0.905   8.293  1.9217 -0.5010  1.8688
 1759SOL    HW216911   3.521   1.005   8.364  0.1198 -0.0457  0.7116
 1760SOL     OW16912   1.623   1.481  13.118 -0.2762 -0.0437  0.0065
 1760SOL    HW116913   1.600   1.418  13.049  1.3608 -1.4062  0.7208
 1760SOL    HW216914   1.667   1.428  13.185 -0.6748  0.6060  0.7747
 1761SOL     OW16915   0.730   0.972   3.784  0.1064 -0.2712  0.3326
 1761SOL    HW116916   0.680   1.009   3.857 -1.0366  0.4278 -0.7776
 1761SOL    HW216917   0.753   0.883   3.809  1.7086 -0.4930 -1.9100
 1762SOL     OW16918   0.613   0.025   3.740  0.0453  0.2407  0.3534
 1762SOL    HW116919   0.527   0.062   3.721 -0.0068  0.9515  1.9686
 1762SOL    HW216920   0.653   0.111   3.743  2.2904 -0.8115  0.6745
 1763SOL     OW16921   1.022   0.539   2.941 -0.3452  0.0879  0.1819
 1763SOL    HW116922   0.954   0.490   2.895  1.0826 -2.2954  0.5772
 1763SOL    HW216923   1.056   0.472   2.999 -2.1365 -1.2117 -0.2642
 1764SOL     OW16924   2.638   2.967   7.431  0.4822  0.1276  0.1140
 1764SOL    HW116925   2.556   3.007   7.459  0.2771 -0.5158  0.4512
 1764SOL    HW216926   2.655   3.026   7.358 -2.1840  0.9341  0.1459
 1765SOL     OW16927   2.039   2.028  16.223  0.3331 -0.3251  0.0237
 1765SOL    HW116928   2.029   1.940  16.258 -0.1521 -0.3542 -0.1836
 1765SOL    HW216929   2.005   2.072  16.301 -0.9479 -1.3664  0.0459
 1766SOL     OW16930   2.854   4.542   6.868 -0.2111 -0.0840 -0.4638
 1766SOL    HW116931   2.870   4.501   6.783  0.1200  0.0725 -0.4758
 1766SOL    HW216932   2.911   4.496   6.930 -0.6147  0.0797  0.0220
 1767SOL     OW16933   2.038   2.375   7.992  0.3146  0.2125  0.0638
 1767SOL    HW116934   2.119   2.426   7.983  0.3301  0.6278  2.6667
 1767SOL    HW216935   2.051   2.340   8.080 -0.0963 -0.3430 -0.0917
 1768SOL     OW16936   4.205   3.683  17.416 -0.0691  0.6186  0.1425
 1768SOL    HW116937   4.216   3.728  17.332  0.7000  0.3621  0.1046
 1768SOL    HW216938   4.207   3.755  17.479  1.9242  0.1822  0.5728
 1769SOL     OW16939   2.213   1.349   5.460 -0.0173  0.4548 -0.4801
 1769SOL    HW116940   2.158   1.295   5.517 -0.2300 -0.2251 -1.3270
 1769SOL    HW216941   2.149   1.355   5.388 -1.3701 -2.4748  0.4381
 1770SOL     OW16942   2.103   1.516  16.368 -0.0010  0.4048  0.2112
 1770SOL    HW116943   2.184   1.483  16.328  0.2472  2.4604 -0.9615
 1770SOL    HW216944   2.083   1.433  16.411  2.7145 -0.6878 -0.6431
 1771SOL     OW16945   2.190   1.391   5.082  0.0825 -0.1785 -0.0466
 1771SOL    HW116946   2.120   1.349   5.031 -0.0825  0.7172 -0.5683
 1771SOL    HW216947   2.147   1.474   5.100  0.0943 -0.5120  1.4835
 1772SOL     OW16948   4.004   4.097   3.654 -0.3546  0.6114 -0.0214
 1772SOL    HW116949   3.963   4.086   3.568 -0.9760 -0.2659  0.3911
 1772SOL    HW216950   4.077   4.037   3.640  1.9688  3.5551 -0.6102
 1773SOL     OW16951   4.664   0.910  15.450  0.0461 -0.6465 -0.2647
 1773SOL    HW116952   4.636   0.992  15.408 -1.1204 -0.7296  0.3552
 1773SOL    HW216953   0.015   0.904  15.407 -0.2765  2.2598 -1.3238
 1774SOL     OW16954   1.850   1.440   2.371 -0.2378  0.4363 -0.3507
 1774SOL    HW116955   1.774   1.464   2.425 -0.9970  0.5054 -1.4594
 1774SOL    HW216956   1.879   1.351   2.393  1.4988  0.8782 -0.9308
 1775SOL     OW16957   0.509   1.381  13.268 -0.1230 -0.2145 -0.0159
 1775SOL    HW116958   0.553   1.428  13.197 -0.1132  0.7121  0.6128
 1775SOL    HW216959   0.508   1.289  13.241  1.1950 -0.1954 -0.1324
 1776SOL     OW16960   4.681   3.569   2.683  0.1374  0.2784 -0.3472
 1776SOL    HW116961   4.595   3.594   2.716  0.2912  0.2265  0.0811
 1776SOL    HW216962   4.656   3.487   2.639  1.6933 -1.2156  1.5948
 1777SOL     OW16963   2.375   0.540   5.946 -0.3612  0.2487  0.1296
 1777SOL    HW116964   2.347   0.608   6.007 -2.6748  0.2296 -0.9295
 1777SOL    HW216965   2.444   0.581   5.892 -0.4232  0.9449  0.5865
 1778SOL     OW16966   0.488   0.978   4.677 -0.1292 -0.0531  0.1782
 1778SOL    HW116967   0.524   0.948   4.760  2.1285 -2.7834 -1.7541
 1778SOL    HW216968   0.425   1.045   4.704  0.5657  0.9895 -0.7960
 1779SOL     OW16969   4.542   0.639   0.906  0.4213 -0.6880  0.2263
 1779SOL    HW116970   4.448   0.637   0.888 -0.0066 -0.3077  2.3681
 1779SOL    HW216971   4.574   0.707   0.847  0.8066  0.1344  1.3898
 1780SOL     OW16972   0.814   4.452   7.023 -0.0723  0.1693 -0.2972
 1780SOL    HW116973   0.748   4.499   7.074 -0.0850 -0.3369  0.1505
 1780SOL    HW216974   0.883   4.431   7.086  0.0196 -1.3992 -0.9180
 1781SOL     OW16975   3.593   3.761   7.045 -0.3558 -0.1398 -0.2348
 1781SOL    HW116976   3.654   3.831   7.026  0.6465 -1.1087 -0.5939
 1781SOL    HW216977   3.660   3.705   7.085 -0.1125  1.1104  1.1188
 1782SOL     OW16978   2.119   2.661   5.187 -0.0371  0.3114  0.1924
 1782SOL    HW116979   2.032   2.674   5.151  0.3296 -0.4161 -0.9596
 1782SOL    HW216980   2.165   2.704   5.115 -2.0014  0.2833 -1.0731
 1783SOL     OW16981   3.135   2.072   4.181 -0.2544  0.5743  0.5694
 1783SOL    HW116982   3.206   2.124   4.219 -3.0643  1.9896  3.8871
 1783SOL    HW216983   3.145   2.090   4.087  1.8113 -0.1422  0.6642
 1784SOL     OW16984   2.359   0.020  13.193  0.7843  0.6611  0.6833
 1784SOL    HW116985   2.395   0.085  13.133 -0.2996 -0.6851 -1.4016
 1784SOL    HW216986   2.438   4.718  13.235  0.1937 -1.6683 -0.2338
 1785SOL     OW16987   2.797   1.724   2.594  0.0844 -0.5274  0.2648
 1785SOL    HW116988   2.721   1.736   2.537  0.5795 -2.2549 -0.7509
 1785SOL    HW216989   2.849   1.668   2.536 -0.0725  0.1652 -0.5412
 1786SOL     OW16990   3.721   1.204   5.154  0.2273 -0.1916  0.2783
 1786SOL    HW116991   3.653   1.137   5.156  1.2320 -1.3304 -2.4572
 1786SOL    HW216992   3.661   1.276   5.138 -1.6056 -1.1745  2.6580
 1787SOL     OW16993   1.594   1.525   6.017 -0.0475 -0.2750  0.3715
 1787SOL    HW116994   1.567   1.612   5.987 -0.4873 -0.9681 -1.2231
 1787SOL    HW216995   1.556   1.477   5.943 -2.1162  0.7326  0.7571
 1788SOL     OW16996   4.373   2.971   1.579 -0.3760  0.1092  0.2052
 1788SOL    HW116997   4.331   2.896   1.621 -0.9991  1.2757  1.6738
 1788SOL    HW216998   4.402   3.029   1.650 -3.0321  0.9114  0.6372
 1789SOL     OW16999   0.472   0.991  11.808  0.5429 -0.1609 -0.0918
 1789SOL    HW117000   0.466   0.907  11.762  0.7593 -0.8120  1.0595
 1789SOL    HW217001   0.519   0.966  11.888 -0.5391  0.8797  0.8830
 1790SOL     OW17002   1.423   0.389   4.925 -0.1305 -0.0731 -0.1191
 1790SOL    HW117003   1.362   0.428   4.863 -1.3002  0.3903  1.3154
 1790SOL    HW217004   1.355   0.361   4.987  0.6710  0.7220  1.1242
 1791SOL     OW17005   4.680   0.383  10.636  0.2524 -0.7208  0.1072
 1791SOL    HW117006   4.666   0.420  10.548 -2.2801 -4.6256 -1.1741
 1791SOL    HW217007   4.600   0.332  10.651 -0.5798  0.6453  0.2385
 1792SOL     OW17008   0.232   3.575   6.180  0.0129 -0.1507  0.4647
 1792SOL    HW117009   0.259   3.546   6.267  0.0023  1.6207  1.0429
 1792SOL    HW217010   0.154   3.521   6.170  0.0813 -0.2722  0.5755
 1793SOL     OW17011   2.500   4.163   1.052  0.7908  0.3562  0.0385
 1793SOL    HW117012   2.544   4.082   1.078 -1.5852 -0.7545  0.5341
 1793SOL    HW217013   2.506   4.213   1.133 -0.7701 -0.0850  0.4206
 1794SOL     OW17014   3.522   3.609   1.848  0.5781 -0.7313 -0.3295
 1794SOL    HW117015   3.442   3.638   1.892 -0.0022 -0.0866 -1.8087
 1794SOL    HW217016   3.597   3.659   1.878 -0.7977  0.1253  1.6320
 1795SOL     OW17017   1.033   2.785  14.719  0.2270 -0.3599  0.5574
 1795SOL    HW117018   1.017   2.717  14.653 -1.0399 -0.4038  0.9179
 1795SOL    HW217019   1.060   2.864  14.672 -0.3822 -0.3377  0.2479
 1796SOL     OW17020   2.583   2.514   3.517 -0.9652  0.2714 -0.6970
 1796SOL    HW117021   2.587   2.426   3.480 -1.6551  1.1077 -2.7540
 1796SOL    HW217022   2.620   2.566   3.446 -1.0191  0.5212 -0.5457
 1797SOL     OW17023   4.101   2.551   1.643 -0.2177 -0.1821 -0.4779
 1797SOL    HW117024   4.062   2.464   1.634 -0.4041 -0.2281  0.8383
 1797SOL    HW217025   4.137   2.543   1.555  0.8716 -2.1649  0.1675
 1798SOL     OW17026   3.415   1.928  11.827  0.1773  0.9800  0.0236
 1798SOL    HW117027   3.337   1.982  11.825  0.6714  1.6853 -0.3508
 1798SOL    HW217028   3.411   1.902  11.919 -1.5536 -0.4587 -0.4499
 1799SOL     OW17029   1.343   1.759   9.097  0.0559  0.1646 -0.0772
 1799SOL    HW117030   1.292   1.840   9.096 -0.4976 -0.2337 -3.7501
 1799SOL    HW217031   1.371   1.761   9.005  0.5996 -0.5414  0.0784
 1800SOL     OW17032   0.449   1.978   7.334  0.7583 -0.2307  0.3758
 1800SOL    HW117033   0.524   1.956   7.390  0.4207  0.6663  1.1899
 1800SOL    HW217034   0.378   1.925   7.370 -0.3838  0.5678 -0.6888
 1801SOL     OW17035   4.301   0.750   6.028 -0.0285  0.4474  0.2177
 1801SOL    HW117036   4.230   0.791   5.978  1.9434  1.0344 -2.1174
 1801SOL    HW217037   4.322   0.668   5.984  1.0395  1.7116 -1.6152
 1802SOL     OW17038   2.866   4.574   6.194  0.3966  0.3329  0.0667
 1802SOL    HW117039   2.862   4.479   6.191  0.4162  0.3381 -0.0817
 1802SOL    HW217040   2.961   4.571   6.183  0.2140  0.4017 -1.5082
 1803SOL     OW17041   2.574   4.093   5.634 -0.2211  0.2611  0.7157
 1803SOL    HW117042   2.653   4.146   5.626 -0.9941  1.1390 -0.9953
 1803SOL    HW217043   2.608   4.010   5.670  0.0648  0.2867  0.4996
 1804SOL     OW17044   0.365   3.760   4.135  0.2710  0.6251 -0.6826
 1804SOL    HW117045   0.303   3.736   4.203  4.0370 -3.5153  1.2451
 1804SOL    HW217046   0.302   3.800   4.075  0.8859  1.4245 -0.7945
 1805SOL     OW17047   0.662   1.568  11.373 -0.5415 -0.1724 -0.4191
 1805SOL    HW117048   0.737   1.512  11.395 -0.7769 -0.3317 -0.0168
 1805SOL    HW217049   0.682   1.645  11.426  1.1190  0.4134 -1.8728
 1806SOL     OW17050   3.542   1.516   5.821 -0.5425 -0.1419 -0.0297
 1806SOL    HW117051   3.522   1.558   5.738  0.3330 -0.4295 -0.3781
 1806SOL    HW217052   3.629   1.553   5.836 -0.8134 -0.1564  1.5916
 1807SOL     OW17053   4.425   1.727   3.044 -0.1339 -0.3410  0.9821
 1807SOL    HW117054   4.511   1.689   3.064 -1.0606 -1.2835  3.0854
 1807SOL    HW217055   4.406   1.772   3.126 -0.1813 -1.0462  1.3583
 1808SOL     OW17056   4.152   3.884  11.479 -0.3750 -0.0295 -0.0358
 1808SOL    HW117057   4.237   3.915  11.511 -1.3651  3.1667 -0.4701
 1808SOL    HW217058   4.174   3.833  11.401 -0.1271 -0.0878  0.0740
 1809SOL     OW17059   2.563   4.478   6.267  0.1932 -0.3926  0.4985
 1809SOL    HW117060   2.591   4.557   6.220 -0.7455 -0.0032  0.6057
 1809SOL    HW217061   2.650   4.447   6.295  0.7562  0.7767  0.0360
 1810SOL     OW17062   2.202   3.459  12.007 -0.4802  0.9894  0.1119
 1810SOL    HW117063   2.154   3.382  12.038 -1.0800  1.5365  0.5352
 1810SOL    HW217064   2.294   3.435  11.995 -1.0004 -1.2229  0.5586
 1811SOL     OW17065   1.021   3.457   7.837  0.0662 -0.2024 -0.9678
 1811SOL    HW117066   1.090   3.477   7.901 -0.0170  0.7448 -1.1726
 1811SOL    HW217067   1.066   3.485   7.757  0.9549 -2.7776 -1.3917
 1812SOL     OW17068   2.888   2.460   0.736  0.4042  0.4077  0.0670
 1812SOL    HW117069   2.832   2.537   0.737  0.9970  0.8245  0.6406
 1812SOL    HW217070   2.976   2.495   0.726  0.6474 -0.9280 -2.6745
 1813SOL     OW17071   1.188   2.227   2.412  0.2742 -0.5180  0.2075
 1813SOL    HW117072   1.251   2.252   2.345 -0.3567 -1.8765 -0.8924
 1813SOL    HW217073   1.181   2.132   2.401  0.4219 -0.1672 -3.0396
 1814SOL     OW17074   1.760   4.485   6.185  0.4487  0.2383 -0.3235
 1814SOL    HW117075   1.829   4.535   6.228  0.7799  0.9699 -1.6945
 1814SOL    HW217076   1.817   4.425   6.138  0.6202  0.4902 -0.4368
 1815SOL     OW17077   3.630   2.833   5.095  0.0334  0.2025 -0.5115
 1815SOL    HW117078   3.660   2.921   5.117  0.0731  0.8066 -2.9652
 1815SOL    HW217079   3.655   2.781   5.171 -0.8556 -2.4985 -2.0878
 1816SOL     OW17080   0.296   0.109   7.659  0.4723 -0.5054 -0.0090
 1816SOL    HW117081   0.361   0.108   7.589 -0.1784 -1.5894 -0.6140
 1816SOL    HW217082   0.298   0.017   7.686 -0.6537  0.0887  2.0660
 1817SOL     OW17083   3.649   2.122   0.603  0.5228 -0.0936 -0.5530
 1817SOL    HW117084   3.554   2.121   0.612  0.4726 -0.4881 -1.1914
 1817SOL    HW217085   3.686   2.049   0.654  1.7593  1.7364  1.1698
 1818SOL     OW17086   3.909   3.874   8.514  0.1438  0.0859  0.3221
 1818SOL    HW117087   3.989   3.852   8.465 -0.5955  0.8422 -1.2151
 1818SOL    HW217088   3.925   3.841   8.602 -1.1915 -1.0916  0.1215
 1819SOL     OW17089   1.125   1.617   3.897  0.0298  0.2314  0.3205
 1819SOL    HW117090   1.064   1.661   3.957 -0.8655  0.6473 -0.8984
 1819SOL    HW217091   1.194   1.587   3.956  0.3175  0.2860  0.0092
 1820SOL     OW17092   3.018   4.631   8.244 -0.1199  0.9764 -0.1164
 1820SOL    HW117093   3.085   4.684   8.287  0.0797 -0.2045  1.0171
 1820SOL    HW217094   2.943   4.677   8.280 -1.9049 -1.1416 -1.0940
 1821SOL     OW17095   2.501   0.919   2.548 -0.3695  0.1853 -0.0724
 1821SOL    HW117096   2.480   0.980   2.619 -2.7320  0.2712 -0.8452
 1821SOL    HW217097   2.505   0.838   2.598  0.1870  0.1885 -0.1102
 1822SOL     OW17098   2.745   2.132   1.022 -0.3194  0.0569  0.6768
 1822SOL    HW117099   2.773   2.224   1.017 -0.4241  0.1027  0.9277
 1822SOL    HW217100   2.700   2.133   1.107 -1.0244 -1.1097  0.3204
 1823SOL     OW17101   0.687   1.156   5.301  0.1250 -0.0220  0.3295
 1823SOL    HW117102   0.665   1.236   5.348 -1.7181 -0.3208 -0.0473
 1823SOL    HW217103   0.605   1.154   5.252 -0.1583 -2.8106  0.9199
 1824SOL     OW17104   1.272   0.727   4.813  0.7423  0.4062 -0.1747
 1824SOL    HW117105   1.351   0.707   4.862  0.0100 -1.1473  0.3749
 1824SOL    HW217106   1.301   0.807   4.769 -1.4552 -0.1167 -2.5574
 1825SOL     OW17107   2.202   0.782   2.238 -0.1560  0.1373  0.2212
 1825SOL    HW117108   2.184   0.805   2.329  1.1999  1.0897  0.2464
 1825SOL    HW217109   2.116   0.759   2.203  1.5486 -3.0919 -1.8699
 1826SOL     OW17110   4.674   0.383   8.369 -0.2886 -0.1781 -0.5365
 1826SOL    HW117111   4.658   0.397   8.463 -1.9176 -0.6650 -0.7298
 1826SOL    HW217112   4.583   0.372   8.341 -0.7227 -0.9510  1.1159
 1827SOL     OW17113   2.597   3.028   4.423  0.1679  0.3522 -0.6240
 1827SOL    HW117114   2.554   2.944   4.411  2.3936 -0.7274 -0.9330
 1827SOL    HW217115   2.617   3.026   4.517  1.6737  0.9995 -0.9250
 1828SOL     OW17116   1.291   0.576  14.892  0.2784 -0.1902 -0.5717
 1828SOL    HW117117   1.261   0.661  14.925 -0.6972 -1.0028  0.5855
 1828SOL    HW217118   1.330   0.607  14.809 -0.0785  0.3154 -0.5543
 1829SOL     OW17119   2.763   2.660   2.207 -0.4288 -0.1174  0.3192
 1829SOL    HW117120   2.776   2.699   2.293 -0.8856 -0.3363  0.4852
 1829SOL    HW217121   2.847   2.688   2.170 -0.0901  0.1155  1.2624
 1830SOL     OW17122   0.855   1.252  11.135  0.3605  0.0577 -0.4087
 1830SOL    HW117123   0.872   1.346  11.141 -1.3138  0.2394  1.1929
 1830SOL    HW217124   0.775   1.249  11.083 -0.1402 -0.8312  0.4247
 1831SOL     OW17125   4.203   2.135   5.790  0.0647  0.3188  0.2056
 1831SOL    HW117126   4.294   2.137   5.760  0.0867 -2.6261  0.1122
 1831SOL    HW217127   4.198   2.217   5.839  1.1155 -0.4900  1.6550
 1832SOL     OW17128   3.468   2.323  15.419  0.1311  0.1417  0.3153
 1832SOL    HW117129   3.561   2.340  15.405 -0.3109  1.2983 -1.1749
 1832SOL    HW217130   3.435   2.365  15.340  0.5382 -0.3642 -0.1300
 1833SOL     OW17131   0.066   4.247  12.772  0.1390  0.4293 -0.0785
 1833SOL    HW117132   4.707   4.258  12.794  0.6299  1.0545  1.6400
 1833SOL    HW217133   0.064   4.216  12.681  0.8883  0.5250 -0.1265
 1834SOL     OW17134   0.379   0.938   5.280 -0.6999 -0.1430 -0.4009
 1834SOL    HW117135   0.363   0.959   5.372 -3.3366  1.8636 -1.3194
 1834SOL    HW217136   0.333   0.854   5.272 -1.1202 -0.0174  0.7061
 1835SOL     OW17137   4.221   1.276  17.516  0.6976 -0.6202 -0.1800
 1835SOL    HW117138   4.168   1.270  17.436 -1.6447  2.8774  1.0917
 1835SOL    HW217139   4.309   1.249  17.491  0.9512  0.7283 -0.7652
 1836SOL     OW17140   2.485   1.323   1.880  0.3613 -0.0155  0.0034
 1836SOL    HW117141   2.482   1.387   1.810 -0.0219 -0.3013 -0.2426
 1836SOL    HW217142   2.567   1.338   1.927 -1.1404  0.3910  2.4906
 1837SOL     OW17143   1.417   3.728  11.887  0.0540 -0.2788 -0.4136
 1837SOL    HW117144   1.466   3.810  11.882  0.0852 -0.3284 -1.0366
 1837SOL    HW217145   1.327   3.753  11.865 -0.5402 -1.6635  0.4929
 1838SOL     OW17146   2.222   1.947   1.853 -0.1102  0.3976  0.8725
 1838SOL    HW117147   2.181   2.022   1.896 -0.9202  1.5616 -1.8936
 1838SOL    HW217148   2.143   1.900   1.825  0.2569  0.6084 -0.5221
 1839SOL     OW17149   2.851   0.868  14.582 -0.0805 -0.0776  0.1815
 1839SOL    HW117150   2.890   0.936  14.636  0.9435  0.2331 -0.9345
 1839SOL    HW217151   2.758   0.871  14.605 -0.1248  0.2094 -0.0321
 1840SOL     OW17152   4.503   3.618  15.339  0.1000 -0.4717  0.0515
 1840SOL    HW117153   4.590   3.625  15.299 -0.1924 -1.6077 -0.7764
 1840SOL    HW217154   4.470   3.707  15.324  1.0231  0.0653  1.2686
 1841SOL     OW17155   2.766   2.518   1.387 -0.6283  0.1044 -0.0073
 1841SOL    HW117156   2.856   2.508   1.357 -0.7396 -1.5139  0.1898
 1841SOL    HW217157   2.743   2.425   1.379 -1.4621  0.5265 -2.8594
 1842SOL     OW17158   4.698   3.857  11.579 -0.2393  0.9993 -0.1034
 1842SOL    HW117159   4.716   3.949  11.596 -0.9794  0.8896  1.2435
 1842SOL    HW217160   0.005   3.823  11.658 -1.1026  0.2214  0.0123
 1843SOL     OW17161   1.926   0.249   4.796 -0.0130 -0.3842 -0.3681
 1843SOL    HW117162   1.853   0.308   4.776 -1.3692 -1.1913  2.1559
 1843SOL    HW217163   1.988   0.313   4.762 -1.3049  0.6864 -0.7233
 1844SOL     OW17164   0.295   4.574   9.123 -0.2698  0.1629 -0.4388
 1844SOL    HW117165   0.360   4.618   9.068  0.9458 -1.3979 -0.2550
 1844SOL    HW217166   0.275   4.638   9.191 -0.8228  0.4510 -0.8750
 1845SOL     OW17167   3.352   1.716   4.545 -0.1264 -0.3782  0.0802
 1845SOL    HW117168   3.292   1.786   4.519  1.6090  0.3561 -2.0387
 1845SOL    HW217169   3.285   1.656   4.575 -1.3345  0.7566 -0.3185
 1846SOL     OW17170   1.392   1.367   2.071 -0.1672  0.5841 -0.0607
 1846SOL    HW117171   1.302   1.400   2.062 -0.0864  1.0616  0.8765
 1846SOL    HW217172   1.441   1.446   2.094  1.9715 -0.4837 -1.0678
 1847SOL     OW17173   1.262   3.815   8.998  0.0467 -0.5171 -0.7076
 1847SOL    HW117174   1.257   3.796   8.904 -0.7579 -0.7511 -0.6140
 1847SOL    HW217175   1.292   3.733   9.038 -2.1995 -0.6613  0.6559
 1848SOL     OW17176   0.108   2.802  11.012 -0.5450 -0.2951 -0.0730
 1848SOL    HW117177   0.131   2.740  11.081 -0.9099 -0.7943 -0.4042
 1848SOL    HW217178   0.022   2.820  11.049 -0.9101 -1.1900 -0.4926
 1849SOL     OW17179   0.039   3.316  14.192 -0.0461  0.1487  0.5946
 1849SOL    HW117180   4.687   3.276  14.179 -0.7702  1.9874 -0.2495
 1849SOL    HW217181   0.088   3.238  14.167 -1.7901 -0.8117  0.1616
 1850SOL     OW17182   3.927   4.370   7.181 -0.2148 -0.4890 -0.5465
 1850SOL    HW117183   3.917   4.462   7.156  0.4353 -0.3988 -0.4605
 1850SOL    HW217184   3.835   4.352   7.199 -0.0884 -1.5016 -0.9055
 1851SOL     OW17185   4.663   2.718   6.395  0.0517  0.1281  0.0139
 1851SOL    HW117186   4.725   2.759   6.455  0.3514 -1.5466  0.8527
 1851SOL    HW217187   4.718   2.669   6.334 -0.4560  0.0622 -0.3916
 1852SOL     OW17188   4.419   2.569   2.851 -0.1564 -0.8663 -0.3620
 1852SOL    HW117189   4.350   2.596   2.911 -0.2884 -1.3213 -0.3086
 1852SOL    HW217190   4.425   2.652   2.805  2.4474 -1.8640 -1.8565
 1853SOL     OW17191   3.097   1.292   0.429 -0.2202 -0.1162  0.0678
 1853SOL    HW117192   3.110   1.204   0.463 -1.3956  0.2369  1.4288
 1853SOL    HW217193   3.047   1.282   0.348  0.1368 -0.0870 -0.1543
 1854SOL     OW17194   2.194   2.461  16.123  0.3008 -0.7222 -0.1409
 1854SOL    HW117195   2.240   2.478  16.041  1.2222  1.5795  0.8749
 1854SOL    HW217196   2.123   2.409  16.084 -1.4217  2.9170 -1.7847
 1855SOL     OW17197   1.776   4.349  11.628 -0.0039 -0.6376  0.1041
 1855SOL    HW117198   1.743   4.355  11.717  1.1509 -0.6821  0.5306
 1855SOL    HW217199   1.706   4.294  11.591  0.5585 -1.8075  0.7957
 1856SOL     OW17200   0.277   1.162   8.117  0.0092 -0.2460  0.4147
 1856SOL    HW117201   0.220   1.232   8.149  0.5104  0.0065  0.7561
 1856SOL    HW217202   0.367   1.195   8.123  0.3693 -1.2816  0.8462
 1857SOL     OW17203   0.079   1.785  16.604 -0.1737  0.0326  0.2259
 1857SOL    HW117204   0.003   1.744  16.563 -1.0686  0.7938  1.1451
 1857SOL    HW217205   0.033   1.865  16.629 -0.6499 -0.3726  0.6376
 1858SOL     OW17206   0.683   1.912   8.171  0.0956  0.3922  0.2142
 1858SOL    HW117207   0.766   1.881   8.206 -0.3463 -1.9680 -0.8698
 1858SOL    HW217208   0.710   2.004   8.160  0.0057  0.4791  0.7218
 1859SOL     OW17209   3.260   1.410   1.865  0.2868 -0.0559  0.2487
 1859SOL    HW117210   3.261   1.364   1.781 -0.5081  0.9260 -0.2989
 1859SOL    HW217211   3.257   1.334   1.923  1.2621 -0.2232  0.0743
 1860SOL     OW17212   1.474   1.638   3.072 -0.0723  0.5009 -0.2108
 1860SOL    HW117213   1.560   1.603   3.046  0.3719 -0.0795  1.9997
 1860SOL    HW217214   1.486   1.697   3.146 -1.9499 -0.2086  0.6594
 1861SOL     OW17215   1.453   0.097   6.847  0.2634  0.1142  0.1361
 1861SOL    HW117216   1.450   0.173   6.788 -0.3293 -0.5613 -0.7011
 1861SOL    HW217217   1.427   0.025   6.790 -0.8507  0.0288  0.7497
 1862SOL     OW17218   4.116   4.279   2.991  0.4076  0.3685  0.0780
 1862SOL    HW117219   4.201   4.324   2.992  0.9115 -0.5586 -1.2233
 1862SOL    HW217220   4.135   4.202   3.045  1.5130  2.0737  2.1531
 1863SOL     OW17221   0.873   1.356  12.583  0.5372  0.0783  0.2171
 1863SOL    HW117222   0.952   1.360  12.529 -0.5785 -0.0962 -1.4331
 1863SOL    HW217223   0.883   1.439  12.630  0.5543  0.6085 -0.7380
 1864SOL     OW17224   2.707   2.548   7.393  0.5861 -0.5398 -0.3285
 1864SOL    HW117225   2.624   2.594   7.382  0.5552 -0.3813  0.5612
 1864SOL    HW217226   2.694   2.510   7.480 -0.8593  0.0896 -0.2746
 1865SOL     OW17227   1.532   1.539   5.131 -1.1360  0.4171  0.1070
 1865SOL    HW117228   1.622   1.523   5.103 -0.6443  0.0638  1.9191
 1865SOL    HW217229   1.492   1.558   5.045  1.0281 -0.3982 -1.0697
 1866SOL     OW17230   0.044   4.481   9.073 -0.1691 -0.7829 -0.3674
 1866SOL    HW117231   0.020   4.571   9.093 -1.7923 -1.4389  0.6091
 1866SOL    HW217232   0.133   4.481   9.108  0.2919  0.0020 -1.5138
 1867SOL     OW17233   3.891   4.623   0.302 -0.2574 -0.5733 -0.1872
 1867SOL    HW117234   3.873   4.657   0.390  0.0087 -0.3622 -0.2131
 1867SOL    HW217235   3.974   4.577   0.312 -0.0548 -0.2632 -0.4694
 1868SOL     OW17236   0.397   2.140  17.428 -0.0943 -0.2663 -0.2278
 1868SOL    HW117237   0.306   2.117  17.447 -0.2061  0.8048  0.4942
 1868SOL    HW217238   0.429   2.151  17.518 -2.1728  0.6554  0.4049
 1869SOL     OW17239   0.637   2.929  12.361 -0.3468  0.3362  0.6364
 1869SOL    HW117240   0.608   2.847  12.400 -2.8124  0.6619 -0.4994
 1869SOL    HW217241   0.618   2.899  12.272  1.2596  0.0035  0.3993
 1870SOL     OW17242   1.554   3.558  10.657 -0.1069  0.1289  0.3599
 1870SOL    HW117243   1.647   3.551  10.680 -0.3602 -6.3341 -0.7656
 1870SOL    HW217244   1.523   3.641  10.694 -1.9564 -0.6589  0.5590
 1871SOL     OW17245   0.450   0.044   5.494 -0.3499 -0.0898  0.5586
 1871SOL    HW117246   0.466   0.050   5.400  1.1608  0.2511  0.8472
 1871SOL    HW217247   0.537   0.025   5.529  0.6030  1.1136 -1.1822
 1872SOL     OW17248   4.641   4.653   9.438 -0.1376 -0.0128 -0.9191
 1872SOL    HW117249   4.551   4.637   9.411 -0.2710  1.0354 -1.1105
 1872SOL    HW217250   4.627   4.731   9.493 -1.5524 -1.4345  0.7407
 1873SOL     OW17251   2.706   1.740  11.132  0.2343  0.1683 -0.5372
 1873SOL    HW117252   2.773   1.787  11.081 -0.8029  1.1598 -1.0041
 1873SOL    HW217253   2.717   1.650  11.101 -0.2525 -0.7783  2.0922
 1874SOL     OW17254   1.656   0.738  11.611 -0.4013 -0.0933  0.3146
 1874SOL    HW117255   1.741   0.773  11.585 -0.2459 -1.5139 -1.0589
 1874SOL    HW217256   1.684   0.659  11.656 -1.0518 -0.7273 -0.3896
 1875SOL     OW17257   4.632   2.497   7.065 -0.1090  0.1624 -0.2725
 1875SOL    HW117258   4.581   2.451   6.998 -0.1790 -1.1288  0.6483
 1875SOL    HW217259   4.707   2.437   7.069  0.1098  0.6055  2.5178
 1876SOL     OW17260   4.257   3.759   5.679 -0.0179  0.3933 -0.1848
 1876SOL    HW117261   4.271   3.727   5.769 -0.1863  1.8957  0.3796
 1876SOL    HW217262   4.319   3.707   5.627  1.3088  2.0809 -0.3128
 1877SOL     OW17263   3.683   3.184   4.453 -0.2766 -0.2588 -0.4774
 1877SOL    HW117264   3.629   3.202   4.376  0.1080 -0.2938 -0.7526
 1877SOL    HW217265   3.769   3.214   4.425 -0.4692  2.3236  1.7634
 1878SOL     OW17266   2.942   2.996   4.706 -0.6423  0.0376  0.7119
 1878SOL    HW117267   3.006   3.002   4.635 -2.7603  0.8201 -1.1257
 1878SOL    HW217268   3.000   2.954   4.770 -0.7350  1.2835  1.6193
 1879SOL     OW17269   1.220   4.134  12.567  0.1620  0.2149  0.0334
 1879SOL    HW117270   1.181   4.222  12.565  0.9326  0.5157 -1.9002
 1879SOL    HW217271   1.137   4.093  12.590  0.0680  0.6413  0.4473
 1880SOL     OW17272   2.584   0.279   9.201 -0.6723 -0.4451 -0.4012
 1880SOL    HW117273   2.576   0.213   9.270 -0.4887 -0.8403 -0.7643
 1880SOL    HW217274   2.551   0.356   9.249  0.9151  0.6488 -1.0550
 1881SOL     OW17275   4.116   1.103   6.907 -0.3860  0.1642  0.2044
 1881SOL    HW117276   4.148   1.191   6.927 -2.4470  1.0573 -0.4122
 1881SOL    HW217277   4.092   1.075   6.995 -0.5459 -0.8570 -0.1683
 1882SOL     OW17278   2.944   1.663   3.007  0.4081  0.6928  0.1617
 1882SOL    HW117279   2.884   1.700   3.071  0.1040 -0.1664  0.3630
 1882SOL    HW217280   2.915   1.721   2.936 -1.1820 -0.3190 -0.0173
 1883SOL     OW17281   3.520   1.097   3.546 -0.0052 -0.4381  0.1772
 1883SOL    HW117282   3.576   1.057   3.614  0.3352 -0.8827 -0.3658
 1883SOL    HW217283   3.573   1.096   3.466  2.9284  1.7482  2.0968
 1884SOL     OW17284   4.658   1.094   4.266  0.4696  0.3380  0.4380
 1884SOL    HW117285   4.615   1.172   4.230 -0.5815 -0.8472 -0.8822
 1884SOL    HW217286   0.007   1.101   4.219  0.5308  0.2745  0.5376
 1885SOL     OW17287   4.497   2.627   8.921  0.0766  0.4020  0.5206
 1885SOL    HW117288   4.557   2.685   8.968  1.4290  0.2300 -0.9815
 1885SOL    HW217289   4.438   2.602   8.992 -0.0151 -1.9098 -0.3518
 1886SOL     OW17290   1.122   1.478   2.298  0.3762 -0.0927 -0.1081
 1886SOL    HW117291   1.087   1.409   2.240 -2.0429  1.4265 -0.4478
 1886SOL    HW217292   1.194   1.438   2.347  0.1222  1.2948  1.3692
 1887SOL     OW17293   0.161   4.656   4.954 -0.9256 -0.2489 -0.0745
 1887SOL    HW117294   0.110   4.666   4.874  0.3834 -1.1128 -1.0327
 1887SOL    HW217295   0.188   4.565   4.961 -0.4722 -0.3132 -2.6653
 1888SOL     OW17296   3.021   1.827   9.192 -0.2021 -0.0051 -0.2643
 1888SOL    HW117297   3.007   1.818   9.286  4.1808  1.9803  0.5890
 1888SOL    HW217298   3.041   1.738   9.166 -0.5235 -0.3420  0.6345
 1889SOL     OW17299   4.416   1.586   0.149 -0.2720  0.0916 -0.0186
 1889SOL    HW117300   4.384   1.498   0.131  0.0115 -0.3796  1.8569
 1889SOL    HW217301   4.347   1.632   0.100 -0.2058  1.5072  1.2257
 1890SOL     OW17302   4.330   0.530  14.155  0.0817 -0.4794  0.0262
 1890SOL    HW117303   4.247   0.576  14.161  1.3933  1.8640  0.0803
 1890SOL    HW217304   4.347   0.530  14.061 -2.1483  0.1034 -0.3571
 1891SOL     OW17305   3.450   4.047   5.869 -0.5533 -0.5860 -0.8376
 1891SOL    HW117306   3.404   4.093   5.799 -1.1052 -1.0822 -0.8054
 1891SOL    HW217307   3.506   4.114   5.907 -1.7965  0.6532 -1.2133
 1892SOL     OW17308   0.721   1.377   5.935 -0.2643  0.2734 -0.3476
 1892SOL    HW117309   0.659   1.349   5.868 -0.3074 -0.1986 -0.1089
 1892SOL    HW217310   0.788   1.309   5.928  0.8327  1.1519  1.4575
 1893SOL     OW17311   3.222   2.914  10.000 -0.4419 -0.1081  0.2794
 1893SOL    HW117312   3.164   2.990  10.004  0.1584  0.3891 -0.6311
 1893SOL    HW217313   3.157   2.847   9.978 -1.5347  1.1764 -0.3798
 1894SOL     OW17314   4.255   2.590   2.072 -0.5265  0.3543  0.6001
 1894SOL    HW117315   4.237   2.651   2.143 -0.0618 -0.3597  1.3323
 1894SOL    HW217316   4.171   2.574   2.030  0.4168  1.2179 -1.6239
 1895SOL     OW17317   4.085   0.159   4.611  0.1472  0.7592 -0.4826
 1895SOL    HW117318   4.075   0.065   4.624 -0.1351  0.5296 -2.2630
 1895SOL    HW217319   4.168   0.170   4.564  0.2887 -0.1241 -0.4253
 1896SOL     OW17320   3.154   2.297   2.866  0.4697  0.4085  0.7608
 1896SOL    HW117321   3.214   2.371   2.873  1.4254 -0.3463  0.6931
 1896SOL    HW217322   3.069   2.336   2.884  0.9970  1.6322  0.5780
 1897SOL     OW17323   0.561   1.380  16.179  0.3415 -0.3382 -0.0255
 1897SOL    HW117324   0.531   1.430  16.255  2.4775  2.2152 -0.8819
 1897SOL    HW217325   0.584   1.302  16.229 -0.0515 -0.2965  0.2186
 1898SOL     OW17326   0.555   0.564   6.638 -0.0809  0.3754 -0.2114
 1898SOL    HW117327   0.463   0.582   6.618  0.1950  2.3727  0.2926
 1898SOL    HW217328   0.548   0.526   6.726  2.7195 -1.0907 -0.6227
 1899SOL     OW17329   0.283   2.720   5.754 -0.3148 -0.0600  0.8338
 1899SOL    HW117330   0.318   2.804   5.724  0.6205 -0.8817 -0.3621
 1899SOL    HW217331   0.247   2.679   5.675  0.9751 -0.3546  0.4005
 1900SOL     OW17332   3.914   4.337   3.162 -0.2239  0.0662  0.2224
 1900SOL    HW117333   3.975   4.305   3.096  0.8727  2.2416  0.2063
 1900SOL    HW217334   3.926   4.431   3.160  0.3195  0.0166  0.9755
 1901SOL     OW17335   3.956   2.602   4.118  0.3050 -0.1379  0.0629
 1901SOL    HW117336   4.012   2.595   4.196  0.6534 -0.7050 -0.2418
 1901SOL    HW217337   4.014   2.572   4.048 -2.6973 -0.0529 -2.4690
 1902SOL     OW17338   2.981   3.241   4.782 -0.0614  0.2573  0.1113
 1902SOL    HW117339   2.931   3.163   4.757  0.5784 -0.0884 -0.0747
 1902SOL    HW217340   3.019   3.198   4.859  0.7197  2.8656  1.1841
 1903SOL     OW17341   2.012   4.359   6.483 -0.3909 -0.4639  0.3033
 1903SOL    HW117342   2.087   4.358   6.542  0.0089 -2.6975 -0.2483
 1903SOL    HW217343   1.935   4.361   6.540  0.4057  0.3614  1.3406
 1904SOL     OW17344   0.282   2.876   2.801  0.0031  0.2157 -0.0880
 1904SOL    HW117345   0.202   2.927   2.795  2.2717  3.7449 -0.6269
 1904SOL    HW217346   0.249   2.808   2.743  0.7821 -2.2328  2.3203
 1905SOL     OW17347   4.579   1.346   4.535  0.2093 -0.1466  0.3010
 1905SOL    HW117348   4.513   1.405   4.499 -0.5496  0.5759  2.8544
 1905SOL    HW217349   4.530   1.285   4.590  0.7670 -0.4071  0.5133
 1906SOL     OW17350   1.490   2.392   8.431 -0.3578  0.4331  0.8739
 1906SOL    HW117351   1.453   2.414   8.346  0.7441  1.1558  0.5945
 1906SOL    HW217352   1.501   2.481   8.463  0.6871  1.4745 -2.3714
 1907SOL     OW17353   4.392   0.556   3.998 -0.6783 -0.2903 -0.6628
 1907SOL    HW117354   4.389   0.642   4.040 -2.0734  0.1808 -1.7421
 1907SOL    HW217355   4.485   0.564   3.975 -0.5239 -0.0955  0.0218
 1908SOL     OW17356   2.395   0.210   3.515 -0.3202 -0.6264 -0.9254
 1908SOL    HW117357   2.487   0.196   3.537 -0.1732  0.1707 -1.0330
 1908SOL    HW217358   2.389   0.147   3.443 -0.2629 -0.5591 -0.9896
 1909SOL     OW17359   0.837   0.656   5.138  0.4268 -0.0849  0.3469
 1909SOL    HW117360   0.765   0.706   5.177  1.2844  3.0316 -2.0338
 1909SOL    HW217361   0.783   0.603   5.079 -0.5073  0.4243  0.7343
 1910SOL     OW17362   2.497   4.702   2.625 -0.5703  0.1157 -0.4503
 1910SOL    HW117363   2.502   0.025   2.547  0.0877 -1.3599 -1.4843
 1910SOL    HW217364   2.544   4.623   2.600  1.2314  1.0534 -0.0498
 1911SOL     OW17365   1.909   1.257   3.636  0.3781  0.0530  0.2625
 1911SOL    HW117366   1.849   1.184   3.647 -0.3606  0.5181 -0.6128
 1911SOL    HW217367   1.911   1.278   3.729  3.2883  0.8353  0.0397
 1912SOL     OW17368   1.419   0.535   4.581  0.2775 -0.0392 -0.0407
 1912SOL    HW117369   1.445   0.484   4.504  0.0089  0.9778 -0.8059
 1912SOL    HW217370   1.435   0.624   4.551 -0.9723 -0.2360 -1.2890
 1913SOL     OW17371   1.885   4.062   3.831  0.2829 -0.1641  0.3297
 1913SOL    HW117372   1.836   3.991   3.790 -0.2783  0.2811  0.2204
 1913SOL    HW217373   1.896   4.120   3.755 -1.4786  1.5382  1.3637
 1914SOL     OW17374   1.658   0.479   2.690 -0.8477  0.2261  0.1573
 1914SOL    HW117375   1.747   0.451   2.672 -0.6750  1.6342 -1.1655
 1914SOL    HW217376   1.627   0.426   2.764 -2.2855  2.3724  1.0729
 1915SOL     OW17377   2.696   2.268   6.894 -0.0044 -0.1326  0.1115
 1915SOL    HW117378   2.760   2.333   6.924  0.5923  0.3978 -2.3165
 1915SOL    HW217379   2.724   2.247   6.805  1.8944  0.3672  0.5995
 1916SOL     OW17380   1.204   1.082   6.203  0.0203  0.4537  0.0395
 1916SOL    HW117381   1.293   1.088   6.167  0.2353 -0.3498  0.4286
 1916SOL    HW217382   1.208   1.003   6.257 -0.3501  0.9328  0.7596
 1917SOL     OW17383   0.200   3.533  14.306 -0.2429 -0.3510 -0.8068
 1917SOL    HW117384   0.121   3.482  14.291 -1.5755  1.3811  0.2874
 1917SOL    HW217385   0.201   3.582  14.223  0.3709  2.4430  0.8362
 1918SOL     OW17386   2.452   3.699  10.756  0.0632  0.2585  0.2501
 1918SOL    HW117387   2.447   3.604  10.759  0.9237  0.2473  1.3844
 1918SOL    HW217388   2.498   3.721  10.675 -0.1399 -0.9101 -0.1729
 1919SOL     OW17389   0.526   0.411   9.197  0.1911  0.6198 -0.6216
 1919SOL    HW117390   0.491   0.322   9.199 -2.0998  1.4930 -2.1603
 1919SOL    HW217391   0.605   0.403   9.143  0.1015 -2.0309 -0.3649
 1920SOL     OW17392   3.669   0.942  16.047 -0.0961 -0.1519  0.5279
 1920SOL    HW117393   3.724   0.866  16.027 -4.4353 -2.1696 -3.9863
 1920SOL    HW217394   3.680   0.949  16.142 -1.9004 -0.3985  0.7571
 1921SOL     OW17395   3.150   3.000  16.556 -0.1749  0.4580 -0.1086
 1921SOL    HW117396   3.193   2.977  16.473 -0.0596 -2.0619  0.6680
 1921SOL    HW217397   3.221   2.960  16.606 -2.3081 -0.8379  1.8707
 1922SOL     OW17398   3.540   4.401   5.912  0.5372 -0.4040 -0.4207
 1922SOL    HW117399   3.458   4.420   5.867  0.2235  0.8934  0.6813
 1922SOL    HW217400   3.506   4.347   5.984  0.3896  1.2807  0.7843
 1923SOL     OW17401   3.143   3.871   1.662 -0.1483  0.3615 -0.4279
 1923SOL    HW117402   3.081   3.920   1.716  1.5024  0.1268  1.7014
 1923SOL    HW217403   3.163   3.936   1.595 -1.0357  0.0156 -1.0128
 1924SOL     OW17404   2.842   2.594   4.863 -0.8583  0.5760 -0.7045
 1924SOL    HW117405   2.873   2.661   4.802 -0.2629 -0.0269 -1.0575
 1924SOL    HW217406   2.916   2.535   4.875 -0.3160  1.3395 -0.2454
 1925SOL     OW17407   0.380   1.935  10.198 -0.6295  0.2248  0.0813
 1925SOL    HW117408   0.394   1.862  10.258  1.2539  1.1463  0.7539
 1925SOL    HW217409   0.403   2.011  10.251  0.9852  0.1125 -0.4415
 1926SOL     OW17410   2.313   4.192   5.359 -0.5351  0.5383  0.1014
 1926SOL    HW117411   2.253   4.138   5.308 -0.4232 -1.7705  2.4243
 1926SOL    HW217412   2.319   4.269   5.303  1.1885 -0.6102 -1.2944
 1927SOL     OW17413   1.273   1.090   0.811  0.2267  0.3432 -0.3099
 1927SOL    HW117414   1.265   1.086   0.906  0.0032  1.5673 -0.2748
 1927SOL    HW217415   1.282   1.184   0.791  1.3438  0.3869  0.4117
 1928SOL     OW17416   1.758   2.085  16.177  0.2623 -0.0573 -0.3714
 1928SOL    HW117417   1.853   2.090  16.181  0.1665  0.4155  1.4300
 1928SOL    HW217418   1.730   2.176  16.171 -0.8499 -0.2425  2.0523
 1929SOL     OW17419   0.672   1.736   5.877  0.1355 -0.6435 -0.1810
 1929SOL    HW117420   0.620   1.657   5.864 -3.5555  1.5043  1.6458
 1929SOL    HW217421   0.635   1.763   5.961  0.9942 -1.0254  0.3219
 1930SOL     OW17422   1.209   3.413   8.115 -0.7595  0.5276 -0.1505
 1930SOL    HW117423   1.195   3.494   8.164 -2.9716  0.0285  0.0464
 1930SOL    HW217424   1.286   3.433   8.061 -0.1458 -1.6452 -0.0685
 1931SOL     OW17425   3.374   3.612  12.602  0.0407  0.2668 -0.4436
 1931SOL    HW117426   3.319   3.688  12.624  1.3187  0.9406  0.4271
 1931SOL    HW217427   3.330   3.576  12.525 -0.6943  0.6483 -0.2017
 1932SOL     OW17428   0.837   3.571  12.782  0.4444  0.3029  0.0880
 1932SOL    HW117429   0.778   3.597  12.711  2.1893 -0.0687 -1.4868
 1932SOL    HW217430   0.909   3.538  12.728 -0.6932 -0.7001 -0.8363
 1933SOL     OW17431   1.774   0.448   9.452  0.4020 -0.4112 -0.3329
 1933SOL    HW117432   1.863   0.430   9.425  0.3641 -0.8047 -0.1979
 1933SOL    HW217433   1.784   0.533   9.495 -1.4590 -1.6373  2.5350
 1934SOL     OW17434   0.697   1.947   9.153 -0.4287 -0.2631 -0.3583
 1934SOL    HW117435   0.615   1.926   9.197 -0.5768  1.2004  0.0429
 1934SOL    HW217436   0.749   1.867   9.150  1.1294  0.7069  0.7891
 1935SOL     OW17437   3.240   0.961  14.161  0.0827 -0.3568 -0.3473
 1935SOL    HW117438   3.237   1.032  14.096  1.1465  2.7370  2.9376
 1935SOL    HW217439   3.243   1.016  14.240 -1.9303  2.7869 -2.4307
 1936SOL     OW17440   4.399   0.691   6.991 -0.4897 -0.4192  0.7427
 1936SOL    HW117441   4.334   0.643   6.941  0.1005  2.0204 -2.3762
 1936SOL    HW217442   4.412   0.774   6.946  0.2307 -0.3062  1.1484
 1937SOL     OW17443   0.392   2.463   7.572  0.0216  0.1304 -0.2124
 1937SOL    HW117444   0.452   2.388   7.569  2.2859  1.8360  2.1196
 1937SOL    HW217445   0.320   2.435   7.516  0.5964  0.4661 -1.1113
 1938SOL     OW17446   0.799   1.615   1.238 -0.5116 -0.0120 -0.3902
 1938SOL    HW117447   0.777   1.703   1.269  1.1589  0.4079 -0.4309
 1938SOL    HW217448   0.739   1.610   1.163 -1.5872 -0.5704  0.5062
 1939SOL     OW17449   2.742   2.064   8.323  0.0449 -0.2404  0.2101
 1939SOL    HW117450   2.714   2.154   8.306  2.3548  0.9207  2.6930
 1939SOL    HW217451   2.816   2.082   8.380 -0.7784  1.0666  0.8435
 1940SOL     OW17452   3.978   4.281   2.315  0.5710 -0.5592  0.3304
 1940SOL    HW117453   3.961   4.227   2.238 -0.1071  1.7813 -1.1672
 1940SOL    HW217454   3.914   4.346   2.285 -0.3905 -1.7818 -0.2920
 1941SOL     OW17455   0.667   4.036   8.307  0.3988  0.1544 -0.2841
 1941SOL    HW117456   0.650   4.057   8.399 -0.7763  1.9370 -0.9339
 1941SOL    HW217457   0.630   4.111   8.262 -0.4547  0.3897  0.8122
 1942SOL     OW17458   3.524   3.449   7.194 -0.1975 -0.4928  0.6371
 1942SOL    HW117459   3.478   3.533   7.186 -0.4335 -0.6581  0.2312
 1942SOL    HW217460   3.612   3.485   7.198 -0.7492  0.5847  2.7147
 1943SOL     OW17461   3.667   3.140   4.963  0.4579 -0.0803  0.5737
 1943SOL    HW117462   3.666   3.049   4.936  1.7421 -0.4447  1.7278
 1943SOL    HW217463   3.682   3.193   4.885 -0.9086 -0.9642 -0.2707
 1944SOL     OW17464   0.346   2.177   3.317 -0.4230  0.5175  0.0923
 1944SOL    HW117465   0.305   2.152   3.234  0.7506  0.7197 -0.5460
 1944SOL    HW217466   0.271   2.166   3.375 -0.9608  1.0421 -0.4978
 1945SOL     OW17467   0.782   1.738   0.359 -0.2023 -0.4016  0.2281
 1945SOL    HW117468   0.831   1.778   0.430  1.5833  0.0539 -1.2632
 1945SOL    HW217469   0.856   1.702   0.310  0.7026  1.2873  0.3762
 1946SOL     OW17470   4.564   4.027   5.725 -0.1275  0.1488  0.7857
 1946SOL    HW117471   4.536   4.050   5.636  0.1785 -0.3584  0.5586
 1946SOL    HW217472   4.496   4.074   5.773  0.9650  0.9413  1.5517
 1947SOL     OW17473   1.271   2.323   7.553 -0.4685  0.4026 -0.1604
 1947SOL    HW117474   1.193   2.377   7.538 -0.5714 -0.0535 -1.2967
 1947SOL    HW217475   1.244   2.238   7.519  0.2894 -0.0158  0.2777
 1948SOL     OW17476   1.366   4.436   5.631  0.5331  0.1913 -0.0067
 1948SOL    HW117477   1.305   4.452   5.559 -1.4802  1.1432  1.8941
 1948SOL    HW217478   1.316   4.471   5.705 -0.1526 -0.8465  0.0234
 1949SOL     OW17479   3.838   3.727   8.822 -0.8345 -0.6940  0.3939
 1949SOL    HW117480   3.915   3.723   8.765  0.1276  2.7950  1.4442
 1949SOL    HW217481   3.855   3.808   8.871 -3.0220  0.3971 -0.6681
 1950SOL     OW17482   3.464   3.296   4.291  0.2274  0.0951  0.4902
 1950SOL    HW117483   3.370   3.284   4.278  0.0449  1.6924  0.3379
 1950SOL    HW217484   3.494   3.327   4.206  1.3623  0.3223  0.9787
 1951SOL     OW17485   3.225   0.985   3.835 -1.0789 -0.2206 -0.5254
 1951SOL    HW117486   3.135   0.952   3.842 -1.1715  0.3285  0.8688
 1951SOL    HW217487   3.232   0.980   3.739 -0.5853  3.4462 -0.6715
 1952SOL     OW17488   0.025   3.132  16.998 -0.5793 -0.1075  0.4633
 1952SOL    HW117489   0.069   3.047  16.995 -0.4599 -0.1037  2.0110
 1952SOL    HW217490   0.086   3.176  17.057 -0.7020 -0.9909  1.2408
 1953SOL     OW17491   1.137   4.174  10.223 -0.3010 -0.2824  0.2554
 1953SOL    HW117492   1.124   4.266  10.242  1.7732 -0.0404  0.4782
 1953SOL    HW217493   1.231   4.171  10.239  0.0289  3.2981 -1.2260
 1954SOL     OW17494   3.034   1.235   2.740 -0.1447 -0.0946  0.2710
 1954SOL    HW117495   3.106   1.181   2.774 -0.6764 -1.8536 -1.3966
 1954SOL    HW217496   3.001   1.275   2.821 -0.8445  1.4255 -0.7573
 1955SOL     OW17497   0.875   2.800   7.771  0.2362 -0.4695  0.3575
 1955SOL    HW117498   0.787   2.819   7.738  1.2682  0.0763 -2.0805
 1955SOL    HW217499   0.854   2.748   7.849 -2.7746 -1.6211 -1.1836
 1956SOL     OW17500   4.220   2.956   7.329 -0.3503 -0.5870 -0.0411
 1956SOL    HW117501   4.268   3.023   7.280 -2.4418  1.2844  0.5371
 1956SOL    HW217502   4.299   2.909   7.357 -0.2782 -2.0148 -2.6151
 1957SOL     OW17503   0.174   4.495  12.137 -0.0435 -0.6414 -0.0820
 1957SOL    HW117504   0.120   4.562  12.095 -1.2152 -0.6374  1.4404
 1957SOL    HW217505   0.260   4.536  12.123 -0.3218  0.4903  1.5103
 1958SOL     OW17506   0.307   0.415   1.583  0.7531  0.1352  0.2662
 1958SOL    HW117507   0.292   0.323   1.606 -1.1100  0.7925  1.7079
 1958SOL    HW217508   0.240   0.460   1.634  3.3041  3.6983  0.5203
 1959SOL     OW17509   1.397   0.761   9.029  0.8024 -0.1089 -0.1224
 1959SOL    HW117510   1.307   0.732   9.017  1.6614 -2.1450 -1.6895
 1959SOL    HW217511   1.441   0.714   9.100 -0.0863 -0.6766  0.0421
 1960SOL     OW17512   4.075   4.614   4.615 -0.5576 -0.0516  0.4873
 1960SOL    HW117513   4.146   4.581   4.671 -1.5223  0.5955  2.0836
 1960SOL    HW217514   4.091   4.573   4.530 -0.5335 -0.1758  0.5531
 1961SOL     OW17515   3.445   1.157  17.001  0.5517 -0.5326  0.9711
 1961SOL    HW117516   3.436   1.062  16.986  3.0588 -0.5533 -0.5329
 1961SOL    HW217517   3.369   1.176  17.055  0.4311 -1.6347  1.2061
 1962SOL     OW17518   3.415   0.349   3.765 -0.4887 -0.0117 -0.3382
 1962SOL    HW117519   3.355   0.293   3.814 -0.2761 -1.3349 -1.5880
 1962SOL    HW217520   3.486   0.290   3.738  1.3611  1.3909  1.4861
 1963SOL     OW17521   3.235   4.671   4.163 -0.3500 -0.2097 -0.3648
 1963SOL    HW117522   3.196   4.667   4.250  0.1248 -1.5665 -0.2138
 1963SOL    HW217523   3.164   4.635   4.110 -1.2430 -0.0979  0.7503
 1964SOL     OW17524   0.280   3.210   8.125  0.4893  0.1151  0.0159
 1964SOL    HW117525   0.216   3.143   8.101 -0.3320  0.5298  1.0978
 1964SOL    HW217526   0.262   3.254   8.042  2.0276 -1.2860 -1.0874
 1965SOL     OW17527   1.723   0.230   7.350 -0.0689 -0.1153 -0.4455
 1965SOL    HW117528   1.734   0.325   7.347  0.7073 -0.1411  1.5294
 1965SOL    HW217529   1.658   0.206   7.284 -0.7894 -1.4422  0.7376
 1966SOL     OW17530   4.642   2.661   4.462  0.7540  0.3030 -0.2560
 1966SOL    HW117531   4.724   2.695   4.499  2.0278 -0.3166 -2.4902
 1966SOL    HW217532   4.639   2.683   4.369  0.4231  0.4261 -0.2139
 1967SOL     OW17533   0.912   0.535   7.951 -0.6984 -0.4392  0.0463
 1967SOL    HW117534   0.816   0.533   7.951 -0.6480 -2.6000  2.5850
 1967SOL    HW217535   0.931   0.499   7.864  0.0892 -1.1545  0.5189
 1968SOL     OW17536   3.606   2.542   0.627  0.4879  0.0226  0.0277
 1968SOL    HW117537   3.514   2.566   0.632  0.6751  1.2280 -2.6363
 1968SOL    HW217538   3.608   2.467   0.686 -0.2317 -0.3785 -0.4710
 1969SOL     OW17539   1.672   4.529  16.004  0.2003  0.0083 -0.1385
 1969SOL    HW117540   1.597   4.479  15.970  1.4326  0.2394 -3.2073
 1969SOL    HW217541   1.636   4.601  16.055 -2.0002 -1.7989  0.8611
 1970SOL     OW17542   3.069   0.795  11.118  0.5926  0.1462 -0.0456
 1970SOL    HW117543   3.040   0.767  11.032 -0.2511  0.3472  0.1695
 1970SOL    HW217544   3.076   0.890  11.106  0.8074  0.1279 -0.0580
 1971SOL     OW17545   3.717   0.650   6.292  0.0386  0.5604 -0.4020
 1971SOL    HW117546   3.655   0.719   6.316 -1.9569 -1.4768  0.3653
 1971SOL    HW217547   3.654   0.579   6.284 -1.2418  1.8505 -1.8115
 1972SOL     OW17548   1.738   3.372   4.129  0.7480  0.0317  0.4160
 1972SOL    HW117549   1.711   3.287   4.095 -2.0803  1.1468 -0.1388
 1972SOL    HW217550   1.811   3.398   4.073 -0.3621 -3.1320 -2.5405
 1973SOL     OW17551   0.602   2.016   5.583  0.0459  0.9544  0.1835
 1973SOL    HW117552   0.573   1.970   5.662  0.0690  1.4072  0.4558
 1973SOL    HW217553   0.522   2.002   5.533  0.8548  0.2569 -0.8975
 1974SOL     OW17554   3.858   1.943   2.292 -0.0822  0.0794  0.2527
 1974SOL    HW117555   3.783   1.897   2.254  0.6598 -1.0787  0.2106
 1974SOL    HW217556   3.923   1.950   2.222 -1.4452 -2.2467 -1.2463
 1975SOL     OW17557   0.994   4.338  11.415  0.0714 -0.2352 -0.3950
 1975SOL    HW117558   1.008   4.412  11.356  3.6357  1.2256  2.2781
 1975SOL    HW217559   1.044   4.271  11.367  1.4136  0.5653 -0.1144
 1976SOL     OW17560   2.485   2.990   0.145  0.4368 -0.0029 -0.1899
 1976SOL    HW117561   2.513   3.021   0.058 -0.3832  1.5861  0.1154
 1976SOL    HW217562   2.393   2.969   0.128  0.5490  0.0400 -0.8607
 1977SOL     OW17563   3.019   4.569   3.198  0.2519  0.3964  0.1757
 1977SOL    HW117564   2.929   4.577   3.167 -0.0592  0.7592  1.1987
 1977SOL    HW217565   3.022   4.476   3.222 -0.0735  0.4658  0.4828
 1978SOL     OW17566   3.105   0.067   4.731 -0.2283 -0.3574 -0.5124
 1978SOL    HW117567   3.135   0.064   4.640  1.4511  1.2377 -0.0167
 1978SOL    HW217568   3.010   0.080   4.732 -0.3217 -1.0937  0.0687
 1979SOL     OW17569   0.664   4.721   5.644  0.4342 -0.3383 -0.0849
 1979SOL    HW117570   0.738   0.017   5.591 -0.6159 -1.5779 -2.2467
 1979SOL    HW217571   0.681   4.627   5.651  1.0474 -0.1335  1.2539
 1980SOL     OW17572   1.339   3.547   7.436 -0.4593 -0.1117 -0.2699
 1980SOL    HW117573   1.324   3.475   7.375 -1.4432  0.0687 -0.2358
 1980SOL    HW217574   1.336   3.622   7.377  2.8105  0.6956  0.5901
 1981SOL     OW17575   0.956   3.114   9.094  0.1153  0.2449  0.0210
 1981SOL    HW117576   1.030   3.148   9.145  1.4799 -2.3173 -0.2728
 1981SOL    HW217577   0.969   3.156   9.009  2.0055  0.8439  0.6105
 1982SOL     OW17578   0.365   2.972   8.301  0.4300  0.2922 -0.0102
 1982SOL    HW117579   0.332   3.045   8.250  2.2406  1.1849  0.1189
 1982SOL    HW217580   0.284   2.946   8.346  0.2351 -1.7798 -1.5570
 1983SOL     OW17581   1.389   0.349   2.234 -0.5680  0.4150  0.1236
 1983SOL    HW117582   1.452   0.394   2.177 -0.5789  0.7295  0.3598
 1983SOL    HW217583   1.372   0.419   2.297  1.0807  1.4814 -0.6236
 1984SOL     OW17584   0.597   1.772   7.462 -0.3134  0.6022 -0.0339
 1984SOL    HW117585   0.527   1.707   7.457 -1.1873  1.3847  1.9390
 1984SOL    HW217586   0.673   1.734   7.418 -1.0033 -1.0854  0.2604
 1985SOL     OW17587   2.995   1.706   6.632  0.8487  0.1865 -0.0122
 1985SOL    HW117588   2.992   1.705   6.537 -2.1770  2.1696  0.0750
 1985SOL    HW217589   2.941   1.783   6.651 -1.4206 -1.6325  0.7847
 1986SOL     OW17590   1.070   2.774   5.588 -0.3416 -0.2740  0.8479
 1986SOL    HW117591   1.103   2.774   5.678 -1.2525  1.4322  1.1864
 1986SOL    HW217592   1.040   2.863   5.573 -0.3037 -0.5240 -0.6970
 1987SOL     OW17593   2.936   0.372   8.990  0.0783 -0.2513  0.2171
 1987SOL    HW117594   2.899   0.376   8.902 -0.9807  2.7194  0.8109
 1987SOL    HW217595   3.003   0.304   8.976  0.8133  0.1896  1.5815
 1988SOL     OW17596   2.881   2.126   5.750 -0.2920  0.3047  0.2567
 1988SOL    HW117597   2.804   2.094   5.703 -0.5384 -1.7359  2.0409
 1988SOL    HW217598   2.931   2.046   5.768 -1.6251 -0.7289 -0.5752
 1989SOL     OW17599   1.270   1.998   6.842 -0.4020 -0.1462  0.1692
 1989SOL    HW117600   1.331   1.969   6.774  0.4961 -0.1643  0.9827
 1989SOL    HW217601   1.309   2.074   6.886  0.6279  0.1510 -1.2777
 1990SOL     OW17602   1.883   0.487   5.123  0.8687  0.3716  0.8368
 1990SOL    HW117603   1.864   0.424   5.193  1.1207 -0.2764  0.3235
 1990SOL    HW217604   1.868   0.573   5.162 -1.7246 -0.7118  2.2267
 1991SOL     OW17605   0.921   1.440   5.548  0.5114 -0.8581  0.0483
 1991SOL    HW117606   0.930   1.352   5.584  1.7894 -0.2591  1.1788
 1991SOL    HW217607   0.915   1.498   5.624 -0.1674 -0.3542 -0.3861
 1992SOL     OW17608   1.959   3.909   8.593 -0.4496  0.0746 -0.1195
 1992SOL    HW117609   1.879   3.911   8.645 -1.0130 -1.4877 -0.9313
 1992SOL    HW217610   2.029   3.923   8.657 -0.6174  2.4473 -0.4438
 1993SOL     OW17611   3.758   3.061  15.503  0.4343  0.0897 -0.5115
 1993SOL    HW117612   3.767   3.152  15.475 -2.6760  0.3002 -0.7572
 1993SOL    HW217613   3.664   3.061  15.487  0.7229  1.5107 -2.2727
 1994SOL     OW17614   0.666   3.050   1.449 -0.0109 -0.2182  0.6552
 1994SOL    HW117615   0.664   3.006   1.364  0.3927 -0.1591  0.6117
 1994SOL    HW217616   0.578   3.031   1.480  0.1738 -3.1249 -0.5752
 1995SOL     OW17617   3.290   0.459  11.410  0.5491  0.4316  0.1187
 1995SOL    HW117618   3.358   0.458  11.477  0.0784 -0.8163  0.5840
 1995SOL    HW217619   3.326   0.512  11.339  1.0666  0.8089  0.6610
 1996SOL     OW17620   3.702   4.071   3.701  0.3445  0.3324  0.3373
 1996SOL    HW117621   3.666   4.128   3.633 -1.0594  0.4424  1.1891
 1996SOL    HW217622   3.698   3.992   3.646  0.4955  1.7376 -1.7241
 1997SOL     OW17623   0.078   2.356  17.097 -0.0926 -0.3694  0.1493
 1997SOL    HW117624   4.719   2.332  17.092 -0.3550 -0.2267  4.1024
 1997SOL    HW217625   0.094   2.379  17.188  1.4388  0.5070 -0.3477
 1998SOL     OW17626   0.031   0.631   0.521 -0.5007 -0.7299  0.0524
 1998SOL    HW117627   4.720   0.597   0.443 -0.7235 -0.5968  0.1235
 1998SOL    HW217628   4.690   0.646   0.578 -0.4874 -3.1910  0.6965
 1999SOL     OW17629   1.401   1.865   7.220  0.4971 -1.0448  0.1398
 1999SOL    HW117630   1.388   1.829   7.132 -2.4954  2.2677 -0.7704
 1999SOL    HW217631   1.377   1.955   7.197  0.6586 -1.2752 -0.9599
 2000SOL     OW17632   1.474   2.211   5.691  0.5326  0.6737  0.3607
 2000SOL    HW117633   1.535   2.214   5.617 -0.7342 -0.8980 -0.7404
 2000SOL    HW217634   1.389   2.219   5.649  1.3012  0.0045 -1.3308
 2001SOL     OW17635   3.059   4.281   5.685 -0.0003  0.3117 -0.0553
 2001SOL    HW117636   3.063   4.221   5.610  1.3680  0.7973 -0.3671
 2001SOL    HW217637   2.965   4.273   5.702 -0.0351  0.0792 -0.3501
 2002SOL     OW17638   3.487   3.139   2.103 -0.2952 -0.3087 -0.7332
 2002SOL    HW117639   3.513   3.153   2.195 -1.3245 -0.6875 -0.3842
 2002SOL    HW217640   3.522   3.215   2.057 -2.7319  2.0785  1.2817
 2003SOL     OW17641   1.559   4.508   7.798  0.2709  0.2537  0.3662
 2003SOL    HW117642   1.532   4.491   7.707  1.9934  1.3993 -0.3617
 2003SOL    HW217643   1.485   4.553   7.838 -1.1079 -1.4592 -0.2615
 2004SOL     OW17644   3.551   3.476   6.036  0.7262 -0.3605 -0.1654
 2004SOL    HW117645   3.548   3.517   6.123 -0.6539  1.5355 -1.0908
 2004SOL    HW217646   3.634   3.431   6.048  0.9778  0.5205  1.3675
 2005SOL     OW17647   0.344   1.426   7.687  0.0752  0.5343 -0.5615
 2005SOL    HW117648   0.379   1.344   7.722 -0.6165  1.8286  3.1566
 2005SOL    HW217649   0.363   1.480   7.764 -1.0418  0.6153 -0.3391
 2006SOL     OW17650   1.172   2.700   0.176  0.4720  0.0407 -0.1001
 2006SOL    HW117651   1.206   2.612   0.162  0.2806  0.2295 -1.7125
 2006SOL    HW217652   1.097   2.698   0.117  0.7381  0.8962 -0.4684
 2007SOL     OW17653   3.732   3.074   3.485  1.3269  0.5024  0.0443
 2007SOL    HW117654   3.775   2.989   3.496  0.2672  0.0082  0.3258
 2007SOL    HW217655   3.662   3.052   3.547  0.8746 -0.4007 -0.7825
 2008SOL     OW17656   3.885   1.689  15.754 -0.3441  0.5070 -0.0534
 2008SOL    HW117657   3.951   1.622  15.771  0.3362  1.2987  0.4546
 2008SOL    HW217658   3.940   1.767  15.746  0.1865  0.1448  0.0830
 2009SOL     OW17659   0.774   3.854   8.642 -0.1661  0.0182  0.0896
 2009SOL    HW117660   0.828   3.895   8.575 -1.8709 -2.1000 -2.6055
 2009SOL    HW217661   0.735   3.788   8.584 -0.4604  1.9501 -1.8721
 2010SOL     OW17662   4.148   3.640   2.619 -0.3627  0.3322  0.5257
 2010SOL    HW117663   4.141   3.546   2.608 -1.5954  0.8364 -3.0540
 2010SOL    HW217664   4.060   3.669   2.645 -0.8456 -1.3021  0.6732
 2011SOL     OW17665   3.422   3.227   2.954  0.3130 -0.3134 -0.2279
 2011SOL    HW117666   3.383   3.182   2.878  2.6502 -1.4300 -0.7744
 2011SOL    HW217667   3.458   3.154   3.004 -1.7198 -0.6919  0.6806
 2012SOL     OW17668   2.640   1.267   6.536  0.8789  0.2333 -0.3263
 2012SOL    HW117669   2.548   1.281   6.516  0.4676 -0.4099  1.1290
 2012SOL    HW217670   2.671   1.264   6.446 -0.8153  4.8393 -1.0457
 2013SOL     OW17671   4.597   3.872   4.423 -0.5969  0.4100  0.0410
 2013SOL    HW117672   4.629   3.800   4.477  0.4534 -0.1813 -1.3435
 2013SOL    HW217673   4.537   3.920   4.480 -0.8484  1.1439 -0.8492
 2014SOL     OW17674   3.213   4.478   2.541 -0.6274 -0.1198  0.2347
 2014SOL    HW117675   3.228   4.545   2.474 -0.6536  0.4887  0.8397
 2014SOL    HW217676   3.211   4.536   2.617  1.1966 -0.8941  0.8666
 2015SOL     OW17677   1.361   3.869   2.805 -0.5229  0.2160 -0.2215
 2015SOL    HW117678   1.328   3.785   2.837  3.4120 -0.8800  0.9478
 2015SOL    HW217679   1.451   3.860   2.835 -0.9263 -0.4464  0.7967
 2016SOL     OW17680   3.533   3.014   3.668  0.1941  0.1768  0.5717
 2016SOL    HW117681   3.523   2.922   3.693  2.4887  0.1755  1.4201
 2016SOL    HW217682   3.442   3.044   3.666  0.1623 -0.1865 -3.1204
 2017SOL     OW17683   2.362   2.670   3.035 -0.1712 -0.3420 -0.2114
 2017SOL    HW117684   2.406   2.727   3.098  0.4288 -1.7105  0.6003
 2017SOL    HW217685   2.332   2.599   3.093 -0.4870  1.0451  1.3295
 2018SOL     OW17686   1.288   1.977  15.896 -0.1351  0.0336 -0.6470
 2018SOL    HW117687   1.228   1.959  15.968  1.3994  1.5446  1.0115
 2018SOL    HW217688   1.231   1.961  15.821  1.0298 -0.1459 -1.5097
 2019SOL     OW17689   3.958   2.219   6.896 -0.2263  0.0129  0.5993
 2019SOL    HW117690   4.023   2.159   6.932  1.1293  0.3815 -1.2494
 2019SOL    HW217691   3.890   2.158   6.869 -0.8367  1.1956 -0.4867
 2020SOL     OW17692   3.961   2.436   2.822 -0.6209  0.2567  0.1711
 2020SOL    HW117693   3.890   2.407   2.764  0.8526 -1.2645 -0.8563
 2020SOL    HW217694   4.038   2.427   2.767 -0.0847  1.8479  0.6866
 2021SOL     OW17695   2.158   1.181   3.919 -0.2686  0.6729  0.5433
 2021SOL    HW117696   2.159   1.259   3.864 -1.5112  0.8853  0.8355
 2021SOL    HW217697   2.158   1.219   4.007  0.2406 -0.3259  0.9852
 2022SOL     OW17698   3.425   4.671   4.477 -0.3279 -0.3062 -0.0685
 2022SOL    HW117699   3.481   4.710   4.545 -1.0084  0.8087 -0.1481
 2022SOL    HW217700   3.370   0.014   4.461 -1.6105 -1.3992 -0.8893
 2023SOL     OW17701   0.634   2.067  10.111  0.0519  0.1661  0.4951
 2023SOL    HW117702   0.609   1.993  10.056  0.2848  0.1556  0.4042
 2023SOL    HW217703   0.688   2.028  10.180  0.1995  0.9417  0.8218
 2024SOL     OW17704   4.036   0.086   7.607 -0.5407  0.2846  0.1870
 2024SOL    HW117705   4.035   0.082   7.511  2.1957  0.4488  0.1499
 2024SOL    HW217706   3.947   0.077   7.641 -0.4492 -2.4970 -0.2428
 2025SOL     OW17707   4.566   0.118   6.437  0.1229 -0.1891  0.4623
 2025SOL    HW117708   4.544   0.208   6.415 -1.8666 -0.8274 -0.0837
 2025SOL    HW217709   4.549   0.117   6.531 -1.4398  1.5841  0.1781
 2026SOL     OW17710   4.302   2.198   2.783 -0.3761 -0.1054  0.2133
 2026SOL    HW117711   4.388   2.187   2.742 -0.8552  0.1678 -0.8671
 2026SOL    HW217712   4.261   2.241   2.708 -1.1020 -0.0823  0.6333
 2027SOL     OW17713   3.937   0.118  15.067 -0.0839  0.5668  0.2749
 2027SOL    HW117714   3.920   0.211  15.084 -0.3579  0.9604 -2.1132
 2027SOL    HW217715   3.851   0.088  15.038 -0.5842  2.4199 -0.1808
 2028SOL     OW17716   1.073   3.864   4.805 -0.1182  0.2700 -0.3923
 2028SOL    HW117717   0.981   3.876   4.784 -0.4915  0.6047  1.3686
 2028SOL    HW217718   1.078   3.772   4.780  1.6587 -0.0649  1.1715
 2029SOL     OW17719   4.420   0.244   8.297 -0.1808  0.8029 -0.4238
 2029SOL    HW117720   4.363   0.320   8.287  0.5608  1.3367 -0.6100
 2029SOL    HW217721   4.384   0.200   8.220 -0.2821  1.5162 -0.7915
 2030SOL     OW17722   1.210   3.146   1.796  0.3749  0.2835 -0.0031
 2030SOL    HW117723   1.215   3.216   1.862  0.8844 -0.3661  0.6407
 2030SOL    HW217724   1.250   3.177   1.715 -0.5860 -1.1315 -1.0108
 2031SOL     OW17725   4.479   4.418   4.468 -0.4229 -0.1828  0.3023
 2031SOL    HW117726   4.518   4.498   4.505 -0.5797 -0.7857  1.7841
 2031SOL    HW217727   4.526   4.417   4.385 -1.2753  0.2229 -0.1836
 2032SOL     OW17728   2.417   1.248   2.847  0.1950 -0.0688 -0.2200
 2032SOL    HW117729   2.482   1.249   2.917 -0.2990  1.3186  0.2062
 2032SOL    HW217730   2.400   1.154   2.839 -3.3402  0.5550  0.0906
 2033SOL     OW17731   3.672   3.540   8.580  0.5782 -0.2498 -0.1595
 2033SOL    HW117732   3.708   3.582   8.502  1.4448 -1.3307 -0.3429
 2033SOL    HW217733   3.585   3.512   8.553  1.0939 -2.5159  0.4820
 2034SOL     OW17734   0.612   2.367  16.693  0.1085 -0.1566 -0.1571
 2034SOL    HW117735   0.552   2.441  16.703  0.5047  0.2226 -0.5818
 2034SOL    HW217736   0.666   2.371  16.772 -0.6413  0.2694  0.3353
 2035SOL     OW17737   1.198   0.711  13.734  0.4959 -0.6412 -0.3268
 2035SOL    HW117738   1.269   0.773  13.721  0.1101 -0.1708 -0.1961
 2035SOL    HW217739   1.247   0.630  13.739  2.3248  0.4519 -0.6660
 2036SOL     OW17740   1.772   3.745   8.180 -0.0084  0.0400 -0.1541
 2036SOL    HW117741   1.736   3.715   8.097 -0.6263 -1.0144  0.4989
 2036SOL    HW217742   1.795   3.832   8.147  0.2606  0.4791  1.2091
 2037SOL     OW17743   2.584   2.321   5.635 -0.2212 -0.3473 -0.1628
 2037SOL    HW117744   2.575   2.408   5.674 -1.6201 -0.7522  0.4303
 2037SOL    HW217745   2.599   2.341   5.543 -0.5953  3.5259  0.5911
 2038SOL     OW17746   1.532   1.349   7.979 -0.0766 -0.0604 -0.2230
 2038SOL    HW117747   1.568   1.431   7.945  1.9854  0.0055  2.1210
 2038SOL    HW217748   1.517   1.310   7.893 -4.2866  3.0780 -0.8871
 2039SOL     OW17749   4.399   1.434   6.283 -0.6484 -0.5421  0.1056
 2039SOL    HW117750   4.355   1.437   6.198  1.5999 -0.5831 -1.0535
 2039SOL    HW217751   4.343   1.372   6.330  1.3257 -1.6611  1.0009
 2040SOL     OW17752   2.307   0.802  15.612 -0.0740 -0.4580  0.7106
 2040SOL    HW117753   2.254   0.724  15.598  1.1030 -0.8206 -1.7088
 2040SOL    HW217754   2.322   0.829  15.521  0.9064  0.6908  1.2184
 2041SOL     OW17755   1.249   4.606   7.649 -0.2376  0.0997  0.1513
 2041SOL    HW117756   1.290   4.520   7.663  2.0417  1.2650  0.6474
 2041SOL    HW217757   1.278   4.630   7.561  0.0604 -0.1347  0.1851
 2042SOL     OW17758   2.437   3.572   3.623 -0.0601  0.1391  0.0870
 2042SOL    HW117759   2.474   3.657   3.644  1.6815  0.2043 -3.1270
 2042SOL    HW217760   2.515   3.517   3.630  0.4850  0.6222 -2.0349
 2043SOL     OW17761   3.964   2.961  17.470 -0.0291 -0.0976 -0.2476
 2043SOL    HW117762   3.869   2.972  17.466  0.0320 -0.0428 -1.4291
 2043SOL    HW217763   3.996   2.958  17.380 -1.5725 -2.0897 -0.7149
 2044SOL     OW17764   0.949   3.255  15.304  0.4949 -0.1637  0.2403
 2044SOL    HW117765   0.880   3.310  15.342 -0.8686 -1.1399 -0.8184
 2044SOL    HW217766   1.022   3.317  15.302  2.4890 -2.6028 -1.7806
 2045SOL     OW17767   1.853   2.137   7.240 -0.0919 -0.7649 -0.5230
 2045SOL    HW117768   1.880   2.190   7.315  1.1944  0.2486 -1.6988
 2045SOL    HW217769   1.818   2.209   7.187  2.1610  0.5478 -0.2145
 2046SOL     OW17770   4.724   3.418   7.959  0.4118 -0.4018  0.1013
 2046SOL    HW117771   0.081   3.391   7.950  0.5398  0.1531 -0.2023
 2046SOL    HW217772   4.678   3.342   7.922 -0.2443 -1.3943  2.9102
 2047SOL     OW17773   0.505   3.934   5.584 -0.2223 -0.7858  0.5704
 2047SOL    HW117774   0.482   3.980   5.664  0.5660 -0.0855  0.3924
 2047SOL    HW217775   0.528   3.843   5.603 -3.6380 -1.2479  2.3888
 2048SOL     OW17776   0.402   2.998  10.117 -0.4272  0.2634 -0.1738
 2048SOL    HW117777   0.494   2.978  10.133 -0.1694  2.5509  1.1087
 2048SOL    HW217778   0.403   3.014  10.023  0.4843  0.0113 -0.2053
 2049SOL     OW17779   2.566   3.299   1.780 -0.0561  0.1856 -0.6406
 2049SOL    HW117780   2.557   3.278   1.687 -0.6082 -2.6329  0.0546
 2049SOL    HW217781   2.526   3.224   1.824 -1.5172  0.4722 -1.4863
 2050SOL     OW17782   4.083   0.282  16.081 -0.4970  0.5069  0.4681
 2050SOL    HW117783   4.176   0.268  16.063 -0.9188  2.3812 -3.0860
 2050SOL    HW217784   4.061   0.194  16.110  0.7114 -0.5294 -1.7632
 2051SOL     OW17785   3.930   4.299   6.409 -0.9087 -0.0178 -0.2679
 2051SOL    HW117786   3.966   4.381   6.442 -1.4791 -0.7183  2.0965
 2051SOL    HW217787   3.910   4.258   6.494 -0.4271  1.3314  0.4813
 2052SOL     OW17788   1.019   1.669   1.851 -0.8319 -0.2602 -0.3337
 2052SOL    HW117789   0.946   1.646   1.908 -0.8867  2.3566  0.6781
 2052SOL    HW217790   1.069   1.735   1.899 -0.1664  0.6889 -2.3222
 2053SOL     OW17791   2.121   4.520   2.436  0.1850 -0.4975  0.6215
 2053SOL    HW117792   2.104   4.602   2.389 -1.5873 -1.3327 -0.1997
 2053SOL    HW217793   2.180   4.477   2.374 -0.5204  0.5587 -0.7898
 2054SOL     OW17794   3.988   1.044   7.726 -0.2025 -0.1696 -0.4685
 2054SOL    HW117795   3.973   0.993   7.647  0.2327  0.4773 -0.9707
 2054SOL    HW217796   3.899   1.060   7.757  1.0094  1.3658  2.3046
 2055SOL     OW17797   0.572   0.816   4.458 -0.0468  0.2334 -0.0911
 2055SOL    HW117798   0.535   0.888   4.509 -0.5943  1.2374 -1.9505
 2055SOL    HW217799   0.498   0.771   4.417  0.7576 -1.6467  0.5070
 2056SOL     OW17800   1.286   3.176   4.978 -0.2376  0.6059  0.5533
 2056SOL    HW117801   1.195   3.170   5.005 -0.2106 -2.6462 -0.0682
 2056SOL    HW217802   1.294   3.259   4.931 -0.4033 -0.7561 -1.9003
 2057SOL     OW17803   1.762   3.712   4.051 -0.0645  0.4220  0.8472
 2057SOL    HW117804   1.714   3.654   4.110 -0.0386 -0.6251 -0.1644
 2057SOL    HW217805   1.709   3.734   3.974 -0.6116  0.1557  1.1451
 2058SOL     OW17806   1.171   1.660   3.635 -0.0863  0.2701 -0.1983
 2058SOL    HW117807   1.168   1.642   3.729 -0.2570  0.2216 -0.2124
 2058SOL    HW217808   1.211   1.747   3.642  0.6014 -0.3070  3.0044
 2059SOL     OW17809   2.661   3.547  15.664  0.2337  0.0671 -0.3708
 2059SOL    HW117810   2.679   3.552  15.570  2.0469  1.0395  0.0409
 2059SOL    HW217811   2.713   3.623  15.687  1.5883 -0.7013 -0.8805
 2060SOL     OW17812   2.439   2.612   2.484 -0.1076  0.0537 -0.0860
 2060SOL    HW117813   2.438   2.624   2.579  0.3122  0.5620 -0.1429
 2060SOL    HW217814   2.397   2.690   2.447 -0.0430  0.6013  0.9642
 2061SOL     OW17815   3.945   4.512   4.934  0.3247 -0.3746  0.4070
 2061SOL    HW117816   3.865   4.471   4.903  0.9401 -0.5972 -0.8659
 2061SOL    HW217817   4.004   4.471   4.871  1.6574  0.2703  1.2303
 2062SOL     OW17818   3.523   0.665  11.437 -0.0277 -0.2719  0.0800
 2062SOL    HW117819   3.564   0.606  11.374 -3.6107  1.4659 -3.8545
 2062SOL    HW217820   3.487   0.736  11.384 -0.7682 -0.9425 -0.3167
 2063SOL     OW17821   1.360   3.108  17.303  0.3718  0.5594 -0.5371
 2063SOL    HW117822   1.389   3.048  17.372 -2.0715 -0.5565 -0.5131
 2063SOL    HW217823   1.390   3.188  17.347  1.4502  1.1413 -2.2687
 2064SOL     OW17824   4.411   4.189   7.832  0.1834 -0.4077 -0.2095
 2064SOL    HW117825   4.426   4.204   7.739 -2.6611  0.9242 -0.4580
 2064SOL    HW217826   4.459   4.107   7.842  0.6534  0.0852  1.7011
 2065SOL     OW17827   3.089   0.240  10.499  0.1030  0.7208  0.2206
 2065SOL    HW117828   3.130   0.154  10.513  0.2109  0.7708  0.2090
 2065SOL    HW217829   3.076   0.242  10.404  0.0413 -1.7128  0.1704
 2066SOL     OW17830   1.975   4.728   6.925 -0.5161 -0.1369 -0.6192
 2066SOL    HW117831   1.890   4.685   6.919 -0.1826 -1.4792  3.9558
 2066SOL    HW217832   1.986   0.007   7.020 -0.5646  1.3150 -0.8142
 2067SOL     OW17833   1.769   3.916  13.138  0.0357 -0.3471 -0.2312
 2067SOL    HW117834   1.741   4.007  13.134 -0.1305 -0.4293 -0.8842
 2067SOL    HW217835   1.689   3.866  13.122  0.1188  0.0230 -1.8274
 2068SOL     OW17836   3.664   0.316  10.368 -0.3976  0.0019 -0.2026
 2068SOL    HW117837   3.687   0.341  10.457  0.9130  0.8352 -0.7683
 2068SOL    HW217838   3.673   0.221  10.367  0.3109  0.0204  4.4805
 2069SOL     OW17839   0.593   2.025   5.983 -0.5097  0.4932 -0.0162
 2069SOL    HW117840   0.579   1.951   6.042 -2.9252  1.6749  0.8875
 2069SOL    HW217841   0.681   1.998   5.957 -0.6317  0.3706 -0.3041
 2070SOL     OW17842   1.332   0.552   5.609 -0.1327  0.3842  0.0183
 2070SOL    HW117843   1.248   0.527   5.646  0.1974 -1.7314 -0.6879
 2070SOL    HW217844   1.387   0.501   5.668 -1.3510 -0.7964  0.1252
 2071SOL     OW17845   0.288   0.017   5.897  0.2197  0.0919  0.1375
 2071SOL    HW117846   0.202   0.041   5.930  1.0744  2.2470  0.8239
 2071SOL    HW217847   0.264   4.718   5.810 -0.9784  1.4347 -0.0325
 2072SOL     OW17848   1.770   1.772   0.080 -0.1888  0.4200 -0.0850
 2072SOL    HW117849   1.708   1.706   0.111 -1.7728  2.5234  1.2327
 2072SOL    HW217850   1.716   1.810   0.009  0.7303  3.3566  0.7979
 2073SOL     OW17851   4.541   0.414   3.619 -0.0154 -0.3751  0.2619
 2073SOL    HW117852   4.492   0.479   3.669 -1.7336 -1.3120 -0.2132
 2073SOL    HW217853   4.622   0.466   3.612  0.6526 -1.4001  0.3029
 2074SOL     OW17854   2.843   3.447  12.099 -0.1079  0.0387 -0.2161
 2074SOL    HW117855   2.803   3.476  12.017 -0.8498 -0.5489 -0.0662
 2074SOL    HW217856   2.768   3.453  12.158 -0.6417 -0.9288 -0.7900
 2075SOL     OW17857   1.217   1.665   2.630  0.6756 -0.6100 -0.0504
 2075SOL    HW117858   1.187   1.584   2.671 -0.4909  0.1623  0.6264
 2075SOL    HW217859   1.157   1.661   2.555  1.8911  1.5097 -1.1030
 2076SOL     OW17860   2.908   3.643   3.289  0.0480 -0.4762 -0.0146
 2076SOL    HW117861   2.850   3.717   3.311  0.4147  0.0180 -0.7162
 2076SOL    HW217862   2.963   3.677   3.219  2.2576  3.3233  3.5122
 2077SOL     OW17863   3.122   2.306   6.020 -0.3983  0.5183  0.5029
 2077SOL    HW117864   3.028   2.286   6.014 -0.4976  1.4746 -1.1469
 2077SOL    HW217865   3.157   2.228   5.977 -0.1767 -0.0368  1.6683
 2078SOL     OW17866   2.791   2.705   3.131  0.0585  0.1760  0.4715
 2078SOL    HW117867   2.813   2.616   3.103 -2.2777 -0.4918  0.7610
 2078SOL    HW217868   2.705   2.681   3.166  0.0941  3.0201  2.5688
 2079SOL     OW17869   4.151   1.909   8.492  0.0388  0.0179  0.2585
 2079SOL    HW117870   4.058   1.888   8.503 -0.2596  1.7508  0.9637
 2079SOL    HW217871   4.154   1.979   8.557 -1.4879  0.8789 -0.5772
 2080SOL     OW17872   2.551   3.634  14.576 -0.0620  0.2442 -0.0105
 2080SOL    HW117873   2.521   3.575  14.506  0.8744  0.9139 -0.9797
 2080SOL    HW217874   2.643   3.650  14.552 -0.2786  0.4007 -0.7660
 2081SOL     OW17875   1.464   1.064   9.942  0.4286  0.3686  0.1990
 2081SOL    HW117876   1.381   1.041   9.984  0.9442  0.0533  1.0326
 2081SOL    HW217877   1.532   1.046  10.007  0.8616  1.0542 -0.0585
 2082SOL     OW17878   2.369   0.957   2.807 -0.3264  0.3876 -0.2849
 2082SOL    HW117879   2.416   0.887   2.851 -0.3711  0.5243 -0.0185
 2082SOL    HW217880   2.291   0.912   2.774 -0.1058 -1.1117  1.2738
 2083SOL     OW17881   0.715   0.489   9.748 -0.5774  0.3700  0.0239
 2083SOL    HW117882   0.675   0.431   9.684 -0.7734 -0.0884  0.5625
 2083SOL    HW217883   0.670   0.465   9.829 -1.4704 -2.2091 -1.2420
 2084SOL     OW17884   3.773   3.178  14.547  0.1525 -0.6176  0.2044
 2084SOL    HW117885   3.727   3.142  14.623 -0.3933 -0.7550 -0.1881
 2084SOL    HW217886   3.714   3.246  14.515 -0.4671 -1.0618  0.4149
 2085SOL     OW17887   1.390   3.630   2.515  0.0151 -0.1306 -0.0937
 2085SOL    HW117888   1.471   3.681   2.519 -0.0573 -0.0280  0.0559
 2085SOL    HW217889   1.327   3.696   2.484  0.3972  0.0716 -0.4466
 2086SOL     OW17890   2.680   2.781   3.772 -0.4383 -0.1021 -0.4474
 2086SOL    HW117891   2.654   2.747   3.686 -0.8353  0.5004 -0.5684
 2086SOL    HW217892   2.627   2.860   3.778  1.4596  1.2187 -1.2093
 2087SOL     OW17893   0.451   4.346   0.195 -0.1983  0.1470  0.2691
 2087SOL    HW117894   0.538   4.349   0.154 -0.4898  3.5369 -0.0604
 2087SOL    HW217895   0.432   4.254   0.177  0.6096 -0.1525  0.9388
 2088SOL     OW17896   0.694   3.526  13.365  0.1283 -0.0102 -0.3975
 2088SOL    HW117897   0.727   3.447  13.322 -0.0763 -0.8623  1.0110
 2088SOL    HW217898   0.762   3.546  13.430  1.7409 -1.4428 -1.6314
 2089SOL     OW17899   3.885   1.071  15.298  0.1534 -0.3772  0.2250
 2089SOL    HW117900   3.906   1.154  15.255  0.3553  0.5999  2.2026
 2089SOL    HW217901   3.826   1.023  15.239 -1.0541  1.2521  0.1104
 2090SOL     OW17902   2.612   1.937   4.507 -0.5583  0.0632 -0.5167
 2090SOL    HW117903   2.561   1.988   4.570 -0.0067  1.6852 -1.3568
 2090SOL    HW217904   2.695   1.915   4.550  1.3376 -0.6037 -4.5611
 2091SOL     OW17905   1.824   2.245   4.859  0.5076  0.2058  0.0717
 2091SOL    HW117906   1.849   2.311   4.795 -0.8454  1.1683  0.5411
 2091SOL    HW217907   1.765   2.298   4.914  2.2131  1.7421  0.4274
 2092SOL     OW17908   1.221   2.985  13.882 -0.4836 -0.1112  0.2232
 2092SOL    HW117909   1.271   2.904  13.869 -0.0441  0.3297 -0.8183
 2092SOL    HW217910   1.146   2.978  13.822  1.1779 -1.8276 -1.6570
 2093SOL     OW17911   2.675   2.790   6.462  0.1041  0.4267 -0.4761
 2093SOL    HW117912   2.689   2.740   6.543 -0.1087 -0.8721 -1.2269
 2093SOL    HW217913   2.634   2.722   6.408  2.1734 -1.0089 -0.2449
 2094SOL     OW17914   2.369   1.358   0.907  0.0445  0.6102  0.1574
 2094SOL    HW117915   2.337   1.334   0.820 -2.3149 -3.1688  2.0427
 2094SOL    HW217916   2.295   1.318   0.953  0.4326  0.0394  0.2904
 2095SOL     OW17917   3.023   4.695   2.669  0.1047 -0.2397 -0.0963
 2095SOL    HW117918   3.017   4.616   2.722  0.7175 -0.3514 -0.1951
 2095SOL    HW217919   2.956   0.013   2.715  3.2658  2.0671  1.8665
 2096SOL     OW17920   1.664   2.471  16.952 -0.2111  0.5682  0.6187
 2096SOL    HW117921   1.658   2.483  16.857  0.7814  0.4589  0.5485
 2096SOL    HW217922   1.664   2.376  16.960 -1.6720  0.5251  0.2823
 2097SOL     OW17923   2.709   0.430   1.763  0.8727 -0.7518 -0.4087
 2097SOL    HW117924   2.657   0.397   1.689 -1.5167 -1.6351  1.6447
 2097SOL    HW217925   2.732   0.520   1.742 -0.7182  0.3657  2.7293
 2098SOL     OW17926   3.979   1.130  14.987  0.8365 -0.2522 -0.2338
 2098SOL    HW117927   3.913   1.069  15.018 -0.5395  1.8669  0.9454
 2098SOL    HW217928   3.988   1.190  15.061  2.6826  0.5236 -1.0762
 2099SOL     OW17929   1.002   0.231   9.025 -0.4857  0.3593  0.3284
 2099SOL    HW117930   0.988   0.220   8.931  0.4163 -0.7207  0.3258
 2099SOL    HW217931   1.078   0.289   9.035  0.7956 -1.2894  0.1512
 2100SOL     OW17932   4.579   3.509   7.553  0.0269  0.4683  0.3580
 2100SOL    HW117933   4.618   3.421   7.558 -1.7874 -0.3139  0.7268
 2100SOL    HW217934   4.631   3.563   7.612 -0.3392 -1.1204  2.1543
 2101SOL     OW17935   0.020   2.040   0.038 -0.0584  0.6006 -0.1622
 2101SOL    HW117936   4.673   1.989   0.036  1.3193 -1.5852 -0.0039
 2101SOL    HW217937   4.723   2.123   0.075 -0.0823 -0.6420  2.6342
 2102SOL     OW17938   0.427   4.370  12.294 -0.0028 -0.0923  0.3603
 2102SOL    HW117939   0.503   4.384  12.350  0.3394  0.0862 -0.1482
 2102SOL    HW217940   0.426   4.442  12.232  2.7996  0.5470  1.0524
 2103SOL     OW17941   1.462   3.715   5.130 -0.2989  0.4418 -1.0031
 2103SOL    HW117942   1.441   3.641   5.073 -0.4287  0.8379 -1.4645
 2103SOL    HW217943   1.370   3.738   5.146 -0.3034 -0.3608  0.1786
 2104SOL     OW17944   1.492   2.465   7.401  0.5358  0.2892 -0.1973
 2104SOL    HW117945   1.469   2.541   7.347  1.4751  1.0914  0.5403
 2104SOL    HW217946   1.404   2.428   7.407  1.2498 -1.1610  1.5288
 2105SOL     OW17947   2.631   2.258   7.848  0.1736  0.0367  0.1511
 2105SOL    HW117948   2.552   2.216   7.881  1.0306 -0.2587  1.8332
 2105SOL    HW217949   2.598   2.342   7.816 -1.7864 -0.0612  1.9628
 2106SOL     OW17950   4.442   4.604   4.862  0.6804  0.5433  0.1809
 2106SOL    HW117951   4.474   4.680   4.910  0.5594 -0.6348  2.1226
 2106SOL    HW217952   4.470   4.533   4.920 -0.7864  0.4576  0.7705
 2107SOL     OW17953   0.048   3.185   5.258 -0.0957  0.0724  0.4180
 2107SOL    HW117954   0.086   3.142   5.335  1.6377  0.7762 -0.0591
 2107SOL    HW217955   4.700   3.135   5.251  0.2844 -0.8222  2.1541
 2108SOL     OW17956   4.689   0.536  12.781 -0.4627 -0.4949 -0.4300
 2108SOL    HW117957   4.644   0.583  12.710 -0.7468 -0.8479 -0.4835
 2108SOL    HW217958   4.615   0.513  12.837  1.1300 -1.9260  1.0477
 2109SOL     OW17959   1.973   3.361   7.403 -0.2948 -0.0538  0.1645
 2109SOL    HW117960   2.022   3.279   7.412  0.9208  0.6647  0.1373
 2109SOL    HW217961   1.894   3.331   7.358  0.5198  0.2526 -1.4813
 2110SOL     OW17962   0.638   1.989  11.947  0.2165 -0.2613  0.1080
 2110SOL    HW117963   0.627   2.020  11.857  0.2802 -0.1150  0.1511
 2110SOL    HW217964   0.579   2.041  12.001  1.1857  1.8219 -0.8570
 2111SOL     OW17965   0.959   0.629   4.547 -0.2627 -0.0187  0.5147
 2111SOL    HW117966   0.972   0.609   4.639 -0.4391 -0.6336  0.4067
 2111SOL    HW217967   1.046   0.652   4.515  0.6876 -0.6108  2.6899
 2112SOL     OW17968   4.224   0.005   9.617 -0.0339 -0.3014 -0.3949
 2112SOL    HW117969   4.278   0.003   9.696 -0.0601 -0.5415 -0.3823
 2112SOL    HW217970   4.280   4.718   9.543  0.6555  1.1285 -0.2795
 2113SOL     OW17971   4.219   0.315   7.625  0.1238  0.0704  0.1233
 2113SOL    HW117972   4.128   0.284   7.623 -0.3045  1.5544 -2.7172
 2113SOL    HW217973   4.222   0.388   7.563 -1.8113  0.6913  0.7418
 2114SOL     OW17974   2.754   3.792   4.992  0.1062  0.2215  0.3082
 2114SOL    HW117975   2.840   3.799   4.952 -0.2830  0.4012 -0.4876
 2114SOL    HW217976   2.775   3.782   5.085  1.2297 -1.2651 -0.0963
 2115SOL     OW17977   2.619   3.399  12.895 -0.1477  0.5614 -0.4246
 2115SOL    HW117978   2.611   3.477  12.839 -0.9586 -0.1332 -1.2703
 2115SOL    HW217979   2.714   3.400  12.909 -0.2832  1.8405  0.3904
 2116SOL     OW17980   2.167   0.268   5.881  0.3573  0.4030  0.2106
 2116SOL    HW117981   2.235   0.258   5.814  0.1259  1.1797 -0.1392
 2116SOL    HW217982   2.135   0.178   5.891 -1.5571  0.9732 -0.9390
 2117SOL     OW17983   4.573   1.745   6.543  0.3194 -0.5680  0.1443
 2117SOL    HW117984   4.582   1.650   6.544  0.7450 -0.5473 -2.4775
 2117SOL    HW217985   4.581   1.774   6.452  3.6016  0.4983  0.7461
 2118SOL     OW17986   1.327   3.576  12.110 -0.2233 -0.3521 -0.4342
 2118SOL    HW117987   1.358   3.631  12.038  1.6139  0.0696  0.6816
 2118SOL    HW217988   1.285   3.640  12.168  2.0883  0.8328 -0.0633
 2119SOL     OW17989   2.917   3.424   2.999 -0.0763 -0.5395  0.4371
 2119SOL    HW117990   2.973   3.418   3.077  2.1855  1.3736 -1.0494
 2119SOL    HW217991   2.843   3.371   3.031  1.0823 -2.2487  0.2596
 2120SOL     OW17992   1.473   3.554  16.823  0.2745 -0.2163  0.4598
 2120SOL    HW117993   1.404   3.490  16.843  0.3406 -0.9286 -1.6109
 2120SOL    HW217994   1.553   3.504  16.835  2.2351  2.7129 -0.5258
 2121SOL     OW17995   3.117   3.532   0.584  0.3336 -0.4680  0.5511
 2121SOL    HW117996   3.210   3.523   0.604 -0.0637 -2.7515  1.3889
 2121SOL    HW217997   3.073   3.454   0.617  0.4238 -1.2211 -1.1057
 2122SOL     OW17998   2.459   1.693   5.187  0.3770 -0.6369 -0.6309
 2122SOL    HW117999   2.414   1.691   5.272  0.0731  2.4800 -0.7330
 2122SOL    HW218000   2.385   1.684   5.127  0.1035 -1.0947 -0.2253
 2123SOL     OW18001   3.225   1.346   1.191 -0.0961 -0.3294  0.5699
 2123SOL    HW118002   3.191   1.408   1.127  1.5797  0.4881  0.4698
 2123SOL    HW218003   3.160   1.355   1.261  1.2720  1.5400  1.6253
 2124SOL     OW18004   2.814   0.331   8.737  0.2218 -0.2449 -0.3304
 2124SOL    HW118005   2.762   0.295   8.664  0.2391 -2.2628  0.6469
 2124SOL    HW218006   2.779   0.420   8.744 -1.4758 -1.0672  1.6638
 2125SOL     OW18007   4.349   1.978   5.070  0.4295 -0.9065  0.4584
 2125SOL    HW118008   4.442   1.998   5.064 -0.4109  3.2407  1.3723
 2125SOL    HW218009   4.330   2.000   4.979 -0.4818 -2.8118  0.1889
 2126SOL     OW18010   0.806   4.587   5.982  0.3995  0.0235 -0.1498
 2126SOL    HW118011   0.720   4.611   6.016  0.6077  0.4428  0.0764
 2126SOL    HW218012   0.779   4.497   5.959  0.8645 -0.3806  0.8849
 2127SOL     OW18013   1.716   3.864   0.172 -0.2699  0.4930 -0.2587
 2127SOL    HW118014   1.728   3.858   0.267  1.7609  2.9279 -0.3516
 2127SOL    HW218015   1.804   3.895   0.148  0.4217  0.1559  1.8047
 2128SOL     OW18016   1.928   3.529   5.010 -0.0169  0.2443  0.6941
 2128SOL    HW118017   1.961   3.571   4.931  0.4893  0.9286  1.2633
 2128SOL    HW218018   1.948   3.603   5.068  0.5952  0.3428  0.3523
 2129SOL     OW18019   3.941   1.853   3.987 -0.1786 -0.0173 -0.0335
 2129SOL    HW118020   3.885   1.802   3.929  0.8713  0.0037 -1.0635
 2129SOL    HW218021   3.877   1.913   4.027  0.0817  1.0062 -1.1494
 2130SOL     OW18022   1.916   3.069   7.393 -0.8472 -0.1587  0.0830
 2130SOL    HW118023   1.864   3.098   7.468  2.1617  0.6683  1.8342
 2130SOL    HW218024   1.869   2.988   7.374  0.4436 -1.0159  0.5399
 2131SOL     OW18025   0.348   0.226  13.680 -0.5998  0.0296  0.3149
 2131SOL    HW118026   0.367   0.295  13.616  2.7364 -1.8396 -0.6965
 2131SOL    HW218027   0.314   0.269  13.758 -1.3260  1.0628 -0.5712
 2132SOL     OW18028   2.193   0.906   9.392  0.4648  0.1144  0.4566
 2132SOL    HW118029   2.118   0.931   9.445 -0.5400 -0.1251 -0.8717
 2132SOL    HW218030   2.163   0.926   9.304 -0.3991 -0.9278  0.5222
 2133SOL     OW18031   0.457   3.175  13.933  0.1413  0.2580 -0.6678
 2133SOL    HW118032   0.502   3.093  13.951 -1.0322  0.6835  4.2575
 2133SOL    HW218033   0.370   3.136  13.941  0.7858 -1.0110  0.3308
 2134SOL     OW18034   1.336   1.055   2.577  0.0792 -0.5386 -0.2347
 2134SOL    HW118035   1.329   0.967   2.613  0.4788  0.4821  2.3951
 2134SOL    HW218036   1.297   1.112   2.644  0.2769  0.0713 -0.6378
 2135SOL     OW18037   3.483   2.848   2.110  0.4370 -0.3356  0.0275
 2135SOL    HW118038   3.469   2.942   2.096 -0.3171 -0.9102 -3.1409
 2135SOL    HW218039   3.519   2.819   2.027 -2.7735  0.0807 -1.5210
 2136SOL     OW18040   3.757   2.514   6.119 -0.0201 -0.4657  0.3545
 2136SOL    HW118041   3.717   2.430   6.141 -0.1632 -0.5039 -0.0517
 2136SOL    HW218042   3.700   2.543   6.048 -0.8019 -1.1321  0.7165
 2137SOL     OW18043   4.050   0.259   8.899  0.0244  0.2918 -0.2888
 2137SOL    HW118044   4.013   0.347   8.902  2.3404  1.2739 -0.2428
 2137SOL    HW218045   4.016   0.233   8.813  0.1291 -0.6079 -0.0530
 2138SOL     OW18046   2.600   0.277   4.311  0.2035  0.0271  0.1524
 2138SOL    HW118047   2.543   0.314   4.378  1.6204  0.6203  1.0301
 2138SOL    HW218048   2.537   0.208   4.287  0.6982 -1.2324  2.4523
 2139SOL     OW18049   2.384   1.470   4.931  0.1330  0.4931  0.8854
 2139SOL    HW118050   2.324   1.413   4.979  1.8449 -3.0835 -1.2496
 2139SOL    HW218051   2.325   1.545   4.926 -0.0725  0.3798  1.5367
 2140SOL     OW18052   0.188   4.729  16.211  0.7310 -0.3855  0.0659
 2140SOL    HW118053   0.154   4.653  16.164  1.1201  0.4807 -1.6002
 2140SOL    HW218054   0.236   0.048  16.148 -2.0487  2.7127  0.5455
 2141SOL     OW18055   2.804   0.490   7.224 -0.9226  0.1110 -0.1108
 2141SOL    HW118056   2.818   0.479   7.131 -0.7826  0.0709 -0.0838
 2141SOL    HW218057   2.756   0.411   7.247  1.4282 -1.0192  0.8593
 2142SOL     OW18058   0.213   1.894   6.890 -0.3723  0.3687 -0.0259
 2142SOL    HW118059   0.166   1.867   6.969 -0.8941 -1.1205 -0.8453
 2142SOL    HW218060   0.257   1.971   6.926  0.3192  0.1996 -0.5095
 2143SOL     OW18061   0.053   3.967  15.051  0.4772  0.2242 -0.2951
 2143SOL    HW118062   4.729   3.901  15.011  1.8448 -1.1642 -0.0007
 2143SOL    HW218063   0.095   3.994  14.970 -1.6641 -0.5391 -1.6663
 2144SOL     OW18064   0.113   1.875   0.491 -0.0579  0.4020 -0.3824
 2144SOL    HW118065   0.065   1.936   0.434 -0.1409  1.1323  0.4665
 2144SOL    HW218066   0.118   1.798   0.434 -2.0335  0.3425 -0.4752
 2145SOL     OW18067   4.717   2.982   9.980  0.6660  0.3708 -0.3260
 2145SOL    HW118068   0.010   2.922  10.050 -0.7150 -1.0353 -0.9890
 2145SOL    HW218069   4.677   2.913   9.926  0.8053  1.0254 -1.2548
 2146SOL     OW18070   2.799   4.710   7.093 -0.3667 -0.0020 -0.0286
 2146SOL    HW118071   2.827   4.635   7.146 -2.5760 -0.2785  0.7240
 2146SOL    HW218072   2.811   4.681   7.003 -0.3168  3.2536 -1.0691
 2147SOL     OW18073   2.138   2.628   6.572 -0.7751  0.1649  0.5093
 2147SOL    HW118074   2.155   2.558   6.636  2.4838 -0.9209 -1.5578
 2147SOL    HW218075   2.168   2.704   6.622  1.3341  1.2323 -2.3822
 2148SOL     OW18076   3.135   0.702  12.402 -0.5406 -0.3862  0.0816
 2148SOL    HW118077   3.141   0.669  12.492  0.0298  0.4858  0.3609
 2148SOL    HW218078   3.175   0.788  12.400 -2.8272  0.6541 -0.4567
 2149SOL     OW18079   3.750   1.450  10.811  0.2034 -0.0196 -0.1742
 2149SOL    HW118080   3.801   1.384  10.859 -1.1666  0.1845  1.5966
 2149SOL    HW218081   3.764   1.417  10.723  4.4157 -0.7918  0.7723
 2150SOL     OW18082   0.110   4.537  17.510 -0.0535 -0.5646  0.4151
 2150SOL    HW118083   0.192   4.586  17.517 -0.3937  0.0239  0.3084
 2150SOL    HW218084   0.050   4.605  17.478 -0.7262 -1.8162 -1.0059
 2151SOL     OW18085   1.152   0.394   8.050  0.0023  0.1165 -0.2375
 2151SOL    HW118086   1.138   0.408   8.144 -1.7611  1.4458 -0.6789
 2151SOL    HW218087   1.070   0.415   8.006 -0.8712 -1.6833  0.5117
 2152SOL     OW18088   1.051   1.703   2.420 -0.2426 -0.4436  0.4130
 2152SOL    HW118089   0.956   1.707   2.412 -0.1523 -1.2143 -1.0764
 2152SOL    HW218090   1.072   1.618   2.381 -1.2268 -0.1019 -0.8518
 2153SOL     OW18091   3.568   4.008  17.696 -0.1394  0.3664 -0.1343
 2153SOL    HW118092   3.614   4.091  17.708 -0.1784  0.5249 -1.0652
 2153SOL    HW218093   3.641   3.947  17.685 -0.7226 -0.5032  0.7348
 2154SOL     OW18094   0.251   2.142   0.229 -0.7051  0.1170  0.3080
 2154SOL    HW118095   0.161   2.176   0.219 -1.1683 -1.6069 -1.3430
 2154SOL    HW218096   0.249   2.058   0.184 -0.9507 -0.7999  2.0162
 2155SOL     OW18097   2.745   0.769   7.025 -0.0126 -0.1661 -0.0670
 2155SOL    HW118098   2.709   0.838   6.969 -1.7091 -0.0600  1.1972
 2155SOL    HW218099   2.679   0.761   7.093 -0.1438  1.4461 -0.0043
 2156SOL     OW18100   1.963   1.948   7.675 -0.4066  0.7532  0.3756
 2156SOL    HW118101   1.944   1.990   7.759 -0.5537 -1.0467  1.2450
 2156SOL    HW218102   1.998   1.867   7.711 -2.1481  0.1343  0.6776
 2157SOL     OW18103   2.520   2.750   3.254 -0.2959  0.2520 -0.0021
 2157SOL    HW118104   2.483   2.824   3.303  1.5167  0.5039  0.9613
 2157SOL    HW218105   2.601   2.748   3.303 -0.4511 -1.7368  0.1620
 2158SOL     OW18106   0.739   0.392   3.478 -0.0189  0.1652 -0.2548
 2158SOL    HW118107   0.662   0.373   3.424  0.4156 -2.2040 -0.0822
 2158SOL    HW218108   0.768   0.472   3.435  0.2910  0.6379  0.8345
 2159SOL     OW18109   3.526   0.136  14.136  0.3847  0.0817  0.2186
 2159SOL    HW118110   3.544   0.058  14.188  1.5355 -0.2628 -0.6992
 2159SOL    HW218111   3.503   0.196  14.207  2.8443  0.7487  0.4348
 2160SOL     OW18112   0.823   3.715  10.749 -0.1606  0.1092  0.1843
 2160SOL    HW118113   0.835   3.777  10.821  0.3513  1.6767 -1.2593
 2160SOL    HW218114   0.812   3.777  10.677  0.0982 -1.1822 -0.9699
 2161SOL     OW18115   4.697   2.929   8.612  0.6351 -0.2798  0.0676
 2161SOL    HW118116   4.609   2.906   8.583  0.8475 -0.3486 -0.5208
 2161SOL    HW218117   4.692   2.912   8.706 -0.1806 -0.0178  0.0677
 2162SOL     OW18118   2.846   4.384   4.633 -0.1285 -0.1309  0.7692
 2162SOL    HW118119   2.789   4.428   4.571  1.1105  0.9124  0.3717
 2162SOL    HW218120   2.795   4.382   4.714 -0.9477 -1.7635  0.2068
 2163SOL     OW18121   2.416   3.437   6.098 -0.2708  0.1347  0.1554
 2163SOL    HW118122   2.371   3.500   6.154 -1.8361 -0.1534 -0.7794
 2163SOL    HW218123   2.381   3.357   6.138  1.3744 -1.6730 -1.9607
 2164SOL     OW18124   2.314   2.144   1.679 -0.2174 -0.7379 -0.4799
 2164SOL    HW118125   2.261   2.214   1.717  0.1699 -0.4052 -0.5508
 2164SOL    HW218126   2.291   2.069   1.734  2.4363 -1.2535 -0.0643
 2165SOL     OW18127   4.613   2.409   1.817 -0.2899  0.4909 -0.7169
 2165SOL    HW118128   4.704   2.430   1.839 -0.2041  0.8240 -1.3891
 2165SOL    HW218129   4.578   2.373   1.898 -0.5042 -0.5512 -1.2731
 2166SOL     OW18130   2.470   2.969   5.361 -0.0163  0.2343  0.2661
 2166SOL    HW118131   2.413   2.896   5.334 -1.1865  0.6832  1.5722
 2166SOL    HW218132   2.549   2.915   5.365 -1.2509 -1.6116  0.2740
 2167SOL     OW18133   0.472   2.904   1.605 -0.3378  0.7207  0.1314
 2167SOL    HW118134   0.545   2.860   1.649 -2.1479 -1.9114  0.5626
 2167SOL    HW218135   0.401   2.898   1.670 -0.5940  1.8257 -0.0489
 2168SOL     OW18136   0.658   1.540   4.110 -0.2226  0.0106 -0.1458
 2168SOL    HW118137   0.701   1.525   4.194  2.4642 -0.8834 -1.6696
 2168SOL    HW218138   0.584   1.478   4.108 -0.8231  0.7356 -0.2241
 2169SOL     OW18139   0.908   1.656   5.738  0.5037  0.2565 -0.1645
 2169SOL    HW118140   0.854   1.735   5.745  1.0512  0.4513  1.6345
 2169SOL    HW218141   0.935   1.636   5.827 -0.7929 -1.5106 -0.1580
 2170SOL     OW18142   3.974   3.950  14.500 -0.7753 -0.1949  0.4442
 2170SOL    HW118143   3.898   3.937  14.557 -2.9938 -2.8425 -3.1131
 2170SOL    HW218144   4.044   3.912  14.552  0.5795 -0.4123 -1.5815
 2171SOL     OW18145   3.908   1.394  17.233 -0.1330 -0.2644  0.0047
 2171SOL    HW118146   3.882   1.475  17.189  0.4551 -1.2454 -2.1851
 2171SOL    HW218147   3.842   1.386  17.302 -1.0625  0.4428 -0.7868
 2172SOL     OW18148   1.771   3.152   7.610  0.6274  0.3288  0.3250
 2172SOL    HW118149   1.761   3.084   7.677  2.8921  1.2882  1.6305
 2172SOL    HW218150   1.777   3.230   7.665 -0.5884  0.2763  0.5115
 2173SOL     OW18151   1.978   4.274  10.002 -0.0425  0.4124 -0.2667
 2173SOL    HW118152   2.035   4.198   9.996  2.3099  2.0616  1.0600
 2173SOL    HW218153   2.021   4.322  10.073  0.0582 -1.7373  1.1120
 2174SOL     OW18154   1.422   4.413  14.573 -0.1637  0.3958 -0.5633
 2174SOL    HW118155   1.447   4.435  14.483 -0.9434  0.3484 -0.7906
 2174SOL    HW218156   1.340   4.365  14.567  0.3129 -0.8244  2.5806
 2175SOL     OW18157   1.712   2.384   2.392  0.4710  0.2853  0.7095
 2175SOL    HW118158   1.786   2.341   2.433  0.0695 -0.5381  0.5852
 2175SOL    HW218159   1.647   2.317   2.411 -1.4170  1.7702 -0.4542
 2176SOL     OW18160   4.130   0.626   8.331  0.4822  0.2510 -0.0014
 2176SOL    HW118161   4.055   0.683   8.347  0.3901 -0.2129  1.2586
 2176SOL    HW218162   4.210   0.678   8.332  1.6966 -1.5218 -3.0395
 2177SOL     OW18163   0.874   2.661  14.892 -0.4170 -0.3240 -0.3008
 2177SOL    HW118164   0.817   2.737  14.905 -1.2838 -0.8101 -1.3017
 2177SOL    HW218165   0.945   2.696  14.839  1.0001 -2.2396  0.3030
 2178SOL     OW18166   3.469   1.084   6.088 -0.0106  0.1044 -0.2396
 2178SOL    HW118167   3.491   1.118   6.175  2.5025  0.7702 -1.1324
 2178SOL    HW218168   3.544   1.133   6.055 -0.0453  1.8089  2.2406
 2179SOL     OW18169   3.460   4.370   5.275  0.6099 -0.4137 -0.1853
 2179SOL    HW118170   3.503   4.309   5.214  0.0427  0.2392 -1.2323
 2179SOL    HW218171   3.498   4.328   5.352 -0.0525 -1.3668 -0.3838
 2180SOL     OW18172   4.231   2.707  17.560 -0.4114 -0.1740 -0.3971
 2180SOL    HW118173   4.173   2.667  17.495 -2.5623  2.0639  0.1657
 2180SOL    HW218174   4.167   2.709  17.632  0.7599  0.2046  0.6195
 2181SOL     OW18175   2.534   1.620   3.279  0.2411 -0.2023 -0.8000
 2181SOL    HW118176   2.474   1.617   3.205  0.6268 -2.0759 -1.0530
 2181SOL    HW218177   2.558   1.530   3.303 -1.1274 -0.9431 -2.2222
 2182SOL     OW18178   2.199   1.285  10.904 -0.0798 -0.0297 -0.1574
 2182SOL    HW118179   2.197   1.380  10.911  0.1245 -0.0842  0.7009
 2182SOL    HW218180   2.151   1.258  10.983  1.2228  0.7873  0.9089
 2183SOL     OW18181   4.011   4.067   4.374 -0.3542 -0.0267 -0.3713
 2183SOL    HW118182   3.947   4.085   4.305 -0.0160  1.1085 -0.3904
 2183SOL    HW218183   3.953   4.072   4.450  0.5075  0.5896  0.2432
 2184SOL     OW18184   0.249   3.223   4.869 -0.4407 -0.5147 -0.0933
 2184SOL    HW118185   0.194   3.282   4.921 -0.0479 -0.7909  0.6457
 2184SOL    HW218186   0.282   3.282   4.801  2.1281 -1.1763  0.5754
 2185SOL     OW18187   1.765   4.317   5.456 -0.6441  0.7176 -0.4603
 2185SOL    HW118188   1.719   4.401   5.463 -2.5162 -0.4454  1.3825
 2185SOL    HW218189   1.690   4.258   5.463  0.0483 -0.1789 -0.6141
 2186SOL     OW18190   2.589   3.267   2.704  0.1125  0.2343  0.1210
 2186SOL    HW118191   2.560   3.187   2.660 -2.5254  0.6527  1.1196
 2186SOL    HW218192   2.538   3.344   2.679  0.1765  0.2004 -0.1197
 2187SOL     OW18193   0.957   1.087   9.832  0.1125 -0.2886 -0.3229
 2187SOL    HW118194   0.882   1.105   9.775 -0.3989  1.3381  0.8506
 2187SOL    HW218195   0.980   0.998   9.805 -0.7121 -0.7144  0.3371
 2188SOL     OW18196   4.044   2.227  15.757  0.5862 -0.2018 -0.0502
 2188SOL    HW118197   4.020   2.261  15.844 -0.5026  0.1371 -0.4788
 2188SOL    HW218198   3.974   2.165  15.735  1.2635 -0.4743 -1.4147
 2189SOL     OW18199   0.567   1.314   6.436  0.3895  0.1149 -0.1639
 2189SOL    HW118200   0.543   1.372   6.364  0.2612 -0.4778 -0.5972
 2189SOL    HW218201   0.635   1.260   6.396  2.0064  2.9152 -1.2487
 2190SOL     OW18202   0.769   0.703   9.343  0.1857  0.3661  0.4546
 2190SOL    HW118203   0.863   0.697   9.361  0.6753 -2.0215 -2.9195
 2190SOL    HW218204   0.769   0.786   9.295 -0.0303  0.4872  0.6626
 2191SOL     OW18205   2.683   3.765  10.126  0.1920 -0.8474  0.0229
 2191SOL    HW118206   2.650   3.852  10.149 -0.1903 -0.9062 -0.2940
 2191SOL    HW218207   2.774   3.753  10.151  0.3388 -1.3586 -0.7476
 2192SOL     OW18208   0.133   2.940  14.234  0.0380  0.3965 -0.0652
 2192SOL    HW118209   0.194   2.873  14.265  1.1243  1.2898 -0.2862
 2192SOL    HW218210   0.184   3.020  14.245 -0.0266  0.5751 -1.0828
 2193SOL     OW18211   0.844   3.554  13.055 -0.2908 -0.2325  0.2315
 2193SOL    HW118212   0.927   3.603  13.061 -0.4254 -0.1310  1.4107
 2193SOL    HW218213   0.837   3.562  12.960  2.6449  0.0063  0.0201
 2194SOL     OW18214   0.173   1.148   0.791 -0.1310  0.1611  0.3172
 2194SOL    HW118215   0.205   1.210   0.856  1.3491 -1.1261  0.8223
 2194SOL    HW218216   0.139   1.211   0.728 -1.7003 -1.2729 -0.2555
 2195SOL     OW18217   2.622   2.000   3.067  0.2078  0.4635 -0.3041
 2195SOL    HW118218   2.632   2.050   3.149 -2.1952  0.0815  0.1972
 2195SOL    HW218219   2.656   1.914   3.090  0.9677  0.8086 -0.1076
 2196SOL     OW18220   0.333   3.142   7.495 -0.1125  0.2033 -0.2423
 2196SOL    HW118221   0.420   3.128   7.458  0.7582 -0.9114  2.1925
 2196SOL    HW218222   0.299   3.059   7.528 -0.2656  0.2064 -0.3933
 2197SOL     OW18223   2.731   3.788   4.644  0.4002  0.1467  0.6498
 2197SOL    HW118224   2.816   3.745   4.633  0.3378  0.3249 -0.4613
 2197SOL    HW218225   2.669   3.721   4.616  2.4596 -0.7918 -1.6484
 2198SOL     OW18226   0.856   2.333   4.829  0.1078  0.7689 -0.1286
 2198SOL    HW118227   0.893   2.245   4.816 -1.8725  0.1685 -1.7232
 2198SOL    HW218228   0.918   2.376   4.888 -1.5442 -0.3266  2.4250
 2199SOL     OW18229   1.075   4.418   2.993  0.4480 -0.3766  0.4653
 2199SOL    HW118230   1.087   4.396   2.900  3.6468 -0.5649  0.9480
 2199SOL    HW218231   1.020   4.496   2.986  0.2551 -0.5379  0.1602
 2200SOL     OW18232   0.248   2.265   9.700  0.1153 -0.1201  0.4532
 2200SOL    HW118233   0.334   2.297   9.672  0.6445 -2.5110 -0.6500
 2200SOL    HW218234   0.262   2.175   9.669  1.7943 -0.1039  1.1888
 2201SOL     OW18235   0.995   4.545   0.760  0.6328  0.0343  0.4582
 2201SOL    HW118236   1.080   4.549   0.804  0.6653 -2.4790  0.6287
 2201SOL    HW218237   1.011   4.582   0.674  1.2964  0.5616  0.8122
 2202SOL     OW18238   2.504   3.537   6.386  0.3311  0.1688 -0.4060
 2202SOL    HW118239   2.559   3.472   6.430 -0.8916  0.2761  1.2792
 2202SOL    HW218240   2.419   3.494   6.392  0.9238 -1.3590 -2.7585
 2203SOL     OW18241   0.141   1.678  16.275  0.3555 -0.3115 -0.3826
 2203SOL    HW118242   0.070   1.704  16.334  2.0654 -1.3393  2.0821
 2203SOL    HW218243   0.132   1.584  16.256  0.7103 -0.3395 -0.4064
 2204SOL     OW18244   4.197   3.028   4.909  0.4525 -0.7235  0.4752
 2204SOL    HW118245   4.202   2.933   4.899  0.9106 -0.6855  0.3549
 2204SOL    HW218246   4.108   3.047   4.880  0.5213 -0.4127  0.4681
 2205SOL     OW18247   0.269   0.513  10.375 -0.3630 -0.2500 -0.2268
 2205SOL    HW118248   0.225   0.548  10.452  0.3996 -0.8070  0.4609
 2205SOL    HW218249   0.229   0.563  10.304 -0.3004  0.7169  0.4216
 2206SOL     OW18250   2.818   4.308   2.124 -0.2657  0.0353  0.2169
 2206SOL    HW118251   2.838   4.401   2.135 -3.2488  0.4095  2.6785
 2206SOL    HW218252   2.753   4.305   2.054  1.5938  1.1314 -1.5382
 2207SOL     OW18253   1.353   0.379   1.039 -0.5933 -0.1560  0.3280
 2207SOL    HW118254   1.360   0.446   1.107 -1.0557 -0.1487  0.3636
 2207SOL    HW218255   1.265   0.391   1.003  0.1172  1.3759 -0.8993
 2208SOL     OW18256   0.982   3.571   8.478 -0.1813  0.1171 -0.3721
 2208SOL    HW118257   0.994   3.483   8.442 -3.3175 -0.6130  0.4217
 2208SOL    HW218258   0.901   3.585   8.429 -0.8008  1.3259  1.0141
 2209SOL     OW18259   3.461   2.124   1.761 -0.6147  0.1119 -0.3816
 2209SOL    HW118260   3.502   2.111   1.846 -0.3869  0.2655 -0.4681
 2209SOL    HW218261   3.474   2.032   1.737  1.1370 -0.4206  2.6554
 2210SOL     OW18262   4.563   4.057  12.567  0.7204  0.3451 -0.2739
 2210SOL    HW118263   4.571   3.981  12.508  0.3667  0.0245  0.0968
 2210SOL    HW218264   4.552   4.013  12.651  1.0951 -0.2147 -0.5112
 2211SOL     OW18265   0.477   3.998  12.022 -0.2563  0.0943  0.7491
 2211SOL    HW118266   0.453   3.995  12.114 -2.0842 -1.0989  0.2229
 2211SOL    HW218267   0.445   4.087  12.009 -0.1702 -0.2693 -1.9850
 2212SOL     OW18268   1.924   0.403   2.699 -0.7465  0.0090 -0.1772
 2212SOL    HW118269   1.964   0.371   2.780 -0.0736  2.6732  0.5544
 2212SOL    HW218270   2.000   0.448   2.661  0.7804 -1.3047  1.3460
 2213SOL     OW18271   0.344   2.066   7.085  0.3088 -0.9355  0.3189
 2213SOL    HW118272   0.370   2.154   7.055  0.4492 -1.0987 -0.0423
 2213SOL    HW218273   0.377   2.059   7.174  4.4772  1.9372 -1.0003
 2214SOL     OW18274   1.136   0.939   9.402  0.0236  0.1074 -0.4360
 2214SOL    HW118275   1.083   1.019   9.397 -0.1628  0.0078  0.0112
 2214SOL    HW218276   1.216   0.992   9.396  0.2676  0.0287  2.1440
 2215SOL     OW18277   4.402   4.208   1.900 -0.6015 -0.3877 -0.4877
 2215SOL    HW118278   4.485   4.256   1.904 -0.9231  0.1462 -0.0332
 2215SOL    HW218279   4.353   4.276   1.854 -0.5118  1.5449  2.2378
 2216SOL     OW18280   3.152   2.326   0.533  0.4941 -0.2121 -0.6452
 2216SOL    HW118281   3.073   2.357   0.489 -0.3161 -0.0110  0.9371
 2216SOL    HW218282   3.184   2.255   0.478 -0.7896  0.7795 -2.6369
 2217SOL     OW18283   2.453   3.833   3.104  0.1465 -0.8901 -0.3127
 2217SOL    HW118284   2.453   3.754   3.157  1.1068  0.5446  1.8310
 2217SOL    HW218285   2.414   3.893   3.167  0.3706 -1.9285  0.8028
 2218SOL     OW18286   4.330   3.464   7.708  0.6567 -0.6788  0.0343
 2218SOL    HW118287   4.269   3.400   7.670  1.3187  0.2531 -2.6585
 2218SOL    HW218288   4.407   3.436   7.658  0.4550 -0.2206 -0.5360
 2219SOL     OW18289   0.122   1.393  15.585 -0.3530  0.1304 -0.3301
 2219SOL    HW118290   0.114   1.477  15.541  2.6318  1.2153  1.2557
 2219SOL    HW218291   0.167   1.418  15.665  0.5364  1.8837 -1.3708
 2220SOL     OW18292   1.331   0.712   7.825 -0.1063 -0.6421  0.8173
 2220SOL    HW118293   1.268   0.719   7.897 -1.9331 -2.3889 -0.5858
 2220SOL    HW218294   1.403   0.756   7.869 -0.2077 -1.1625  1.5081
 2221SOL     OW18295   2.479   0.173   1.314 -0.2056 -0.2054 -0.2310
 2221SOL    HW118296   2.438   0.091   1.288 -1.0023 -0.3341  1.3944
 2221SOL    HW218297   2.568   0.137   1.314 -0.3698 -0.6024  1.3529
 2222SOL     OW18298   2.540   0.727   7.634  0.0611 -0.2733 -0.0880
 2222SOL    HW118299   2.606   0.735   7.566  0.0295 -0.3989 -0.1346
 2222SOL    HW218300   2.460   0.746   7.585  0.2224 -1.5166 -0.8456
 2223SOL     OW18301   3.901   1.114  14.605 -0.0994 -0.3180 -0.0715
 2223SOL    HW118302   3.856   1.199  14.609  0.3493 -0.0897  0.1998
 2223SOL    HW218303   3.962   1.112  14.678  0.9091 -0.9234 -0.9361
 2224SOL     OW18304   2.138   4.539   8.710 -0.0205  0.6246 -0.1976
 2224SOL    HW118305   2.062   4.595   8.696 -1.4534 -1.5749 -1.2368
 2224SOL    HW218306   2.191   4.574   8.639  1.0124  2.7756  1.6491
 2225SOL     OW18307   4.027   2.651   3.411  0.1668  0.1792 -0.1638
 2225SOL    HW118308   4.051   2.571   3.363 -0.2864  0.9721 -1.7275
 2225SOL    HW218309   4.077   2.725   3.377 -0.2315  0.3615 -0.3429
 2226SOL     OW18310   3.098   2.637   7.074  0.1241  0.1738 -0.6262
 2226SOL    HW118311   3.008   2.659   7.097  0.7858  0.7217  1.5150
 2226SOL    HW218312   3.148   2.718   7.084 -0.0021  0.2908 -0.9514
 2227SOL     OW18313   1.351   4.358   7.650 -0.1031 -0.1840 -0.0653
 2227SOL    HW118314   1.281   4.300   7.677  2.6637 -4.1139 -1.3140
 2227SOL    HW218315   1.383   4.314   7.571 -0.8727  0.5696 -0.7849
 2228SOL     OW18316   0.692   0.750   9.902  0.1100 -0.0915 -0.1418
 2228SOL    HW118317   0.667   0.686   9.836 -1.0029  1.2216 -0.9965
 2228SOL    HW218318   0.784   0.729   9.914  0.2797 -0.1171 -1.5025
 2229SOL     OW18319   2.223   1.914   7.180  0.3925  0.1468  0.3744
 2229SOL    HW118320   2.274   1.916   7.099 -3.0811  1.0825 -1.8061
 2229SOL    HW218321   2.134   1.892   7.153  0.4471 -2.0811  2.0889
 2230SOL     OW18322   0.666   1.444   7.547  0.6957 -0.0343  0.1668
 2230SOL    HW118323   0.670   1.377   7.615 -0.5118 -0.6419 -0.3487
 2230SOL    HW218324   0.705   1.521   7.588  2.8295 -0.8778 -0.2648
 2231SOL     OW18325   3.669   1.283   8.033  0.3795 -0.2138  0.3979
 2231SOL    HW118326   3.617   1.359   8.008  0.9701 -0.7344 -2.3933
 2231SOL    HW218327   3.757   1.319   8.021  0.9257 -2.1099 -1.2765
 2232SOL     OW18328   2.843   3.243   7.517 -0.6621  0.1111 -0.1938
 2232SOL    HW118329   2.786   3.315   7.542 -0.5392 -0.2114  1.0038
 2232SOL    HW218330   2.896   3.229   7.596 -0.1812 -1.9184 -0.8708
 2233SOL     OW18331   0.396   4.331   4.307 -0.2396 -0.2796  0.5483
 2233SOL    HW118332   0.409   4.371   4.221 -0.2779  2.4894  1.8327
 2233SOL    HW218333   0.487   4.317   4.334  0.6628 -0.5872 -2.6460
 2234SOL     OW18334   0.210   0.142   3.888  0.3272  0.1000  0.0018
 2234SOL    HW118335   0.222   0.172   3.978 -1.5881  1.1145 -0.0693
 2234SOL    HW218336   0.165   0.060   3.909 -0.6273  0.9721  1.3680
 2235SOL     OW18337   1.698   0.758   7.184  0.3710 -0.2129 -0.1476
 2235SOL    HW118338   1.624   0.816   7.205 -1.0495 -2.1962  0.3904
 2235SOL    HW218339   1.673   0.743   7.093  1.6947  0.7822 -0.6689
 2236SOL     OW18340   1.399   3.237   5.425  0.3064 -0.0711  0.0912
 2236SOL    HW118341   1.424   3.202   5.339 -2.2514  1.6923 -1.3435
 2236SOL    HW218342   1.319   3.281   5.397 -0.3911 -1.4440 -0.0911
 2237SOL     OW18343   3.950   0.589   5.703  0.0514 -0.2322 -0.8966
 2237SOL    HW118344   3.915   0.677   5.687  0.5884  0.3827  1.2469
 2237SOL    HW218345   3.872   0.534   5.711  0.4647 -0.7806 -0.6153
 2238SOL     OW18346   2.235   2.367   1.829  0.2783 -0.3765  0.3157
 2238SOL    HW118347   2.158   2.402   1.874 -0.0642 -1.7016  0.7569
 2238SOL    HW218348   2.299   2.363   1.900  2.5258  1.1655 -1.6542
 2239SOL     OW18349   0.510   0.285  15.841  0.4752  0.2618  0.0232
 2239SOL    HW118350   0.601   0.285  15.870  0.6537  0.4672 -0.5382
 2239SOL    HW218351   0.509   0.325  15.754  0.8060  0.3847  0.0750
 2240SOL     OW18352   3.026   1.047  11.052  0.2948 -0.3934 -0.0849
 2240SOL    HW118353   3.005   1.073  11.142  0.8033 -0.4726  0.0542
 2240SOL    HW218354   3.023   1.134  11.014  0.8362 -0.7242 -0.9001
 2241SOL     OW18355   4.604   3.872   3.709  0.7321  0.5977  0.5303
 2241SOL    HW118356   4.561   3.848   3.791  1.4321 -0.3779  0.6059
 2241SOL    HW218357   4.694   3.895   3.730  1.6883 -0.8045 -1.9984
 2242SOL     OW18358   2.193   0.663   0.369  0.4418  0.0960 -0.5841
 2242SOL    HW118359   2.243   0.581   0.372 -2.8525 -1.9131 -0.6635
 2242SOL    HW218360   2.156   0.663   0.281 -0.9540 -3.5801 -0.0292
 2243SOL     OW18361   2.871   0.551   2.588  0.1279  0.2429  0.1811
 2243SOL    HW118362   2.895   0.643   2.600  1.4805  0.2117 -2.3317
 2243SOL    HW218363   2.790   0.562   2.538 -0.7338 -1.2128  1.2569
 2244SOL     OW18364   3.085   3.354   3.212  0.5264  0.1528 -0.1718
 2244SOL    HW118365   3.113   3.380   3.300  0.9450  0.9528 -0.5423
 2244SOL    HW218366   3.061   3.261   3.215  1.5732 -0.1567 -1.3672
 2245SOL     OW18367   0.861   3.692   1.171  0.6807  0.4059  0.1747
 2245SOL    HW118368   0.797   3.671   1.239  1.4923 -1.0346  0.4938
 2245SOL    HW218369   0.803   3.685   1.095 -0.4753  1.2862  0.9740
 2246SOL     OW18370   3.759   1.671   5.170 -0.2621 -0.1577 -0.1282
 2246SOL    HW118371   3.747   1.759   5.133 -0.4715 -0.4061 -0.6470
 2246SOL    HW218372   3.844   1.639   5.142 -0.1852 -1.9060  2.1140
 2247SOL     OW18373   1.921   2.117   3.808 -0.2554  0.1677 -0.1475
 2247SOL    HW118374   1.948   2.197   3.761  0.4587 -0.5759 -1.0073
 2247SOL    HW218375   1.969   2.048   3.763  0.3287  1.6529 -1.8305
 2248SOL     OW18376   3.043   2.615   2.500  0.0806  0.3124  0.1581
 2248SOL    HW118377   2.954   2.645   2.481  0.4552  1.9415  0.9546
 2248SOL    HW218378   3.030   2.520   2.500  1.4127  0.1064 -3.1944
 2249SOL     OW18379   4.026   0.850   3.096  0.0161  0.6083 -0.1126
 2249SOL    HW118380   3.993   0.940   3.100  0.8028  0.9394 -1.0330
 2249SOL    HW218381   4.113   0.858   3.058 -0.3560  5.4056  0.1082
 2250SOL     OW18382   1.998   4.175   8.330  0.2745 -0.0724  0.1948
 2250SOL    HW118383   2.046   4.258   8.330 -1.1935  0.7662 -1.7462
 2250SOL    HW218384   1.938   4.203   8.399  0.0656 -0.2976  0.1039
 2251SOL     OW18385   3.317   1.080   3.262  0.0342 -0.0260 -0.3793
 2251SOL    HW118386   3.260   1.157   3.262 -0.8069 -0.6493 -1.3679
 2251SOL    HW218387   3.378   1.107   3.193 -0.3271 -0.5010 -0.8900
 2252SOL     OW18388   0.539   1.393  14.533 -0.2106  0.2238  0.1083
 2252SOL    HW118389   0.489   1.335  14.590  0.0383  0.0041  0.1025
 2252SOL    HW218390   0.624   1.355  14.557  0.8098  0.6922 -2.7457
 2253SOL     OW18391   3.583   3.197   9.105  0.1538  0.0707  0.3348
 2253SOL    HW118392   3.638   3.254   9.159 -1.1610 -0.8611  2.6333
 2253SOL    HW218393   3.634   3.200   9.024 -0.1344 -0.1178  0.1453
 2254SOL     OW18394   1.207   1.390  14.314 -0.0789 -0.2454  0.6289
 2254SOL    HW118395   1.137   1.353  14.261  0.2915 -0.2420  0.1334
 2254SOL    HW218396   1.286   1.352  14.275  0.3011  2.3573 -1.1761
 2255SOL     OW18397   3.354   1.382   7.683 -0.2188  0.6574 -0.3997
 2255SOL    HW118398   3.342   1.351   7.773  0.4545 -1.0576 -0.8962
 2255SOL    HW218399   3.446   1.406   7.677  0.0159 -0.1251  0.1075
 2256SOL     OW18400   4.598   2.608   7.685  0.8109  0.2122  0.1540
 2256SOL    HW118401   4.518   2.567   7.652 -0.2867  1.2237  1.5819
 2256SOL    HW218402   4.662   2.538   7.674 -0.5456 -0.7769 -1.5400
 2257SOL     OW18403   1.137   2.815   7.142 -0.0941 -0.5271  0.1486
 2257SOL    HW118404   1.096   2.850   7.062 -0.0321 -1.7782 -0.4291
 2257SOL    HW218405   1.065   2.824   7.205  0.0436  1.0189  0.0914
 2258SOL     OW18406   0.327   1.302  10.099  0.0824 -0.1280 -0.9687
 2258SOL    HW118407   0.338   1.390  10.134 -1.3750 -0.2849 -0.1169
 2258SOL    HW218408   0.250   1.312  10.043 -0.1659  0.8370 -0.4405
 2259SOL     OW18409   3.450   1.723   1.361 -0.2978 -0.5548  0.3132
 2259SOL    HW118410   3.527   1.700   1.413 -0.8253 -0.5383  1.0962
 2259SOL    HW218411   3.477   1.672   1.285 -0.3140  2.3497 -1.6385
 2260SOL     OW18412   0.573   1.095  13.151  0.0143 -0.0386  0.2479
 2260SOL    HW118413   0.659   1.135  13.168  0.6601  0.2484 -3.6697
 2260SOL    HW218414   0.612   1.007  13.148 -1.0371 -0.4920  0.0652
 2261SOL     OW18415   1.890   4.268  13.497 -0.4165 -0.3477  0.2827
 2261SOL    HW118416   1.924   4.338  13.553  0.1889 -0.5000  0.1057
 2261SOL    HW218417   1.963   4.243  13.441 -1.3136 -0.4897 -0.8282
 2262SOL     OW18418   0.439   2.072  15.855  0.1616 -0.0997 -0.0806
 2262SOL    HW118419   0.357   2.085  15.808 -1.0829 -0.5477  1.9781
 2262SOL    HW218420   0.498   2.115  15.793 -0.5020  0.2616 -0.4639
 2263SOL     OW18421   2.119   3.876  14.351 -0.3010 -0.1086 -0.0749
 2263SOL    HW118422   2.160   3.910  14.430  0.9182 -2.4305  0.3035
 2263SOL    HW218423   2.140   3.950  14.294 -2.2362 -1.4605 -2.5387
 2264SOL     OW18424   0.309   0.621   0.852  0.1238  0.0837  0.0746
 2264SOL    HW118425   0.222   0.636   0.890  0.5175 -1.0983  1.4467
 2264SOL    HW218426   0.357   0.703   0.868  2.8987 -1.7285  1.1439
 2265SOL     OW18427   0.048   1.251   4.693  0.1292  0.1577  0.0690
 2265SOL    HW118428   4.707   1.254   4.633 -1.8372  3.3132  2.7206
 2265SOL    HW218429   0.038   1.333   4.740 -0.7069  0.8623 -1.3226
 2266SOL     OW18430   0.503   2.391   3.641  0.0858 -0.0509  0.1696
 2266SOL    HW118431   0.469   2.417   3.726  0.1034 -0.9900  0.4618
 2266SOL    HW218432   0.563   2.464   3.631  0.2037 -0.1955 -0.1995
 2267SOL     OW18433   1.421   1.675  15.754 -0.1200 -0.3513 -0.6068
 2267SOL    HW118434   1.413   1.591  15.709  0.8542 -0.3814 -0.7396
 2267SOL    HW218435   1.354   1.667  15.822 -2.8746  0.4375 -3.2209
 2268SOL     OW18436   0.794   3.906   4.882 -0.6553  0.2887  0.1514
 2268SOL    HW118437   0.702   3.898   4.857 -0.6093  2.2452 -0.6478
 2268SOL    HW218438   0.775   3.922   4.974  0.2944 -3.2321  0.9614
 2269SOL     OW18439   0.975   2.765  13.608 -0.1869  0.3730 -0.2618
 2269SOL    HW118440   0.907   2.829  13.628 -0.7280 -1.0919  2.6233
 2269SOL    HW218441   0.971   2.707  13.684  4.8918  0.2357 -0.0582
 2270SOL     OW18442   0.142   3.962   3.721 -0.5443 -0.2413 -0.0500
 2270SOL    HW118443   0.201   4.037   3.721  0.4294 -1.0058 -0.1494
 2270SOL    HW218444   0.203   3.893   3.694  0.3646  0.3164  0.5853
 2271SOL     OW18445   3.861   0.453   4.167  0.1279 -0.0702 -0.7237
 2271SOL    HW118446   3.809   0.424   4.093 -1.4410  2.1989 -0.5020
 2271SOL    HW218447   3.874   0.366   4.204  0.9443 -0.1900 -1.2855
 2272SOL     OW18448   4.095   2.413   5.346 -0.0285 -0.5999  0.2065
 2272SOL    HW118449   4.170   2.397   5.403 -0.8732 -1.3018  1.1178
 2272SOL    HW218450   4.090   2.332   5.295 -2.7927 -1.0518  1.2025
 2273SOL     OW18451   0.658   3.354   4.350  0.3795 -0.8811  0.5344
 2273SOL    HW118452   0.681   3.318   4.436 -2.2522  2.1395  2.5489
 2273SOL    HW218453   0.677   3.280   4.293  0.7589 -1.1931  1.0624
 2274SOL     OW18454   3.963   3.087   5.722 -0.0876 -0.3914 -0.2391
 2274SOL    HW118455   3.945   3.032   5.646 -1.3354 -1.2257  0.6625
 2274SOL    HW218456   3.997   3.164   5.675 -0.8510 -0.9577 -1.7234
 2275SOL     OW18457   3.093   1.470   8.715 -0.4418 -0.2542  0.1766
 2275SOL    HW118458   3.146   1.395   8.740 -1.2315  0.3513  3.7096
 2275SOL    HW218459   3.143   1.511   8.645 -1.2227  2.0019  0.9217
 2276SOL     OW18460   1.602   0.131   2.732  0.4392 -0.0446  0.7307
 2276SOL    HW118461   1.515   0.092   2.723  0.1850  0.6176  0.2742
 2276SOL    HW218462   1.582   0.216   2.771  0.3466  0.6345 -0.7823
 2277SOL     OW18463   1.663   2.211   5.454 -0.6062 -0.0372  0.1498
 2277SOL    HW118464   1.632   2.121   5.443 -0.0324 -0.3660  1.2556
 2277SOL    HW218465   1.753   2.198   5.423 -1.0750 -1.7532 -0.4898
 2278SOL     OW18466   1.449   1.272   8.258  0.7060 -0.0181  0.1592
 2278SOL    HW118467   1.520   1.305   8.203 -1.2974  3.2729 -0.4206
 2278SOL    HW218468   1.386   1.344   8.262 -0.5564 -1.1491  0.7551
 2279SOL     OW18469   0.197   3.277  11.617 -0.3628 -0.6334  0.3009
 2279SOL    HW118470   0.129   3.230  11.569  0.3357 -1.6680  0.3002
 2279SOL    HW218471   0.148   3.358  11.606 -1.0051 -1.0302  0.2656
 2280SOL     OW18472   3.084   3.993   8.335  0.4397 -0.3512  0.7420
 2280SOL    HW118473   2.997   3.969   8.365 -0.3982  0.7943 -0.7413
 2280SOL    HW218474   3.075   3.972   8.242  0.7507 -0.9988  0.8588
 2281SOL     OW18475   1.138   1.128   4.438 -0.0628 -0.0475  0.4979
 2281SOL    HW118476   1.168   1.071   4.367 -1.2424  1.3259 -1.1256
 2281SOL    HW218477   1.058   1.156   4.393  0.6849 -0.3048 -0.9856
 2282SOL     OW18478   1.211   0.824   2.062  0.1432 -0.2574 -0.2339
 2282SOL    HW118479   1.262   0.894   2.022 -0.8522  1.5874  1.7452
 2282SOL    HW218480   1.259   0.828   2.144  0.2991 -0.2345 -0.3255
 2283SOL     OW18481   1.147   1.656   6.824 -0.2357  0.8555 -0.0696
 2283SOL    HW118482   1.063   1.632   6.863  0.2088 -1.1774 -0.3763
 2283SOL    HW218483   1.135   1.651   6.729 -0.7114 -1.3719  0.1098
 2284SOL     OW18484   2.310   1.644   3.450 -0.8629  0.4799  0.6351
 2284SOL    HW118485   2.328   1.576   3.385  0.5653  0.9861  0.4965
 2284SOL    HW218486   2.348   1.714   3.396  0.5538  0.3699  1.4905
 2285SOL     OW18487   1.064   0.047   9.725 -0.2791  0.0229 -0.1051
 2285SOL    HW118488   1.012   0.094   9.791 -0.4401  0.2265 -0.3743
 2285SOL    HW218489   1.023   0.066   9.640  1.1325 -2.1072 -1.2428
 2286SOL     OW18490   3.748   3.807   6.408  0.2701 -0.5367 -0.1577
 2286SOL    HW118491   3.808   3.771   6.474  1.0154  0.8309 -0.0951
 2286SOL    HW218492   3.787   3.763   6.332  2.0005 -1.3188  1.1603
 2287SOL     OW18493   3.038   0.187   8.626 -0.4631 -0.4562  0.0844
 2287SOL    HW118494   3.007   0.097   8.614 -0.6417 -0.1188 -1.9286
 2287SOL    HW218495   2.965   0.221   8.677 -0.6534  0.6502 -0.9450
 2288SOL     OW18496   3.670   1.624   2.882 -0.6629 -0.0699  0.3829
 2288SOL    HW118497   3.675   1.682   2.807  2.3260 -1.5339 -0.5815
 2288SOL    HW218498   3.753   1.642   2.927  0.3831  2.0515 -2.4349
 2289SOL     OW18499   3.065   3.592   7.887  0.7444  0.3140  0.4181
 2289SOL    HW118500   3.106   3.646   7.955  1.7402  0.8475 -0.6088
 2289SOL    HW218501   2.974   3.620   7.887  0.5391 -0.3556  3.3174
 2290SOL     OW18502   1.166   2.152   3.384 -0.4529 -0.1645  0.4698
 2290SOL    HW118503   1.159   2.247   3.393  0.4089 -0.1444  0.8917
 2290SOL    HW218504   1.112   2.123   3.457  1.0638 -2.2528  0.7734
 2291SOL     OW18505   1.783   1.630   4.417 -0.4309  0.1568 -0.1175
 2291SOL    HW118506   1.729   1.686   4.360  0.8451  0.5950 -0.8814
 2291SOL    HW218507   1.808   1.570   4.347  0.5849 -0.5197  0.8420
 2292SOL     OW18508   0.972   0.807   6.729 -0.0641 -0.2010 -0.1139
 2292SOL    HW118509   0.921   0.736   6.767 -1.3586 -0.0481 -1.5537
 2292SOL    HW218510   0.972   0.879   6.793  2.1784  1.1328 -1.5717
 2293SOL     OW18511   2.233   1.557   2.149  0.7985 -1.0603 -0.1171
 2293SOL    HW118512   2.160   1.527   2.096  0.4642  0.2670 -0.4160
 2293SOL    HW218513   2.294   1.578   2.078 -1.4408  1.2516 -1.3535
 2294SOL     OW18514   3.474   1.755   7.586  0.1683  0.2245 -0.1184
 2294SOL    HW118515   3.414   1.828   7.568  0.4193 -0.0376 -2.0124
 2294SOL    HW218516   3.474   1.764   7.681 -2.5976  0.5708 -0.1352
 2295SOL     OW18517   4.269   0.558  14.565 -0.1616  0.0052 -0.0220
 2295SOL    HW118518   4.213   0.580  14.490 -1.2669  0.6411  1.0102
 2295SOL    HW218519   4.227   0.475  14.589  1.4699 -0.7813  0.1293
 2296SOL     OW18520   2.390   3.455   8.796  0.6334 -0.0513 -0.3535
 2296SOL    HW118521   2.465   3.513   8.790  0.9414 -0.3652  0.5114
 2296SOL    HW218522   2.430   3.369   8.810 -0.0418  0.1488  3.0237
 2297SOL     OW18523   3.721   3.208  11.038  0.4184 -0.0653 -0.2457
 2297SOL    HW118524   3.696   3.178  10.951 -1.2923 -0.8214  0.5003
 2297SOL    HW218525   3.679   3.294  11.036 -1.1455 -0.8189  0.2756
 2298SOL     OW18526   0.450   2.240   2.837 -0.1752  0.4243  0.1154
 2298SOL    HW118527   0.537   2.258   2.874 -0.8488  1.6764  1.0804
 2298SOL    HW218528   0.473   2.152   2.807 -1.4632 -0.0911  0.6269
 2299SOL     OW18529   1.494   3.297   3.785 -0.6704  0.1140  0.0220
 2299SOL    HW118530   1.560   3.246   3.739  0.7237  1.8837  0.0755
 2299SOL    HW218531   1.415   3.266   3.740  0.3669 -1.7726 -0.4946
 2300SOL     OW18532   0.107   0.951  12.795  0.0332 -0.0925  0.2503
 2300SOL    HW118533   0.123   1.046  12.791  1.3267 -0.1503  4.2851
 2300SOL    HW218534   0.069   0.929  12.710  1.0697 -0.5251 -0.0998
 2301SOL     OW18535   2.205   1.985   8.904 -0.4040  0.6902 -0.7462
 2301SOL    HW118536   2.216   1.903   8.952  1.0103  0.8533 -0.7872
 2301SOL    HW218537   2.298   2.008   8.903  0.0355 -1.0329  0.5683
 2302SOL     OW18538   1.387   3.224   0.930 -0.2289  0.1257 -0.0773
 2302SOL    HW118539   1.339   3.298   0.968 -0.5386  0.5741 -1.3478
 2302SOL    HW218540   1.331   3.147   0.943 -0.4734  0.4878  1.0259
 2303SOL     OW18541   2.760   2.927   2.931 -0.3989  0.0952  0.2781
 2303SOL    HW118542   2.749   2.848   2.984 -1.1025 -0.4691 -0.6969
 2303SOL    HW218543   2.742   2.883   2.848  0.5620 -0.5706  0.4311
 2304SOL     OW18544   3.895   3.109   3.741 -0.2994  0.0987  0.2563
 2304SOL    HW118545   3.977   3.072   3.706  0.3021  0.8797  0.8501
 2304SOL    HW218546   3.924   3.172   3.806  2.6652 -0.4081 -0.5764
 2305SOL     OW18547   4.657   4.403  17.174 -0.5789 -0.2923  0.4693
 2305SOL    HW118548   4.579   4.353  17.150  0.7799 -2.2228 -0.0092
 2305SOL    HW218549   4.639   4.494  17.153  1.6579 -0.1962 -1.0558
 2306SOL     OW18550   3.146   3.765   0.206 -0.4810 -0.1125 -0.2726
 2306SOL    HW118551   3.224   3.802   0.164 -0.4953  1.5474  1.2110
 2306SOL    HW218552   3.182   3.762   0.295 -0.8168  1.5111 -0.0867
 2307SOL     OW18553   4.120   4.415   5.338  0.0501 -0.0123  1.0966
 2307SOL    HW118554   4.094   4.392   5.427 -0.2461 -0.7422  0.8193
 2307SOL    HW218555   4.104   4.336   5.287  2.0754  0.9883 -1.0845
 2308SOL     OW18556   1.915   1.162   4.468 -0.6669 -0.2803 -0.4985
 2308SOL    HW118557   1.857   1.139   4.541  0.1559 -2.6519 -0.5960
 2308SOL    HW218558   1.997   1.194   4.507  0.3482 -2.8567 -0.5461
 2309SOL     OW18559   1.429   3.385   6.994  0.0745 -0.3566  1.1177
 2309SOL    HW118560   1.519   3.416   6.994 -0.6621  1.8131 -1.3352
 2309SOL    HW218561   1.394   3.469   6.964 -2.1468 -0.4523  3.4012
 2310SOL     OW18562   1.633   1.751   4.815 -0.2428 -0.2722 -0.5306
 2310SOL    HW118563   1.562   1.730   4.876  0.6915  1.3900  1.1429
 2310SOL    HW218564   1.607   1.840   4.789  0.8959 -0.1243 -1.1640
 2311SOL     OW18565   1.531   1.330   5.843 -0.0332  0.4496 -0.0135
 2311SOL    HW118566   1.582   1.253   5.865  1.3428  1.0557 -1.0478
 2311SOL    HW218567   1.461   1.290   5.792  1.1782 -0.5869 -0.8600
 2312SOL     OW18568   1.354   4.659  12.574  0.0698 -0.1699  0.1918
 2312SOL    HW118569   1.342   0.018  12.555 -0.0195 -0.5942 -1.8574
 2312SOL    HW218570   1.321   4.617  12.495 -1.0868 -0.2679  0.7235
 2313SOL     OW18571   2.747   1.039   4.517  0.2144 -0.2270 -0.5217
 2313SOL    HW118572   2.697   0.961   4.493 -0.0831 -0.3861  0.6695
 2313SOL    HW218573   2.691   1.085   4.579 -0.4249 -1.0725 -0.4628
 2314SOL     OW18574   1.124   1.306   8.365 -0.0034 -0.2610 -0.1190
 2314SOL    HW118575   1.195   1.371   8.360  2.4155 -2.7623  2.0981
 2314SOL    HW218576   1.076   1.321   8.283 -0.3239  3.6449  0.7783
 2315SOL     OW18577   0.423   3.139   9.423  0.0415 -0.2910  0.0118
 2315SOL    HW118578   0.502   3.139   9.477  0.1537  0.8483 -0.1474
 2315SOL    HW218579   0.359   3.100   9.482 -0.5856  1.6786  0.6131
 2316SOL     OW18580   4.697   4.519  10.941 -0.1800  0.1478  0.6677
 2316SOL    HW118581   0.050   4.559  10.935 -0.0151 -0.5173 -1.4559
 2316SOL    HW218582   4.638   4.588  10.972  0.0929  0.8884 -0.4484
 2317SOL     OW18583   2.425   3.434  10.785 -0.2894  0.1701  0.0201
 2317SOL    HW118584   2.387   3.460  10.869 -1.1838  2.8535 -1.2364
 2317SOL    HW218585   2.429   3.338  10.792 -1.7156  0.1933  1.0405
 2318SOL     OW18586   3.735   2.318  17.121  0.0560 -0.3771  0.1825
 2318SOL    HW118587   3.710   2.397  17.075  0.4053 -1.4682 -1.8679
 2318SOL    HW218588   3.816   2.298  17.075  0.3964 -0.0795  0.6486
 2319SOL     OW18589   4.099   2.935   8.654 -0.0259  0.5678  0.1097
 2319SOL    HW118590   4.040   2.914   8.581  2.8801  0.5238 -2.2593
 2319SOL    HW218591   4.115   3.029   8.648  0.4516  0.4589 -0.3587
 2320SOL     OW18592   1.060   1.745  13.970 -0.1864  0.4830 -0.9912
 2320SOL    HW118593   1.096   1.657  13.968  1.1558  0.9777  1.0355
 2320SOL    HW218594   1.057   1.772  13.879  0.2061 -1.2447 -1.5031
 2321SOL     OW18595   3.836   4.148   7.557 -0.1052 -0.2962 -0.5835
 2321SOL    HW118596   3.839   4.234   7.514  1.5818 -1.2313 -2.3381
 2321SOL    HW218597   3.921   4.141   7.600 -0.8160 -0.3814  0.7979
 2322SOL     OW18598   4.193   3.378  12.666 -0.1796 -0.1345 -0.9676
 2322SOL    HW118599   4.214   3.297  12.713 -1.0364  0.6265  0.7342
 2322SOL    HW218600   4.106   3.366  12.629 -0.1453 -2.0073 -0.4340
 2323SOL     OW18601   4.211   3.878  17.618  0.3140 -0.0610  0.3728
 2323SOL    HW118602   4.235   3.837  17.701 -4.2157 -2.8214  0.3220
 2323SOL    HW218603   4.164   3.957  17.647 -0.1686 -0.5509  0.9149
 2324SOL     OW18604   4.064   2.713  13.555  0.3920  0.4733 -0.0762
 2324SOL    HW118605   4.137   2.652  13.541  1.9876  2.2965  0.2985
 2324SOL    HW218606   4.032   2.712  13.645 -0.4418  0.2376 -0.3762
 2325SOL     OW18607   1.378   2.379  13.173 -0.1733 -0.4287  0.3674
 2325SOL    HW118608   1.449   2.430  13.134 -1.0297  0.5359  0.0576
 2325SOL    HW218609   1.368   2.423  13.258  1.1072  0.5080  0.0329
 2326SOL     OW18610   2.536   4.711   0.645 -0.0984  0.3340  0.4682
 2326SOL    HW118611   2.464   4.659   0.609  0.8838 -1.6758  1.4002
 2326SOL    HW218612   2.537   4.694   0.740  1.3583 -1.8690  0.0535
 2327SOL     OW18613   4.478   3.695   5.500 -0.0058  0.0914  0.3306
 2327SOL    HW118614   4.465   3.642   5.421 -0.2305 -0.2162  0.5744
 2327SOL    HW218615   4.559   3.654   5.533  0.7889  0.3488 -1.2907
 2328SOL     OW18616   3.150   2.958   5.283  0.2157  0.1772  0.4200
 2328SOL    HW118617   3.205   2.885   5.310 -0.6973 -0.3249  0.8911
 2328SOL    HW218618   3.161   2.954   5.188 -0.6075 -0.0062  0.3316
 2329SOL     OW18619   4.298   2.529   6.424  0.0384 -0.6609 -0.5129
 2329SOL    HW118620   4.290   2.623   6.410  0.7361 -0.7891 -1.7158
 2329SOL    HW218621   4.272   2.500   6.337 -0.6676 -3.4884  0.6120
 2330SOL     OW18622   2.794   0.079   7.925 -0.4561  0.8964  0.1168
 2330SOL    HW118623   2.886   0.056   7.916 -0.6961  0.0922 -0.3096
 2330SOL    HW218624   2.766   0.085   7.834  1.2882  1.0160 -0.4040
 2331SOL     OW18625   2.686   3.207   3.428 -0.0252  0.3106  0.1997
 2331SOL    HW118626   2.756   3.166   3.378  0.0779  0.7205  0.0057
 2331SOL    HW218627   2.611   3.147   3.426  0.7556 -0.6404 -0.1109
 2332SOL     OW18628   0.505   1.666   0.395  0.1296 -0.4428 -0.0321
 2332SOL    HW118629   0.480   1.648   0.305 -1.6348 -0.2912  0.4085
 2332SOL    HW218630   0.589   1.711   0.390 -0.9853  1.5721 -0.7791
 2333SOL     OW18631   2.905   0.869  11.824  0.8085  0.3111  0.8498
 2333SOL    HW118632   2.919   0.785  11.780  0.8133  0.3186  0.8368
 2333SOL    HW218633   2.936   0.840  11.909  0.0855  0.0750  1.0331
 2334SOL     OW18634   0.711   1.241  14.234 -0.7013 -0.0111 -0.8181
 2334SOL    HW118635   0.805   1.230  14.247 -1.4493 -3.0484  2.0064
 2334SOL    HW218636   0.679   1.181  14.302  1.5770  1.0936  1.2316
 2335SOL     OW18637   3.431   1.868   5.556  0.3881  0.7828  0.1319
 2335SOL    HW118638   3.388   1.828   5.480 -0.5098  0.9465  0.5626
 2335SOL    HW218639   3.398   1.956   5.539  0.3626  0.6133 -0.6725
 2336SOL     OW18640   3.025   1.070   1.446 -0.4811 -0.1374  0.0557
 2336SOL    HW118641   3.099   1.128   1.426  0.2839 -0.9278  0.5751
 2336SOL    HW218642   3.022   1.025   1.362 -2.4579 -2.4252  1.3570
 2337SOL     OW18643   0.674   1.617   6.274 -1.1010  0.1410 -0.1834
 2337SOL    HW118644   0.665   1.712   6.279  0.9834  0.4541 -2.3855
 2337SOL    HW218645   0.585   1.582   6.270 -0.7505 -0.8220  0.4401
 2338SOL     OW18646   1.211   2.465   5.946 -0.1211  0.1419 -0.1614
 2338SOL    HW118647   1.299   2.427   5.937  0.1241  0.8375 -0.7191
 2338SOL    HW218648   1.191   2.480   5.854  0.9712  0.9331 -0.2794
 2339SOL     OW18649   2.169   0.378   0.680  0.2924 -0.1960 -0.2224
 2339SOL    HW118650   2.232   0.412   0.743 -0.4724  2.3090 -0.8221
 2339SOL    HW218651   2.172   0.285   0.704 -0.6753 -0.0236  0.6041
 2340SOL     OW18652   2.014   3.285   1.972 -0.4656 -0.2936 -0.0387
 2340SOL    HW118653   1.930   3.325   1.948  0.5378  1.3228 -0.8237
 2340SOL    HW218654   1.991   3.280   2.065  2.6387  2.3664  0.8666
 2341SOL     OW18655   2.016   3.462   3.891  0.3537 -0.2987 -0.7355
 2341SOL    HW118656   1.943   3.491   3.836  1.0001  1.4592 -0.6643
 2341SOL    HW218657   2.089   3.515   3.860 -0.0960  0.0451 -1.2087
 2342SOL     OW18658   3.280   3.161  16.241  0.3045 -0.3814 -0.1511
 2342SOL    HW118659   3.289   3.244  16.287 -0.4118  0.1364 -0.9604
 2342SOL    HW218660   3.316   3.187  16.156 -3.9581  1.2790 -1.4538
 2343SOL     OW18661   4.682   4.511   6.167  0.5073 -0.1765 -0.2384
 2343SOL    HW118662   4.656   4.420   6.153 -0.7090  0.1849 -0.3675
 2343SOL    HW218663   0.036   4.492   6.200  0.4100  0.2721  0.2869
 2344SOL     OW18664   3.871   0.561   6.493 -0.1795  0.0345  0.4090
 2344SOL    HW118665   3.958   0.591   6.468 -2.6978  5.1618 -2.2672
 2344SOL    HW218666   3.817   0.592   6.420  1.9568  0.1578 -1.1017
 2345SOL     OW18667   0.389   1.349   0.683  0.2064  0.4683 -0.6938
 2345SOL    HW118668   0.297   1.354   0.657 -0.1240 -1.4204  0.0374
 2345SOL    HW218669   0.374   1.329   0.776  0.0601  2.1952 -0.3403
 2346SOL     OW18670   1.158   2.063   7.231 -0.6864 -0.5539 -0.3020
 2346SOL    HW118671   1.155   1.991   7.169  0.3867 -0.2717 -0.6831
 2346SOL    HW218672   1.226   2.118   7.193 -0.8069 -0.0397  0.2242
 2347SOL     OW18673   3.379   1.382   2.180 -0.3276 -0.0238  0.0105
 2347SOL    HW118674   3.353   1.300   2.137  0.8701 -1.8391  2.7991
 2347SOL    HW218675   3.440   1.421   2.118  2.1336 -0.7506  1.9872
 2348SOL     OW18676   2.462   1.529   8.310  0.2821  0.2841 -0.1807
 2348SOL    HW118677   2.416   1.449   8.333  0.6329  0.4377  1.0253
 2348SOL    HW218678   2.453   1.586   8.386  3.3004 -0.8967  1.0455
 2349SOL     OW18679   0.876   0.331   7.463  0.0222 -0.2577  0.0272
 2349SOL    HW118680   0.945   0.373   7.411 -0.8368  0.6833 -0.3441
 2349SOL    HW218681   0.800   0.342   7.406 -2.5647  1.0191  3.7484
 2350SOL     OW18682   1.207   1.578   1.138 -0.2624 -0.1265  0.0315
 2350SOL    HW118683   1.254   1.603   1.217  0.6742  0.5819 -0.7492
 2350SOL    HW218684   1.191   1.664   1.098 -2.2927 -1.7826 -2.7519
 2351SOL     OW18685   4.115   2.591  17.019 -0.1091 -0.1797  0.1682
 2351SOL    HW118686   4.193   2.581  16.964  0.0301  1.4264  0.0881
 2351SOL    HW218687   4.060   2.644  16.962 -0.8215 -0.2350  0.8020
 2352SOL     OW18688   3.743   2.010   4.116 -0.6044  0.1454  0.4409
 2352SOL    HW118689   3.731   2.104   4.125 -1.1416  0.1727 -0.5200
 2352SOL    HW218690   3.652   1.983   4.109 -0.7030  0.2103  1.5466
 2353SOL     OW18691   2.392   4.432  12.092  0.0132  0.3835 -0.2489
 2353SOL    HW118692   2.381   4.482  12.173 -2.5354 -2.6313  1.2394
 2353SOL    HW218693   2.310   4.382  12.093  0.0635  0.2534 -2.0671
 2354SOL     OW18694   0.808   4.409   8.675 -0.3729 -0.4568 -0.6267
 2354SOL    HW118695   0.792   4.409   8.581 -0.6952  1.1669 -0.5841
 2354SOL    HW218696   0.722   4.424   8.714  0.3516 -2.4007  1.7048
 2355SOL     OW18697   3.258   0.808   4.045 -0.0672  0.3269 -0.7229
 2355SOL    HW118698   3.263   0.726   3.996  1.0943  0.7811 -1.3497
 2355SOL    HW218699   3.238   0.872   3.976  0.0168  0.3280 -0.7456
 2356SOL     OW18700   0.278   4.559   3.123  0.0294  0.9006  0.3952
 2356SOL    HW118701   0.222   4.628   3.087  0.3928  0.2319 -1.4542
 2356SOL    HW218702   0.307   4.522   3.039  2.0343 -1.0761  1.9546
 2357SOL     OW18703   0.491   3.789  13.827 -0.5543 -0.3867  0.2962
 2357SOL    HW118704   0.584   3.769  13.836 -0.7537 -1.6522 -0.5733
 2357SOL    HW218705   0.501   3.877  13.790  1.1461 -0.8709 -0.3894
 2358SOL     OW18706   3.176   1.431   0.113  0.1423 -0.1458  0.1690
 2358SOL    HW118707   3.091   1.392   0.134  0.0541 -0.1247 -0.1439
 2358SOL    HW218708   3.190   1.417   0.019  0.1077 -0.2718  0.1821
 2359SOL     OW18709   2.633   4.609   8.312 -0.5921  0.3764 -0.4472
 2359SOL    HW118710   2.539   4.596   8.297 -0.4648 -1.0752  0.0835
 2359SOL    HW218711   2.649   4.677   8.246 -1.8327  2.1084  1.0122
 2360SOL     OW18712   2.499   2.200   9.202  0.2642 -0.1067 -0.5534
 2360SOL    HW118713   2.485   2.189   9.108  1.7898  1.5662 -0.9794
 2360SOL    HW218714   2.509   2.294   9.214  1.1712 -0.3830  0.8320
 2361SOL     OW18715   3.477   2.897  17.589 -0.4195 -0.1637 -0.5054
 2361SOL    HW118716   3.552   2.936  17.634 -0.3397 -0.0337 -0.7567
 2361SOL    HW218717   3.451   2.969  17.532  0.2340  0.5307  0.0708
 2362SOL     OW18718   0.997   4.174   5.195  0.1891  0.3287 -0.2493
 2362SOL    HW118719   0.997   4.158   5.101 -3.1339  0.9405 -0.3676
 2362SOL    HW218720   0.954   4.260   5.195  1.3646  0.9089 -0.1230
 2363SOL     OW18721   4.283   4.074   6.625  0.1386  0.8023 -0.2290
 2363SOL    HW118722   4.287   4.035   6.712 -0.9096  1.1898 -0.0078
 2363SOL    HW218723   4.188   4.076   6.612  0.1887  2.4247 -0.4072
 2364SOL     OW18724   2.615   2.157  11.607  0.0675  0.4214  0.4487
 2364SOL    HW118725   2.559   2.194  11.539 -1.5429 -0.4752  1.2961
 2364SOL    HW218726   2.562   2.184  11.682 -2.1481  0.7869 -1.2494
 2365SOL     OW18727   1.641   0.453   7.770  0.5812  0.2465  0.0045
 2365SOL    HW118728   1.583   0.380   7.791  1.8348 -0.5997  0.5306
 2365SOL    HW218729   1.717   0.394   7.770  0.9751  0.7383 -1.6069
 2366SOL     OW18730   3.389   3.037   0.650  0.5328  0.4095  0.7566
 2366SOL    HW118731   3.371   3.098   0.721  3.2532  0.7781  1.1577
 2366SOL    HW218732   3.435   2.970   0.701  0.5418  1.5691  2.2699
 2367SOL     OW18733   1.706   3.106  12.072  0.2166  0.5024 -0.0857
 2367SOL    HW118734   1.793   3.128  12.039  0.0685 -1.0253 -1.4618
 2367SOL    HW218735   1.661   3.136  11.993  1.0724  0.1819 -0.6971
 2368SOL     OW18736   2.518   2.259   3.461  0.2433  0.0748 -0.4640
 2368SOL    HW118737   2.434   2.306   3.466 -0.9281 -1.5932 -4.5579
 2368SOL    HW218738   2.490   2.187   3.519 -2.0915  0.5480 -0.9904
 2369SOL     OW18739   0.180   3.480  13.253 -0.7888 -0.1685 -0.0132
 2369SOL    HW118740   0.097   3.525  13.240 -0.5595 -0.1279 -1.3685
 2369SOL    HW218741   0.221   3.551  13.303 -0.3043 -0.2670 -0.2720
 2370SOL     OW18742   3.919   4.167   2.079  0.1608 -0.0404 -0.0706
 2370SOL    HW118743   3.915   4.073   2.096 -1.1726 -0.0113 -0.1944
 2370SOL    HW218744   3.846   4.164   2.017  1.3182 -0.2268 -1.4276
 2371SOL     OW18745   0.318   1.184   0.381 -0.1941  0.2683  0.6272
 2371SOL    HW118746   0.323   1.205   0.287 -1.4313 -0.4994  0.3749
 2371SOL    HW218747   0.267   1.103   0.372 -1.9817  1.5173 -0.6893
 2372SOL     OW18748   3.291   3.015   3.314 -0.2490 -0.4013 -0.2810
 2372SOL    HW118749   3.227   3.020   3.243 -1.5914 -0.1779  0.9433
 2372SOL    HW218750   3.371   3.050   3.275 -0.4137  0.1191 -0.1534
 2373SOL     OW18751   3.586   1.410  11.148  0.4596 -0.3772  0.3797
 2373SOL    HW118752   3.556   1.440  11.234 -0.1886 -1.8147  0.6669
 2373SOL    HW218753   3.574   1.316  11.165  0.8387 -0.7904 -1.7218
 2374SOL     OW18754   0.611   0.994   8.366  0.4467 -0.8384 -0.5235
 2374SOL    HW118755   0.614   1.038   8.281  1.1866 -0.4956 -0.3199
 2374SOL    HW218756   0.679   1.040   8.415  0.1791 -1.0192  0.0209
 2375SOL     OW18757   3.113   2.205  14.455 -0.0402 -0.3041 -0.1198
 2375SOL    HW118758   3.099   2.292  14.492 -0.8138 -0.6677  0.4379
 2375SOL    HW218759   3.061   2.144  14.508 -1.0280 -1.4175 -2.3656
 2376SOL     OW18760   2.928   2.762   6.697  0.0477 -0.8057  0.2912
 2376SOL    HW118761   3.014   2.721   6.684 -0.0959 -1.4302  1.2327
 2376SOL    HW218762   2.891   2.696   6.756 -1.2197  0.1640  0.5654
 2377SOL     OW18763   2.656   0.824   4.878 -0.1643  0.7092 -0.0432
 2377SOL    HW118764   2.626   0.914   4.875  0.2860  0.7717 -2.3119
 2377SOL    HW218765   2.631   0.791   4.965  0.1055  2.2086  0.5913
 2378SOL     OW18766   3.428   4.396   7.083 -0.5397 -0.8781  0.2044
 2378SOL    HW118767   3.445   4.486   7.109 -2.3694  0.0741 -1.9060
 2378SOL    HW218768   3.390   4.367   7.166  1.4178  0.6208  1.6357
 2379SOL     OW18769   2.923   3.943  12.081  0.2098 -0.1340 -0.0825
 2379SOL    HW118770   2.968   3.930  12.164  0.8105 -0.7515 -0.4999
 2379SOL    HW218771   2.836   3.932  12.119 -0.8501  2.7578 -1.7217
 2380SOL     OW18772   4.253   1.194   6.394  0.2686 -0.0223  0.3318
 2380SOL    HW118773   4.313   1.125   6.422 -0.5727 -1.9487 -2.5203
 2380SOL    HW218774   4.222   1.165   6.308  0.2814  0.4854  0.1577
 2381SOL     OW18775   1.309   1.160   7.392  0.0674 -0.4205 -0.1387
 2381SOL    HW118776   1.389   1.193   7.432 -1.3643  0.7040  1.7635
 2381SOL    HW218777   1.268   1.242   7.366 -1.8488 -1.1615  0.5732
 2382SOL     OW18778   0.457   2.524  14.816 -0.3233 -0.0624  0.4631
 2382SOL    HW118779   0.384   2.534  14.877 -1.1216 -2.3385 -0.1470
 2382SOL    HW218780   0.413   2.478  14.745 -0.6767 -0.3166  0.8521
 2383SOL     OW18781   0.608   3.456   7.679 -0.6736  0.0486  0.2887
 2383SOL    HW118782   0.557   3.434   7.601 -1.8170  0.7773  0.8234
 2383SOL    HW218783   0.628   3.548   7.660  1.1842 -0.5578 -0.6549
 2384SOL     OW18784   3.859   1.864   7.273 -0.2000  0.1480  0.2711
 2384SOL    HW118785   3.836   1.843   7.363 -0.5456 -0.5275  0.0263
 2384SOL    HW218786   3.919   1.938   7.285  0.8679 -0.7200  0.2793
 2385SOL     OW18787   1.619   3.848   6.678 -0.6945 -0.0759 -0.0492
 2385SOL    HW118788   1.662   3.907   6.739 -1.3700 -0.0344  0.3948
 2385SOL    HW218789   1.641   3.882   6.592 -1.1440 -0.2685 -0.2400
 2386SOL     OW18790   0.513   4.109  15.003  0.3418 -0.0443 -0.5642
 2386SOL    HW118791   0.427   4.122  15.044  0.8137 -2.0703  1.0580
 2386SOL    HW218792   0.558   4.192  15.019 -1.0987  0.4842  0.7481
 2387SOL     OW18793   1.012   1.909   6.793 -0.3387 -0.9071  0.2508
 2387SOL    HW118794   1.023   1.996   6.754 -2.0073 -0.1418  1.4764
 2387SOL    HW218795   1.106   1.894   6.802  0.0427  0.7425 -1.1876
 2388SOL     OW18796   2.489   3.145   1.302  0.3429  0.6549 -0.5193
 2388SOL    HW118797   2.529   3.088   1.237 -1.9151 -1.5928  0.0665
 2388SOL    HW218798   2.426   3.198   1.253 -0.2889 -0.1202 -0.5529
 2389SOL     OW18799   1.830   2.398  15.300 -0.4336  0.0840 -0.2274
 2389SOL    HW118800   1.767   2.416  15.370 -0.3948  0.6887 -0.3537
 2389SOL    HW218801   1.803   2.307  15.283  0.0402  0.1664 -1.3815
 2390SOL     OW18802   3.472   2.877   1.227 -0.2906 -0.4105  0.2592
 2390SOL    HW118803   3.513   2.791   1.236 -0.0632 -0.1000  2.1038
 2390SOL    HW218804   3.482   2.908   1.317 -3.8998  1.5047 -0.0242
 2391SOL     OW18805   3.562   3.376   2.044  0.2416 -0.4258  0.4230
 2391SOL    HW118806   3.584   3.448   2.103  0.3402 -1.0535  1.1528
 2391SOL    HW218807   3.527   3.423   1.969 -0.7181 -1.9432 -0.0878
 2392SOL     OW18808   3.849   1.071   6.759  0.3252  0.4935 -0.2801
 2392SOL    HW118809   3.922   1.110   6.807  0.2981  0.8328 -0.5112
 2392SOL    HW218810   3.799   1.022   6.825 -0.1270 -0.0993 -1.0560
 2393SOL     OW18811   0.278   2.561  15.038 -0.2103  0.1563  0.2472
 2393SOL    HW118812   0.275   2.631  15.103  0.9770  0.5931 -0.1841
 2393SOL    HW218813   0.325   2.493  15.087 -0.2987  0.4397  0.7249
 2394SOL     OW18814   2.432   0.991   9.768  0.6429 -0.0731  0.0425
 2394SOL    HW118815   2.445   0.903   9.731 -0.5998 -0.6767  1.0339
 2394SOL    HW218816   2.342   0.972   9.795  0.2602 -1.3196 -2.0752
 2395SOL     OW18817   2.339   3.814   7.435  0.1748 -0.0176 -0.2393
 2395SOL    HW118818   2.394   3.780   7.364  2.3089  0.4621  1.1704
 2395SOL    HW218819   2.258   3.772   7.406  1.9557 -2.1921 -2.0206
 2396SOL     OW18820   1.087   1.514  11.851  0.6286  0.5624 -0.2232
 2396SOL    HW118821   1.137   1.449  11.802 -0.8080 -1.0069  0.3841
 2396SOL    HW218822   1.085   1.483  11.942 -1.7354  0.0886 -0.4422
 2397SOL     OW18823   0.779   4.555   3.725  0.5789  0.2235 -0.2491
 2397SOL    HW118824   0.702   4.611   3.730  0.3620  0.1669 -2.9310
 2397SOL    HW218825   0.733   4.484   3.679  1.7918 -0.9443  0.3514
 2398SOL     OW18826   3.850   1.847   3.217  0.1574 -0.4047  0.0353
 2398SOL    HW118827   3.889   1.795   3.147 -1.5378 -1.3571 -0.1979
 2398SOL    HW218828   3.894   1.930   3.200 -0.1367 -0.3956 -0.7023
 2399SOL     OW18829   2.885   2.343   6.264  0.1018  0.3510  0.4665
 2399SOL    HW118830   2.895   2.430   6.226  0.5952 -0.7951 -2.1041
 2399SOL    HW218831   2.933   2.350   6.346 -2.2914 -0.5731  1.9674
 2400SOL     OW18832   0.520   3.876   3.156 -0.4170  0.4711  0.1258
 2400SOL    HW118833   0.510   3.884   3.251  0.4974  1.6089  0.1284
 2400SOL    HW218834   0.503   3.965   3.124 -1.2718  1.0880  2.2643
 2401SOL     OW18835   0.561   3.628   1.162  0.2796  0.2162  0.7160
 2401SOL    HW118836   0.517   3.550   1.197  0.2651 -0.2518 -0.3518
 2401SOL    HW218837   0.585   3.672   1.244  0.5571 -2.1877  1.9401
 2402SOL     OW18838   4.073   2.992  16.147  0.9081 -0.2714 -0.2988
 2402SOL    HW118839   4.003   3.032  16.200  2.1576  1.0550  0.3505
 2402SOL    HW218840   4.128   2.957  16.216  1.9201 -0.6962 -1.3347
 2403SOL     OW18841   1.198   3.953   3.912 -0.0081  0.6892 -0.0574
 2403SOL    HW118842   1.216   4.047   3.909 -1.4927  0.8753 -2.4687
 2403SOL    HW218843   1.124   3.957   3.973  0.1469  1.9013  0.0463
 2404SOL     OW18844   0.617   0.258  17.699 -0.8867 -0.0614  0.0687
 2404SOL    HW118845   0.700   0.299  17.723  0.6560 -0.9918 -3.6512
 2404SOL    HW218846   0.555   0.316   0.009 -0.5021  2.0570 -2.1794
 2405SOL     OW18847   2.318   3.060  10.029  0.0376  0.4774  0.6740
 2405SOL    HW118848   2.351   3.147  10.053  0.9722  0.2433  0.2508
 2405SOL    HW218849   2.227   3.082  10.009 -0.1220  0.7934  1.7383
 2406SOL     OW18850   1.320   4.602   2.073 -0.3300 -0.5163 -0.6232
 2406SOL    HW118851   1.318   4.616   1.978 -1.6674  1.4121 -0.2986
 2406SOL    HW218852   1.302   4.694   2.092 -0.8205 -0.9359  0.8883
 2407SOL     OW18853   1.099   0.654   9.098 -0.2810 -0.2349  0.1508
 2407SOL    HW118854   1.093   0.706   9.178 -2.8638 -1.0658  0.5129
 2407SOL    HW218855   1.034   0.697   9.042 -0.0122 -1.2184 -0.9151
 2408SOL     OW18856   1.936   3.004   4.633  0.4130  0.2063 -0.5078
 2408SOL    HW118857   1.859   3.034   4.586  0.9683  2.7205  0.1414
 2408SOL    HW218858   1.994   3.004   4.557 -1.3660  2.0038 -1.8751
 2409SOL     OW18859   0.867   0.232   5.291 -0.1470 -0.1148 -0.1400
 2409SOL    HW118860   0.912   0.157   5.254 -2.9266 -1.3684 -0.9156
 2409SOL    HW218861   0.782   0.238   5.247 -0.6250  0.6248  0.8771
 2410SOL     OW18862   3.734   3.047  10.792 -0.0642 -0.2201 -0.1806
 2410SOL    HW118863   3.674   3.002  10.733 -1.6010 -0.0027  1.2075
 2410SOL    HW218864   3.808   2.994  10.763  0.2107  0.3299 -0.4944
 2411SOL     OW18865   1.265   3.204   0.596  0.6176  0.3490 -0.5321
 2411SOL    HW118866   1.238   3.127   0.647 -0.2730  0.3811 -0.9516
 2411SOL    HW218867   1.185   3.255   0.596  1.0717  1.0575 -1.7570
 2412SOL     OW18868   3.426   4.063  16.823 -0.1514  0.7492 -0.5206
 2412SOL    HW118869   3.374   4.140  16.846  0.3054  0.9859 -0.2853
 2412SOL    HW218870   3.494   4.101  16.767 -0.2957 -1.1564 -1.9711
 2413SOL     OW18871   2.955   0.491   3.414 -0.5121 -0.0021  0.0615
 2413SOL    HW118872   3.012   0.417   3.393  0.3473  0.5098  0.5537
 2413SOL    HW218873   2.874   0.459   3.377 -0.1712  0.1238 -0.7837
 2414SOL     OW18874   3.533   3.002   7.761  0.1895 -0.6131  0.6687
 2414SOL    HW118875   3.514   2.916   7.799  1.6156 -0.9497  0.6158
 2414SOL    HW218876   3.620   2.997   7.723 -0.4296  0.7625 -0.9839
 2415SOL     OW18877   2.061   2.694   4.728 -0.6282 -0.2383 -0.3299
 2415SOL    HW118878   2.003   2.768   4.712 -0.0560 -0.0428 -1.4929
 2415SOL    HW218879   1.999   2.626   4.755 -1.0925  0.5306  0.5617
 2416SOL     OW18880   3.701   2.799   5.653  0.0439 -0.6368 -0.1921
 2416SOL    HW118881   3.786   2.802   5.609 -0.5486  0.9497 -1.2307
 2416SOL    HW218882   3.725   2.793   5.745  1.6083  1.5403 -0.4565
 2417SOL     OW18883   3.850   3.582   5.709  0.0178  0.2714 -0.0809
 2417SOL    HW118884   3.835   3.551   5.620 -3.4840  1.5990  0.0545
 2417SOL    HW218885   3.837   3.499   5.755 -1.1551  0.8103  0.5510
 2418SOL     OW18886   1.326   3.239   8.479  0.4048 -0.1617 -0.8320
 2418SOL    HW118887   1.257   3.247   8.413  1.6435  0.4738 -2.0507
 2418SOL    HW218888   1.286   3.300   8.541  0.9550 -0.7711  0.1176
 2419SOL     OW18889   0.360   0.962   8.795 -0.1005  0.3059 -0.1034
 2419SOL    HW118890   0.299   0.958   8.869 -1.5076  0.7858 -1.2341
 2419SOL    HW218891   0.400   0.876   8.812 -0.8887 -0.9043 -4.4063
 2420SOL     OW18892   3.080   2.815   0.636  0.5643 -0.5471 -0.4330
 2420SOL    HW118893   3.133   2.886   0.671 -0.0200  0.0276 -0.7317
 2420SOL    HW218894   3.018   2.861   0.579  0.9044  0.5617  0.1042
 2421SOL     OW18895   0.129   3.223  13.217  0.1608 -0.1426  0.3152
 2421SOL    HW118896   0.139   3.318  13.216 -3.9929  0.3101  1.1553
 2421SOL    HW218897   0.034   3.220  13.214  0.2486 -3.5023  0.2053
 2422SOL     OW18898   4.156   0.891   5.798  0.5297  0.2633  0.6163
 2422SOL    HW118899   4.087   0.947   5.760  2.0996  1.1652 -0.9127
 2422SOL    HW218900   4.225   0.934   5.748 -0.0738  0.1467 -0.3315
 2423SOL     OW18901   1.196   2.185   8.880 -0.1450  0.3529 -0.5914
 2423SOL    HW118902   1.239   2.254   8.930  0.6917 -0.1870 -0.5696
 2423SOL    HW218903   1.253   2.171   8.805  0.7101  1.4799 -0.1484
 2424SOL     OW18904   2.566   0.608   1.968 -0.1268 -0.0684 -0.1338
 2424SOL    HW118905   2.603   0.694   1.989  1.0421 -0.7223  0.5037
 2424SOL    HW218906   2.636   0.553   1.933 -1.5783 -0.2983 -2.6155
 2425SOL     OW18907   2.148   4.221   7.074 -0.4148 -0.1378 -0.4561
 2425SOL    HW118908   2.181   4.132   7.085  0.8327  0.4756  0.6838
 2425SOL    HW218909   2.076   4.226   7.137  1.3201 -1.4219  1.6139
 2426SOL     OW18910   2.383   1.968   2.330 -0.1308  0.0394 -0.1068
 2426SOL    HW118911   2.342   1.882   2.333 -2.9635  1.3692 -1.2907
 2426SOL    HW218912   2.345   2.013   2.255 -0.1664 -1.3297 -0.9122
 2427SOL     OW18913   1.910   1.692   8.634 -0.2375 -0.4231 -0.1170
 2427SOL    HW118914   1.963   1.682   8.714  0.7800  0.6721 -0.6554
 2427SOL    HW218915   1.967   1.752   8.585 -1.3955  0.3014 -0.5608
 2428SOL     OW18916   0.827   0.525   5.948  0.5753 -0.2035 -0.4169
 2428SOL    HW118917   0.806   0.436   5.920 -3.6057  0.9544 -1.0066
 2428SOL    HW218918   0.884   0.506   6.023 -0.4357  3.5455  1.3353
 2429SOL     OW18919   4.178   0.631   5.234 -0.3024 -0.1863 -0.4753
 2429SOL    HW118920   4.191   0.616   5.327  1.3426  1.5380 -0.4269
 2429SOL    HW218921   4.118   0.559   5.216  1.1148 -1.3366 -0.5676
 2430SOL     OW18922   3.518   1.175   8.250 -0.3378  0.4549  0.3511
 2430SOL    HW118923   3.562   1.230   8.186 -1.4282  0.5281 -0.3397
 2430SOL    HW218924   3.432   1.217   8.245 -0.4319  0.5306  2.6100
 2431SOL     OW18925   2.917   1.773   5.042 -0.0069 -0.1181  0.3824
 2431SOL    HW118926   2.862   1.744   4.969 -1.8002  1.1925  1.1822
 2431SOL    HW218927   2.872   1.853   5.071  1.4611  1.6618 -2.3060
 2432SOL     OW18928   0.326   3.227   3.440 -0.1522  0.1999 -0.2887
 2432SOL    HW118929   0.245   3.211   3.391 -0.0631  0.1217 -0.4105
 2432SOL    HW218930   0.294   3.232   3.530  2.1333  0.2818  0.5325
 2433SOL     OW18931   3.154   1.307  16.804  0.0197  0.2093  0.0130
 2433SOL    HW118932   3.200   1.262  16.734 -1.0570 -1.6648  0.5198
 2433SOL    HW218933   3.162   1.240  16.872  3.7102 -0.1508 -0.7827
 2434SOL     OW18934   0.133   1.742   5.583 -0.2819  0.2315  0.2008
 2434SOL    HW118935   0.101   1.771   5.668  3.4821  0.9264  1.3876
 2434SOL    HW218936   0.132   1.648   5.602  0.8171  0.2503  0.3700
 2435SOL     OW18937   0.458   4.378   4.925  0.7291 -0.5848  0.2971
 2435SOL    HW118938   0.469   4.377   5.020  0.3990 -1.8618  0.3259
 2435SOL    HW218939   0.364   4.382   4.909  0.7621  0.2544  0.3083
 2436SOL     OW18940   1.813   1.943   3.462  0.1907  0.2681 -0.2582
 2436SOL    HW118941   1.907   1.956   3.473  0.3295 -1.9683  1.3231
 2436SOL    HW218942   1.781   2.015   3.408  0.6581 -0.8698 -2.0380
 2437SOL     OW18943   0.464   3.877   2.855  0.2924  0.1930  0.0001
 2437SOL    HW118944   0.544   3.849   2.899  0.1076  0.6495  0.6325
 2437SOL    HW218945   0.395   3.839   2.909 -0.2715  0.8341 -0.2564
 2438SOL     OW18946   1.677   2.513   1.714  0.1351  0.5739  0.1520
 2438SOL    HW118947   1.619   2.477   1.781  0.7045 -0.0644  0.2990
 2438SOL    HW218948   1.763   2.507   1.754  0.3694 -1.7285 -0.6821
 2439SOL     OW18949   1.694   1.858   3.709 -0.2366 -0.1209  0.0877
 2439SOL    HW118950   1.760   1.817   3.763 -0.5505 -0.7017  0.0289
 2439SOL    HW218951   1.735   1.860   3.622  0.9235 -1.5614  0.6061
 2440SOL     OW18952   1.491   3.247   2.540  0.2747 -0.3712 -0.1700
 2440SOL    HW118953   1.506   3.296   2.459 -0.8766  1.3833  0.6852
 2440SOL    HW218954   1.436   3.309   2.587  1.5759  0.4859  0.1987
 2441SOL     OW18955   1.414   1.825  16.137  0.0287  0.2171 -0.2769
 2441SOL    HW118956   1.341   1.821  16.199  2.0325 -0.9032  2.0055
 2441SOL    HW218957   1.391   1.767  16.065  0.3799  0.3361 -0.4838
 2442SOL     OW18958   3.912   0.308  17.344 -0.0674 -0.0701 -0.0496
 2442SOL    HW118959   3.990   0.354  17.374 -1.1406  0.4686  1.8967
 2442SOL    HW218960   3.900   0.245  17.415 -1.3312  0.3431  0.0949
 2443SOL     OW18961   2.127   3.832   5.526  0.3609  0.3621 -0.2251
 2443SOL    HW118962   2.173   3.750   5.511  1.9135  1.3214 -0.6891
 2443SOL    HW218963   2.167   3.861   5.608  2.4091  2.1293 -1.8339
 2444SOL     OW18964   3.350   1.454  10.472  0.5204  0.4028  0.2777
 2444SOL    HW118965   3.374   1.450  10.380 -1.7802  1.7171 -0.3448
 2444SOL    HW218966   3.290   1.528  10.482 -0.0592 -0.1103  0.6372
 2445SOL     OW18967   3.277   4.692  15.331 -0.4756 -0.5337 -0.3453
 2445SOL    HW118968   3.242   0.007  15.257  1.3084  2.2078  0.6360
 2445SOL    HW218969   3.353   4.660  15.283 -1.5537 -1.7991 -1.1947
 2446SOL     OW18970   3.505   3.969   9.768  0.0690 -0.2932  0.3008
 2446SOL    HW118971   3.468   3.881   9.758 -2.8792  1.1285 -1.1813
 2446SOL    HW218972   3.597   3.941   9.771  0.6824  1.6822 -0.3875
 2447SOL     OW18973   3.857   2.792   2.193 -0.5966  0.2609 -0.0341
 2447SOL    HW118974   3.837   2.720   2.133 -2.7451  0.6559  0.2083
 2447SOL    HW218975   3.781   2.802   2.250 -0.0128 -0.6881  0.8967
 2448SOL     OW18976   0.619   3.008  14.332 -0.4031  0.2541 -0.2818
 2448SOL    HW118977   0.600   2.941  14.397 -1.9299 -1.7195 -2.7668
 2448SOL    HW218978   0.577   2.974  14.254 -0.0702  0.4938 -0.5691
 2449SOL     OW18979   4.177   2.097   8.673  0.2842  0.3906  0.1385
 2449SOL    HW118980   4.150   2.177   8.719  0.9633 -0.3892  1.8645
 2449SOL    HW218981   4.217   2.052   8.746  0.4156  1.3424  0.6562
 2450SOL     OW18982   3.419   4.617   7.493 -0.1746 -0.1356  0.0048
 2450SOL    HW118983   3.332   4.655   7.479  0.5408  1.3135 -0.5936
 2450SOL    HW218984   3.404   4.540   7.548  0.2678 -1.1064 -1.2464
 2451SOL     OW18985   1.926   2.228   4.058  0.0412 -0.3064 -0.2978
 2451SOL    HW118986   1.885   2.175   3.990 -1.0784 -1.9695  1.6631
 2451SOL    HW218987   1.940   2.157   4.121 -2.6302 -1.2613 -0.7749
 2452SOL     OW18988   0.814   4.276   7.828 -0.5437  0.0495 -0.3423
 2452SOL    HW118989   0.796   4.234   7.912  0.1061 -2.4277 -1.4479
 2452SOL    HW218990   0.738   4.333   7.814 -0.2379  0.4630 -0.3496
 2453SOL     OW18991   0.632   3.186   6.177  0.5676  0.0959  0.2993
 2453SOL    HW118992   0.676   3.185   6.092  1.1122 -0.6753  0.5869
 2453SOL    HW218993   0.580   3.264   6.158  0.1540 -0.3167 -0.2525
 2454SOL     OW18994   1.519   4.367   4.739  0.4896 -0.4452 -0.4144
 2454SOL    HW118995   1.600   4.330   4.704  2.0853  4.1081 -1.6537
 2454SOL    HW218996   1.454   4.314   4.695  0.2799  0.4319 -1.1760
 2455SOL     OW18997   4.055   3.541   8.280  0.4240  0.6783  0.3729
 2455SOL    HW118998   4.020   3.532   8.191 -0.5060 -0.9964  0.9134
 2455SOL    HW218999   3.979   3.575   8.328 -0.2715  0.5084 -0.5812
 2456SOL     OW19000   1.879   3.069  16.693 -0.4736  0.0347  0.2228
 2456SOL    HW119001   1.913   3.047  16.780  1.7801  0.0063 -0.6672
 2456SOL    HW219002   1.843   2.983  16.672  0.4370 -0.3116  0.1010
 2457SOL     OW19003   4.325   4.561   3.104  0.1488 -0.0275  0.5560
 2457SOL    HW119004   4.365   4.495   3.048  0.8346 -1.4123  2.6909
 2457SOL    HW219005   4.272   4.500   3.154 -0.5731 -1.2480 -1.7285
 2458SOL     OW19006   1.353   3.867   7.512  0.0200 -0.1774 -0.6479
 2458SOL    HW119007   1.363   3.826   7.426  0.4089 -0.0401 -0.6653
 2458SOL    HW219008   1.434   3.916   7.525 -0.8654  1.1124 -0.0710
 2459SOL     OW19009   2.903   2.365   2.484 -1.1080  0.1157 -0.4148
 2459SOL    HW119010   2.877   2.293   2.541 -0.2430 -0.8437 -1.2233
 2459SOL    HW219011   2.968   2.325   2.426 -0.5369  3.8674 -2.3499
 2460SOL     OW19012   0.679   4.018   9.195 -0.1175 -0.7292 -0.3853
 2460SOL    HW119013   0.756   3.993   9.143 -0.8085 -2.6854 -0.4589
 2460SOL    HW219014   0.652   4.095   9.145 -0.7348 -0.1857  0.7828
 2461SOL     OW19015   2.866   3.710   8.165 -0.6340  0.7998 -0.0554
 2461SOL    HW119016   2.943   3.765   8.152  0.2199 -1.0788 -2.9209
 2461SOL    HW219017   2.902   3.629   8.202 -2.2462  0.5305  0.9426
 2462SOL     OW19018   2.399   1.043   0.894  0.4175  0.0159 -0.3566
 2462SOL    HW119019   2.466   1.042   0.826 -0.2899  2.4113 -1.0986
 2462SOL    HW219020   2.378   1.136   0.900  0.2384  0.1519 -3.1724
 2463SOL     OW19021   4.302   2.000   2.191  0.3627 -0.2877  0.1482
 2463SOL    HW119022   4.370   2.021   2.128 -2.9660  2.4406 -2.5321
 2463SOL    HW219023   4.306   2.074   2.252 -2.5980 -0.3651  0.4258
 2464SOL     OW19024   2.894   4.454   9.601 -0.3296  0.7094  0.1323
 2464SOL    HW119025   2.944   4.388   9.648 -2.0568 -0.4153  0.3975
 2464SOL    HW219026   2.880   4.513   9.675  0.4757 -2.7193  3.0310
 2465SOL     OW19027   0.290   0.702   7.394  0.2223  0.5787 -0.3378
 2465SOL    HW119028   0.351   0.641   7.352  3.3893  1.5736  2.7465
 2465SOL    HW219029   0.328   0.699   7.482 -0.6269  0.1180  0.0096
 2466SOL     OW19030   1.536   3.939   0.434  0.2984  0.2486 -0.1563
 2466SOL    HW119031   1.446   3.908   0.418  0.3502 -0.1293  0.2782
 2466SOL    HW219032   1.547   3.923   0.528  0.9472 -1.3325 -0.5104
 2467SOL     OW19033   3.166   2.952  12.364  0.7924  0.0180  0.4996
 2467SOL    HW119034   3.168   2.861  12.393 -0.7892 -0.6260 -1.4380
 2467SOL    HW219035   3.180   3.003  12.444  0.9912 -0.6540  0.8885
 2468SOL     OW19036   2.932   0.268   1.757  0.7923  0.3691 -0.1169
 2468SOL    HW119037   2.983   0.331   1.808  0.1526  1.1579 -0.4473
 2468SOL    HW219038   2.843   0.303   1.767  0.3891 -0.3644 -1.0847
 2469SOL     OW19039   0.979   0.020   6.372 -0.1221 -0.1557 -0.0381
 2469SOL    HW119040   1.005   0.087   6.436 -2.0681  0.7950 -0.2500
 2469SOL    HW219041   0.997   0.067   6.290 -1.2893 -0.6609 -0.5731
 2470SOL     OW19042   2.238   0.866   5.738 -0.1137 -0.5551 -0.0974
 2470SOL    HW119043   2.232   0.773   5.716 -0.4197 -0.2903 -1.1329
 2470SOL    HW219044   2.187   0.886   5.817  0.1419  0.2070 -0.1210
 2471SOL     OW19045   0.702   2.928  10.045  0.0061  0.5744 -0.1388
 2471SOL    HW119046   0.698   2.835  10.064 -3.1344  0.3743 -1.9377
 2471SOL    HW219047   0.765   2.944   9.974  2.3514 -1.8126  1.4250
 2472SOL     OW19048   2.155   2.479   0.635  0.3827  0.2852  0.1141
 2472SOL    HW119049   2.237   2.437   0.663 -0.2373 -1.1378 -0.1730
 2472SOL    HW219050   2.175   2.517   0.549 -2.0475  0.7720 -0.2224
 2473SOL     OW19051   0.621   1.995  11.626 -0.3521 -0.7271  0.1345
 2473SOL    HW119052   0.613   1.983  11.531 -0.4149 -0.0286  0.0495
 2473SOL    HW219053   0.662   2.082  11.620  0.2985 -0.9449  1.3501
 2474SOL     OW19054   4.234   4.468   4.764 -0.0974 -0.0193 -0.1294
 2474SOL    HW119055   4.261   4.376   4.758 -2.5322 -0.9635  3.1310
 2474SOL    HW219056   4.303   4.507   4.817  0.5679 -1.0669 -0.2130
 2475SOL     OW19057   3.341   0.797  13.779 -0.4879  0.4669  0.2642
 2475SOL    HW119058   3.349   0.868  13.843  1.7949 -0.2976  0.8215
 2475SOL    HW219059   3.266   0.836  13.734  1.2963  1.9574 -1.4604
 2476SOL     OW19060   0.710   2.943   5.648 -0.2101 -0.0043 -0.0942
 2476SOL    HW119061   0.684   2.852   5.638  0.9283 -0.3859  0.4814
 2476SOL    HW219062   0.634   2.994   5.677  0.1764  0.4388  0.1383
 2477SOL     OW19063   0.946   1.293   2.930  0.0268  0.4102  0.1643
 2477SOL    HW119064   0.893   1.315   3.006  1.1944  1.9270  0.5579
 2477SOL    HW219065   0.946   1.198   2.937 -0.0267  0.5382  1.9148
 2478SOL     OW19066   2.771   4.625  17.054  0.6256  0.1177 -0.3035
 2478SOL    HW119067   2.688   4.673  17.057 -0.1097 -1.1710 -0.1276
 2478SOL    HW219068   2.744   4.546  17.102  0.4101  1.2576  1.4462
 2479SOL     OW19069   1.967   2.577   4.461 -0.1124  0.1282  0.4652
 2479SOL    HW119070   1.921   2.660   4.449  1.8636  1.0721 -0.5543
 2479SOL    HW219071   1.927   2.531   4.388  0.0788 -1.1769  1.1768
 2480SOL     OW19072   0.146   3.092  17.443 -0.0048  0.1837  0.2490
 2480SOL    HW119073   0.168   3.139  17.363  0.4568 -3.0429 -1.5125
 2480SOL    HW219074   0.172   3.155  17.509  0.9896 -0.4146  0.4253
 2481SOL     OW19075   2.801   4.690   6.458 -0.0636  0.2847 -0.2699
 2481SOL    HW119076   2.859   0.031   6.453  2.0645 -1.3641 -0.2808
 2481SOL    HW219077   2.819   4.656   6.370 -1.0357 -2.9167  0.7470
 2482SOL     OW19078   0.237   2.907  17.034  0.1909 -0.5622 -0.1771
 2482SOL    HW119079   0.166   2.922  17.097 -0.4679 -0.7131 -0.8901
 2482SOL    HW219080   0.315   2.944  17.075 -0.7890  0.3440  0.8842
 2483SOL     OW19081   4.212   3.836   6.187  0.1307  0.8101  0.6356
 2483SOL    HW119082   4.248   3.790   6.263  0.8669  0.3133 -0.0083
 2483SOL    HW219083   4.159   3.901   6.232 -3.1823 -2.0050  0.8144
 2484SOL     OW19084   0.817   1.413   9.047  0.7943  0.1685  0.2836
 2484SOL    HW119085   0.897   1.459   9.075  0.4733  1.2510 -0.5600
 2484SOL    HW219086   0.852   1.386   8.962  1.1473 -0.3619  0.5986
 2485SOL     OW19087   1.095   0.433   8.334  0.3412  0.4130 -0.4697
 2485SOL    HW119088   1.118   0.483   8.413 -0.2637 -0.6378  0.3682
 2485SOL    HW219089   1.117   0.344   8.361 -2.0202  0.8197  2.7835
 2486SOL     OW19090   2.791   1.574   4.446 -0.1151 -0.0677 -0.0787
 2486SOL    HW119091   2.711   1.597   4.398 -0.5628  1.1484  1.2570
 2486SOL    HW219092   2.842   1.541   4.372  0.7044  1.0482 -0.0008
 2487SOL     OW19093   3.739   3.833   9.791  0.0047 -0.3037  0.2021
 2487SOL    HW119094   3.803   3.883   9.740 -0.1885  0.9874  1.2157
 2487SOL    HW219095   3.800   3.768   9.826 -0.2049 -1.0350 -0.8151
 2488SOL     OW19096   2.210   1.818   4.325 -0.0962 -0.0354  0.3178
 2488SOL    HW119097   2.150   1.848   4.393 -2.2325 -1.4044 -0.9631
 2488SOL    HW219098   2.278   1.886   4.329 -1.0308  0.9159 -0.0697
 2489SOL     OW19099   2.459   1.640   1.991 -0.1734  0.0852 -0.4585
 2489SOL    HW119100   2.426   1.722   1.955  0.7192 -0.6004 -2.8684
 2489SOL    HW219101   2.537   1.631   1.936  1.6320 -1.7595  2.4216
 2490SOL     OW19102   2.386   2.325  17.087 -0.0324 -0.2932 -0.3669
 2490SOL    HW119103   2.440   2.403  17.088 -1.7575  0.8581  1.8089
 2490SOL    HW219104   2.383   2.303  17.180  1.8657  1.0068 -0.0122
 2491SOL     OW19105   2.285   1.509  13.410 -0.0459  0.0397 -0.0146
 2491SOL    HW119106   2.252   1.465  13.488  0.0794 -0.1916 -0.0922
 2491SOL    HW219107   2.373   1.526  13.442 -0.8159  1.4116  1.3387
 2492SOL     OW19108   1.685   1.554   7.172 -0.5612 -0.2214 -0.6044
 2492SOL    HW119109   1.662   1.461   7.178  0.5768 -0.4896 -0.4952
 2492SOL    HW219110   1.779   1.555   7.190 -1.1803 -0.7155  2.6362
 2493SOL     OW19111   1.934   1.599  10.963  0.0575 -0.2680  0.3863
 2493SOL    HW119112   1.973   1.687  10.957  0.8309 -0.6075  0.4023
 2493SOL    HW219113   1.993   1.536  10.922 -0.6784 -1.2514  0.8377
 2494SOL     OW19114   4.275   4.609   8.956 -0.2765 -0.3722 -0.3235
 2494SOL    HW119115   4.213   4.595   8.885 -0.5476 -0.6300 -0.0336
 2494SOL    HW219116   4.255   4.535   9.013  0.3984  0.0714  0.5006
 2495SOL     OW19117   2.479   2.035   8.839 -0.0866 -0.7613 -0.2797
 2495SOL    HW119118   2.541   2.095   8.881 -0.6037 -0.8204  0.5676
 2495SOL    HW219119   2.505   2.041   8.747 -1.8638 -1.5096 -0.8185
 2496SOL     OW19120   2.306   0.217   5.629  0.4120 -1.0403  0.0964
 2496SOL    HW119121   2.237   0.259   5.578  1.2524 -2.5227 -2.2788
 2496SOL    HW219122   2.327   0.143   5.572  1.0937 -1.2228  0.5843
 2497SOL     OW19123   1.602   3.894   3.430 -0.0840  0.3028 -0.4766
 2497SOL    HW119124   1.508   3.911   3.428  0.1817  1.6011 -2.6173
 2497SOL    HW219125   1.618   3.945   3.350 -0.7234  0.1757 -0.6858
 2498SOL     OW19126   0.767   0.565   8.846  0.0903 -0.0145 -0.0350
 2498SOL    HW119127   0.711   0.603   8.778  0.2122 -0.1010 -0.1852
 2498SOL    HW219128   0.852   0.567   8.802  0.1351 -3.3682 -0.1121
 2499SOL     OW19129   0.760   4.394   8.402 -0.2551 -0.0803  0.3907
 2499SOL    HW119130   0.682   4.351   8.368 -0.1691  0.7829 -0.8931
 2499SOL    HW219131   0.801   4.423   8.321  0.3221  0.4025  0.8514
 2500SOL     OW19132   0.124   1.158   7.524 -0.0582 -0.0691  0.4589
 2500SOL    HW119133   0.139   1.109   7.443  1.2692  0.6720  0.2655
 2500SOL    HW219134   0.184   1.107   7.577 -2.0836 -3.1234 -0.1548
 2501SOL     OW19135   0.740   2.421   5.614 -0.5990 -0.0851  0.7144
 2501SOL    HW119136   0.793   2.436   5.692  1.6766 -1.7069 -0.5416
 2501SOL    HW219137   0.678   2.357   5.648 -0.5917  0.1170  1.1106
 2502SOL     OW19138   3.751   2.847   7.383 -0.3390 -0.4343 -0.1980
 2502SOL    HW119139   3.836   2.860   7.425  0.1964  1.3598 -1.7909
 2502SOL    HW219140   3.749   2.933   7.340 -2.0690 -0.7007 -0.6429
 2503SOL     OW19141   1.202   3.393   1.883 -0.2990  0.5656 -0.4335
 2503SOL    HW119142   1.218   3.424   1.972 -0.8111 -0.6744  0.0903
 2503SOL    HW219143   1.258   3.458   1.841  2.7942 -2.4810 -0.9592
 2504SOL     OW19144   2.341   4.014   3.879  0.2703  0.2299 -0.0315
 2504SOL    HW119145   2.375   4.025   3.790  4.6770  2.1292  1.9341
 2504SOL    HW219146   2.283   4.089   3.891 -0.3513 -0.0922 -0.9526
 2505SOL     OW19147   0.336   1.949   4.840  0.5908 -0.1948 -0.4058
 2505SOL    HW119148   0.405   1.883   4.834 -0.2469 -1.2690  1.6478
 2505SOL    HW219149   0.300   1.935   4.928  0.2928  1.2903 -0.2998
 2506SOL     OW19150   2.577   3.487  16.302  0.1227  0.5100  0.1949
 2506SOL    HW119151   2.524   3.509  16.378 -2.2457  0.4884 -1.4415
 2506SOL    HW219152   2.648   3.440  16.345 -1.1654  0.4738  2.2846
 2507SOL     OW19153   4.220   1.761   9.468 -0.3591 -0.1529  0.1360
 2507SOL    HW119154   4.301   1.778   9.419  0.3004 -1.9235  0.5871
 2507SOL    HW219155   4.153   1.789   9.406 -1.3628 -1.7952  0.4644
 2508SOL     OW19156   3.471   2.699  12.331 -0.2498  0.2404  0.8622
 2508SOL    HW119157   3.521   2.620  12.313 -0.1515  0.3873  0.4964
 2508SOL    HW219158   3.380   2.680  12.307  0.4331  0.7329 -2.0106
 2509SOL     OW19159   3.223   1.128  14.535 -0.2813 -0.0811  0.5291
 2509SOL    HW119160   3.306   1.132  14.487  0.0910 -0.2954  1.1481
 2509SOL    HW219161   3.206   1.035  14.550 -2.6880  0.1536 -0.8587
 2510SOL     OW19162   4.278   3.984   9.938  0.2885  0.0873 -0.0447
 2510SOL    HW119163   4.329   3.913   9.976 -0.9033  0.5102  2.3160
 2510SOL    HW219164   4.233   3.936   9.868 -0.7584  1.2948 -0.2030
 2511SOL     OW19165   3.087   0.433  16.591  0.3627  0.6195  0.5903
 2511SOL    HW119166   3.126   0.387  16.665 -1.6909  3.0391  3.2046
 2511SOL    HW219167   3.146   0.416  16.518  1.3652 -0.2148  1.6000
 2512SOL     OW19168   1.559   1.499   2.347  0.0035 -0.2716 -0.2353
 2512SOL    HW119169   1.584   1.591   2.358 -0.3444  0.1533 -3.0625
 2512SOL    HW219170   1.571   1.489   2.253 -0.0831 -0.0203 -0.2718
 2513SOL     OW19171   1.755   3.531  11.868 -0.6369  0.2484 -0.2254
 2513SOL    HW119172   1.680   3.538  11.809 -0.9004 -1.4947 -0.1146
 2513SOL    HW219173   1.755   3.620  11.901 -0.5697 -0.0411  0.5479
 2514SOL     OW19174   4.654   2.011  16.635 -0.4359 -0.0657 -0.1442
 2514SOL    HW119175   4.649   2.042  16.544  0.4225 -2.6175 -1.0759
 2514SOL    HW219176   4.670   2.089  16.688  1.0461 -2.0167  2.2929
 2515SOL     OW19177   3.464   1.340   3.265 -0.2551  0.0332 -0.2101
 2515SOL    HW119178   3.543   1.288   3.283 -0.6428 -0.0690  1.1883
 2515SOL    HW219179   3.486   1.353   3.173 -0.7508 -0.9494 -0.4695
 2516SOL     OW19180   0.744   2.427   9.865  0.4351  0.0053  0.2772
 2516SOL    HW119181   0.691   2.356   9.831  1.0820  0.3026 -1.3534
 2516SOL    HW219182   0.826   2.431   9.815 -0.9110  0.1290 -1.8907
 2517SOL     OW19183   2.838   1.552   5.595 -0.2018 -0.0387  0.4602
 2517SOL    HW119184   2.869   1.583   5.680 -0.7435  0.2501  0.5533
 2517SOL    HW219185   2.843   1.457   5.600 -0.2958 -0.0989 -0.6235
 2518SOL     OW19186   4.000   2.865   1.701  0.0036 -0.4242 -0.0688
 2518SOL    HW119187   4.053   2.938   1.733  0.8315 -0.8573 -0.4308
 2518SOL    HW219188   3.909   2.893   1.709  0.4214  1.1064 -0.6633
 2519SOL     OW19189   2.265   4.463  17.139  0.0985  0.1816 -0.2719
 2519SOL    HW119190   2.299   4.548  17.169  1.6663 -0.4644 -0.2140
 2519SOL    HW219191   2.243   4.420  17.222  1.5507  0.9067  0.4982
 2520SOL     OW19192   0.931   3.128   4.368 -0.3472 -0.1662  0.0404
 2520SOL    HW119193   0.891   3.152   4.451  2.6004 -2.0914  2.0171
 2520SOL    HW219194   0.850   3.136   4.317  0.4982  2.2113 -0.9656
 2521SOL     OW19195   3.018   0.791   6.650  0.1977 -0.0931  0.3338
 2521SOL    HW119196   3.104   0.776   6.611  0.9679  0.0204  1.9939
 2521SOL    HW219197   3.027   0.768   6.743 -1.4128 -1.4821  0.1374
 2522SOL     OW19198   2.055   4.135   4.976  0.5795 -0.2343  0.7396
 2522SOL    HW119199   2.111   4.179   5.039 -0.1290  5.1427 -2.3684
 2522SOL    HW219200   1.971   4.167   5.009  0.0713 -0.9156  0.1067
 2523SOL     OW19201   3.769   4.098  13.903  0.4478  0.0699  0.2844
 2523SOL    HW119202   3.811   4.051  13.974  1.4267 -0.0919 -0.3905
 2523SOL    HW219203   3.741   4.028  13.844  1.4923  0.2495 -0.4438
 2524SOL     OW19204   1.356   1.389   7.029 -0.1784  0.3300  0.6386
 2524SOL    HW119205   1.291   1.365   6.963 -0.0449  0.7325  0.3553
 2524SOL    HW219206   1.435   1.348   6.993 -1.1051  2.8060 -4.1990
 2525SOL     OW19207   1.063   1.410   7.714  0.2103  0.0019 -0.2906
 2525SOL    HW119208   1.029   1.430   7.801 -1.5820  1.0907 -1.2379
 2525SOL    HW219209   1.158   1.416   7.726  0.6833 -2.7134 -2.6088
 2526SOL     OW19210   1.187   1.880   3.368  0.2251 -0.1686  0.0602
 2526SOL    HW119211   1.206   1.974   3.373  2.1070 -0.4583 -1.3172
 2526SOL    HW219212   1.278   1.848   3.362  0.4834  1.0932 -2.9306
 2527SOL     OW19213   1.084   2.674  11.577  0.4404  0.1665  0.4794
 2527SOL    HW119214   1.074   2.721  11.494  0.8962 -1.2018 -0.3388
 2527SOL    HW219215   1.172   2.642  11.557  0.3222 -0.1288  0.4319
 2528SOL     OW19216   2.582   0.162   3.083 -0.0484 -0.5493  0.5350
 2528SOL    HW119217   2.559   0.256   3.081 -2.4565 -1.1333 -0.1461
 2528SOL    HW219218   2.671   0.183   3.056 -1.0805  1.0446 -1.7440
 2529SOL     OW19219   2.580   4.439   7.600  0.7581 -0.0855  0.7130
 2529SOL    HW119220   2.562   4.500   7.672 -0.2342  0.8762 -0.3343
 2529SOL    HW219221   2.497   4.392   7.593  1.2224 -0.1316 -4.5063
 2530SOL     OW19222   3.783   1.728   5.442 -0.5299  0.2730 -0.0739
 2530SOL    HW119223   3.754   1.710   5.353  3.3228 -0.9634 -1.0955
 2530SOL    HW219224   3.879   1.732   5.436 -0.4774 -0.6511  0.0818
 2531SOL     OW19225   4.081   1.362   4.316 -0.1657  0.0745  0.0937
 2531SOL    HW119226   4.158   1.307   4.301  0.4802  1.0083 -0.0474
 2531SOL    HW219227   4.028   1.314   4.379 -0.1187 -0.6766 -0.4452
 2532SOL     OW19228   2.163   0.238   7.439 -0.2849 -0.2096 -0.1326
 2532SOL    HW119229   2.249   0.259   7.403 -0.0910 -1.0554 -0.1543
 2532SOL    HW219230   2.133   0.325   7.464 -0.0132  0.5552 -2.4238
 2533SOL     OW19231   4.673   4.612   2.703 -0.1059 -0.2074  0.2533
 2533SOL    HW119232   0.007   4.569   2.650 -1.3049 -0.4602 -1.0560
 2533SOL    HW219233   4.656   4.556   2.779 -0.7028  2.7992  2.3311
 2534SOL     OW19234   3.817   3.615   8.357  0.0590  0.0080 -0.5292
 2534SOL    HW119235   3.759   3.549   8.320 -1.7444 -0.2918  2.8677
 2534SOL    HW219236   3.810   3.686   8.292  0.2652  0.6922  0.1922
 2535SOL     OW19237   2.538   2.252  14.830 -0.3656  0.6865 -0.2691
 2535SOL    HW119238   2.583   2.172  14.856  0.9474  1.0037 -1.5695
 2535SOL    HW219239   2.495   2.277  14.912  0.7249  1.0776  0.1857
 2536SOL     OW19240   4.611   3.093   5.923 -0.3350  0.0276  0.5124
 2536SOL    HW119241   4.526   3.085   5.967 -0.1722 -0.6568  0.7012
 2536SOL    HW219242   4.626   3.187   5.924 -1.1333  0.1962 -2.0433
 2537SOL     OW19243   4.262   2.638  16.799  0.5187 -0.3828  0.1138
 2537SOL    HW119244   4.329   2.575  16.771 -2.4020 -2.8670 -1.2746
 2537SOL    HW219245   4.197   2.643  16.729  0.3627  1.5239  0.4018
 2538SOL     OW19246   3.568   0.520   5.372 -0.4710  0.0076  0.1753
 2538SOL    HW119247   3.625   0.450   5.339  1.3159  1.9182 -0.7774
 2538SOL    HW219248   3.491   0.466   5.386 -1.0041  0.3925 -1.3181
 2539SOL     OW19249   1.009   0.351   8.641  0.0356  0.4361 -0.2123
 2539SOL    HW119250   0.959   0.291   8.696 -0.2300  0.5938 -0.2822
 2539SOL    HW219251   1.094   0.326   8.675  0.0826 -2.3776 -2.3957
 2540SOL     OW19252   4.359   3.254   4.875 -0.2788 -0.2858 -0.0257
 2540SOL    HW119253   4.287   3.204   4.913  1.6617 -3.4144 -0.4779
 2540SOL    HW219254   4.416   3.178   4.873  1.5647  1.0773  1.2062
 2541SOL     OW19255   2.459   4.590  12.580  0.0787  0.2650  0.2075
 2541SOL    HW119256   2.480   4.523  12.645  0.6165  2.0156  1.8506
 2541SOL    HW219257   2.538   4.644  12.576 -0.2230  0.5720 -1.8125
 2542SOL     OW19258   3.465   0.959   4.347 -0.0335 -0.1813 -0.6909
 2542SOL    HW119259   3.382   0.990   4.310 -0.5547 -0.5237  0.2108
 2542SOL    HW219260   3.453   0.994   4.435 -0.4847 -1.6451 -0.1803
 2543SOL     OW19261   3.688   1.377   4.238  0.2284 -0.0931 -0.3365
 2543SOL    HW119262   3.679   1.381   4.333 -2.7081 -3.0278 -0.4410
 2543SOL    HW219263   3.695   1.283   4.221 -2.2656 -0.2451 -0.5212
 2544SOL     OW19264   3.564   1.382   8.600  0.4525 -1.0343 -0.1985
 2544SOL    HW119265   3.602   1.337   8.525  0.0155 -0.0074 -1.0246
 2544SOL    HW219266   3.520   1.312   8.649 -0.0519 -1.0134 -0.6227
 2545SOL     OW19267   4.268   1.732   1.668 -0.7571  0.2397 -0.1219
 2545SOL    HW119268   4.281   1.640   1.643 -1.8231 -0.6556  2.6534
 2545SOL    HW219269   4.205   1.755   1.601  0.1726  0.8744 -0.7829
 2546SOL     OW19270   1.044   2.247   6.307 -0.1693  0.3719  0.2090
 2546SOL    HW119271   1.102   2.323   6.317 -0.7888  0.6277  1.9923
 2546SOL    HW219272   1.010   2.229   6.395  1.7005 -2.4615  0.3780
 2547SOL     OW19273   4.420   0.526  16.138 -0.4302  0.4324  0.1559
 2547SOL    HW119274   4.393   0.460  16.202  0.2840 -0.2859 -0.2783
 2547SOL    HW219275   4.514   0.511  16.147 -0.2776 -0.1723 -2.6728
 2548SOL     OW19276   0.461   4.703   7.469  0.4822 -0.0063 -0.4755
 2548SOL    HW119277   0.399   4.686   7.398 -0.6702 -1.0784  0.7874
 2548SOL    HW219278   0.485   4.617   7.503  1.8468 -0.1663 -1.8505
 2549SOL     OW19279   3.513   3.403   5.708  0.0906  0.4232  0.1296
 2549SOL    HW119280   3.513   3.434   5.799  1.2806  2.2212 -0.4862
 2549SOL    HW219281   3.526   3.312   5.734 -1.3311  0.0621 -0.4861
 2550SOL     OW19282   3.194   0.430  10.038  0.7532 -0.6305 -0.2343
 2550SOL    HW119283   3.285   0.430  10.066  1.0794 -2.0178 -1.2622
 2550SOL    HW219284   3.177   0.512   9.992  1.0668 -1.0809 -1.1504
 2551SOL     OW19285   1.553   1.568   2.071 -0.0311 -0.3622 -0.5106
 2551SOL    HW119286   1.612   1.589   1.998 -0.9686 -0.7445 -1.3835
 2551SOL    HW219287   1.546   1.660   2.096 -0.4717 -0.8989  1.3335
 2552SOL     OW19288   4.254   0.451   3.487  0.4982  0.3186  0.2241
 2552SOL    HW119289   4.232   0.528   3.434 -0.6316  0.8778  1.5130
 2552SOL    HW219290   4.304   0.489   3.559  1.3518  2.3700 -1.4401
 2553SOL     OW19291   1.083   4.417  12.983 -0.1543 -0.2703  0.1660
 2553SOL    HW119292   1.083   4.327  12.950 -1.4413  0.4811 -1.9527
 2553SOL    HW219293   0.993   4.435  13.013 -0.4472  0.0886 -0.9228
 2554SOL     OW19294   1.860   3.805   3.457  0.1953  0.2546 -0.2823
 2554SOL    HW119295   1.850   3.801   3.553  1.5386 -1.5957 -0.2089
 2554SOL    HW219296   1.784   3.855   3.429 -0.0057  0.4232  0.5452
 2555SOL     OW19297   3.849   1.921   6.743  0.4813  0.2138  0.5418
 2555SOL    HW119298   3.813   2.010   6.740 -0.2732 -0.1454 -0.6591
 2555SOL    HW219299   3.855   1.901   6.837 -0.7604 -1.0667  0.3512
 2556SOL     OW19300   1.076   0.780  13.999 -0.5572  0.5121  0.1985
 2556SOL    HW119301   1.105   0.721  13.929 -3.3017  0.2060 -0.6612
 2556SOL    HW219302   1.162   0.794  14.039 -0.1463  0.7493 -0.7426
 2557SOL     OW19303   1.551   1.350   6.692 -0.6962 -0.0994  0.8663
 2557SOL    HW119304   1.529   1.271   6.741 -0.2661  0.5169  2.0549
 2557SOL    HW219305   1.467   1.370   6.652 -0.1060  2.5692  0.9240
 2558SOL     OW19306   2.854   2.219   7.981 -0.2899  0.5126  0.7049
 2558SOL    HW119307   2.878   2.128   7.964  0.1816  1.0746 -1.6262
 2558SOL    HW219308   2.763   2.228   7.952  0.6140  0.2898 -2.2087
 2559SOL     OW19309   1.494   3.115  12.721 -0.3579  0.4009  0.1136
 2559SOL    HW119310   1.523   3.205  12.737  1.6652  0.2948 -2.7954
 2559SOL    HW219311   1.465   3.128  12.630  1.3032 -1.9959 -0.7580
 2560SOL     OW19312   0.089   3.172   3.295  0.5573  0.1160 -0.0705
 2560SOL    HW119313   0.064   3.115   3.222  1.3224 -1.6731  1.0499
 2560SOL    HW219314   0.045   3.256   3.284  0.8138  0.3186  0.4415
 2561SOL     OW19315   2.163   0.118   6.159  0.2648  0.1718  0.0382
 2561SOL    HW119316   2.105   0.152   6.227  1.8977 -3.3099  3.1648
 2561SOL    HW219317   2.106   0.059   6.108 -2.0336  3.1513 -0.8423
 2562SOL     OW19318   2.293   0.405   0.431 -0.4232 -0.4671 -0.4497
 2562SOL    HW119319   2.272   0.357   0.511 -1.7856 -1.2747 -1.2968
 2562SOL    HW219320   2.299   0.328   0.375  0.0735 -1.2139  0.6301
 2563SOL     OW19321   1.836   0.755   0.158 -0.5715 -0.2411 -0.5419
 2563SOL    HW119322   1.791   0.700   0.222 -0.9102 -0.2836 -0.8131
 2563SOL    HW219323   1.819   0.845   0.185  0.5666 -0.6284  1.4918
 2564SOL     OW19324   4.716   0.367   7.225 -0.1323 -0.1524  0.3737
 2564SOL    HW119325   4.708   0.462   7.234 -1.8462 -0.3278  0.6199
 2564SOL    HW219326   0.062   0.347   7.273  0.5994 -0.8494 -1.1276
 2565SOL     OW19327   0.771   4.086   2.182  0.3585 -0.4526 -0.4475
 2565SOL    HW119328   0.860   4.058   2.203  0.6468 -1.0098 -2.4005
 2565SOL    HW219329   0.729   4.015   2.230  1.2256  0.5182  1.7599
 2566SOL     OW19330   0.831   3.932   3.724 -0.2133  0.2622 -0.1922
 2566SOL    HW119331   0.819   4.004   3.661  2.2627  1.0567  0.2168
 2566SOL    HW219332   0.866   3.867   3.663 -1.3726 -1.6475  1.1793
 2567SOL     OW19333   0.849   0.665   5.517 -0.9071  0.1387 -0.5472
 2567SOL    HW119334   0.762   0.701   5.497 -0.3270  1.3134 -0.9288
 2567SOL    HW219335   0.905   0.670   5.440  0.6414  4.3164  0.8800
 2568SOL     OW19336   0.574   1.464  12.510  0.2321 -0.0743 -0.0221
 2568SOL    HW119337   0.528   1.384  12.535 -1.2817  0.0820 -2.2614
 2568SOL    HW219338   0.663   1.433  12.523  0.9842  1.1689 -2.2877
 2569SOL     OW19339   2.123   4.084   9.798 -0.3521  0.2628  0.0149
 2569SOL    HW119340   2.063   4.012   9.815 -0.7747  0.6310  0.0893
 2569SOL    HW219341   2.133   4.063   9.705  2.6523  2.6006 -0.1882
 2570SOL     OW19342   4.449   4.285   7.540 -0.4229 -0.7861 -0.1114
 2570SOL    HW119343   4.357   4.295   7.513 -0.6846 -0.8794  0.7490
 2570SOL    HW219344   4.478   4.377   7.540  2.6209 -1.7594  0.7311
 2571SOL     OW19345   2.235   0.409   1.726  0.5420 -0.3272  0.1349
 2571SOL    HW119346   2.252   0.463   1.650 -3.1755  0.2809 -0.2523
 2571SOL    HW219347   2.273   0.468   1.791  1.1497 -0.7853  0.1958
 2572SOL     OW19348   1.074   2.858   6.468  0.1278  0.1470 -0.1664
 2572SOL    HW119349   1.057   2.950   6.448  0.0485  0.4533  1.3123
 2572SOL    HW219350   1.169   2.861   6.479  0.0270 -1.8089  1.2404
 2573SOL     OW19351   1.278   2.769  10.407 -0.6715 -0.0035 -0.6375
 2573SOL    HW119352   1.334   2.751  10.331 -0.5674 -2.2816 -0.0293
 2573SOL    HW219353   1.199   2.717  10.389 -0.3517 -1.0438  1.0248
 2574SOL     OW19354   0.722   2.810   2.042 -0.0389  0.0101 -0.4426
 2574SOL    HW119355   0.664   2.851   2.107 -1.7942  1.5378 -2.9906
 2574SOL    HW219356   0.802   2.859   2.060  0.9158 -1.1745 -1.5131
 2575SOL     OW19357   1.271   2.018  15.423 -0.1023 -0.1955 -0.5935
 2575SOL    HW119358   1.285   1.979  15.509  2.8673  1.0102 -0.5342
 2575SOL    HW219359   1.334   1.964  15.376  1.1882  1.0052 -0.2553
 2576SOL     OW19360   2.553   2.564  10.760 -0.1591 -0.2399 -0.7835
 2576SOL    HW119361   2.517   2.572  10.848  0.5444  1.0581 -0.6194
 2576SOL    HW219362   2.643   2.543  10.784  0.4188  0.0753 -2.6515
 2577SOL     OW19363   3.218   2.858   1.052  0.7943 -0.1656  0.2983
 2577SOL    HW119364   3.308   2.867   1.084  0.8550 -2.9032  0.9424
 2577SOL    HW219365   3.190   2.948   1.069 -0.6823  0.0697 -3.4462
 2578SOL     OW19366   0.411   1.575  17.658 -0.1579 -0.5158 -0.0638
 2578SOL    HW119367   0.353   1.555  17.584  0.5857  1.7275 -1.2760
 2578SOL    HW219368   0.406   1.671  17.651 -0.7268 -0.4663  1.0347
 2579SOL     OW19369   3.649   2.050  12.084  0.7016 -0.0367 -0.0458
 2579SOL    HW119370   3.719   2.115  12.094  1.9284 -1.4008  0.1832
 2579SOL    HW219371   3.691   1.985  12.028 -0.9821 -0.8276 -0.3799
 2580SOL     OW19372   0.073   2.742   4.897  0.7286  0.2963  0.0081
 2580SOL    HW119373   0.146   2.799   4.872  0.5927 -0.2572 -1.6524
 2580SOL    HW219374   0.109   2.654   4.909  0.0104 -0.1204 -0.8818
 2581SOL     OW19375   4.092   3.597   3.577 -0.2456  0.0961  0.4831
 2581SOL    HW119376   4.100   3.513   3.622  1.5405 -0.1734 -0.3214
 2581SOL    HW219377   4.000   3.588   3.553  0.6618 -1.7189 -2.2544
 2582SOL     OW19378   4.108   4.030  17.024  0.0345 -0.4259 -0.2418
 2582SOL    HW119379   4.052   4.101  17.055  1.5075 -0.4452  2.4956
 2582SOL    HW219380   4.187   4.084  17.015 -1.9131  2.6519  1.0750
 2583SOL     OW19381   3.603   2.281   3.642  0.2250  0.0811  0.5999
 2583SOL    HW119382   3.550   2.342   3.694 -1.7726 -1.4901  0.4238
 2583SOL    HW219383   3.556   2.286   3.558  2.3867 -1.1559 -0.6816
 2584SOL     OW19384   1.703   4.051  15.538 -0.1561 -0.1431  0.0502
 2584SOL    HW119385   1.789   4.021  15.567 -0.3910  0.6697  1.6266
 2584SOL    HW219386   1.658   3.966  15.543  0.9198 -0.7380 -0.3799
 2585SOL     OW19387   3.660   3.653  17.560 -0.0430 -0.2236  1.0009
 2585SOL    HW119388   3.750   3.629  17.540 -0.7725 -0.2158 -2.2570
 2585SOL    HW219389   3.620   3.567  17.545  1.1547 -1.0061  2.3049
 2586SOL     OW19390   0.168   1.094   9.290  0.6175 -0.3839 -0.2568
 2586SOL    HW119391   0.140   1.160   9.227  1.0669 -1.2794 -1.4005
 2586SOL    HW219392   0.113   1.021   9.262  0.1507  0.0664 -0.5089
 2587SOL     OW19393   1.928   1.849   7.392 -0.2001 -0.0208 -0.4545
 2587SOL    HW119394   1.835   1.847   7.371 -0.0838  0.9735 -1.0862
 2587SOL    HW219395   1.926   1.861   7.487 -0.8242  0.9388 -0.5888
 2588SOL     OW19396   0.250   0.270   6.169  0.3659 -0.0585  0.1670
 2588SOL    HW119397   0.171   0.221   6.145  1.3106 -1.9611  0.9369
 2588SOL    HW219398   0.218   0.360   6.162  0.2521 -0.2408 -1.5701
 2589SOL     OW19399   1.194   1.092   3.086 -0.0769  0.0186  0.5914
 2589SOL    HW119400   1.163   1.109   3.175 -2.6648 -1.2966 -0.0598
 2589SOL    HW219401   1.113   1.061   3.047 -0.3695  2.3420 -0.5945
 2590SOL     OW19402   2.850   1.806   4.693  0.5058  0.1014 -0.3059
 2590SOL    HW119403   2.817   1.724   4.730  1.9924  0.7526  2.4207
 2590SOL    HW219404   2.806   1.873   4.744 -0.3714  0.9163 -2.1472
 2591SOL     OW19405   2.480   2.847  10.036 -0.2413  0.3830 -0.1739
 2591SOL    HW119406   2.439   2.933  10.039 -1.3449 -0.1419 -0.2011
 2591SOL    HW219407   2.424   2.807  10.103 -0.2222  0.8953  0.1435
 2592SOL     OW19408   0.551   3.123   7.751 -0.7147  0.4450 -0.4158
 2592SOL    HW119409   0.463   3.144   7.720 -0.8777 -2.1985 -1.7403
 2592SOL    HW219410   0.556   3.171   7.833  0.3144 -0.8224  0.2655
 2593SOL     OW19411   1.337   4.112   0.652 -0.2686  0.3401  0.0416
 2593SOL    HW119412   1.313   4.204   0.639  0.7427  0.2573 -2.2680
 2593SOL    HW219413   1.292   4.073   0.577 -0.4067  1.4255 -0.4310
 2594SOL     OW19414   2.521   1.827  17.381 -0.0196 -0.0716 -0.0459
 2594SOL    HW119415   2.604   1.868  17.356  0.5725  0.2804  2.4849
 2594SOL    HW219416   2.459   1.898  17.368 -0.2135 -0.4744 -1.3168
 2595SOL     OW19417   1.448   3.640   9.149 -0.2371 -0.0427 -0.3584
 2595SOL    HW119418   1.453   3.570   9.213  1.6810  0.9656  0.6210
 2595SOL    HW219419   1.526   3.693   9.166 -0.0553 -0.2417 -0.5878
 2596SOL     OW19420   4.023   3.134   5.977 -0.5715 -0.3193  0.2128
 2596SOL    HW119421   3.990   3.122   5.888 -1.9770 -0.6018  0.7795
 2596SOL    HW219422   4.001   3.053   6.022  0.5456  0.0915  1.5182
 2597SOL     OW19423   0.989   1.016   2.123  0.3542 -0.4183  0.0313
 2597SOL    HW119424   1.075   0.982   2.098  0.5481 -0.8415  1.2889
 2597SOL    HW219425   0.938   0.997   2.045 -0.0749 -0.8317  0.4153
 2598SOL     OW19426   2.102   4.002   3.523 -0.2245  0.8141 -0.4386
 2598SOL    HW119427   2.040   4.070   3.549 -0.1223 -0.2634  2.6084
 2598SOL    HW219428   2.036   3.953   3.475  0.7420 -1.4064  0.5141
 2599SOL     OW19429   0.204   0.851   4.447 -0.3680 -0.4735 -0.2985
 2599SOL    HW119430   0.169   0.857   4.536 -0.3268 -0.5084 -0.2803
 2599SOL    HW219431   0.237   0.940   4.434 -0.5403 -0.1691  1.3652
 2600SOL     OW19432   3.932   4.208  17.116  0.1311 -0.1601  0.1652
 2600SOL    HW119433   3.846   4.189  17.154 -0.1529  1.3454  0.2750
 2600SOL    HW219434   3.938   4.299  17.146 -3.3642 -0.5668  2.1281
 2601SOL     OW19435   2.952   3.550   9.180  0.2244 -0.7380  0.7674
 2601SOL    HW119436   2.910   3.502   9.250  1.1438 -2.9381 -0.1938
 2601SOL    HW219437   3.024   3.579   9.236  1.5720 -0.6182 -1.0112
 2602SOL     OW19438   2.232   3.107   5.871  0.6350 -0.2291 -0.5938
 2602SOL    HW119439   2.168   3.116   5.941  2.1851 -0.2308  0.8295
 2602SOL    HW219440   2.248   3.200   5.855 -1.5442  0.1494 -0.5750
 2603SOL     OW19441   0.565   1.109   0.192  0.1922 -0.3925  0.0754
 2603SOL    HW119442   0.576   1.182   0.254 -0.2529 -0.0636 -0.2298
 2603SOL    HW219443   0.652   1.070   0.184  0.0326 -0.4841 -1.1322
 2604SOL     OW19444   2.414   2.106  14.378 -0.7490 -0.3030  0.1186
 2604SOL    HW119445   2.321   2.091  14.362 -0.4542  0.7334 -2.5056
 2604SOL    HW219446   2.449   2.028  14.334 -0.7803 -1.2028  1.6584
 2605SOL     OW19447   2.572   0.801   4.500 -0.4444  0.3391  0.1704
 2605SOL    HW119448   2.590   0.736   4.567  2.1794 -0.6374 -1.4909
 2605SOL    HW219449   2.573   0.744   4.423  0.7601  0.6564 -0.0509
 2606SOL     OW19450   2.108   1.913  12.659  0.1427  0.1698 -0.0627
 2606SOL    HW119451   2.115   1.903  12.754 -0.9444  0.6805  0.0741
 2606SOL    HW219452   2.025   1.869  12.643  0.2388  0.0138 -0.1289
 2607SOL     OW19453   1.735   2.701   0.468 -0.1268  0.6357  0.4763
 2607SOL    HW119454   1.663   2.697   0.406  0.9528  0.0970 -0.7410
 2607SOL    HW219455   1.693   2.726   0.550 -0.1002 -0.8375  0.9359
 2608SOL     OW19456   3.014   0.387  16.162 -0.1608  0.2359 -0.3550
 2608SOL    HW119457   3.075   0.460  16.156  1.3412 -0.9239  0.7923
 2608SOL    HW219458   3.066   0.307  16.151 -0.4103 -0.0472  0.5276
 2609SOL     OW19459   2.296   3.541  11.763 -0.5357  0.3267 -0.1425
 2609SOL    HW119460   2.353   3.464  11.760  0.3315  1.0287 -1.3897
 2609SOL    HW219461   2.255   3.520  11.847  0.1428 -0.4461 -0.0010
 2610SOL     OW19462   1.715   1.515   3.159 -0.1429 -0.3735 -0.0419
 2610SOL    HW119463   1.653   1.460   3.206  0.1837  0.7033  1.6719
 2610SOL    HW219464   1.745   1.584   3.219 -0.9952  0.4710 -0.5868
 2611SOL     OW19465   2.040   0.825   3.153 -0.8066  0.9245  0.4968
 2611SOL    HW119466   2.092   0.893   3.110  0.7283 -0.1907  0.5865
 2611SOL    HW219467   2.010   0.779   3.074  0.1768  1.3607 -0.1345
 2612SOL     OW19468   2.657   2.703  12.066  0.4158  0.0148 -0.1523
 2612SOL    HW119469   2.712   2.773  12.102  1.7793 -1.1615  0.0236
 2612SOL    HW219470   2.642   2.664  12.152 -0.6220  0.6775 -0.0241
 2613SOL     OW19471   4.597   4.452   4.233 -0.3378  0.2645  0.1979
 2613SOL    HW119472   4.582   4.374   4.179  0.6609  0.0275  0.2619
 2613SOL    HW219473   4.607   4.518   4.164  0.2190  0.2614  0.2762
 2614SOL     OW19474   1.413   3.474   8.920 -0.1094 -0.0878 -0.2034
 2614SOL    HW119475   1.472   3.513   8.985  0.8187 -0.5655 -0.7631
 2614SOL    HW219476   1.328   3.474   8.964  0.8143 -0.3728  1.5792
 2615SOL     OW19477   2.577   1.797  13.974  0.2701 -0.5725 -0.1291
 2615SOL    HW119478   2.558   1.848  14.053 -2.6200 -0.4978 -0.8571
 2615SOL    HW219479   2.612   1.866  13.918  0.1920 -0.0253  0.4932
 2616SOL     OW19480   2.913   2.995   7.317  0.0158 -0.4258 -0.0270
 2616SOL    HW119481   2.859   3.041   7.381 -0.6231  1.5650 -1.9909
 2616SOL    HW219482   2.933   2.924   7.377 -3.5045  0.4339  2.1699
 2617SOL     OW19483   4.351   0.902  14.871  0.0981  0.3546 -0.3945
 2617SOL    HW119484   4.282   0.854  14.915 -0.4891 -0.4354 -2.1754
 2617SOL    HW219485   4.380   0.964  14.938  1.7483 -0.5476 -0.2550
 2618SOL     OW19486   2.110   1.644   5.104  0.9195 -0.0306  0.6275
 2618SOL    HW119487   2.056   1.675   5.032  1.1819 -1.0302  0.0108
 2618SOL    HW219488   2.119   1.722   5.160  1.7772 -0.6184  1.3162
 2619SOL     OW19489   1.699   3.895   5.373  0.7905  0.0148 -0.3713
 2619SOL    HW119490   1.699   3.898   5.277 -2.4510 -0.8082 -0.3861
 2619SOL    HW219491   1.772   3.833   5.384 -0.1619 -0.8927  0.8268
 2620SOL     OW19492   0.005   1.472   7.276 -0.4241 -0.3734  0.2449
 2620SOL    HW119493   0.019   1.445   7.367  1.0258  0.1354  0.1691
 2620SOL    HW219494   4.702   1.388   7.248 -1.1176  0.5761 -1.6477
 2621SOL     OW19495   4.577   3.456  10.739 -0.1817  0.7325 -0.2524
 2621SOL    HW119496   4.563   3.546  10.711  2.2021  0.8586 -1.0455
 2621SOL    HW219497   4.659   3.444  10.691  0.1532 -1.1853  0.8209
 2622SOL     OW19498   2.230   0.242   7.820 -0.0969 -0.2840  0.6489
 2622SOL    HW119499   2.233   0.302   7.746  1.1596 -0.1983  0.7734
 2622SOL    HW219500   2.135   0.230   7.821 -0.3269  1.5821  1.4039
 2623SOL     OW19501   3.514   2.167  14.727  0.2783 -0.2711  0.1941
 2623SOL    HW119502   3.594   2.142  14.682 -0.8740  0.3469 -2.1694
 2623SOL    HW219503   3.462   2.087  14.716  2.5239 -1.8841  1.2757
 2624SOL     OW19504   3.886   0.464  17.113 -0.3896 -0.1003 -0.1468
 2624SOL    HW119505   3.863   0.409  17.188  0.0295 -0.8393 -0.5588
 2624SOL    HW219506   3.980   0.480  17.123 -0.5240 -0.2676  1.4232
 2625SOL     OW19507   4.202   0.491  11.618  0.0855  0.0994  0.0628
 2625SOL    HW119508   4.221   0.416  11.673 -1.5632  1.2833  2.2513
 2625SOL    HW219509   4.115   0.475  11.580  1.4562 -2.4280 -2.0007
 2626SOL     OW19510   3.334   2.466   2.940 -0.4258 -0.2139 -0.2194
 2626SOL    HW119511   3.371   2.498   2.857  1.0597 -1.4618 -0.0472
 2626SOL    HW219512   3.291   2.543   2.977 -0.6462  0.0592 -1.0438
 2627SOL     OW19513   2.107   4.023  17.064 -0.2554 -0.4224 -0.3287
 2627SOL    HW119514   2.199   4.048  17.081 -0.8224  1.8592 -0.5847
 2627SOL    HW219515   2.073   4.082  16.997  1.0140  0.1628 -0.4705
 2628SOL     OW19516   3.276   1.888  12.092 -0.1070 -0.0179 -0.0767
 2628SOL    HW119517   3.357   1.900  12.142 -0.5367  1.7261  0.2124
 2628SOL    HW219518   3.228   1.962  12.129 -0.6474 -0.3174 -0.1844
 2629SOL     OW19519   2.622   3.393   6.691 -0.0919 -0.9145 -0.2089
 2629SOL    HW119520   2.591   3.367   6.604 -1.6742 -2.3354  0.7639
 2629SOL    HW219521   2.715   3.376   6.675 -0.9446 -2.6137 -3.5118
 2630SOL     OW19522   4.298   4.653   7.646 -0.5623  0.0099 -0.3443
 2630SOL    HW119523   4.331   0.008   7.659 -4.4922  1.2233  1.1253
 2630SOL    HW219524   4.331   4.628   7.560 -1.1125  0.0519 -0.5671
 2631SOL     OW19525   2.753   1.105   8.556  0.7844 -0.2932  0.4377
 2631SOL    HW119526   2.813   1.179   8.566 -1.1247  1.2906 -0.0097
 2631SOL    HW219527   2.666   1.144   8.555  0.4270 -1.1033 -0.0838
 2632SOL     OW19528   1.951   2.349  15.954 -0.1736  0.3206 -0.2033
 2632SOL    HW119529   1.861   2.327  15.934  0.3899 -1.7823 -0.4557
 2632SOL    HW219530   1.975   2.430  15.909 -0.3288  1.1463  1.2056
 2633SOL     OW19531   0.103   1.947   8.126  0.2827 -0.2743  0.3858
 2633SOL    HW119532   0.068   1.911   8.045  1.5710 -1.6463  0.4276
 2633SOL    HW219533   0.116   1.866   8.176 -0.0560 -1.4370 -1.4156
 2634SOL     OW19534   2.816   0.776   7.750  0.0411  0.3798 -0.0828
 2634SOL    HW119535   2.741   0.741   7.702  1.2702  1.2309 -2.6269
 2634SOL    HW219536   2.881   0.750   7.685 -0.6107 -0.9755 -0.1814
 2635SOL     OW19537   2.954   4.301   8.362 -0.5329 -0.3446 -0.2123
 2635SOL    HW119538   2.937   4.329   8.273  0.0963 -0.7710 -0.4667
 2635SOL    HW219539   3.029   4.242   8.358 -1.2533 -1.2157 -0.6586
 2636SOL     OW19540   1.316   1.387   8.879 -0.0885 -0.3404  0.4944
 2636SOL    HW119541   1.375   1.446   8.833 -0.6737 -0.1762 -0.0409
 2636SOL    HW219542   1.252   1.451   8.912  1.1639  2.3872 -2.3782
 2637SOL     OW19543   3.687   0.566  16.287  0.4022 -1.0840  0.1155
 2637SOL    HW119544   3.691   0.531  16.376  1.1502  0.4843  0.6967
 2637SOL    HW219545   3.782   0.565  16.274  0.2754  0.8163 -0.9622
 2638SOL     OW19546   0.176   2.977  11.773 -0.1224 -0.4477 -0.0761
 2638SOL    HW119547   0.204   3.012  11.857 -0.4229 -1.3069  0.3815
 2638SOL    HW219548   0.258   2.993  11.727 -0.7096  1.1067 -0.6111
 2639SOL     OW19549   4.322   2.309   7.066  0.5693  0.0548  0.0348
 2639SOL    HW119550   4.337   2.214   7.061 -2.5374 -0.6966  4.8997
 2639SOL    HW219551   4.393   2.340   7.010  0.1434 -0.3666 -0.7279
 2640SOL     OW19552   4.308   3.843   4.769  0.4500  0.0633 -0.5219
 2640SOL    HW119553   4.344   3.767   4.724  3.3197  0.8386  0.4581
 2640SOL    HW219554   4.369   3.913   4.746  0.3373 -0.0834 -1.2562
 2641SOL     OW19555   0.167   3.647   0.990 -0.7036  0.2887 -0.3952
 2641SOL    HW119556   0.210   3.732   0.984  0.6530 -0.4545 -1.0834
 2641SOL    HW219557   0.079   3.677   1.014 -0.7283  1.2298 -1.6899
 2642SOL     OW19558   0.487   1.491  13.636  0.2019 -0.0167  0.2759
 2642SOL    HW119559   0.438   1.541  13.702 -0.9430  0.9615 -1.2761
 2642SOL    HW219560   0.527   1.426  13.693 -1.9801 -1.0325  0.6727
 2643SOL     OW19561   1.300   3.541   5.350  0.8384  0.1038 -0.8601
 2643SOL    HW119562   1.252   3.618   5.321 -0.2365  0.0976  0.9065
 2643SOL    HW219563   1.378   3.585   5.385 -0.2949  1.2994  0.1185
 2644SOL     OW19564   1.951   2.275   9.651  0.4165 -0.1979 -0.7347
 2644SOL    HW119565   2.014   2.243   9.715  1.7482 -1.4855 -2.6675
 2644SOL    HW219566   1.961   2.369   9.666 -0.3240 -0.4714  1.3577
 2645SOL     OW19567   1.501   0.346   0.231 -0.4400 -0.0610  0.2559
 2645SOL    HW119568   1.437   0.364   0.162 -0.7829  0.0817  0.6066
 2645SOL    HW219569   1.445   0.343   0.309  0.0951  2.6847  0.7483
 2646SOL     OW19570   1.540   0.678   6.081  0.3632  0.3535 -0.2680
 2646SOL    HW119571   1.526   0.665   6.174  0.5215 -0.3602 -0.3498
 2646SOL    HW219572   1.486   0.752   6.052  1.1521  0.8922 -0.3933
 2647SOL     OW19573   3.835   3.811   3.742  0.6401  0.2926  0.1294
 2647SOL    HW119574   3.928   3.824   3.722  0.6585  0.3673  0.2634
 2647SOL    HW219575   3.826   3.884   3.803  0.0440  0.7707 -0.5396
 2648SOL     OW19576   4.027   4.085  17.625 -0.2450  0.7150 -0.1938
 2648SOL    HW119577   3.945   4.038  17.638 -0.1390  0.9589  1.3835
 2648SOL    HW219578   4.032   4.087  17.530  1.1048 -0.6259 -0.1350
 2649SOL     OW19579   1.217   2.643  13.352  0.1009 -0.3847 -0.3182
 2649SOL    HW119580   1.294   2.601  13.389 -0.5629 -3.6009 -2.6093
 2649SOL    HW219581   1.222   2.737  13.372  0.1449 -0.6320  0.7792
 2650SOL     OW19582   3.359   3.614   5.904 -0.7124  0.3914 -0.1034
 2650SOL    HW119583   3.414   3.690   5.888 -0.8179  0.3764 -0.5269
 2650SOL    HW219584   3.421   3.555   5.947  1.0951  1.6263 -1.0636
 2651SOL     OW19585   4.618   2.326   5.470 -0.3356 -0.3527  0.2367
 2651SOL    HW119586   4.582   2.287   5.391  1.6127  1.5462 -1.5713
 2651SOL    HW219587   4.665   2.253   5.511  0.6970  0.2515  0.1196
 2652SOL     OW19588   4.152   3.443   4.308 -0.6668  0.4863  0.5915
 2652SOL    HW119589   4.221   3.378   4.295 -1.7292 -0.1954 -1.6562
 2652SOL    HW219590   4.170   3.513   4.244 -3.0973  1.0471  0.5262
 2653SOL     OW19591   1.683   0.326   2.274 -0.0421 -0.3266  0.1354
 2653SOL    HW119592   1.700   0.309   2.181 -1.2515  1.7793 -0.4905
 2653SOL    HW219593   1.705   0.419   2.272  2.2350 -0.9143 -2.0304
 2654SOL     OW19594   2.366   3.297  16.294 -0.0673  0.1003 -0.1341
 2654SOL    HW119595   2.343   3.313  16.203  3.2609  0.9983 -0.7879
 2654SOL    HW219596   2.444   3.352  16.300 -0.0356 -0.0360  0.7998
 2655SOL     OW19597   0.395   1.355   6.986 -0.1550  0.5496 -0.2262
 2655SOL    HW119598   0.339   1.433   6.992 -1.0291 -0.2163  1.4443
 2655SOL    HW219599   0.363   1.312   6.907  2.2927 -1.0334 -0.3559
 2656SOL     OW19600   3.179   1.280  14.180 -0.5402 -0.0776  0.5920
 2656SOL    HW119601   3.114   1.234  14.233  0.0414 -1.9444 -0.3241
 2656SOL    HW219602   3.215   1.337  14.248  0.5953 -1.8486  1.4525
 2657SOL     OW19603   2.809   2.313  11.400 -0.4274  0.0079 -0.2482
 2657SOL    HW119604   2.813   2.244  11.466  1.9321 -0.7304 -1.1814
 2657SOL    HW219605   2.813   2.264  11.318  0.8790  1.1907 -0.9035
 2658SOL     OW19606   0.936   2.293   8.961 -0.4065 -0.5889 -0.5462
 2658SOL    HW119607   1.026   2.283   8.929 -0.5508  0.6790 -1.3451
 2658SOL    HW219608   0.890   2.365   8.918  0.1350  0.5714  0.8274
 2659SOL     OW19609   3.508   4.672  15.562 -0.3078 -0.2245  0.4764
 2659SOL    HW119610   3.602   4.694  15.560 -0.0493 -1.3724 -0.0511
 2659SOL    HW219611   3.505   4.582  15.528  0.7612 -0.6574  1.4947
 2660SOL     OW19612   0.474   0.542  12.496 -0.3998  0.4998 -0.7961
 2660SOL    HW119613   0.535   0.584  12.435  0.9093 -0.9488 -0.4802
 2660SOL    HW219614   0.528   0.492  12.557 -1.6548  0.5062  0.3033
 2661SOL     OW19615   2.279   0.434   0.054  0.2869 -0.4031  0.7138
 2661SOL    HW119616   2.215   0.449   0.122  1.6798 -2.1099  2.4175
 2661SOL    HW219617   2.357   0.482   0.083  0.3584 -0.2619  0.2819
 2662SOL     OW19618   1.190   0.184   8.447  0.1663 -0.2575 -0.4669
 2662SOL    HW119619   1.195   0.196   8.542  1.4857 -0.1865 -0.5402
 2662SOL    HW219620   1.255   0.117   8.428 -1.0716 -1.4797 -0.3488
 2663SOL     OW19621   4.610   4.260   4.031 -0.4565 -0.0303  0.0683
 2663SOL    HW119622   4.645   4.262   3.942 -2.0454  3.0390 -0.5124
 2663SOL    HW219623   4.601   4.166   4.047 -0.6470 -0.0773 -0.3286
 2664SOL     OW19624   0.828   1.224   0.978  0.1991 -0.6608  0.4390
 2664SOL    HW119625   0.897   1.286   1.001  1.7590 -2.4250  0.5896
 2664SOL    HW219626   0.786   1.258   0.899 -1.5802 -0.4320  1.4990
 2665SOL     OW19627   3.786   2.632   7.153  0.5969 -0.0689  0.3354
 2665SOL    HW119628   3.878   2.620   7.178  0.1600  0.5246  2.1951
 2665SOL    HW219629   3.768   2.723   7.175 -0.9570 -0.3403  0.1418
 2666SOL     OW19630   3.406   0.109  10.316  0.3044 -0.2663 -0.2465
 2666SOL    HW119631   3.368   0.060  10.389 -2.8394  0.5312 -1.3760
 2666SOL    HW219632   3.335   0.166  10.285  0.7598  0.4836  0.0820
 2667SOL     OW19633   4.155   3.263  11.681  0.1447  0.2300  0.2453
 2667SOL    HW119634   4.141   3.353  11.653 -1.9628 -0.3000 -0.3672
 2667SOL    HW219635   4.126   3.267  11.772  0.7095  0.2376  0.4255
 2668SOL     OW19636   2.239   0.184   7.039  0.4738  0.0461 -0.1719
 2668SOL    HW119637   2.244   0.204   7.133 -1.2269 -0.4991  0.0398
 2668SOL    HW219638   2.286   0.100   7.033 -1.0255 -0.7241 -1.0758
 2669SOL     OW19639   4.557   4.663   3.751  0.3031 -0.0720 -0.0022
 2669SOL    HW119640   4.550   4.604   3.676 -1.4813 -0.7440  0.6837
 2669SOL    HW219641   4.480   4.718   3.734 -0.6275 -1.9710 -1.9766
 2670SOL     OW19642   3.652   0.885  16.633  0.1576 -0.4080 -0.6388
 2670SOL    HW119643   3.745   0.890  16.612  0.2002  0.8195 -0.1870
 2670SOL    HW219644   3.649   0.832  16.712  1.5778 -1.0988 -1.0548
 2671SOL     OW19645   1.054   0.275  15.038 -0.1920 -0.2471  0.5388
 2671SOL    HW119646   0.980   0.233  15.082 -0.5852  1.7254  1.7480
 2671SOL    HW219647   1.012   0.341  14.983 -1.3565  1.0912  3.0710
 2672SOL     OW19648   2.910   0.569  16.324 -0.4662  0.5206  0.0355
 2672SOL    HW119649   2.985   0.624  16.300 -0.1717 -0.0528 -0.3472
 2672SOL    HW219650   2.923   0.486  16.278 -1.2396 -1.2458  2.9589
 2673SOL     OW19651   4.471   4.439   9.562  0.6275  0.1870  0.2875
 2673SOL    HW119652   4.458   4.467   9.653 -1.3069  2.7266 -0.7959
 2673SOL    HW219653   4.387   4.433   9.517  0.4898  1.2180  0.4140
 2674SOL     OW19654   3.413   0.438   9.164 -0.2921  0.3884 -0.1745
 2674SOL    HW119655   3.344   0.474   9.108 -0.4469 -0.6526 -0.6459
 2674SOL    HW219656   3.387   0.346   9.166 -0.8147  0.5811  2.7540
 2675SOL     OW19657   0.593   1.035   6.867  0.2197 -0.5324  0.2189
 2675SOL    HW119658   0.678   1.071   6.840  0.3112 -1.3073 -0.5271
 2675SOL    HW219659   0.550   1.116   6.895  0.0586 -0.7354  0.5521
 2676SOL     OW19660   2.888   1.176   3.867 -0.8270  0.2317 -0.4330
 2676SOL    HW119661   2.884   1.123   3.788  0.2190  0.8682 -0.9141
 2676SOL    HW219662   2.952   1.134   3.925 -0.9562 -0.3299 -0.6989
 2677SOL     OW19663   2.017   1.840   4.523 -0.0956  0.3090 -0.1152
 2677SOL    HW119664   1.956   1.910   4.546 -1.6050 -1.0760  0.0888
 2677SOL    HW219665   1.961   1.763   4.515  0.1458  0.0675  0.5227
 2678SOL     OW19666   1.064   4.595   8.199  0.4715 -0.2502 -0.2173
 2678SOL    HW119667   1.122   4.520   8.187 -1.7988 -2.1175  0.4681
 2678SOL    HW219668   1.062   4.593   8.295  0.9344  0.6260 -0.1885
 2679SOL     OW19669   2.208   0.977  12.964  0.0632 -0.2713  0.3600
 2679SOL    HW119670   2.203   1.068  12.934 -1.1306 -0.3063  0.4505
 2679SOL    HW219671   2.227   0.997  13.055 -0.6754  0.0243  0.4522
 2680SOL     OW19672   2.717   3.671   2.939  0.0657  0.7793  0.7852
 2680SOL    HW119673   2.764   3.597   2.977 -1.6023 -1.4431 -1.4441
 2680SOL    HW219674   2.731   3.739   3.005 -0.6347 -0.5239  2.2710
 2681SOL     OW19675   1.536   1.558   9.263 -0.0054  0.0739  0.2605
 2681SOL    HW119676   1.457   1.504   9.269  0.7568 -1.0453  0.0217
 2681SOL    HW219677   1.533   1.588   9.172 -2.9558 -2.5386 -0.5321
 2682SOL     OW19678   3.067   3.793   6.628 -0.7920 -0.9871  0.5455
 2682SOL    HW119679   3.074   3.844   6.708  1.7575 -1.4897  0.6205
 2682SOL    HW219680   3.155   3.757   6.617 -1.2287 -1.9146  0.1076
 2683SOL     OW19681   1.403   1.121   8.924  0.0187  0.0338 -0.4949
 2683SOL    HW119682   1.366   1.209   8.914  0.6000  0.2851 -0.4069
 2683SOL    HW219683   1.343   1.064   8.874 -0.1023  1.5408 -2.0783
 2684SOL     OW19684   2.483   2.362   1.632  0.4008  0.0837 -0.1176
 2684SOL    HW119685   2.441   2.277   1.646  0.0774  0.3849  0.7772
 2684SOL    HW219686   2.406   2.417   1.649  0.2007 -0.5675  1.0916
 2685SOL     OW19687   0.026   0.836   7.398  0.6133 -0.5423  0.2515
 2685SOL    HW119688   0.005   0.751   7.436  0.1615 -0.1212  0.9368
 2685SOL    HW219689   0.120   0.824   7.380  1.2829  1.3968  2.3951
 2686SOL     OW19690   2.182   4.700   0.402 -0.0884 -0.4425 -0.0459
 2686SOL    HW119691   2.114   4.699   0.335  1.2139  0.1713 -1.3826
 2686SOL    HW219692   2.240   0.035   0.370 -1.8808  0.2074 -1.9232
 2687SOL     OW19693   4.303   3.781   3.537 -0.3666  0.4389 -0.0728
 2687SOL    HW119694   4.221   3.732   3.545  1.2784 -2.7826 -2.9884
 2687SOL    HW219695   4.305   3.859   3.592 -1.8781 -1.8013  3.2069
 2688SOL     OW19696   0.884   0.893   3.308 -0.4484  0.1930  0.2405
 2688SOL    HW119697   0.945   0.966   3.316 -1.7373  1.0831  1.8125
 2688SOL    HW219698   0.915   0.857   3.225  0.7600 -1.4466  1.4031
 2689SOL     OW19699   0.527   3.220   3.992 -0.1402  0.7385  0.4882
 2689SOL    HW119700   0.498   3.232   3.901  1.0808  0.4429  0.0566
 2689SOL    HW219701   0.456   3.259   4.042 -2.8160 -2.4341 -0.8296
 2690SOL     OW19702   0.548   4.542  13.219 -1.1590  0.4429 -0.8142
 2690SOL    HW119703   0.457   4.527  13.193 -0.8963 -0.2272 -1.3677
 2690SOL    HW219704   0.541   4.555  13.313  1.3212  0.8245 -0.6598
 2691SOL     OW19705   2.053   2.666   3.380 -0.0597  0.0885 -0.3583
 2691SOL    HW119706   2.096   2.665   3.466  0.2932  2.3457 -0.5164
 2691SOL    HW219707   1.976   2.719   3.399  0.7507  0.8397  0.8254
 2692SOL     OW19708   4.283   2.143   9.230 -0.2479 -0.4139  0.4842
 2692SOL    HW119709   4.210   2.204   9.218 -1.3333 -1.5003  1.5306
 2692SOL    HW219710   4.276   2.123   9.323 -0.3206 -0.2060  0.5238
 2693SOL     OW19711   1.521   3.201   8.696  0.1087  0.1257  0.2245
 2693SOL    HW119712   1.468   3.231   8.770 -1.6413 -1.5653 -0.3432
 2693SOL    HW219713   1.463   3.244   8.633 -1.0045  0.2149  1.3132
 2694SOL     OW19714   3.455   2.822  17.193  0.1420  0.4748 -0.5995
 2694SOL    HW119715   3.492   2.747  17.240  0.6257 -0.1093 -1.9131
 2694SOL    HW219716   3.369   2.842  17.230 -0.3615 -2.1605 -0.2798
 2695SOL     OW19717   2.547   4.482   2.878  0.0480  0.0856  0.0482
 2695SOL    HW119718   2.557   4.460   2.786 -0.1404 -0.1989  0.0953
 2695SOL    HW219719   2.508   4.569   2.872  2.1414  0.9384 -1.2001
 2696SOL     OW19720   3.108   0.335   4.417 -0.5172  0.1045  0.3265
 2696SOL    HW119721   3.126   0.372   4.331  2.2011 -1.6683  0.1223
 2696SOL    HW219722   3.040   0.273   4.393 -0.7478 -0.6520  2.9269
 2697SOL     OW19723   3.295   1.545   6.838 -0.2675 -0.4701 -0.4660
 2697SOL    HW119724   3.283   1.637   6.863 -1.6257  0.2254 -3.6454
 2697SOL    HW219725   3.202   1.524   6.851  0.3429 -3.2544 -0.4696
 2698SOL     OW19726   1.125   2.437  16.121  0.9888 -0.1616  0.1306
 2698SOL    HW119727   1.094   2.373  16.185  1.5813 -1.2637 -0.6851
 2698SOL    HW219728   1.190   2.484  16.174  0.6696 -0.2160  0.5734
 2699SOL     OW19729   0.562   0.500   6.921 -0.0591  0.1840 -0.0502
 2699SOL    HW119730   0.607   0.493   7.005 -0.8329 -1.4014  0.2445
 2699SOL    HW219731   0.535   0.411   6.898  0.1904 -0.2788  1.5147
 2700SOL     OW19732   2.417   4.418   3.663 -0.1561 -0.0658 -0.0489
 2700SOL    HW119733   2.377   4.333   3.647 -1.8319  0.5216  1.0426
 2700SOL    HW219734   2.366   4.477   3.607  0.1107 -1.3504 -1.6506
 2701SOL     OW19735   3.486   0.333   9.930 -0.2387 -0.4299  0.5405
 2701SOL    HW119736   3.471   0.369  10.017 -1.9145  2.6026 -0.9757
 2701SOL    HW219737   3.511   0.244   9.953  0.7032 -0.6744 -1.4066
 2702SOL     OW19738   0.189   3.114  14.907 -0.0997 -0.7770  0.0918
 2702SOL    HW119739   0.166   3.101  14.999  0.4494 -1.0232  0.1977
 2702SOL    HW219740   0.207   3.023  14.881 -0.8046 -0.4222 -1.6340
 2703SOL     OW19741   0.290   1.729   2.281 -0.2847  0.2714 -0.3457
 2703SOL    HW119742   0.266   1.646   2.239  0.5787 -0.4375  0.5556
 2703SOL    HW219743   0.317   1.698   2.367 -0.8250  0.3955 -0.1337
 2704SOL     OW19744   2.096   1.900   3.738 -0.0221  0.3681 -0.4139
 2704SOL    HW119745   2.087   1.878   3.831 -2.8520 -0.6459 -0.9404
 2704SOL    HW219746   2.192   1.898   3.738 -0.0341  0.1352 -1.5128
 2705SOL     OW19747   1.035   3.445   3.750 -0.3823  0.0898  1.0149
 2705SOL    HW119748   0.992   3.484   3.674  3.1615 -0.0594 -1.0390
 2705SOL    HW219749   1.126   3.463   3.726 -0.8115 -0.5093 -1.0676
 2706SOL     OW19750   0.877   2.617  17.537 -0.3012  0.3997  0.2985
 2706SOL    HW119751   0.896   2.641  17.628 -0.6522  1.2340  0.1522
 2706SOL    HW219752   0.887   2.705  17.501 -0.8038  0.6176  0.7000
 2707SOL     OW19753   2.858   1.490  10.639 -0.3085 -0.4890  0.0057
 2707SOL    HW119754   2.899   1.573  10.614  1.3638 -1.2142  0.3760
 2707SOL    HW219755   2.771   1.496  10.598 -0.6212 -0.5167  0.6633
 2708SOL     OW19756   3.360   3.767   0.657  0.2320  0.0785  0.2995
 2708SOL    HW119757   3.420   3.842   0.665 -0.9168  0.8355  1.8240
 2708SOL    HW219758   3.287   3.801   0.606  0.4802 -3.1377 -2.1863
 2709SOL     OW19759   2.409   0.904   5.283  0.3608 -0.3019  0.9646
 2709SOL    HW119760   2.433   0.980   5.231  2.3327 -2.6962 -1.6028
 2709SOL    HW219761   2.333   0.932   5.334 -0.3404  1.1947 -0.9095
 2710SOL     OW19762   0.151   1.484  11.224  0.0574 -0.6066  0.0971
 2710SOL    HW119763   0.199   1.468  11.305 -1.6544  1.4936  1.5077
 2710SOL    HW219764   0.064   1.518  11.244  0.2336 -1.1552  1.7578
 2711SOL     OW19765   1.287   0.706   4.268  0.0376  0.3223  0.3961
 2711SOL    HW119766   1.358   0.683   4.208 -1.2434  2.3737 -1.8739
 2711SOL    HW219767   1.215   0.658   4.227 -1.0499  1.3104  1.1564
 2712SOL     OW19768   1.982   2.706   7.058 -0.5008 -0.4748 -0.2641
 2712SOL    HW119769   2.073   2.734   7.061 -0.8894  0.7067  0.8832
 2712SOL    HW219770   1.990   2.612   7.070  3.5588 -0.0722  0.0692
 2713SOL     OW19771   4.548   2.235  15.626 -0.7518 -0.3980  0.1168
 2713SOL    HW119772   4.495   2.162  15.594  0.4820 -0.7703 -1.0711
 2713SOL    HW219773   4.527   2.312  15.573 -1.8466  0.2104  1.4540
 2714SOL     OW19774   1.240   1.673   6.515  0.1026 -0.2066  0.2349
 2714SOL    HW119775   1.295   1.751   6.516 -1.3997  0.8431  1.6514
 2714SOL    HW219776   1.173   1.692   6.449  0.9619  2.7556  0.2308
 2715SOL     OW19777   2.044   4.471  13.588  0.0511 -0.0047  0.3897
 2715SOL    HW119778   2.059   4.522  13.667 -1.8053 -0.3925  0.9812
 2715SOL    HW219779   2.052   4.533  13.515 -1.0022 -0.3126  0.0163
 2716SOL     OW19780   3.483   1.763   2.006  0.0597  0.1828 -0.4952
 2716SOL    HW119781   3.399   1.786   2.046  0.3794 -0.0078  0.2774
 2716SOL    HW219782   3.465   1.797   1.918 -0.7616  1.9831  0.3536
 2717SOL     OW19783   1.918   1.365   8.356 -0.2753 -0.3757  0.1522
 2717SOL    HW119784   1.956   1.301   8.297 -0.2503 -0.9329  0.7781
 2717SOL    HW219785   1.940   1.329   8.442  1.3523  2.4510  0.9338
 2718SOL     OW19786   0.436   1.053   2.795 -0.3674  0.4733  0.3266
 2718SOL    HW119787   0.413   1.141   2.764  1.8040  0.8301 -0.2358
 2718SOL    HW219788   0.409   0.997   2.722 -0.7436 -0.3137  1.0862
 2719SOL     OW19789   2.056   0.576   0.136  0.1539  0.2169  0.0656
 2719SOL    HW119790   2.077   0.617   0.052  0.4199 -2.3167 -1.1211
 2719SOL    HW219791   1.968   0.605   0.161  1.3656  1.7852  2.4696
 2720SOL     OW19792   0.505   2.593  16.744 -0.3292  0.1178 -0.1202
 2720SOL    HW119793   0.461   2.637  16.817 -0.4148  2.2411 -1.4522
 2720SOL    HW219794   0.493   2.658  16.675 -2.4386 -0.4098 -0.2213
 2721SOL     OW19795   4.609   2.039   4.194 -0.4774 -0.0535  0.2364
 2721SOL    HW119796   4.577   1.952   4.215  1.0457 -0.4787  0.7700
 2721SOL    HW219797   4.541   2.055   4.129 -0.0199 -0.0566 -0.2472
 2722SOL     OW19798   2.936   0.953   7.933  0.5179  0.4206  0.1359
 2722SOL    HW119799   2.868   0.936   7.998 -0.1376  2.3645 -0.0481
 2722SOL    HW219800   2.905   0.896   7.863 -0.0135  2.1457 -1.0282
 2723SOL     OW19801   0.586   3.440   7.416 -0.0740  0.1638  0.4079
 2723SOL    HW119802   0.663   3.419   7.364 -0.5452  1.9340 -0.9751
 2723SOL    HW219803   0.515   3.386   7.381 -0.2382 -1.0190  2.5509
 2724SOL     OW19804   1.296   0.318  15.828 -0.3081  0.5886  0.8705
 2724SOL    HW119805   1.253   0.232  15.821  1.9383 -0.3363 -1.4722
 2724SOL    HW219806   1.324   0.331  15.737  0.4952  1.1590  1.2077
 2725SOL     OW19807   2.194   0.067   3.765  0.4553  0.2916 -0.3296
 2725SOL    HW119808   2.194   0.081   3.670 -1.2095 -2.0956 -0.6936
 2725SOL    HW219809   2.102   0.080   3.789  0.3316 -1.1352 -0.0104
 2726SOL     OW19810   0.301   0.274  12.442 -0.1557  0.3336  0.1817
 2726SOL    HW119811   0.258   0.357  12.465  0.6736 -0.2548  3.8502
 2726SOL    HW219812   0.220   0.227  12.462 -0.5850  0.5881 -0.9417
 2727SOL     OW19813   0.088   1.688  13.118 -0.1307 -0.0478  0.7248
 2727SOL    HW119814   0.081   1.652  13.029  1.1152 -2.5983  1.6642
 2727SOL    HW219815   0.002   1.664  13.153 -0.0211  0.9382  1.6592
 2728SOL     OW19816   1.693   4.102   7.796  0.1378 -0.0495 -0.2477
 2728SOL    HW119817   1.750   4.137   7.864 -1.8206  0.7010  1.0093
 2728SOL    HW219818   1.675   4.013   7.827  0.7977  0.5825  1.9579
 2729SOL     OW19819   1.579   2.064  11.319 -0.2787 -0.1133 -0.6250
 2729SOL    HW119820   1.486   2.071  11.298 -0.4132  0.1998  0.0723
 2729SOL    HW219821   1.622   2.105  11.244  2.3215  1.6134  1.8039
 2730SOL     OW19822   0.858   2.434   1.826  0.2778  0.1204  0.0488
 2730SOL    HW119823   0.800   2.438   1.749  0.2488  0.8793  0.1149
 2730SOL    HW219824   0.906   2.516   1.824  0.7538 -0.1809 -1.1738
 2731SOL     OW19825   0.894   3.902   9.063  0.3165  0.1597  0.0257
 2731SOL    HW119826   0.893   3.814   9.024  0.4071 -0.3019  1.0754
 2731SOL    HW219827   0.966   3.893   9.125  0.3457 -3.2993 -0.5070
 2732SOL     OW19828   0.827   4.482   3.386 -0.5771  0.2472 -0.1700
 2732SOL    HW119829   0.839   4.414   3.319  0.4378  0.6409 -0.3918
 2732SOL    HW219830   0.917   4.516   3.389 -0.3166 -0.4393 -0.1537
 2733SOL     OW19831   4.441   3.124  12.283  0.4211  0.1168 -0.4056
 2733SOL    HW119832   4.388   3.204  12.289 -3.2435 -2.0083 -4.2333
 2733SOL    HW219833   4.436   3.094  12.374  0.8011  1.0403 -0.0817
 2734SOL     OW19834   1.166   1.377   4.141 -0.4239  0.4225 -0.1233
 2734SOL    HW119835   1.241   1.429   4.170 -0.6781  1.0713 -0.6450
 2734SOL    HW219836   1.102   1.402   4.207 -0.0440  2.9322 -0.6966
 2735SOL     OW19837   2.512   2.072   9.942 -0.1888 -0.1034 -0.3895
 2735SOL    HW119838   2.452   2.003   9.915 -0.1519 -0.2446 -0.1132
 2735SOL    HW219839   2.520   2.100   9.851  0.2351 -1.5911 -0.8039
 2736SOL     OW19840   2.459   1.966   2.593 -0.2007 -0.1784 -0.2777
 2736SOL    HW119841   2.489   2.057   2.594 -1.0230  0.0873  0.0096
 2736SOL    HW219842   2.425   1.956   2.504 -1.2087 -0.5002  0.1454
 2737SOL     OW19843   0.750   3.919  12.648  0.1481  0.1014  0.0721
 2737SOL    HW119844   0.744   3.829  12.615  0.5267 -0.8701  2.6468
 2737SOL    HW219845   0.656   3.927  12.666 -0.1653 -1.8228 -0.6372
 2738SOL     OW19846   1.203   2.569   6.495 -0.1695 -1.0698  0.3141
 2738SOL    HW119847   1.185   2.535   6.407  2.4923 -0.4995 -0.4470
 2738SOL    HW219848   1.251   2.645   6.463 -1.1082 -1.3534 -1.8250
 2739SOL     OW19849   1.280   0.458   5.956 -0.3472 -0.6035 -0.2860
 2739SOL    HW119850   1.369   0.461   5.919  0.2407 -0.3440  1.1495
 2739SOL    HW219851   1.275   0.521   6.028  0.8865 -2.1566  1.1693
 2740SOL     OW19852   4.513   0.052   5.437  0.6985  0.3196  0.0946
 2740SOL    HW119853   4.496   4.696   5.409 -0.7850  0.2807  1.1539
 2740SOL    HW219854   4.420   0.071   5.438  0.5835 -0.1628 -1.2000
 2741SOL     OW19855   4.404   1.686   1.285 -0.3269  0.2166  0.3103
 2741SOL    HW119856   4.488   1.683   1.240 -0.9049  0.6944 -0.8068
 2741SOL    HW219857   4.377   1.755   1.224 -0.7133 -1.0689 -0.9801
 2742SOL     OW19858   2.028   4.458   3.377  0.6056 -0.4300 -0.0016
 2742SOL    HW119859   1.937   4.467   3.404  0.7716 -1.3926  0.8765
 2742SOL    HW219860   2.021   4.375   3.329 -1.7800 -0.1786 -0.0768
 2743SOL     OW19861   2.858   0.329   1.376 -0.1368 -0.3187 -0.6253
 2743SOL    HW119862   2.789   0.387   1.408 -0.7842 -1.6514  0.3798
 2743SOL    HW219863   2.926   0.390   1.347  0.4822 -0.5265  0.3654
 2744SOL     OW19864   3.710   3.569   7.964 -0.4475 -0.1077 -0.2894
 2744SOL    HW119865   3.777   3.516   7.920  0.4224  1.9956 -1.5168
 2744SOL    HW219866   3.636   3.539   7.912 -0.3376  0.9967 -1.0852
 2745SOL     OW19867   3.589   3.793   3.071 -0.7072  0.1524 -0.6531
 2745SOL    HW119868   3.561   3.856   3.005  0.0453 -0.1728 -1.2810
 2745SOL    HW219869   3.523   3.819   3.134  0.4463  1.8650 -0.1737
 2746SOL     OW19870   2.949   3.344   0.436 -0.7111  0.4585  0.0396
 2746SOL    HW119871   2.932   3.425   0.389  2.0143  1.3650  0.6681
 2746SOL    HW219872   2.939   3.369   0.528  0.3204  1.0652 -0.0204
 2747SOL     OW19873   1.455   4.276   6.508 -0.2417  0.3829 -0.3050
 2747SOL    HW119874   1.480   4.369   6.509  4.8463 -0.9684 -1.0609
 2747SOL    HW219875   1.499   4.246   6.428 -1.6578 -0.6470 -0.6905
 2748SOL     OW19876   3.058   3.016  16.936  0.0241 -0.3397 -0.2128
 2748SOL    HW119877   3.009   3.039  16.858  2.0472  0.0917 -1.3707
 2748SOL    HW219878   3.057   2.921  16.929 -0.7242 -0.1723 -2.3505
 2749SOL     OW19879   2.876   4.026   6.594 -0.1603 -0.3257  0.4448
 2749SOL    HW119880   2.935   4.071   6.654  1.3767 -3.7583  1.5238
 2749SOL    HW219881   2.800   4.084   6.602 -0.0743 -0.0871 -0.4178
 2750SOL     OW19882   4.552   3.165   7.828  0.2825  0.1316 -0.9663
 2750SOL    HW119883   4.626   3.106   7.815  0.6640  0.6630 -1.1691
 2750SOL    HW219884   4.560   3.211   7.745 -1.1983  0.8253 -0.7213
 2751SOL     OW19885   1.216   0.244   6.439  0.0163  0.4284  1.2205
 2751SOL    HW119886   1.141   0.291   6.475 -0.0605  2.2684 -1.3116
 2751SOL    HW219887   1.217   0.283   6.351 -2.0449 -0.9541  0.5778
 2752SOL     OW19888   0.819   2.294   7.383 -0.0778  0.0878 -0.7285
 2752SOL    HW119889   0.838   2.387   7.369 -0.6405  0.2251 -0.5586
 2752SOL    HW219890   0.759   2.278   7.310 -2.3398  0.1421  1.1086
 2753SOL     OW19891   0.960   1.541  14.334 -0.0777  0.0420 -0.3350
 2753SOL    HW119892   1.041   1.502  14.367 -0.1190  0.1880 -0.0588
 2753SOL    HW219893   0.915   1.581  14.409 -0.5104 -1.0981  0.0199
 2754SOL     OW19894   1.752   3.627  14.053 -0.6081 -0.3291 -0.3172
 2754SOL    HW119895   1.680   3.681  14.019 -1.8053 -1.5464  0.2812
 2754SOL    HW219896   1.797   3.675  14.122 -0.7390 -1.7039  0.7134
 2755SOL     OW19897   3.530   3.521  16.279  0.6023 -0.3900  0.0766
 2755SOL    HW119898   3.547   3.523  16.185  2.1031  0.6661  0.3768
 2755SOL    HW219899   3.609   3.572  16.296  1.3351 -1.4114 -0.2980
 2756SOL     OW19900   0.233   2.338  17.637 -0.2369  0.2150  0.2846
 2756SOL    HW119901   0.326   2.332  17.658 -0.4461 -1.4230  0.7534
 2756SOL    HW219902   0.197   2.404  17.697 -1.5606  0.3670 -0.6957
 2757SOL     OW19903   3.682   3.383   3.874  0.9787  0.4400 -0.1638
 2757SOL    HW119904   3.760   3.326   3.871  0.6167 -0.1136  0.8367
 2757SOL    HW219905   3.666   3.392   3.780 -0.2405 -0.0563 -0.0013
 2758SOL     OW19906   2.036   4.679   5.498  0.5169 -0.9035 -0.4882
 2758SOL    HW119907   2.031   4.587   5.527  1.0753 -0.7453  0.1048
 2758SOL    HW219908   2.025   4.666   5.404  1.4203  0.0022 -0.7161
 2759SOL     OW19909   4.641   3.195   4.920  0.2156  0.0431  0.1936
 2759SOL    HW119910   4.580   3.124   4.938 -0.3883  1.0804  2.2146
 2759SOL    HW219911   4.647   3.204   4.825  3.2828 -2.0522  0.1901
 2760SOL     OW19912   3.183   3.464   1.450  0.4360 -0.0370 -0.3335
 2760SOL    HW119913   3.268   3.457   1.406 -1.0771  0.0774 -3.2384
 2760SOL    HW219914   3.194   3.496   1.540  3.6915  1.6930 -1.3536
 2761SOL     OW19915   4.568   2.457   0.037 -0.5488  0.6351  0.5059
 2761SOL    HW119916   4.509   2.488   0.105 -0.2158 -0.1361  1.1494
 2761SOL    HW219917   4.580   2.531  17.712  2.3577  1.3810  1.9694
 2762SOL     OW19918   4.365   2.289   7.933 -0.1439 -0.9779 -1.1119
 2762SOL    HW119919   4.284   2.254   7.896 -1.9138  0.8386  1.0165
 2762SOL    HW219920   4.354   2.274   8.027  2.3230 -2.9805 -1.1398
 2763SOL     OW19921   3.632   0.024  16.324  0.3919  0.3021  0.5919
 2763SOL    HW119922   3.704   0.019  16.261 -1.0220  1.5061 -1.1260
 2763SOL    HW219923   3.614   0.118  16.327 -1.0962  0.0504 -0.5247
 2764SOL     OW19924   1.875   0.084   0.801 -0.1142 -0.0964 -0.4198
 2764SOL    HW119925   1.799   0.090   0.742 -0.4400 -1.4666 -0.1445
 2764SOL    HW219926   1.854   0.156   0.860  1.1394  1.1359 -1.4797
 2765SOL     OW19927   3.176   0.292   3.943  0.2650 -0.4482  0.1313
 2765SOL    HW119928   3.096   0.286   3.996  1.3662  0.8775  1.9506
 2765SOL    HW219929   3.134   0.299   3.858 -1.3679 -0.2425  0.9425
 2766SOL     OW19930   4.169   3.187   8.598  0.0973 -0.2319  0.2122
 2766SOL    HW119931   4.241   3.226   8.648  1.4537 -1.5367 -0.7204
 2766SOL    HW219932   4.176   3.241   8.519  1.7172 -1.1560 -0.2562
 2767SOL     OW19933   0.284   2.762   6.011  0.2752  0.0356  0.2549
 2767SOL    HW119934   0.196   2.731   5.990  0.4166  0.6508 -1.2352
 2767SOL    HW219935   0.326   2.775   5.926 -0.4476 -0.4899 -0.1862
 2768SOL     OW19936   2.287   3.059   7.228 -0.3273 -0.4909 -0.8673
 2768SOL    HW119937   2.330   3.081   7.311 -0.6564 -1.7761 -0.3591
 2768SOL    HW219938   2.356   3.002   7.195 -0.0464  0.2402 -1.5456
 2769SOL     OW19939   2.970   1.630   5.839  0.2793 -0.3090 -0.2829
 2769SOL    HW119940   3.061   1.600   5.848  0.5605  0.4605 -0.4835
 2769SOL    HW219941   2.946   1.614   5.930  0.4175  0.6068 -0.0853
 2770SOL     OW19942   3.856   1.004   5.723 -0.3078 -0.2791 -0.8596
 2770SOL    HW119943   3.840   1.089   5.766  1.3926 -0.4053  0.0085
 2770SOL    HW219944   3.789   0.948   5.761 -0.3387 -0.5244 -1.2860
 2771SOL     OW19945   3.496   3.824   5.175 -0.5771  0.0358  0.6514
 2771SOL    HW119946   3.575   3.876   5.157  0.5413 -1.5283  1.1002
 2771SOL    HW219947   3.483   3.762   5.104  0.2518 -0.9038  1.3137
 2772SOL     OW19948   0.407   3.827   0.334  0.2653  0.4915  0.2985
 2772SOL    HW119949   0.493   3.787   0.319 -0.1660 -0.4578  0.4216
 2772SOL    HW219950   0.421   3.911   0.289  2.6290 -0.9760 -1.6884
 2773SOL     OW19951   3.420   2.525  13.053 -0.0632  0.0956  0.6105
 2773SOL    HW119952   3.395   2.498  13.141  0.4862 -0.5683  0.5707
 2773SOL    HW219953   3.509   2.490  13.048 -0.5754 -1.2203  0.7679
 2774SOL     OW19954   1.879   2.034   4.261  0.2175  0.1041 -0.5027
 2774SOL    HW119955   1.974   2.025   4.265  0.1482 -1.2780 -2.0112
 2774SOL    HW219956   1.858   1.947   4.228 -2.0788 -0.2584  1.9144
 2775SOL     OW19957   3.785   1.476   5.579 -0.2822 -0.1240 -0.6551
 2775SOL    HW119958   3.753   1.554   5.533 -0.2213  0.5922  0.5464
 2775SOL    HW219959   3.728   1.405   5.547  0.5623 -1.0332 -0.1374
 2776SOL     OW19960   1.466   3.882   8.127  0.0977 -0.6794 -0.3731
 2776SOL    HW119961   1.420   3.936   8.191  3.6073  0.5130  1.0832
 2776SOL    HW219962   1.417   3.800   8.142  0.2386 -0.7766 -0.4466
 2777SOL     OW19963   4.502   3.831   7.283  0.0334 -0.4339 -0.0910
 2777SOL    HW119964   4.517   3.917   7.323  0.6550 -0.2482 -0.7246
 2777SOL    HW219965   4.592   3.809   7.261  0.8419  0.7160  2.0322
 2778SOL     OW19966   1.579   0.714   2.585  0.4957  0.0178  0.2140
 2778SOL    HW119967   1.592   0.628   2.625  0.5974  0.9036  2.0917
 2778SOL    HW219968   1.554   0.763   2.664  0.3908  0.2759  0.0221
 2779SOL     OW19969   2.372   4.655   1.228  0.4370  0.1211  0.6057
 2779SOL    HW119970   2.373   4.598   1.150 -2.5807  1.5711 -0.4909
 2779SOL    HW219971   2.450   4.628   1.275  1.1404  0.1851 -0.5273
 2780SOL     OW19972   3.763   1.901  11.901 -0.2694 -0.2474  0.4742
 2780SOL    HW119973   3.823   1.837  11.940  0.6390  1.9833  2.6939
 2780SOL    HW219974   3.702   1.856  11.843 -0.8658  0.7976  0.2891
 2781SOL     OW19975   3.516   2.715   8.512  0.3525  0.6013  0.0063
 2781SOL    HW119976   3.500   2.791   8.456 -2.1660  0.7127  0.8914
 2781SOL    HW219977   3.455   2.727   8.585  0.1885  0.4124 -0.0979
 2782SOL     OW19978   4.137   0.882  15.016 -0.7773 -0.4998  0.3731
 2782SOL    HW119979   4.119   0.974  15.036 -0.9922 -0.4280 -0.1448
 2782SOL    HW219980   4.118   0.842  15.101 -0.1009  1.4866  1.4756
 2783SOL     OW19981   1.028   1.576   9.909 -0.4802  0.1729 -0.0184
 2783SOL    HW119982   0.978   1.506   9.867  1.1069  0.3018 -2.1471
 2783SOL    HW219983   1.030   1.548  10.000  0.0666  3.4283  0.9502
 2784SOL     OW19984   0.223   2.947   4.817  0.1535  0.3910  0.1046
 2784SOL    HW119985   0.205   2.934   4.724  0.6758  0.6097 -0.0294
 2784SOL    HW219986   0.214   3.042   4.820 -1.4095  0.2097  1.6587
 2785SOL     OW19987   3.243   4.664  12.017 -0.3164  0.2423  0.6119
 2785SOL    HW119988   3.323   4.716  12.013 -0.0031 -0.2316  0.7230
 2785SOL    HW219989   3.261   4.593  12.079 -2.2547 -0.3928  0.4362
 2786SOL     OW19990   1.899   4.697   8.730 -0.1186  0.4929  0.2077
 2786SOL    HW119991   1.922   0.034   8.671 -1.8681 -0.9500 -2.2197
 2786SOL    HW219992   1.880   4.731   8.817 -1.2178 -0.1741  0.2340
 2787SOL     OW19993   0.020   2.274   0.155  0.4408 -0.0482 -0.3559
 2787SOL    HW119994   0.001   2.307   0.243 -0.3151 -3.1977  0.6507
 2787SOL    HW219995   0.007   2.348   0.095 -2.5662 -1.5151 -1.4722
 2788SOL     OW19996   3.921   1.928   8.865 -0.6054  0.0247  0.0373
 2788SOL    HW119997   3.894   1.844   8.827 -1.7054  0.3547  0.0792
 2788SOL    HW219998   3.880   1.999   8.817  0.5034  0.2490 -0.5740
 2789SOL     OW19999   0.527   3.031   8.530 -0.1249 -0.0765 -0.3240
 2789SOL    HW120000   0.458   3.014   8.594  0.2389 -0.9935 -0.1811
 2789SOL    HW220001   0.478   3.014   8.450 -1.2698 -0.5664  0.4820
 2790SOL     OW20002   0.914   4.660   1.166  0.1114  0.0135  0.6489
 2790SOL    HW120003   0.860   4.693   1.094  0.7939 -0.8808 -0.2837
 2790SOL    HW220004   0.942   4.574   1.133  0.9533  1.6860 -2.9945
 2791SOL     OW20005   3.462   2.473   2.235 -0.0424  0.6809  0.0282
 2791SOL    HW120006   3.451   2.523   2.155  0.9466  0.6909 -0.1013
 2791SOL    HW220007   3.380   2.487   2.281  0.7958  1.8973  1.1726
 2792SOL     OW20008   1.330   1.409   9.186  0.2707  0.2655  0.0530
 2792SOL    HW120009   1.298   1.387   9.099 -2.5254  3.4474  0.2783
 2792SOL    HW220010   1.253   1.384   9.238 -0.1654  0.3689 -0.5411
 2793SOL     OW20011   2.861   3.027   9.246 -0.2737 -0.0893  0.0647
 2793SOL    HW120012   2.804   3.004   9.173  0.2938  1.3722 -0.8393
 2793SOL    HW220013   2.945   3.032   9.200 -0.5159 -1.2553 -0.5057
 2794SOL     OW20014   0.161   0.944   0.382  0.1441 -0.5141  0.1421
 2794SOL    HW120015   0.136   0.884   0.311 -1.0983  0.8363 -0.5658
 2794SOL    HW220016   0.230   0.897   0.429  0.1488  2.2750  2.9448
 2795SOL     OW20017   0.518   2.872   4.637  0.5122 -0.1834  0.6142
 2795SOL    HW120018   0.470   2.848   4.716  3.2712 -3.4214  1.3033
 2795SOL    HW220019   0.477   2.958   4.627 -0.8254 -0.7710  1.0221
 2796SOL     OW20020   0.741   3.888   2.341  0.0917  0.2501  0.8446
 2796SOL    HW120021   0.671   3.858   2.399 -0.4381  0.1946  0.1876
 2796SOL    HW220022   0.808   3.918   2.402 -0.0665 -1.4176  1.8525
 2797SOL     OW20023   0.343   4.282   9.228  0.6352  0.6827  0.1285
 2797SOL    HW120024   0.336   4.372   9.197 -1.4145  0.0586 -1.2406
 2797SOL    HW220025   0.332   4.302   9.321 -2.2217  1.1506 -0.3044
 2798SOL     OW20026   3.909   3.366   0.655 -0.1237  0.3896 -0.0315
 2798SOL    HW120027   3.956   3.450   0.648 -0.6124  0.8570  2.2202
 2798SOL    HW220028   3.883   3.371   0.747  0.3830 -0.0950  0.1320
 2799SOL     OW20029   2.251   1.277   6.114 -0.4682 -0.0470  0.5799
 2799SOL    HW120030   2.345   1.265   6.129 -0.6497  1.4366  2.8825
 2799SOL    HW220031   2.258   1.367   6.083  0.5583  0.4122  2.1213
 2800SOL     OW20032   4.397   4.449   2.147 -0.4003 -0.0193  0.5278
 2800SOL    HW120033   4.404   4.497   2.230  1.7097 -0.5863  0.6765
 2800SOL    HW220034   4.474   4.393   2.159  0.1906  0.8549  0.8211
 2801SOL     OW20035   1.109   4.064  12.266 -0.3469  0.2409  0.3828
 2801SOL    HW120036   1.035   4.083  12.324 -0.5717 -0.9537  0.5012
 2801SOL    HW220037   1.090   4.115  12.187 -1.9477  1.9691  1.8892
 2802SOL     OW20038   0.066   3.916   7.319 -0.7037 -0.3537 -0.0659
 2802SOL    HW120039   0.129   3.847   7.297  1.0761  1.1455  0.3051
 2802SOL    HW220040   0.125   3.958   7.382  0.4649  0.3293 -1.6256
 2803SOL     OW20041   0.893   1.484  14.072  0.3177 -0.6490  0.4568
 2803SOL    HW120042   0.928   1.491  14.161  2.0364  1.6351 -0.4131
 2803SOL    HW220043   0.972   1.491  14.020 -0.3960  0.7452 -0.4217
 2804SOL     OW20044   1.447   0.566   9.536 -0.0043  0.1913 -0.4155
 2804SOL    HW120045   1.411   0.482   9.506  2.1879 -0.4658 -1.2170
 2804SOL    HW220046   1.395   0.619   9.476  0.8294 -0.6101 -1.8549
 2805SOL     OW20047   2.449   2.087  11.931 -0.1092  0.2676 -0.0939
 2805SOL    HW120048   2.542   2.098  11.909  0.2712 -0.8297  0.9453
 2805SOL    HW220049   2.415   2.162  11.882 -0.9801 -1.1716 -1.6815
 2806SOL     OW20050   2.590   4.702   5.600 -0.5206 -0.6128 -0.3901
 2806SOL    HW120051   2.498   4.702   5.572 -1.0551 -4.5098  1.2768
 2806SOL    HW220052   2.594   4.614   5.638 -0.9339 -0.5152 -0.1250
 2807SOL     OW20053   0.944   1.248   5.725 -0.1353  0.1515  0.2303
 2807SOL    HW120054   1.013   1.200   5.679  0.9986  2.3404 -0.3429
 2807SOL    HW220055   0.958   1.255   5.820 -0.5244 -0.5988  0.3436
 2808SOL     OW20056   1.975   3.291   6.804 -0.2817  0.4362 -0.2420
 2808SOL    HW120057   2.047   3.318   6.747  0.9870 -1.8766  0.2539
 2808SOL    HW220058   1.961   3.371   6.854 -1.9776  0.3323 -0.5386
 2809SOL     OW20059   4.089   1.812   6.176 -0.0104  0.1302 -0.0402
 2809SOL    HW120060   4.085   1.831   6.082  0.4777  0.8038  0.0773
 2809SOL    HW220061   4.076   1.717   6.175 -2.8474  0.5410 -2.0090
 2810SOL     OW20062   0.864   4.182  12.400  0.3168 -0.1265 -0.5343
 2810SOL    HW120063   0.776   4.146  12.401 -0.0194  0.7391  0.4795
 2810SOL    HW220064   0.905   4.163  12.484  1.3350 -1.3591 -1.3077
 2811SOL     OW20065   2.865   3.277  17.002 -0.0335  0.1559 -0.3415
 2811SOL    HW120066   2.912   3.210  16.952 -1.4816 -0.5424 -0.7685
 2811SOL    HW220067   2.940   3.325  17.038  1.2735 -3.7592  2.1903
 2812SOL     OW20068   1.928   4.168  15.795  0.0120 -0.1437  0.1332
 2812SOL    HW120069   2.010   4.119  15.789  0.7459  1.0315  0.6571
 2812SOL    HW220070   1.876   4.092  15.820  0.1378 -1.0870 -2.4915
 2813SOL     OW20071   2.691   3.041   2.147 -0.0311  0.4148  0.2903
 2813SOL    HW120072   2.677   3.017   2.056  0.3543 -1.4788  0.7210
 2813SOL    HW220073   2.601   3.033   2.178 -0.2982 -0.3332 -0.7022
 2814SOL     OW20074   0.155   4.721  14.947  0.4949 -0.0262 -0.2696
 2814SOL    HW120075   0.113   4.641  14.979 -1.8505  1.5946  0.6949
 2814SOL    HW220076   0.237   4.689  14.909  0.1712 -0.7252 -0.3875
 2815SOL     OW20077   2.913   2.992  15.115  0.5494 -0.2814  0.5403
 2815SOL    HW120078   2.984   3.035  15.163  0.8383 -1.0134  0.7863
 2815SOL    HW220079   2.946   2.991  15.025 -0.7647  0.2038  0.0706
 2816SOL     OW20080   3.786   2.438  14.632  0.1934 -1.2676  0.1111
 2816SOL    HW120081   3.816   2.384  14.705  0.5846  0.0251  0.8981
 2816SOL    HW220082   3.705   2.478  14.662 -0.2685 -1.7579 -0.4726
 2817SOL     OW20083   4.157   0.376   6.553 -0.4328 -0.3069 -0.0984
 2817SOL    HW120084   4.106   0.318   6.611  2.8261 -1.1821  1.9068
 2817SOL    HW220085   4.149   0.463   6.591 -0.0578  0.1118 -0.9761
 2818SOL     OW20086   0.611   2.732   9.172 -0.1459  0.0633 -0.6588
 2818SOL    HW120087   0.657   2.807   9.209 -1.3377  0.0803  0.7617
 2818SOL    HW220088   0.571   2.780   9.099 -3.1172  1.0996  1.6569
 2819SOL     OW20089   1.381   4.155   6.740 -0.0697  0.7463 -0.1735
 2819SOL    HW120090   1.429   4.214   6.681 -3.2397  3.9703  0.4533
 2819SOL    HW220091   1.317   4.132   6.673 -0.2719 -0.0559  0.3059
 2820SOL     OW20092   3.240   2.853   8.369  0.0359  0.3215  0.2865
 2820SOL    HW120093   3.313   2.912   8.348 -0.5372  0.6790 -0.6951
 2820SOL    HW220094   3.171   2.910   8.337  0.2493  0.0682 -0.6147
 2821SOL     OW20095   0.449   1.370   2.028 -0.6066  0.2494 -0.1519
 2821SOL    HW120096   0.448   1.280   2.061  1.3168  0.6462  0.9954
 2821SOL    HW220097   0.417   1.369   1.938 -1.6178 -2.3965  0.2222
 2822SOL     OW20098   1.894   1.728  15.954 -0.3828 -0.0977 -0.4435
 2822SOL    HW120099   1.900   1.754  15.862 -1.1220  1.1415 -0.1406
 2822SOL    HW220100   1.960   1.782  15.998 -0.3829 -0.9119  0.5341
 2823SOL     OW20101   4.691   1.569   0.184  0.0088 -0.2546  0.0960
 2823SOL    HW120102   4.598   1.587   0.171 -0.0554 -0.0220  0.8766
 2823SOL    HW220103   4.726   1.564   0.095  1.0252 -0.3238  0.5011
 2824SOL     OW20104   2.571   3.702   6.926  0.2869  0.0741  0.4466
 2824SOL    HW120105   2.546   3.741   6.842  2.0461  0.7132  0.2286
 2824SOL    HW220106   2.513   3.626   6.916  1.4890 -1.0495  1.9688
 2825SOL     OW20107   2.445   0.242   0.641  0.2792 -0.2616  0.1079
 2825SOL    HW120108   2.434   0.212   0.732  2.7642  3.3082  1.6046
 2825SOL    HW220109   2.476   0.159   0.606  2.5286  0.9526 -0.8272
 2826SOL     OW20110   2.412   3.849   9.627  0.7758 -0.0034 -0.1591
 2826SOL    HW120111   2.492   3.883   9.587  0.2859 -0.6695 -1.7114
 2826SOL    HW220112   2.423   3.855   9.721  0.5292  0.2713 -0.1443
 2827SOL     OW20113   4.203   4.124   2.689 -0.3011 -0.1549  0.4040
 2827SOL    HW120114   4.108   4.115   2.703 -0.0933 -0.2443  1.7904
 2827SOL    HW220115   4.233   4.042   2.650 -0.0574 -0.1768  0.6381
 2828SOL     OW20116   2.050   0.275   9.164  0.3466 -0.4220 -0.5850
 2828SOL    HW120117   2.002   0.331   9.103  1.0262 -0.2405 -0.9544
 2828SOL    HW220118   2.135   0.256   9.124  0.4905 -0.7966 -0.0995
 2829SOL     OW20119   2.182   1.182  16.227  0.0497 -0.6914  0.1533
 2829SOL    HW120120   2.130   1.199  16.306 -0.7892  0.6570 -0.6870
 2829SOL    HW220121   2.231   1.264  16.224 -1.6773  0.3593  0.1702
 2830SOL     OW20122   0.548   3.780  15.379 -0.3364  0.3386  0.5798
 2830SOL    HW120123   0.524   3.863  15.337 -1.4260 -0.7173 -0.8951
 2830SOL    HW220124   0.641   3.790  15.397 -0.0022 -1.4604 -0.2004
 2831SOL     OW20125   1.150   4.598   2.606 -0.2957  0.5590 -0.3992
 2831SOL    HW120126   1.067   4.580   2.650  0.1304 -1.2000 -0.3437
 2831SOL    HW220127   1.132   4.590   2.512 -3.2283 -0.6325  0.2634
 2832SOL     OW20128   0.431   4.514   2.166 -1.0911  0.6797 -0.0846
 2832SOL    HW120129   0.457   4.601   2.196 -1.9424  0.7286  0.5083
 2832SOL    HW220130   0.344   4.518   2.127 -0.3811  1.3106 -1.6011
 2833SOL     OW20131   4.264   2.446   9.027  0.0987 -0.0276  0.0754
 2833SOL    HW120132   4.200   2.473   8.962  1.7504  2.0825 -0.6763
 2833SOL    HW220133   4.201   2.392   9.075  0.1959  1.4935  1.9234
 2834SOL     OW20134   4.031   4.291  10.572  0.8409  0.3881  0.2863
 2834SOL    HW120135   4.061   4.326  10.488  0.6417 -0.2749 -0.0698
 2834SOL    HW220136   3.939   4.264  10.561  0.3184  1.7355  1.4657
 2835SOL     OW20137   2.488   3.758   1.914 -0.1754 -0.9928  0.1154
 2835SOL    HW120138   2.457   3.792   1.830 -0.3230 -1.6262 -0.0898
 2835SOL    HW220139   2.581   3.736   1.910 -0.3915 -2.0112  0.7423
 2836SOL     OW20140   1.209   1.947  14.075 -0.9007 -0.2870  0.0303
 2836SOL    HW120141   1.154   1.875  14.045 -0.3433 -0.6991 -0.0163
 2836SOL    HW220142   1.140   2.003  14.108 -1.6598 -1.1132 -0.1499
 2837SOL     OW20143   4.080   0.578   2.522  0.6438  0.3822 -0.1334
 2837SOL    HW120144   4.070   0.483   2.531  0.0304  0.4947  0.3901
 2837SOL    HW220145   4.126   0.598   2.604  2.1359  1.6287 -1.2780
 2838SOL     OW20146   0.128   4.125  17.653 -0.3404 -0.2054 -0.1803
 2838SOL    HW120147   0.089   4.210  17.631  0.2779  0.5654  1.6470
 2838SOL    HW220148   0.074   4.092  17.724 -1.0775 -1.7364 -1.4749
 2839SOL     OW20149   2.982   1.247   1.952 -0.1660 -0.0159  0.0981
 2839SOL    HW120150   3.066   1.224   1.991  0.0055 -1.4084 -1.0987
 2839SOL    HW220151   2.973   1.193   1.873  0.9225 -2.3307  1.5684
 2840SOL     OW20152   4.497   1.111   9.807  0.0006 -0.2054 -0.2730
 2840SOL    HW120153   4.501   1.027   9.852  2.6553 -1.1530 -2.2553
 2840SOL    HW220154   4.407   1.100   9.778  0.0863 -0.5201 -0.4198
 2841SOL     OW20155   0.038   0.520   4.317 -0.1928  0.2361  0.6510
 2841SOL    HW120156   0.039   0.468   4.398 -2.4365 -3.7984 -1.9391
 2841SOL    HW220157   4.731   0.598   4.354 -0.3197 -0.1921  1.4203
 2842SOL     OW20158   3.254   4.248  16.886  0.2600 -0.3548  0.0862
 2842SOL    HW120159   3.166   4.284  16.870  0.0543 -0.7272  0.3729
 2842SOL    HW220160   3.268   4.253  16.981  1.5230 -0.6098 -0.0870
 2843SOL     OW20161   0.407   1.577   7.478  0.8373  0.1156  0.1931
 2843SOL    HW120162   0.434   1.527   7.401 -1.7937 -0.7894 -0.1203
 2843SOL    HW220163   0.423   1.514   7.548 -1.5750  0.3744  0.9763
 2844SOL     OW20164   0.128   4.576  15.438  0.4106  0.4210 -0.5676
 2844SOL    HW120165   0.163   4.587  15.527 -1.5433  2.0640 -0.0080
 2844SOL    HW220166   0.038   4.605  15.452  0.3982  0.3521 -0.5034
 2845SOL     OW20167   0.830   1.149   6.764 -0.0135 -0.3137  0.3974
 2845SOL    HW120168   0.768   1.218   6.738 -0.4325 -0.3674  1.2519
 2845SOL    HW220169   0.872   1.179   6.845  1.9709 -0.1976 -0.6634
 2846SOL     OW20170   4.546   3.769  12.483  0.0708  0.3590 -0.1232
 2846SOL    HW120171   4.631   3.727  12.497 -0.5040 -0.2457  1.5816
 2846SOL    HW220172   4.503   3.751  12.567 -0.0479 -1.6602 -0.6027
 2847SOL     OW20173   0.245   3.859  10.175 -0.2917  0.0279  0.1570
 2847SOL    HW120174   0.264   3.939  10.224 -0.5781  0.9917 -1.2691
 2847SOL    HW220175   0.296   3.874  10.095 -1.3124 -1.1814 -0.7346
 2848SOL     OW20176   1.873   2.112   6.365 -0.0739  0.2346 -0.6543
 2848SOL    HW120177   1.962   2.099   6.398 -0.4244  0.2631  0.2955
 2848SOL    HW220178   1.869   2.203   6.335  2.3801  0.2777 -0.8539
 2849SOL     OW20179   3.464   0.594   6.685 -0.7353  0.0261 -0.0817
 2849SOL    HW120180   3.381   0.636   6.662 -1.1725 -0.2809  0.9546
 2849SOL    HW220181   3.436   0.515   6.731  0.8403 -0.9454 -0.7541
 2850SOL     OW20182   1.166   4.712   7.932  0.0448  0.3619  0.2859
 2850SOL    HW120183   1.093   4.723   7.992 -0.0325  1.8578 -0.0746
 2850SOL    HW220184   1.241   0.024   7.972  0.2917  1.8496 -1.8543
 2851SOL     OW20185   1.367   1.555  16.006  0.4377  1.1546 -0.0315
 2851SOL    HW120186   1.450   1.520  15.974  0.4470 -1.2553  2.5942
 2851SOL    HW220187   1.382   1.548  16.100 -1.9095  1.5213  0.3891
 2852SOL     OW20188   2.641   1.611   6.027  0.2175  0.8225  0.1261
 2852SOL    HW120189   2.696   1.689   6.040 -0.1502  0.8206  1.6853
 2852SOL    HW220190   2.701   1.551   5.983 -1.0133  1.8739 -2.9476
 2853SOL     OW20191   4.104   0.531   4.911 -0.1305  0.9946 -0.5239
 2853SOL    HW120192   4.022   0.483   4.903  0.2981  0.0870  0.5192
 2853SOL    HW220193   4.100   0.549   5.005 -0.1109  0.4859 -0.4289
 2854SOL     OW20194   1.841   2.950   3.854  0.3529 -0.0356 -0.2346
 2854SOL    HW120195   1.798   2.871   3.883  0.4845  0.5126  1.4146
 2854SOL    HW220196   1.926   2.925   3.816 -1.5627 -2.6290 -2.7900
 2855SOL     OW20197   1.331   4.622  11.954  0.0839 -0.1386 -0.3014
 2855SOL    HW120198   1.363   4.642  12.042 -2.0582  1.2591  0.1634
 2855SOL    HW220199   1.275   4.697  11.932 -0.7204 -0.2862  1.2337
 2856SOL     OW20200   0.989   0.345   4.791 -0.0171 -0.0209 -0.1112
 2856SOL    HW120201   1.074   0.339   4.748 -1.3164  0.3911 -2.7776
 2856SOL    HW220202   0.994   0.411   4.860 -2.1758  0.4915 -0.4308
 2857SOL     OW20203   2.313   3.251  14.648  0.6627 -0.2717 -0.3979
 2857SOL    HW120204   2.378   3.183  14.630 -2.4470 -2.3371 -4.0411
 2857SOL    HW220205   2.312   3.311  14.574 -2.6639 -2.4579 -2.1565
 2858SOL     OW20206   3.383   3.504   1.243  0.0874  0.0281  0.1624
 2858SOL    HW120207   3.471   3.504   1.203  0.1426 -4.0719  0.2153
 2858SOL    HW220208   3.340   3.581   1.207 -0.2752  0.0598  0.6755
 2859SOL     OW20209   2.503   1.491   9.519  0.2023 -0.2975  0.3517
 2859SOL    HW120210   2.535   1.581   9.523  0.6704 -0.5560  2.4257
 2859SOL    HW220211   2.474   1.477   9.609  2.5717  0.1574  1.1699
 2860SOL     OW20212   0.348   4.626  14.797 -0.2410 -0.0183  0.6659
 2860SOL    HW120213   0.438   4.639  14.764 -0.9098 -0.9146 -1.5319
 2860SOL    HW220214   0.312   4.579  14.721 -0.2164 -0.8543  1.1672
 2861SOL     OW20215   2.446   1.117  16.506  0.5702 -0.0819 -0.0123
 2861SOL    HW120216   2.477   1.126  16.596 -3.1037 -0.0876  1.2464
 2861SOL    HW220217   2.376   1.052  16.513 -0.9141  1.5693  0.6267
 2862SOL     OW20218   2.673   3.358   8.298  0.0977  0.3078  0.5449
 2862SOL    HW120219   2.725   3.277   8.301 -1.5542 -0.7537  0.5231
 2862SOL    HW220220   2.743   3.415   8.267 -0.4413  0.2777 -0.7330
 2863SOL     OW20221   0.176   2.941  15.462  0.3804 -0.3073 -0.2350
 2863SOL    HW120222   0.243   2.874  15.473 -0.2001 -0.5613  1.7178
 2863SOL    HW220223   0.092   2.898  15.480  0.6705 -0.7939 -0.0234
 2864SOL     OW20224   1.544   4.321   3.305 -0.5799  0.2254 -0.2341
 2864SOL    HW120225   1.455   4.314   3.340 -0.9378  0.9828 -1.0017
 2864SOL    HW220226   1.524   4.383   3.235 -2.4453 -0.4492 -0.3162
 2865SOL     OW20227   3.068   3.112   2.459 -0.0864  0.4643  0.1903
 2865SOL    HW120228   3.041   3.141   2.546 -2.1275  1.4751 -0.7595
 2865SOL    HW220229   2.985   3.080   2.423  0.3563 -0.1922 -0.2365
 2866SOL     OW20230   3.465   2.451   3.800 -0.3919 -0.1157  0.2918
 2866SOL    HW120231   3.370   2.459   3.807 -0.5465 -1.9709  0.4241
 2866SOL    HW220232   3.478   2.413   3.887  1.9321 -1.6469 -0.7024
 2867SOL     OW20233   3.179   1.763  14.772 -0.1057  0.4505 -0.3074
 2867SOL    HW120234   3.103   1.703  14.772  0.1962  0.0644 -0.8555
 2867SOL    HW220235   3.186   1.769  14.867  0.4830 -0.9980 -0.2511
 2868SOL     OW20236   4.204   1.199   4.744  0.0869  0.5973 -1.2422
 2868SOL    HW120237   4.150   1.275   4.725 -0.9800  0.2659  0.5015
 2868SOL    HW220238   4.140   1.134   4.718 -1.6456  1.2714  1.3688
 2869SOL     OW20239   4.584   0.183   8.736 -0.0514  0.0264  0.3225
 2869SOL    HW120240   4.529   0.106   8.752  0.5470 -0.8806 -1.8675
 2869SOL    HW220241   4.515   0.249   8.738  0.0969  0.1938  0.0089
 2870SOL     OW20242   0.552   3.448   2.826  0.0587  0.1619 -0.0973
 2870SOL    HW120243   0.517   3.495   2.902 -3.7313 -1.5938 -0.7591
 2870SOL    HW220244   0.643   3.454   2.856  0.1182  0.8229 -0.4128
 2871SOL     OW20245   4.252   0.807   0.646  0.0364 -0.4510 -0.2571
 2871SOL    HW120246   4.287   0.759   0.571  0.1991  0.8473 -1.0167
 2871SOL    HW220247   4.277   0.748   0.717  1.3393 -0.1525 -0.4839
 2872SOL     OW20248   3.786   0.918   2.810  0.0836  0.0272  0.3869
 2872SOL    HW120249   3.851   0.939   2.742  1.0089  0.4247  1.4020
 2872SOL    HW220250   3.828   0.968   2.879 -1.6813  1.8070  0.1812
 2873SOL     OW20251   1.917   3.906  15.620  0.2907  0.7527 -0.2637
 2873SOL    HW120252   1.891   3.897  15.712  0.3315  0.0320 -0.3182
 2873SOL    HW220253   1.933   3.818  15.586 -0.9311  1.2307 -2.0551
 2874SOL     OW20254   1.552   0.672   0.267  0.2360 -0.6077 -0.1935
 2874SOL    HW120255   1.510   0.652   0.184 -1.3272 -2.0885  0.9761
 2874SOL    HW220256   1.541   0.765   0.286  1.3966 -0.3558 -0.7276
 2875SOL     OW20257   0.463   0.188   8.441 -0.1862  0.3668 -0.2092
 2875SOL    HW120258   0.387   0.246   8.445 -0.3167  0.1749  0.1034
 2875SOL    HW220259   0.457   0.159   8.350 -0.3462  1.1808 -0.4532
 2876SOL     OW20260   3.424   1.701  15.300 -0.7146  0.2365 -0.5575
 2876SOL    HW120261   3.364   1.640  15.256  0.7878 -2.4676  1.1456
 2876SOL    HW220262   3.372   1.782  15.300 -0.0160  0.6878  0.4347
 2877SOL     OW20263   0.613   2.270   5.818  0.2111  0.0336  0.2265
 2877SOL    HW120264   0.609   2.183   5.859  2.6026 -0.9838 -1.6781
 2877SOL    HW220265   0.664   2.316   5.886  1.8899 -2.4349  0.6422
 2878SOL     OW20266   2.014   0.887   7.762 -0.3462 -0.2103 -0.4102
 2878SOL    HW120267   1.952   0.900   7.691 -1.7965  2.4279  1.3461
 2878SOL    HW220268   2.099   0.892   7.719 -0.4432  2.6763 -0.2745
 2879SOL     OW20269   2.379   2.425  12.389  0.1933  0.0631 -0.0769
 2879SOL    HW120270   2.284   2.416  12.397  0.1051 -1.1160 -2.2613
 2879SOL    HW220271   2.399   2.335  12.365  0.0150  0.3705 -1.3982
 2880SOL     OW20272   0.714   2.601   0.827  0.7220 -0.1521  0.4043
 2880SOL    HW120273   0.619   2.598   0.813  0.6311 -3.0241  1.5026
 2880SOL    HW220274   0.747   2.643   0.748  3.2397 -1.7525  0.5954
 2881SOL     OW20275   1.224   1.596   2.953 -0.3080  0.6028  0.0019
 2881SOL    HW120276   1.194   1.577   3.042 -1.3890  0.6514 -0.3479
 2881SOL    HW220277   1.317   1.598   2.973 -0.1958  1.6128 -0.6268
 2882SOL     OW20278   0.562   3.403   5.617  0.2349  0.1998  0.2626
 2882SOL    HW120279   0.488   3.394   5.678 -0.5526  1.0339 -0.5750
 2882SOL    HW220280   0.626   3.402   5.688  0.5441 -1.0510 -0.0358
 2883SOL     OW20281   2.022   0.266   9.801 -0.2995  0.4197  0.5815
 2883SOL    HW120282   1.965   0.193   9.776  0.3627  0.1415 -0.1294
 2883SOL    HW220283   1.966   0.339   9.776  0.8627  0.5732 -1.5137
 2884SOL     OW20284   0.660   0.843   7.537  0.2594 -0.3432 -0.5064
 2884SOL    HW120285   0.668   0.764   7.483  0.7046 -0.9851  0.4880
 2884SOL    HW220286   0.709   0.905   7.484 -0.3714  0.4754 -0.1270
 2885SOL     OW20287   1.576   3.285  12.247  0.1194 -1.0293 -0.1394
 2885SOL    HW120288   1.646   3.245  12.196  1.1878  1.4239 -0.5899
 2885SOL    HW220289   1.583   3.378  12.226 -0.6887 -0.1029  3.5846
 2886SOL     OW20290   1.800   0.050  10.505  0.4835  0.7052 -0.2624
 2886SOL    HW120291   1.788   0.124  10.566 -0.4931  0.1726  0.2048
 2886SOL    HW220292   1.824   4.715  10.566  1.2095  0.6708 -0.5927
 2887SOL     OW20293   2.812   4.667   4.085  0.3400  0.5092 -0.1602
 2887SOL    HW120294   2.724   4.653   4.050 -0.2291 -1.0273  1.8875
 2887SOL    HW220295   2.858   4.658   4.002  0.1216 -0.8048 -0.1405
 2888SOL     OW20296   4.281   4.347   8.278 -0.1271 -0.5982 -0.4861
 2888SOL    HW120297   4.268   4.357   8.183  2.3387 -1.5042 -0.9085
 2888SOL    HW220298   4.297   4.437   8.305 -0.1708 -0.1769 -1.8724
 2889SOL     OW20299   4.212   2.799   3.245  0.3032 -0.3815 -0.1480
 2889SOL    HW120300   4.300   2.825   3.272  0.3271 -1.7216  1.0702
 2889SOL    HW220301   4.229   2.753   3.163 -0.0293  0.6883 -0.8178
 2890SOL     OW20302   2.932   0.214   4.074 -0.1739  0.2597  0.1384
 2890SOL    HW120303   2.895   0.151   4.137 -0.1051  0.0883  0.0090
 2890SOL    HW220304   2.847   0.252   4.052 -0.4162  0.7730  1.9687
 2891SOL     OW20305   3.968   2.517   3.069  0.9470  0.3877 -0.3116
 2891SOL    HW120306   3.887   2.567   3.077  1.4922  1.2898 -0.4048
 2891SOL    HW220307   3.948   2.478   2.984  2.8935 -0.9674 -0.1627
 2892SOL     OW20308   0.828   1.654  10.555 -0.0278 -0.3495  0.1264
 2892SOL    HW120309   0.839   1.562  10.530  3.4474 -0.2596  1.3671
 2892SOL    HW220310   0.840   1.683  10.464  1.0942 -2.5668 -0.4374
 2893SOL     OW20311   2.204   0.563   9.411  0.0537  0.3091 -0.3526
 2893SOL    HW120312   2.173   0.477   9.441  2.5332 -0.6837 -0.6767
 2893SOL    HW220313   2.196   0.613   9.492  0.9352 -0.3108  0.1178
 2894SOL     OW20314   0.665   2.767  11.630 -0.4166  0.0959  0.3818
 2894SOL    HW120315   0.738   2.725  11.676  0.3224  0.7408 -0.2069
 2894SOL    HW220316   0.691   2.745  11.541 -0.6404 -0.1266  0.3715
 2895SOL     OW20317   0.086   0.980  13.330  0.3145  0.1254  0.0617
 2895SOL    HW120318   0.005   0.950  13.372 -0.9129 -0.2355 -2.5590
 2895SOL    HW220319   0.157   0.926  13.365 -0.4724 -0.1213  1.3016
 2896SOL     OW20320   0.489   1.444   1.358 -0.0161  0.0367 -0.0956
 2896SOL    HW120321   0.439   1.418   1.281 -2.1954 -1.6751  1.8839
 2896SOL    HW220322   0.447   1.521   1.399  0.5313  0.6363 -0.6564
 2897SOL     OW20323   1.230   2.377  14.560  0.8211  0.0660 -0.2484
 2897SOL    HW120324   1.139   2.372  14.587  0.7666  0.8290 -0.2922
 2897SOL    HW220325   1.260   2.462  14.593  0.5967  0.4576 -1.0600
 2898SOL     OW20326   1.340   2.573  11.497  0.9220 -0.0127 -0.4954
 2898SOL    HW120327   1.397   2.547  11.569  0.3859 -1.2161 -0.5057
 2898SOL    HW220328   1.327   2.491  11.449  0.9208 -2.2002  3.2592
 2899SOL     OW20329   3.540   2.876  11.112 -0.6659 -0.5170  0.0441
 2899SOL    HW120330   3.496   2.961  11.116  1.6480  0.6259  1.1583
 2899SOL    HW220331   3.494   2.835  11.039 -1.3553  1.7024 -0.7723
 2900SOL     OW20332   3.767   2.330  17.385 -0.1512  0.2310  0.1754
 2900SOL    HW120333   3.687   2.377  17.409 -1.5356 -1.6135 -0.9385
 2900SOL    HW220334   3.762   2.320  17.291  0.1972  3.8073 -0.2539
 2901SOL     OW20335   3.381   3.420  11.507  0.0805  0.2663  0.0743
 2901SOL    HW120336   3.426   3.335  11.500 -1.9767 -1.0336  2.8703
 2901SOL    HW220337   3.292   3.386  11.512 -0.0331  0.9029  1.9786
 2902SOL     OW20338   1.170   2.620   2.995  0.0631 -0.5173 -0.1137
 2902SOL    HW120339   1.204   2.619   2.905 -2.3851  2.4502 -1.0449
 2902SOL    HW220340   1.104   2.551   2.988 -1.1208  0.4737  1.4530
 2903SOL     OW20341   3.967   3.163   4.827 -0.0020 -0.2660  0.0156
 2903SOL    HW120342   3.876   3.148   4.855 -0.3324  1.4464 -0.1288
 2903SOL    HW220343   3.961   3.240   4.771  1.5263  0.3617  0.7149
 2904SOL     OW20344   4.647   2.158   3.040  0.4773  0.0989  0.0376
 2904SOL    HW120345   4.658   2.109   2.959  1.4683  0.5870 -0.1349
 2904SOL    HW220346   4.734   2.200   3.036  0.3621  0.5834  2.5564
 2905SOL     OW20347   2.443   4.584   8.052 -0.5255 -0.0559  0.3001
 2905SOL    HW120348   2.362   4.627   8.082 -0.8175  0.8707 -1.7726
 2905SOL    HW220349   2.420   4.495   8.028  1.9667 -1.3702  2.7935
 2906SOL     OW20350   0.080   1.580  17.665  0.0454  0.3775  0.2326
 2906SOL    HW120351   0.102   1.519  17.594  0.9319 -0.4020  1.1734
 2906SOL    HW220352   0.059   1.660  17.617  1.7433  1.0680  0.6330
 2907SOL     OW20353   1.663   1.041   4.039 -0.3689 -0.0654 -0.2831
 2907SOL    HW120354   1.703   0.980   4.101  1.6116  1.9526  0.4231
 2907SOL    HW220355   1.617   1.103   4.095 -2.8588 -0.7583 -1.5540
 2908SOL     OW20356   4.012   0.111   8.617  0.2011 -0.5602  0.0213
 2908SOL    HW120357   3.931   0.112   8.566 -0.9207 -1.8148  1.7396
 2908SOL    HW220358   4.069   0.150   8.551  0.0462  1.5117  1.1198
 2909SOL     OW20359   4.442   1.541   4.217  0.2173 -0.2708  0.0710
 2909SOL    HW120360   4.498   1.606   4.174  2.6778 -1.0231  2.1528
 2909SOL    HW220361   4.481   1.459   4.187  3.3107  1.8170 -1.6025
 2910SOL     OW20362   0.062   3.124   9.771  0.4384  0.4438  0.2539
 2910SOL    HW120363   0.143   3.171   9.789  0.0304  1.0775  0.4241
 2910SOL    HW220364   0.050   3.075   9.852 -0.4440 -0.9999 -0.7376
 2911SOL     OW20365   1.663   0.402   4.739 -0.0422 -0.3833  0.4175
 2911SOL    HW120366   1.600   0.444   4.681 -1.8706 -3.8431 -0.1261
 2911SOL    HW220367   1.614   0.389   4.820 -1.4687  0.8929 -0.2502
 2912SOL     OW20368   2.002   1.560   1.871  0.6659 -0.1610  0.3781
 2912SOL    HW120369   1.917   1.550   1.912  0.5837  0.0015  0.2484
 2912SOL    HW220370   2.002   1.499   1.797  3.0763  0.4084 -0.1000
 2913SOL     OW20371   4.538   0.840   8.805 -0.3050  0.6027 -0.1032
 2913SOL    HW120372   4.489   0.758   8.794 -0.6286  0.9183 -1.0350
 2913SOL    HW220373   4.605   0.812   8.868 -0.8372 -0.5131 -0.0263
 2914SOL     OW20374   1.822   3.705   4.511  0.2622  0.2512  0.0923
 2914SOL    HW120375   1.811   3.775   4.447 -1.6582  0.4928  0.7132
 2914SOL    HW220376   1.916   3.696   4.496  0.1162 -2.0107  0.5003
 2915SOL     OW20377   3.509   2.337   1.609 -0.3461  0.0582  0.5996
 2915SOL    HW120378   3.501   2.261   1.666 -0.0144  1.1611  2.1122
 2915SOL    HW220379   3.507   2.405   1.677 -0.3855  1.3665 -0.6896
 2916SOL     OW20380   1.728   0.189   4.558 -0.4514  0.5720  0.2549
 2916SOL    HW120381   1.680   0.240   4.623  0.0164 -0.5243  1.4646
 2916SOL    HW220382   1.791   0.254   4.527 -1.8470  2.3189  1.0788
 2917SOL     OW20383   2.246   4.468   9.065  0.3455  0.8690  0.2159
 2917SOL    HW120384   2.337   4.462   9.092  0.4364  1.7592  0.1081
 2917SOL    HW220385   2.201   4.496   9.145 -0.8696  2.2844 -0.9486
 2918SOL     OW20386   0.402   1.747   8.200 -0.1834 -0.3946  0.7577
 2918SOL    HW120387   0.306   1.741   8.205 -0.0783 -1.2916  1.6036
 2918SOL    HW220388   0.427   1.833   8.234  2.7396 -1.7096  1.8710
 2919SOL     OW20389   2.501   1.215   8.576 -0.1464 -0.0640 -0.2280
 2919SOL    HW120390   2.477   1.293   8.626  0.1415  0.9178 -1.6195
 2919SOL    HW220391   2.445   1.144   8.607 -0.3057 -0.0264 -0.4389
 2920SOL     OW20392   4.027   1.617   3.526  0.3981  0.1969 -0.2076
 2920SOL    HW120393   4.035   1.646   3.617 -0.0490 -1.4555  0.3557
 2920SOL    HW220394   4.060   1.528   3.543  0.6993  0.0072 -1.8017
 2921SOL     OW20395   2.824   2.347   3.772  0.3179 -0.0752  0.2511
 2921SOL    HW120396   2.777   2.349   3.688 -1.2576 -0.0735  1.1326
 2921SOL    HW220397   2.757   2.334   3.839  1.2971 -2.4195  0.7823
 2922SOL     OW20398   0.343   1.146   9.785 -0.1919  0.0022  0.0094
 2922SOL    HW120399   0.402   1.071   9.790  0.1628  0.4537  2.7016
 2922SOL    HW220400   0.261   1.105   9.812  0.2190 -2.3707 -2.3001
 2923SOL     OW20401   4.068   1.624   4.077  0.3909  0.3405  0.2729
 2923SOL    HW120402   4.044   1.712   4.047 -2.3317  0.3980  2.6258
 2923SOL    HW220403   4.078   1.629   4.172  1.6352 -0.5772  0.1956
 2924SOL     OW20404   3.355   3.094  16.829  0.3546 -0.6239 -0.5296
 2924SOL    HW120405   3.268   3.058  16.847  0.9169 -0.8014  1.7760
 2924SOL    HW220406   3.419   3.026  16.851  0.2664  0.3459  2.6110
 2925SOL     OW20407   0.801   1.677   3.115  0.3133 -0.3069 -0.1007
 2925SOL    HW120408   0.802   1.772   3.122 -0.2151 -0.4447  1.9233
 2925SOL    HW220409   0.804   1.675   3.019 -3.8216  1.6955 -0.2410
 2926SOL     OW20410   1.327   1.655  17.547 -0.0984  0.3764 -0.0485
 2926SOL    HW120411   1.280   1.615  17.473 -0.4378 -1.6872  1.2758
 2926SOL    HW220412   1.414   1.616  17.536  1.2336  3.4286 -0.2472
 2927SOL     OW20413   3.201   2.292   9.597  0.6203 -0.3101  0.2905
 2927SOL    HW120414   3.146   2.346   9.540 -0.5030 -0.7090  0.9986
 2927SOL    HW220415   3.144   2.298   9.673  0.5706 -1.8766  0.3739
 2928SOL     OW20416   4.535   2.574   2.468 -0.4434 -0.3713 -0.1597
 2928SOL    HW120417   4.591   2.648   2.443  0.1412 -0.9941 -0.6978
 2928SOL    HW220418   4.610   2.518   2.490  0.1555  0.9696  1.1922
 2929SOL     OW20419   2.426   3.517  11.058  0.2777 -0.6261  0.4701
 2929SOL    HW120420   2.456   3.603  11.086  2.0226 -0.8351 -0.7321
 2929SOL    HW220421   2.335   3.537  11.039 -1.0683 -4.0676  3.2324
 2930SOL     OW20422   4.081   0.515   8.576 -0.0090  0.2141 -0.1082
 2930SOL    HW120423   4.094   0.547   8.487  0.6420 -0.2766 -0.1953
 2930SOL    HW220424   4.026   0.583   8.613  0.1416  0.3158 -0.0706
 2931SOL     OW20425   2.716   2.619  11.807 -0.8773 -0.5291  0.3685
 2931SOL    HW120426   2.674   2.627  11.893  1.4132 -0.0058  1.4321
 2931SOL    HW220427   2.795   2.573  11.837 -0.7778 -0.5376  0.0931
 2932SOL     OW20428   3.356   3.478   8.953 -0.4277 -0.0986 -0.1532
 2932SOL    HW120429   3.402   3.557   8.925 -1.0159  0.7829  1.4038
 2932SOL    HW220430   3.419   3.447   9.017 -0.4747  2.1256  0.9667
 2933SOL     OW20431   3.813   0.623   2.612  0.0751 -0.5442  0.6754
 2933SOL    HW120432   3.830   0.629   2.706 -2.1290 -1.6803  1.1424
 2933SOL    HW220433   3.905   0.638   2.590 -0.2641  2.1980  1.1273
 2934SOL     OW20434   2.658   0.459   8.972 -0.2685  0.2451  0.3371
 2934SOL    HW120435   2.644   0.370   9.003  1.0938  0.7636  2.5010
 2934SOL    HW220436   2.725   0.498   9.028  0.2743  1.7843 -1.3893
 2935SOL     OW20437   3.688   1.780   1.002 -0.4620 -0.1669 -0.2525
 2935SOL    HW120438   3.690   1.869   0.965  0.4162  0.0574  0.3482
 2935SOL    HW220439   3.649   1.727   0.932  0.0209 -0.6730 -0.1275
 2936SOL     OW20440   4.260   1.529   4.439 -0.0212 -0.4369 -0.4352
 2936SOL    HW120441   4.313   1.517   4.360  1.4815  1.1483  0.3341
 2936SOL    HW220442   4.177   1.485   4.420 -0.7733  0.7186  0.1614
 2937SOL     OW20443   0.054   1.526  12.864 -0.5382  0.2706  0.5482
 2937SOL    HW120444   0.093   1.589  12.804 -0.3610  0.9459  1.3692
 2937SOL    HW220445   4.698   1.553  12.850 -0.5275 -1.0541 -1.9733
 2938SOL     OW20446   0.738   2.464   4.428  0.2663  0.0557 -0.0048
 2938SOL    HW120447   0.829   2.473   4.458  0.4819 -2.1836  0.0104
 2938SOL    HW220448   0.733   2.528   4.357  1.2587  1.6732  1.3771
 2939SOL     OW20449   2.577   1.769   9.543 -0.3142 -0.2528 -0.5549
 2939SOL    HW120450   2.644   1.809   9.597 -0.0938 -0.4499 -0.6821
 2939SOL    HW220451   2.492   1.782   9.585  0.9031  0.1481  1.7823
 2940SOL     OW20452   3.438   1.969   4.053 -0.0560 -0.0650  0.1702
 2940SOL    HW120453   3.374   1.902   4.074  1.7330 -1.8243 -0.0347
 2940SOL    HW220454   3.459   1.965   3.960 -1.4834 -1.1301 -0.1096
 2941SOL     OW20455   1.842   2.419   5.884  0.1156 -0.3640  0.2632
 2941SOL    HW120456   1.862   2.326   5.891 -1.5305 -0.7827 -0.5490
 2941SOL    HW220457   1.845   2.428   5.789  0.4565 -0.2641  0.2834
 2942SOL     OW20458   2.623   0.722  13.703 -0.1704  0.2481  0.4156
 2942SOL    HW120459   2.531   0.702  13.724 -0.8732  0.7665 -2.1150
 2942SOL    HW220460   2.641   0.677  13.621 -0.6936  2.3509 -0.8543
 2943SOL     OW20461   2.748   0.189   1.162  0.2588 -0.1887 -0.0908
 2943SOL    HW120462   2.787   0.243   1.092  0.2830 -1.2553 -0.8989
 2943SOL    HW220463   2.781   0.236   1.239 -0.1197  0.7431 -0.5027
 2944SOL     OW20464   4.309   3.625   8.842  0.6671 -0.2880  0.1569
 2944SOL    HW120465   4.389   3.678   8.846 -0.4670  1.1950  3.6038
 2944SOL    HW220466   4.323   3.548   8.898  1.5439 -0.0163  0.3149
 2945SOL     OW20467   0.999   1.971   8.825  0.1335  0.4232  0.6432
 2945SOL    HW120468   0.945   1.977   8.747  0.8259  0.0428  0.1313
 2945SOL    HW220469   1.041   2.057   8.831  2.0368 -0.6134  2.1557
 2946SOL     OW20470   3.230   1.046   2.388 -0.5284  0.7547  0.4298
 2946SOL    HW120471   3.234   1.141   2.397 -0.5730  0.9290 -1.4709
 2946SOL    HW220472   3.152   1.038   2.332  0.5424 -0.2382 -0.9127
 2947SOL     OW20473   0.907   2.988   2.021  0.0888 -0.2135  0.5368
 2947SOL    HW120474   0.940   3.064   1.974  1.3518 -0.2288  1.4029
 2947SOL    HW220475   0.948   3.012   2.104  0.5956 -0.0265  0.2298
 2948SOL     OW20476   2.363   4.294   5.098  0.0498  0.2029 -0.0255
 2948SOL    HW120477   2.448   4.277   5.140 -0.9416 -0.3937  1.7595
 2948SOL    HW220478   2.393   4.290   5.007 -1.3555  1.5173 -0.5370
 2949SOL     OW20479   2.573   4.174   7.848 -0.4599 -0.2373  0.0278
 2949SOL    HW120480   2.552   4.094   7.896 -0.2459  0.4414  1.2579
 2949SOL    HW220481   2.616   4.132   7.773  2.2361  2.7654 -0.0852
 2950SOL     OW20482   0.313   0.606   9.465 -0.2435  0.2359 -0.5625
 2950SOL    HW120483   0.395   0.560   9.483  1.2180  2.1812 -2.2829
 2950SOL    HW220484   0.339   0.656   9.388  1.2728 -1.6742 -1.2619
 2951SOL     OW20485   0.433   4.007  12.293 -0.4326 -0.5337  0.4365
 2951SOL    HW120486   0.356   4.000  12.349  0.4519 -1.2469  1.5701
 2951SOL    HW220487   0.453   3.914  12.308  1.5256 -0.1199  0.4603
 2952SOL     OW20488   2.633   3.289   9.349  0.5914  0.2984  0.1658
 2952SOL    HW120489   2.637   3.280   9.254  0.4718 -0.9342  0.2763
 2952SOL    HW220490   2.718   3.330   9.356  0.2558  0.7487  1.5144
 2953SOL     OW20491   4.113   1.862   6.684 -0.4119  0.1870  0.0720
 2953SOL    HW120492   4.121   1.890   6.593  0.6173  1.1123  0.4520
 2953SOL    HW220493   4.029   1.902   6.707 -0.0108  1.2601 -0.3067
 2954SOL     OW20494   0.598   0.480   6.350 -0.3425 -0.1020 -0.3206
 2954SOL    HW120495   0.516   0.432   6.362 -0.1894 -0.1816  0.4170
 2954SOL    HW220496   0.600   0.518   6.438  1.1687 -0.7523 -0.0869
 2955SOL     OW20497   0.460   0.732   9.274  0.0760  0.0792  0.5709
 2955SOL    HW120498   0.534   0.703   9.327  0.9914  1.1190 -0.1399
 2955SOL    HW220499   0.497   0.795   9.211 -1.1704 -0.4645 -0.6940
 2956SOL     OW20500   1.782   2.535   4.092  0.1065 -0.0606 -0.2655
 2956SOL    HW120501   1.768   2.510   4.183 -1.4038 -1.0635 -0.7756
 2956SOL    HW220502   1.871   2.502   4.087  0.1319  0.0438 -0.5191
 2957SOL     OW20503   1.566   2.268   8.062  0.0592 -0.5148  0.5175
 2957SOL    HW120504   1.527   2.352   8.086  0.1458 -0.5810  0.8815
 2957SOL    HW220505   1.611   2.291   7.980 -0.7538  0.4088  0.3265
 2958SOL     OW20506   2.505   3.959   7.980  0.6420 -0.3339 -1.1084
 2958SOL    HW120507   2.559   3.888   8.015 -1.4400 -1.3538 -0.0021
 2958SOL    HW220508   2.432   3.963   8.041  0.5213  1.1602 -1.3369
 2959SOL     OW20509   0.243   3.920   5.820  0.4849  0.0942 -0.7678
 2959SOL    HW120510   0.197   3.899   5.738  0.7775 -0.5462 -0.7703
 2959SOL    HW220511   0.280   3.837   5.852 -0.4194 -0.3606 -0.9006
 2960SOL     OW20512   2.848   4.327  15.392  0.3380  0.3005  0.3726
 2960SOL    HW120513   2.777   4.286  15.440  0.3910  0.7604  0.8461
 2960SOL    HW220514   2.799   4.392  15.341 -0.4839  0.6846  1.6631
 2961SOL     OW20515   3.307   1.512   2.793  0.7067  0.1739 -0.0295
 2961SOL    HW120516   3.267   1.467   2.719  0.6928  0.2415 -0.0633
 2961SOL    HW220517   3.256   1.591   2.814  2.1224  0.9294  0.6044
 2962SOL     OW20518   0.541   4.594   8.682  0.2010 -0.2174  0.2095
 2962SOL    HW120519   0.474   4.659   8.704  0.1007 -1.5359  3.7995
 2962SOL    HW220520   0.586   4.635   8.608  1.0831  0.4665  1.1130
 2963SOL     OW20521   0.339   0.608   2.525 -0.2755  0.2222 -0.1177
 2963SOL    HW120522   0.389   0.681   2.562  2.0823 -0.0627 -2.7666
 2963SOL    HW220523   0.413   0.547   2.518  0.9034  1.2893  3.0170
 2964SOL     OW20524   1.401   4.698   2.638 -0.0295  0.3189  0.6665
 2964SOL    HW120525   1.310   4.669   2.627  0.5500 -1.5635  0.8492
 2964SOL    HW220526   1.406   0.027   2.567  0.3292 -0.5969 -0.1183
 2965SOL     OW20527   1.697   1.907  15.142  0.5113  0.1041  0.1752
 2965SOL    HW120528   1.770   1.877  15.088 -0.6112  1.9541 -2.4081
 2965SOL    HW220529   1.654   1.978  15.094 -2.1650 -0.4470  1.7749
 2966SOL     OW20530   0.979   1.456  15.645  0.0367  0.3495  1.2557
 2966SOL    HW120531   1.049   1.466  15.709  2.2343 -0.3669 -1.0447
 2966SOL    HW220532   0.949   1.547  15.636  0.5083  0.5769  1.9401
 2967SOL     OW20533   4.510   1.746   9.617 -0.5435  0.0640  0.0912
 2967SOL    HW120534   4.597   1.782   9.634 -0.3850 -0.2712 -0.0090
 2967SOL    HW220535   4.514   1.722   9.525  1.7324  1.2481 -0.1331
 2968SOL     OW20536   1.832   0.097   9.748  0.1143  0.0679  0.4157
 2968SOL    HW120537   1.839   0.014   9.702  1.9814  0.0502  0.7222
 2968SOL    HW220538   1.770   0.145   9.693  2.5221  1.2604 -1.2537
 2969SOL     OW20539   1.406   1.916   6.387 -0.2311 -0.1857  0.5977
 2969SOL    HW120540   1.335   1.978   6.370  1.1574  1.6436  1.4736
 2969SOL    HW220541   1.472   1.942   6.322 -0.1921  0.5618  0.9424
 2970SOL     OW20542   1.414   1.832   0.948 -0.1969  0.5718 -0.4643
 2970SOL    HW120543   1.494   1.852   0.996 -1.5077 -1.5896  2.6270
 2970SOL    HW220544   1.428   1.883   0.868 -2.4823  0.5382 -0.8996
 2971SOL     OW20545   3.923   0.823   0.467  0.2367  0.2910  0.0667
 2971SOL    HW120546   3.898   0.731   0.477  1.6228 -0.5416 -4.0471
 2971SOL    HW220547   3.838   0.867   0.475 -0.6236 -0.9882 -2.0601
 2972SOL     OW20548   3.596   4.663   6.526  0.1432 -0.0325 -0.1098
 2972SOL    HW120549   3.573   4.623   6.442 -1.3948 -0.2490  0.4100
 2972SOL    HW220550   3.674   4.712   6.499 -0.3030  0.1754 -1.0464
 2973SOL     OW20551   3.374   1.690   0.889  0.2520  0.3933 -0.3190
 2973SOL    HW120552   3.283   1.682   0.860 -0.4501 -1.6969  2.4038
 2973SOL    HW220553   3.367   1.766   0.947  2.0857 -1.7170  2.6823
 2974SOL     OW20554   1.599   1.481  15.894  0.8742  0.4866 -0.2324
 2974SOL    HW120555   1.560   1.435  15.820 -2.4311  0.2727  1.6689
 2974SOL    HW220556   1.693   1.480  15.874  0.9710 -0.8811  0.2807
 2975SOL     OW20557   0.075   2.440   3.168  0.3891 -0.9533  0.2793
 2975SOL    HW120558   0.142   2.486   3.218 -1.2431  0.4672  1.1718
 2975SOL    HW220559   0.049   2.366   3.224 -2.1800  1.1506  1.8587
 2976SOL     OW20560   0.713   0.717   3.909 -0.0508  0.0673  0.5273
 2976SOL    HW120561   0.624   0.695   3.935  0.1269 -1.8405 -0.5249
 2976SOL    HW220562   0.741   0.753   3.993  2.1542  0.9880 -0.5825
 2977SOL     OW20563   4.532   0.684  13.279  0.0592 -0.1431 -0.8482
 2977SOL    HW120564   4.508   0.767  13.320 -3.8082 -0.6739 -2.0731
 2977SOL    HW220565   4.502   0.626  13.350 -1.6195  2.7496  0.7819
 2978SOL     OW20566   1.368   4.057  12.335  0.4079 -0.3973  0.6223
 2978SOL    HW120567   1.275   4.059  12.312  0.6851 -2.2404 -0.6240
 2978SOL    HW220568   1.364   4.039  12.430  1.4685  0.3101  0.7914
 2979SOL     OW20569   0.850   0.364   6.398  0.2727 -0.0585 -0.5595
 2979SOL    HW120570   0.830   0.276   6.365  0.5808  0.1345 -1.2476
 2979SOL    HW220571   0.759   0.392   6.400  0.6375  1.2976 -3.0047
 2980SOL     OW20572   0.063   0.142   5.992  0.7891  0.1772  0.5309
 2980SOL    HW120573   0.015   0.213   5.949  0.7140  0.4489  1.0669
 2980SOL    HW220574   4.718   0.101   6.027  1.2730 -0.8805  0.3801
 2981SOL     OW20575   3.222   4.186   8.994 -0.2958  0.4196  0.2782
 2981SOL    HW120576   3.177   4.113   9.036 -1.8476  1.5809  0.6600
 2981SOL    HW220577   3.164   4.255   9.028 -2.3739 -0.9166 -0.5862
 2982SOL     OW20578   2.364   3.326   7.583  0.2249 -0.1085  0.4405
 2982SOL    HW120579   2.417   3.387   7.533  0.4162 -1.2742 -0.7697
 2982SOL    HW220580   2.276   3.362   7.586 -0.4917 -1.5582 -2.7844
 2983SOL     OW20581   0.973   0.390  14.323 -0.1338 -0.3858  0.2851
 2983SOL    HW120582   1.039   0.334  14.282 -2.5815 -1.9511 -1.5112
 2983SOL    HW220583   1.023   0.471  14.316 -0.7481  0.0235  0.6264
 2984SOL     OW20584   0.286   4.040  15.204 -0.1333  0.2435  0.3634
 2984SOL    HW120585   0.214   4.021  15.143  0.4680 -0.7779 -0.0295
 2984SOL    HW220586   0.259   4.009  15.291 -1.3573  2.2914  0.7115
 2985SOL     OW20587   1.635   1.058  13.533 -0.2088  0.3475 -0.2956
 2985SOL    HW120588   1.546   1.028  13.548 -0.2486  0.5964 -0.0328
 2985SOL    HW220589   1.683   1.009  13.600  0.1380  1.1243  0.0238
 2986SOL     OW20590   3.186   0.926   7.048 -0.3191  0.2061 -0.2493
 2986SOL    HW120591   3.130   0.851   7.025 -1.3223  1.5833 -2.2295
 2986SOL    HW220592   3.206   0.967   6.964 -1.9385  0.3128 -0.5808
 2987SOL     OW20593   1.155   1.515   7.151  0.3069  0.3432  0.0095
 2987SOL    HW120594   1.134   1.455   7.222  0.4174 -0.7479 -0.8744
 2987SOL    HW220595   1.224   1.468   7.104  0.3225 -0.7472  1.1350
 2988SOL     OW20596   3.369   3.421  16.477 -0.4485 -0.0028  0.4956
 2988SOL    HW120597   3.374   3.461  16.390 -2.2670  0.0572  0.4279
 2988SOL    HW220598   3.418   3.486  16.528 -0.5157  0.0626  0.4775
 2989SOL     OW20599   0.258   4.087   9.073  0.6219 -0.1966 -0.5416
 2989SOL    HW120600   0.294   4.156   9.129  0.2078 -1.3603  1.1543
 2989SOL    HW220601   0.338   4.036   9.080  1.4461  0.9939 -1.1948
 2990SOL     OW20602   2.666   0.049   3.343 -0.0752  0.2358  0.1752
 2990SOL    HW120603   2.695   0.011   3.260 -1.5128 -2.7318  1.0539
 2990SOL    HW220604   2.577   0.079   3.327  0.7875  0.8231 -3.4995
 2991SOL     OW20605   2.162   2.177   9.840 -0.1445 -0.9548  0.2108
 2991SOL    HW120606   2.192   2.088   9.824  1.6159 -0.3555  0.1986
 2991SOL    HW220607   2.231   2.212   9.896 -1.5600  0.8436  0.8472
 2992SOL     OW20608   1.125   2.162   1.137  0.0162 -0.0279  0.5718
 2992SOL    HW120609   1.166   2.137   1.054 -1.0715 -1.0194  0.3346
 2992SOL    HW220610   1.154   2.097   1.202 -0.6772 -1.0134 -0.0921
 2993SOL     OW20611   1.009   3.867   6.484 -0.0010 -0.0627 -0.3085
 2993SOL    HW120612   1.088   3.821   6.456 -0.3076  0.7801 -2.5336
 2993SOL    HW220613   0.945   3.796   6.495 -0.3307  0.2229 -0.4103
 2994SOL     OW20614   2.644   3.395  14.265 -0.1518  0.8502 -0.2721
 2994SOL    HW120615   2.564   3.350  14.239 -0.5744  0.3700  1.8109
 2994SOL    HW220616   2.634   3.377  14.359 -1.4920 -0.9424 -0.7622
 2995SOL     OW20617   0.064   1.273   9.999 -0.3101 -0.2979 -0.4843
 2995SOL    HW120618   0.023   1.338   9.942 -1.6767  1.7447  2.8113
 2995SOL    HW220619   0.004   1.268  10.073 -0.8792  0.0752 -0.9224
 2996SOL     OW20620   4.311   3.629   3.303 -0.7733 -0.1685 -0.1057
 2996SOL    HW120621   4.310   3.656   3.395 -0.3206 -1.2261  0.2164
 2996SOL    HW220622   4.218   3.622   3.285 -0.6149 -0.6124 -0.7895
 2997SOL     OW20623   3.467   3.757  11.515  0.3640 -0.5392  0.1935
 2997SOL    HW120624   3.521   3.693  11.561  0.3335 -0.2539  0.6289
 2997SOL    HW220625   3.483   3.835  11.569 -1.9459 -1.0644  1.6217
 2998SOL     OW20626   3.412   2.276  17.313 -0.1495  0.4990 -0.4945
 2998SOL    HW120627   3.441   2.188  17.290  2.2587  0.8865  1.1091
 2998SOL    HW220628   3.472   2.296  17.384 -1.2132  0.8039  0.3094
 2999SOL     OW20629   1.336   0.435   7.819 -0.1656 -0.6392  0.5927
 2999SOL    HW120630   1.339   0.529   7.800  0.0613 -0.6611  0.5127
 2999SOL    HW220631   1.298   0.437   7.907  3.0888  2.7775  1.8848
 3000SOL     OW20632   4.240   4.594   7.908 -0.3239  0.1198 -0.1348
 3000SOL    HW120633   4.217   4.507   7.940  0.9428 -0.2981 -0.3672
 3000SOL    HW220634   4.253   4.592   7.814 -1.2321  0.3650 -0.2597
 3001SOL     OW20635   1.893   3.558  12.236  0.0030  0.6660  0.5289
 3001SOL    HW120636   1.825   3.605  12.284 -1.5056  0.6809 -1.6533
 3001SOL    HW220637   1.941   3.633  12.201 -0.2010  1.0207  1.0260
 3002SOL     OW20638   0.978   0.316  12.756 -0.5520 -0.7282  0.1210
 3002SOL    HW120639   1.061   0.358  12.777 -0.2061 -1.0494 -0.5993
 3002SOL    HW220640   0.941   0.292  12.841  0.7316 -1.9964  0.3130
 3003SOL     OW20641   2.724   1.342   2.008 -0.1136 -0.4848  0.1057
 3003SOL    HW120642   2.728   1.350   2.104  1.6324  5.6858 -0.4733
 3003SOL    HW220643   2.808   1.302   1.985 -0.0154 -0.0226 -0.3211
 3004SOL     OW20644   1.607   1.501   6.322  0.4178  0.2006  0.3717
 3004SOL    HW120645   1.694   1.461   6.328  2.1902  3.8078 -1.6081
 3004SOL    HW220646   1.597   1.490   6.227 -1.0438 -0.5654  0.6111
 3005SOL     OW20647   3.424   2.966   4.274  0.2137 -0.5305  0.1575
 3005SOL    HW120648   3.476   2.916   4.337 -0.3507 -0.8040  0.4010
 3005SOL    HW220649   3.403   3.041   4.330  0.3383 -1.3375  1.2989
 3006SOL     OW20650   1.363   2.394  15.056  0.1353 -0.1141  0.2658
 3006SOL    HW120651   1.359   2.364  15.147  2.7445  0.3565  0.5321
 3006SOL    HW220652   1.434   2.341  15.020 -1.9015 -3.0524  0.6075
 3007SOL     OW20653   3.352   4.005   2.670  0.1459 -0.4575 -0.2753
 3007SOL    HW120654   3.364   4.098   2.648 -2.1352 -0.1118 -0.0793
 3007SOL    HW220655   3.358   3.975   2.579  1.0725 -1.0363 -0.0190
 3008SOL     OW20656   3.945   3.176   8.268 -0.3579 -0.2856 -0.1730
 3008SOL    HW120657   4.028   3.205   8.305  0.0403 -3.3869  1.3892
 3008SOL    HW220658   3.968   3.175   8.175 -1.8898 -2.6883 -0.5304
 3009SOL     OW20659   1.717   4.356   9.941 -0.1711 -0.2366  0.5146
 3009SOL    HW120660   1.813   4.357   9.936 -0.2188  1.0947  0.0460
 3009SOL    HW220661   1.708   4.382  10.033  0.9294 -0.1041  0.5823
 3010SOL     OW20662   4.199   0.705   1.657 -0.5274  0.2957 -0.1001
 3010SOL    HW120663   4.125   0.730   1.713 -1.8606  0.6278 -2.0316
 3010SOL    HW220664   4.270   0.736   1.713 -0.8388 -0.2672  0.6237
 3011SOL     OW20665   1.977   3.363   6.472 -0.3615 -0.4506 -0.1058
 3011SOL    HW120666   1.974   3.273   6.504  1.1016 -0.0290  1.1803
 3011SOL    HW220667   1.919   3.356   6.396  0.0804  1.6771 -0.6326
 3012SOL     OW20668   0.573   1.827   5.179 -0.5393 -0.7344 -0.5945
 3012SOL    HW120669   0.558   1.834   5.274  0.3599 -2.0252 -0.3558
 3012SOL    HW220670   0.485   1.848   5.146 -0.5484 -0.5044 -0.4278
 3013SOL     OW20671   0.797   2.535   8.850  0.0360  0.0260  0.0870
 3013SOL    HW120672   0.732   2.473   8.883 -0.0803 -0.2300 -0.6327
 3013SOL    HW220673   0.742   2.613   8.838  1.4485  0.9931 -0.0928
 3014SOL     OW20674   1.698   2.537  14.584  0.0925 -0.2725 -0.1284
 3014SOL    HW120675   1.611   2.515  14.553 -1.2578  2.2655  1.8148
 3014SOL    HW220676   1.673   2.568  14.671  0.1920 -1.6525  0.3911
 3015SOL     OW20677   2.879   0.367   8.285  0.8242  0.3650  0.3213
 3015SOL    HW120678   2.930   0.322   8.218  1.5269  0.7033  0.6350
 3015SOL    HW220679   2.927   0.448   8.298  2.0658 -0.2666 -0.3743
 3016SOL     OW20680   4.158   2.580   8.324  0.3158  0.1128 -0.5975
 3016SOL    HW120681   4.142   2.626   8.407 -0.6643  0.4425 -0.9731
 3016SOL    HW220682   4.190   2.497   8.359 -0.5914 -0.6978 -1.6963
 3017SOL     OW20683   2.414   2.956   5.009 -0.1956 -0.6201 -0.0288
 3017SOL    HW120684   2.359   2.878   5.004 -0.5461 -0.5220  2.3000
 3017SOL    HW220685   2.347   3.022   5.027 -0.4954 -1.5378  2.1874
 3018SOL     OW20686   0.149   4.213   4.334 -0.2754  0.2035 -0.2242
 3018SOL    HW120687   0.241   4.235   4.320  0.2113 -2.1508 -0.7905
 3018SOL    HW220688   0.117   4.298   4.304 -0.6506  0.0091 -0.3733
 3019SOL     OW20689   0.934   2.131  16.269 -0.3690  0.2172  0.3390
 3019SOL    HW120690   0.842   2.108  16.274 -0.4336 -0.1173 -2.3964
 3019SOL    HW220691   0.920   2.222  16.292  0.3977  0.5519 -0.5006
 3020SOL     OW20692   0.757   1.916   6.425  0.3826 -0.3260 -0.7113
 3020SOL    HW120693   0.728   2.000   6.462  0.9202 -0.5580  0.2464
 3020SOL    HW220694   0.801   1.890   6.505  1.5638  0.9212 -0.9529
 3021SOL     OW20695   2.743   2.339  10.545  0.3372 -0.2192 -0.5318
 3021SOL    HW120696   2.748   2.269  10.481  0.2408  0.7406 -1.5905
 3021SOL    HW220697   2.821   2.308  10.591 -0.2292 -4.6496 -2.6029
 3022SOL     OW20698   4.353   1.341   7.135 -0.5944 -0.3213  0.4954
 3022SOL    HW120699   4.372   1.412   7.196  2.8338 -1.3394  0.6344
 3022SOL    HW220700   4.265   1.366   7.109  1.3406  2.3923 -3.4787
 3023SOL     OW20701   4.470   4.421   6.513 -0.2186 -0.5843 -0.7628
 3023SOL    HW120702   4.516   4.439   6.594  1.3162  0.0662 -1.7720
 3023SOL    HW220703   4.431   4.507   6.493  1.6857  1.1914  3.2277
 3024SOL     OW20704   3.060   0.365  13.089  0.2044 -0.0429 -0.2262
 3024SOL    HW120705   3.143   0.406  13.064  1.6299 -1.8266  1.5781
 3024SOL    HW220706   3.065   0.272  13.066  0.6536  0.1164 -0.7481
 3025SOL     OW20707   1.833   1.368   2.936 -0.3933 -0.2992 -0.3415
 3025SOL    HW120708   1.874   1.293   2.979 -0.2518  0.5626  1.0187
 3025SOL    HW220709   1.796   1.415   3.010  1.2103 -1.1973  1.0622
 3026SOL     OW20710   1.076   3.895  13.487  0.0082  0.0549 -0.4681
 3026SOL    HW120711   1.087   3.905  13.582  0.8935  1.0720 -0.6757
 3026SOL    HW220712   1.168   3.907  13.462  0.3097  1.9129  1.4796
 3027SOL     OW20713   0.392   4.072   0.129  0.4050 -0.4216  0.1838
 3027SOL    HW120714   0.305   4.042   0.102  1.5394 -2.6851 -0.9958
 3027SOL    HW220715   0.429   4.099   0.045  2.4105 -2.0693  0.5284
 3028SOL     OW20716   4.159   2.158   5.211  0.3393  0.0993 -0.3941
 3028SOL    HW120717   4.123   2.088   5.266 -0.5651 -0.5203 -1.7783
 3028SOL    HW220718   4.230   2.107   5.172 -1.7306 -0.3393 -3.5269
 3029SOL     OW20719   3.485   2.451   8.527 -0.2380 -0.5553 -0.0862
 3029SOL    HW120720   3.471   2.545   8.512  0.0176 -0.4335  0.4212
 3029SOL    HW220721   3.577   2.452   8.553 -1.2159  1.9886  3.3895
 3030SOL     OW20722   3.030   1.474   0.607  0.3811 -0.6091 -0.0548
 3030SOL    HW120723   3.055   1.557   0.566 -2.8035  0.8591  0.9787
 3030SOL    HW220724   3.058   1.408   0.544 -0.6637 -1.2640  0.1628
 3031SOL     OW20725   4.228   3.698   1.066 -0.1649  0.4163  0.2436
 3031SOL    HW120726   4.143   3.656   1.052  0.8563 -1.5739  0.0051
 3031SOL    HW220727   4.213   3.752   1.144  1.4023  1.4773 -0.1961
 3032SOL     OW20728   4.713   0.916   5.524  0.4857 -0.0501  0.3957
 3032SOL    HW120729   4.628   0.954   5.543  0.4436  2.1336 -4.2981
 3032SOL    HW220730   4.689   0.829   5.557 -0.1501 -0.1070 -0.2162
 3033SOL     OW20731   3.975   0.151   5.219  0.4202 -0.0069 -0.9505
 3033SOL    HW120732   3.988   0.058   5.201  2.5347  0.7662 -3.4413
 3033SOL    HW220733   4.059   0.184   5.252  0.3740 -0.6084 -0.2320
 3034SOL     OW20734   2.400   3.921  12.596  0.0412 -0.2129 -0.0736
 3034SOL    HW120735   2.382   3.995  12.539 -0.0402  1.0005  1.5505
 3034SOL    HW220736   2.493   3.904  12.576  0.0848  1.7118 -1.4838
 3035SOL     OW20737   4.445   3.842  11.546  0.5303  0.6528  0.0539
 3035SOL    HW120738   4.540   3.855  11.550  0.6680 -0.0724 -0.8211
 3035SOL    HW220739   4.420   3.934  11.549  2.4148  1.1594  0.1978
 3036SOL     OW20740   2.538   3.616  12.754  0.3021 -0.7450 -0.0150
 3036SOL    HW120741   2.571   3.696  12.713 -0.8527  0.2630  1.0389
 3036SOL    HW220742   2.456   3.619  12.705 -0.5185 -4.9737  1.1685
 3037SOL     OW20743   1.362   2.112   5.289  0.4228 -0.1525  0.1205
 3037SOL    HW120744   1.280   2.159   5.272  0.4534  0.4858  1.7721
 3037SOL    HW220745   1.417   2.126   5.212  1.2975 -0.6657  0.6554
 3038SOL     OW20746   1.709   1.123   5.878  0.0965 -0.1400  0.1306
 3038SOL    HW120747   1.723   1.062   5.951 -1.9140 -1.1749 -0.3756
 3038SOL    HW220748   1.783   1.095   5.824  1.1460  2.5618  0.1516
 3039SOL     OW20749   2.124   4.170   7.433 -0.2591  0.3856  0.4730
 3039SOL    HW120750   2.110   4.169   7.528  1.6231  2.9873  0.7870
 3039SOL    HW220751   2.209   4.214   7.430  0.3164 -0.8859 -1.7273
 3040SOL     OW20752   3.005   4.161   6.776  0.3726 -0.0460  0.0403
 3040SOL    HW120753   3.043   4.086   6.822 -1.3835  0.5205  2.4084
 3040SOL    HW220754   3.016   4.234   6.836  2.0078 -1.7033  1.7587
 3041SOL     OW20755   3.186   1.029   5.278 -0.3598 -0.0436  0.0536
 3041SOL    HW120756   3.213   0.939   5.259  0.9403  0.3626 -0.0263
 3041SOL    HW220757   3.159   1.055   5.190  0.2666 -1.0550 -0.4413
 3042SOL     OW20758   1.670   2.699  16.484  0.1823  0.2735 -0.0394
 3042SOL    HW120759   1.712   2.742  16.559 -1.6232 -2.4323  2.5292
 3042SOL    HW220760   1.577   2.720  16.483  0.4439  1.5097  1.2696
 3043SOL     OW20761   3.928   1.691   2.997 -0.3233 -0.1099 -0.1225
 3043SOL    HW120762   3.962   1.721   2.913 -1.0878  1.3945  0.1115
 3043SOL    HW220763   3.968   1.604   3.007  0.4034  0.0916 -1.2838
 3044SOL     OW20764   3.246   0.685   2.846  0.1813  0.7474  0.1274
 3044SOL    HW120765   3.218   0.593   2.845  0.2029  0.7517 -1.7098
 3044SOL    HW220766   3.165   0.725   2.878  0.6635  1.0729  0.9431
 3045SOL     OW20767   3.571   3.258   7.855  0.1880  0.0069 -0.0009
 3045SOL    HW120768   3.571   3.276   7.949  2.3338  1.4748 -0.2775
 3045SOL    HW220769   3.527   3.173   7.852 -0.4593  0.3378 -0.0272
 3046SOL     OW20770   1.305   0.799  15.110 -0.0708  0.6710 -0.4573
 3046SOL    HW120771   1.344   0.886  15.117  1.7849 -0.3382  1.8909
 3046SOL    HW220772   1.244   0.803  15.184 -1.4046 -0.8197 -1.4759
 3047SOL     OW20773   1.685   4.394  10.202 -0.0946  0.2480  0.1551
 3047SOL    HW120774   1.721   4.475  10.236 -0.4330 -0.0584  1.2545
 3047SOL    HW220775   1.725   4.325  10.256 -0.0462  0.1403 -0.0186
 3048SOL     OW20776   1.897   3.665   8.423  0.2512  0.1488 -0.5368
 3048SOL    HW120777   1.887   3.696   8.333 -1.3256  1.0668 -0.0397
 3048SOL    HW220778   1.942   3.737   8.466 -1.6280  0.1247  1.4443
 3049SOL     OW20779   3.050   4.693   5.842 -0.2126 -0.3372  0.1260
 3049SOL    HW120780   3.018   4.676   5.753 -0.0640 -1.0254  0.2066
 3049SOL    HW220781   2.985   0.027   5.861  0.6538 -0.2668  2.8494
 3050SOL     OW20782   2.087   3.068   6.333  0.9037  0.5987  0.0029
 3050SOL    HW120783   2.059   3.071   6.424  0.7303 -0.7211 -0.0103
 3050SOL    HW220784   2.133   2.985   6.334 -1.0329 -0.4832 -0.4905
 3051SOL     OW20785   0.602   0.202   5.226  0.2875 -0.1745 -0.6070
 3051SOL    HW120786   0.591   0.230   5.134  0.4926  0.8461 -0.3212
 3051SOL    HW220787   0.624   0.109   5.221 -1.6731 -0.6982  0.6796
 3052SOL     OW20788   1.274   0.835   1.490 -0.1243  0.0100  0.6210
 3052SOL    HW120789   1.341   0.897   1.463  0.1316 -1.2027 -1.5184
 3052SOL    HW220790   1.234   0.832   1.403  1.1890  2.6565 -0.0934
 3053SOL     OW20791   3.654   1.577  11.825 -0.8266  0.1651  0.8996
 3053SOL    HW120792   3.586   1.611  11.883 -0.4454  0.3663  1.2267
 3053SOL    HW220793   3.643   1.482  11.821  1.0236  0.0504 -1.6198
 3054SOL     OW20794   1.354   1.218  14.126  0.0747 -0.5764 -0.3587
 3054SOL    HW120795   1.401   1.205  14.044 -0.8484  0.2004 -1.0017
 3054SOL    HW220796   1.333   1.131  14.160 -0.7135  0.5883  2.1296
 3055SOL     OW20797   4.026   1.343   1.922  0.7047 -0.2618 -0.2435
 3055SOL    HW120798   3.954   1.324   1.982  1.5601 -0.7748  0.6302
 3055SOL    HW220799   4.035   1.255   1.885  3.2221 -0.2047  0.1968
 3056SOL     OW20800   2.445   1.688   7.414 -0.4695  0.3460  0.1441
 3056SOL    HW120801   2.527   1.645   7.390 -1.3607 -0.6404 -1.0885
 3056SOL    HW220802   2.388   1.629   7.366  0.6529 -1.3447  0.8793
 3057SOL     OW20803   3.698   1.440   3.761 -0.1972 -0.4281 -0.5085
 3057SOL    HW120804   3.723   1.475   3.846 -0.4451 -1.2627 -0.0922
 3057SOL    HW220805   3.624   1.382   3.779 -1.7623  2.0523  1.1786
 3058SOL     OW20806   2.006   0.388   8.330 -0.3684  0.1949 -0.1256
 3058SOL    HW120807   2.102   0.385   8.328 -0.3583  0.6017 -0.1446
 3058SOL    HW220808   1.992   0.445   8.405 -2.9658 -1.0587  0.3644
 3059SOL     OW20809   1.269   4.553   4.598  0.4125 -0.0680 -0.3671
 3059SOL    HW120810   1.309   4.487   4.654  2.7837  0.0754 -1.8640
 3059SOL    HW220811   1.182   4.515   4.593  1.5614 -2.7291 -0.3605
 3060SOL     OW20812   2.683   3.337   4.499 -0.2607  0.2283 -0.4057
 3060SOL    HW120813   2.667   3.243   4.493  2.1033 -0.0913 -2.0730
 3060SOL    HW220814   2.654   3.352   4.588  0.2891 -2.3887  0.2052
 3061SOL     OW20815   0.619   1.683   8.435 -0.2858 -0.1039 -0.0819
 3061SOL    HW120816   0.569   1.753   8.475  2.1957  2.4291 -1.3539
 3061SOL    HW220817   0.582   1.677   8.347 -1.2490  1.6631  0.2077
 3062SOL     OW20818   0.606   0.305   7.434 -0.3096  0.6343  0.0562
 3062SOL    HW120819   0.595   0.317   7.529  0.4190 -0.2721  0.2550
 3062SOL    HW220820   0.567   0.217   7.427  0.1216  0.3432  1.3081
 3063SOL     OW20821   1.841   2.170   9.423  0.0660  0.1783 -0.1366
 3063SOL    HW120822   1.766   2.120   9.454  0.4321 -0.1787  0.1627
 3063SOL    HW220823   1.871   2.207   9.506  0.9726 -1.7866  0.4032
 3064SOL     OW20824   1.440   1.766   3.352 -0.4295  0.0692 -0.5403
 3064SOL    HW120825   1.444   1.674   3.379  1.7337  0.5737  0.8811
 3064SOL    HW220826   1.531   1.774   3.324  0.5514 -1.0392  2.3097
 3065SOL     OW20827   2.602   1.636   2.329  0.0929  0.3076  0.0509
 3065SOL    HW120828   2.537   1.692   2.287 -0.3138  1.4096  2.1598
 3065SOL    HW220829   2.673   1.643   2.264  0.3776  0.6334  0.3991
 3066SOL     OW20830   1.915   2.828   2.260  0.4191 -0.5326  0.2844
 3066SOL    HW120831   1.843   2.799   2.204  0.1071  0.0662  0.3748
 3066SOL    HW220832   1.954   2.900   2.210 -1.5974 -0.4825 -1.2132
 3067SOL     OW20833   1.235   2.304   1.328 -0.5289  0.1605 -0.2055
 3067SOL    HW120834   1.162   2.265   1.281  0.5922 -3.1651  0.8372
 3067SOL    HW220835   1.191   2.341   1.405 -0.3061 -1.8954  0.9229
 3068SOL     OW20836   3.923   4.482   1.977  0.0115  0.1183  0.6801
 3068SOL    HW120837   4.006   4.444   2.005  0.1485 -0.2695 -0.2572
 3068SOL    HW220838   3.868   4.475   2.055 -1.9864  0.3078 -0.7052
 3069SOL     OW20839   0.380   1.210   9.430  0.4026 -0.4086 -0.4598
 3069SOL    HW120840   0.391   1.171   9.517 -1.5570  1.9789  0.8717
 3069SOL    HW220841   0.305   1.156   9.407  0.4829 -0.4872 -0.5349
 3070SOL     OW20842   1.119   2.653  11.134  0.3165  0.0603 -0.3949
 3070SOL    HW120843   1.186   2.585  11.128  1.8272  1.4493  0.6762
 3070SOL    HW220844   1.156   2.714  11.198 -1.5936  0.7372  0.0936
 3071SOL     OW20845   2.364   1.857   3.767 -0.0361 -0.1830  0.7307
 3071SOL    HW120846   2.430   1.798   3.731 -1.3485 -0.3695 -1.4341
 3071SOL    HW220847   2.412   1.939   3.757  0.9347 -0.6660  1.4675
 3072SOL     OW20848   2.254   0.166   4.885  0.4810  0.1658 -0.3918
 3072SOL    HW120849   2.304   0.147   4.806  0.0677 -1.8586 -0.1776
 3072SOL    HW220850   2.316   0.215   4.937 -1.2031  0.3660  1.4369
 3073SOL     OW20851   0.602   2.895   1.242 -0.7262  0.3056 -0.2176
 3073SOL    HW120852   0.511   2.870   1.225 -0.4524 -1.1006  0.3978
 3073SOL    HW220853   0.637   2.831   1.179 -1.8274  0.0815 -0.5953
 3074SOL     OW20854   0.896   1.784   5.463  0.0827 -0.1532  0.2008
 3074SOL    HW120855   0.801   1.775   5.453  0.2081 -1.3294  0.0422
 3074SOL    HW220856   0.918   1.734   5.541  0.5179  0.1187  0.2499
 3075SOL     OW20857   0.228   1.559   6.096 -0.4486  0.1734  0.4491
 3075SOL    HW120858   0.134   1.544   6.097 -0.4388  0.1665  1.2258
 3075SOL    HW220859   0.232   1.646   6.054 -2.3261  1.4483  2.9170
 3076SOL     OW20860   3.562   2.946   9.216 -0.1418 -0.5624 -0.0463
 3076SOL    HW120861   3.580   2.993   9.297  0.4058 -1.3476  0.2751
 3076SOL    HW220862   3.553   3.027   9.165  0.1645 -1.4454 -1.4944
 3077SOL     OW20863   0.403   3.453   1.282  0.0321  0.1769 -0.0117
 3077SOL    HW120864   0.310   3.452   1.305  0.5888  0.5389  2.2420
 3077SOL    HW220865   0.421   3.361   1.263 -0.2773  0.0813  0.1602
 3078SOL     OW20866   3.541   3.244   2.360  0.0854 -0.3061 -0.2438
 3078SOL    HW120867   3.605   3.300   2.403  1.1846 -0.9225 -1.0697
 3078SOL    HW220868   3.463   3.258   2.413  0.4333 -1.3221  0.5179
 3079SOL     OW20869   4.263   2.066  16.268 -0.2928 -0.1553  0.0765
 3079SOL    HW120870   4.250   2.020  16.185  0.3472  0.8238 -0.5590
 3079SOL    HW220871   4.358   2.060  16.271 -0.4183 -2.0094  0.0579
 3080SOL     OW20872   0.120   1.255  12.914 -0.2064 -0.1629 -0.1515
 3080SOL    HW120873   0.185   1.250  12.984  0.6617 -0.6295 -0.9981
 3080SOL    HW220874   0.122   1.349  12.899 -0.3999 -0.5269 -2.5276
 3081SOL     OW20875   0.495   2.435   5.431  0.1706 -0.9705  0.6891
 3081SOL    HW120876   0.454   2.387   5.503 -3.1753  1.1846  0.2587
 3081SOL    HW220877   0.586   2.426   5.458 -0.1109 -2.2539  1.1952
 3082SOL     OW20878   3.977   2.281  12.680 -0.1733  0.1159  0.4468
 3082SOL    HW120879   4.058   2.230  12.685 -1.2144 -1.6683 -1.2207
 3082SOL    HW220880   3.925   2.219  12.629  0.2547  1.1010 -1.2292
 3083SOL     OW20881   0.858   2.705   0.611 -0.6442  0.2516 -0.0752
 3083SOL    HW120882   0.905   2.751   0.681 -1.7727 -0.1852  0.9710
 3083SOL    HW220883   0.918   2.731   0.541  0.1540  0.5368  0.7024
 3084SOL     OW20884   3.155   2.429  16.523  0.0376  0.1801 -0.1634
 3084SOL    HW120885   3.094   2.435  16.450  1.4003 -0.8124 -1.3886
 3084SOL    HW220886   3.239   2.396  16.491 -0.7295 -1.1271 -0.8409
 3085SOL     OW20887   1.663   2.182  12.472 -0.3106 -0.1589 -0.1515
 3085SOL    HW120888   1.753   2.191  12.438  0.5811 -0.8388  2.0158
 3085SOL    HW220889   1.614   2.152  12.395 -1.3117  3.6552 -1.0210
 3086SOL     OW20890   2.695   2.759   9.552 -0.7837 -0.5006  0.4462
 3086SOL    HW120891   2.762   2.747   9.485 -1.9768 -0.2039 -0.8061
 3086SOL    HW220892   2.665   2.846   9.527  0.5867  0.3008  1.6608
 3087SOL     OW20893   1.551   1.826   2.044 -0.1372  0.2890 -0.2253
 3087SOL    HW120894   1.581   1.856   1.958  0.1523  1.8259  0.4254
 3087SOL    HW220895   1.456   1.831   2.038 -0.0517  2.5424  0.4947
 3088SOL     OW20896   0.616   4.620   7.144 -0.0086  0.0688 -1.2478
 3088SOL    HW120897   0.540   4.660   7.101 -1.1498 -1.1428 -0.3311
 3088SOL    HW220898   0.653   4.702   7.178  0.8620 -0.6200 -0.5408
 3089SOL     OW20899   3.323   2.148   4.365  0.3007  0.0985 -0.3482
 3089SOL    HW120900   3.307   2.240   4.389  0.7038 -0.1291  0.8024
 3089SOL    HW220901   3.415   2.153   4.341  0.0285 -0.7168 -1.5513
 3090SOL     OW20902   1.220   3.254   7.713  0.3299 -0.5133  0.2809
 3090SOL    HW120903   1.311   3.230   7.730  0.9459  0.5464 -1.5568
 3090SOL    HW220904   1.223   3.346   7.685 -2.8476 -0.2107  0.9070
 3091SOL     OW20905   2.646   4.720   2.094  0.3679 -1.0584  0.3212
 3091SOL    HW120906   2.557   0.020   2.084  0.2797 -2.1701 -2.7724
 3091SOL    HW220907   2.695   0.064   2.065 -3.2576  1.2121  0.3075
 3092SOL     OW20908   0.045   4.325   5.353  0.5261  0.1969 -0.3428
 3092SOL    HW120909   0.046   4.416   5.384  1.6282  0.4928 -1.2137
 3092SOL    HW220910   4.720   4.279   5.412 -2.3241  3.9649 -0.2564
 3093SOL     OW20911   1.001   2.511   5.000  0.2529 -0.0974 -0.4133
 3093SOL    HW120912   0.975   2.600   5.026 -0.7677 -0.9761  1.5003
 3093SOL    HW220913   1.083   2.529   4.953 -0.9379 -0.1723 -2.5318
 3094SOL     OW20914   1.995   0.986   3.797 -0.1755 -0.3728  0.0450
 3094SOL    HW120915   2.018   1.072   3.830 -0.1286 -0.6225  0.6680
 3094SOL    HW220916   2.080   0.941   3.797  0.2787  0.4623  1.9035
 3095SOL     OW20917   3.019   1.884   5.819  0.2235  0.3328 -0.5136
 3095SOL    HW120918   2.975   1.800   5.807 -1.3532  0.9325  1.0545
 3095SOL    HW220919   3.110   1.855   5.809  0.7330  1.9292 -0.4844
 3096SOL     OW20920   3.970   4.611   4.233 -0.0195 -0.6141  0.0442
 3096SOL    HW120921   4.018   4.578   4.309  0.1408  0.0379  0.2223
 3096SOL    HW220922   3.942   4.527   4.197 -0.9433 -0.0425 -0.5646
 3097SOL     OW20923   3.681   4.296   8.667  0.2945  0.4875 -0.2650
 3097SOL    HW120924   3.636   4.260   8.591  1.2085  0.6791 -0.8978
 3097SOL    HW220925   3.704   4.216   8.714 -0.5737  0.9356  0.9292
 3098SOL     OW20926   1.346   2.819   6.504  0.0760  0.5445 -0.3336
 3098SOL    HW120927   1.402   2.896   6.490  0.7681 -0.1759 -1.4629
 3098SOL    HW220928   1.394   2.793   6.583  0.1078  2.1178  0.1686
 3099SOL     OW20929   1.882   3.636  17.397  0.3169 -0.2907  0.5836
 3099SOL    HW120930   1.913   3.665  17.311 -1.2935 -3.3585 -1.0215
 3099SOL    HW220931   1.934   3.685  17.460  0.0292  0.9651 -0.1620
 3100SOL     OW20932   1.593   1.363   0.708 -0.5192 -0.2974  0.6195
 3100SOL    HW120933   1.564   1.452   0.728  0.3658  0.2527 -0.5117
 3100SOL    HW220934   1.638   1.339   0.788  3.3003 -0.0845 -1.4480
 3101SOL     OW20935   2.110   4.589  17.387 -0.4217  0.2634 -0.2108
 3101SOL    HW120936   2.118   4.498  17.360  0.1561  0.1661  0.2972
 3101SOL    HW220937   2.204   4.601  17.400 -0.4140 -0.5455  0.4350
 3102SOL     OW20938   4.564   3.702   4.981  0.2463  0.1561 -1.0407
 3102SOL    HW120939   4.476   3.674   4.955 -0.5951 -0.1628  2.1537
 3102SOL    HW220940   4.594   3.615   5.010  0.0811  0.2285 -0.6449
 3103SOL     OW20941   1.836   4.363   5.868 -0.0131  0.2520  0.2153
 3103SOL    HW120942   1.910   4.383   5.926 -1.0484 -0.5642  1.8105
 3103SOL    HW220943   1.833   4.267   5.861 -1.1260  0.1717  1.8659
 3104SOL     OW20944   3.418   2.803   2.350  0.5856  0.2666 -0.4481
 3104SOL    HW120945   3.371   2.720   2.345 -1.3265  1.3864 -0.7773
 3104SOL    HW220946   3.447   2.821   2.261  2.1867  1.9918  0.4045
 3105SOL     OW20947   3.472   4.408   8.498  0.4896  0.0646  0.4553
 3105SOL    HW120948   3.378   4.392   8.485  0.5620 -0.0560  0.0804
 3105SOL    HW220949   3.512   4.324   8.477 -1.8164 -1.0728  0.6732
 3106SOL     OW20950   2.860   4.478   7.713  0.3347 -0.0375 -0.1747
 3106SOL    HW120951   2.791   4.510   7.772  0.5811  1.5227 -0.7250
 3106SOL    HW220952   2.914   4.557   7.709 -0.4133  0.4427 -0.7317
 3107SOL     OW20953   0.740   1.577   8.671 -0.4531 -0.0740 -0.7979
 3107SOL    HW120954   0.833   1.564   8.656 -0.8069  0.6422 -3.4609
 3107SOL    HW220955   0.717   1.627   8.593  0.7689  1.4476 -0.1970
 3108SOL     OW20956   0.330   1.399  11.036  0.0294  0.0892  0.4719
 3108SOL    HW120957   0.402   1.458  11.059 -1.6680  2.4295 -0.1539
 3108SOL    HW220958   0.273   1.413  11.112  0.2758  1.9881  0.3134
 3109SOL     OW20959   0.975   2.243  16.943 -0.1199  0.7904  0.4028
 3109SOL    HW120960   0.983   2.258  17.037 -0.5155 -1.8947  0.8745
 3109SOL    HW220961   0.882   2.267  16.937 -0.2630 -0.0726 -0.9158
 3110SOL     OW20962   4.205   0.633   6.609 -0.3233 -0.3942 -0.2818
 3110SOL    HW120963   4.166   0.671   6.531  0.7981  2.2948  0.4513
 3110SOL    HW220964   4.292   0.601   6.583  0.8593  0.9528  2.0002
 3111SOL     OW20965   2.812   1.573   7.050 -0.2214  0.8227  0.3256
 3111SOL    HW120966   2.801   1.527   7.133  1.3198 -1.7307 -0.8812
 3111SOL    HW220967   2.722   1.564   7.018 -0.8751  1.6058  1.9636
 3112SOL     OW20968   1.230   3.810  12.277  0.6702  0.3812  0.0903
 3112SOL    HW120969   1.195   3.777  12.360  0.9455 -0.3186 -0.0751
 3112SOL    HW220970   1.165   3.879  12.262 -0.2699 -1.0235 -2.3679
 3113SOL     OW20971   3.923   2.516   1.287 -0.7002  0.2441  0.0791
 3113SOL    HW120972   3.917   2.571   1.365  2.0715 -0.8315  1.0719
 3113SOL    HW220973   3.878   2.575   1.227 -2.1743 -0.6572  0.3036
 3114SOL     OW20974   0.628   2.766   5.069  0.2015  0.3168 -0.0963
 3114SOL    HW120975   0.702   2.770   5.129 -0.7485  0.2833  1.0920
 3114SOL    HW220976   0.597   2.678   5.090 -1.3471  1.0029  0.5348
 3115SOL     OW20977   3.657   1.756   0.104  0.1363  0.2283  0.5541
 3115SOL    HW120978   3.568   1.723   0.119  0.5437  0.1103  2.7159
 3115SOL    HW220979   3.658   1.764   0.009 -1.6653 -1.3524  0.4018
 3116SOL     OW20980   3.855   1.591   1.811  0.3166 -0.3594  0.2337
 3116SOL    HW120981   3.893   1.593   1.724 -1.6470  2.0618 -0.5620
 3116SOL    HW220982   3.923   1.540   1.855 -0.6282 -0.6326  1.3892
 3117SOL     OW20983   0.376   0.845   8.417 -0.7288  0.1652 -0.1944
 3117SOL    HW120984   0.363   0.908   8.487  0.0936 -0.1259  0.2172
 3117SOL    HW220985   0.465   0.872   8.395 -0.2548 -2.5405 -1.7098
 3118SOL     OW20986   4.675   4.342  17.478 -0.1343 -0.1103  0.0405
 3118SOL    HW120987   0.005   4.409  17.501  0.3536 -0.2245 -0.9913
 3118SOL    HW220988   4.640   4.389  17.403 -1.1677  0.1579  0.6870
 3119SOL     OW20989   4.051   1.487   8.725  0.4080  0.0377 -0.2839
 3119SOL    HW120990   4.061   1.407   8.777 -0.2434  0.3607  0.3323
 3119SOL    HW220991   4.016   1.461   8.640 -2.9557  0.3017  1.0287
 3120SOL     OW20992   1.855   1.858   5.914 -0.4907  0.0228  0.3962
 3120SOL    HW120993   1.856   1.814   5.829  1.1327  2.5436 -0.8906
 3120SOL    HW220994   1.778   1.811   5.947  0.2358 -0.6964  1.0507
 3121SOL     OW20995   2.892   1.420  17.003  0.0904  0.0354  0.4347
 3121SOL    HW120996   2.971   1.384  16.963 -0.1270  0.2889 -0.2312
 3121SOL    HW220997   2.928   1.498  17.046  1.4020  0.6996 -1.8808
 3122SOL     OW20998   4.604   3.212   8.884  0.4954 -0.0917  0.1204
 3122SOL    HW120999   4.668   3.188   8.951  0.6705  0.6375  0.2173
 3122SOL    HW221000   4.651   3.283   8.840 -0.1608  1.0484  1.2538
 3123SOL     OW21001   1.888   1.240   4.204 -0.2696  0.5088  0.0475
 3123SOL    HW121002   1.979   1.243   4.175 -0.2908  0.6458 -0.0045
 3123SOL    HW221003   1.900   1.215   4.296  0.7503  0.7973 -0.0046
 3124SOL     OW21004   4.669   2.174  12.486  0.4179  0.1341  0.6109
 3124SOL    HW121005   0.010   2.147  12.540 -1.0537 -3.0010  1.0729
 3124SOL    HW221006   4.595   2.130  12.527 -0.3190  1.0369  0.2451
 3125SOL     OW21007   0.346   4.282   2.912  0.0040  0.4764  0.2328
 3125SOL    HW121008   0.345   4.362   2.861 -1.8252 -0.6041 -1.4515
 3125SOL    HW221009   0.312   4.218   2.849  0.5968  2.0208 -1.6313
 3126SOL     OW21010   2.455   1.537  12.761 -0.2230  0.0446 -0.1913
 3126SOL    HW121011   2.438   1.630  12.775 -0.9207 -0.1022 -0.0675
 3126SOL    HW221012   2.440   1.489  12.842  0.9915 -0.8977 -0.5104
 3127SOL     OW21013   2.047   2.546   1.650 -0.5278 -0.1185  0.3878
 3127SOL    HW121014   2.068   2.550   1.743  0.4376  0.8534  0.1213
 3127SOL    HW221015   2.099   2.473   1.616  1.2003  1.3322 -0.0259
 3128SOL     OW21016   3.549   0.999   1.358  0.0290 -0.1034 -0.0062
 3128SOL    HW121017   3.627   1.014   1.304 -0.3032  0.8457 -0.2099
 3128SOL    HW221018   3.588   1.022   1.442  0.5850 -1.7535  0.1841
 3129SOL     OW21019   4.018   1.822   5.608  0.3611 -0.4637  0.0118
 3129SOL    HW121020   3.937   1.868   5.629  0.5397 -1.7862  3.4869
 3129SOL    HW221021   4.022   1.745   5.665  0.4424 -0.3929  0.1027
 3130SOL     OW21022   3.280   2.722   1.756  0.2648 -0.4184 -0.0599
 3130SOL    HW121023   3.246   2.810   1.767 -0.4546 -0.5393 -1.3053
 3130SOL    HW221024   3.201   2.674   1.779 -0.4653  0.5353 -0.6127
 3131SOL     OW21025   0.925   1.314   6.441 -0.0163 -0.1011 -0.3370
 3131SOL    HW121026   0.873   1.314   6.361  0.9553 -1.5614 -0.9734
 3131SOL    HW221027   0.866   1.261   6.494  0.3452 -1.7269 -1.5634
 3132SOL     OW21028   1.057   3.276  13.046 -0.1485  0.3130 -0.4098
 3132SOL    HW121029   1.097   3.362  13.032  5.2134 -2.5313 -2.3755
 3132SOL    HW221030   1.027   3.254  12.958 -0.8689 -0.1274 -0.0488
 3133SOL     OW21031   0.671   1.573   5.106  0.0933 -0.1348 -0.4707
 3133SOL    HW121032   0.577   1.572   5.122  0.0437 -2.5480 -0.9032
 3133SOL    HW221033   0.690   1.655   5.151 -1.6381  0.0613 -0.0936
 3134SOL     OW21034   3.025   1.556   1.976  0.6783  0.2490  0.4154
 3134SOL    HW121035   3.054   1.467   1.993 -0.5210 -0.7822 -2.8111
 3134SOL    HW221036   2.985   1.539   1.890  1.1699 -0.9342  0.4306
 3135SOL     OW21037   0.150   2.549   8.210  0.4107  0.7084  0.0402
 3135SOL    HW121038   0.120   2.507   8.130 -2.1192 -0.6077  1.6929
 3135SOL    HW221039   0.069   2.597   8.230 -1.3837 -2.4104  0.2073
 3136SOL     OW21040   4.636   1.242   1.671  0.1826 -0.9314  0.5198
 3136SOL    HW121041   4.608   1.248   1.762 -2.5030  0.5691 -0.4008
 3136SOL    HW221042   4.699   1.171   1.666 -0.1494 -1.3240  1.9520
 3137SOL     OW21043   4.477   4.088  11.843 -0.4196 -0.4812  0.4664
 3137SOL    HW121044   4.502   4.008  11.890 -1.0283 -0.8720  0.1242
 3137SOL    HW221045   4.541   4.086  11.772  0.5942  0.0932  1.3692
 3138SOL     OW21046   0.197   4.019  14.816  0.2977  0.0357 -0.4588
 3138SOL    HW121047   0.156   4.022  14.729  1.4785 -1.2994 -1.0658
 3138SOL    HW221048   0.260   4.090  14.805 -0.8088  0.7831 -2.0385
 3139SOL     OW21049   0.788   4.051   7.647 -0.2696 -0.2521  0.4253
 3139SOL    HW121050   0.717   4.028   7.707 -1.1819  0.0196 -0.5381
 3139SOL    HW221051   0.835   4.109   7.706 -0.5889  0.0667  0.3649
 3140SOL     OW21052   1.527   3.962  11.847 -0.1105  0.0314 -0.4864
 3140SOL    HW121053   1.612   4.003  11.832 -1.0211  1.1895 -2.4814
 3140SOL    HW221054   1.471   4.002  11.780 -2.4378  1.5756  2.3557
 3141SOL     OW21055   0.458   4.242  11.273  0.6162 -0.9345 -0.5456
 3141SOL    HW121056   0.502   4.289  11.344 -1.0294  0.2782 -0.3501
 3141SOL    HW221057   0.365   4.260  11.286  1.2079  0.0153  2.4993
 3142SOL     OW21058   4.550   3.792  12.770 -0.3614  0.2839  1.0532
 3142SOL    HW121059   4.551   3.878  12.813 -2.0944  0.1193  1.4145
 3142SOL    HW221060   4.488   3.751  12.830 -1.4563  0.7260  0.2171
 3143SOL     OW21061   3.616   4.675   5.800 -0.0080 -0.0350  0.7918
 3143SOL    HW121062   3.580   4.586   5.799  0.9088 -0.4053  0.4392
 3143SOL    HW221063   3.535   4.724   5.788 -0.7258 -0.9090  1.9657
 3144SOL     OW21064   1.583   4.733   0.151 -0.2429 -0.1752 -0.3667
 3144SOL    HW121065   1.646   4.703   0.217  2.1774  1.3460 -2.0194
 3144SOL    HW221066   1.569   0.077   0.204 -1.0681 -0.5707  0.0080
 3145SOL     OW21067   3.748   0.868   2.480  0.2979 -0.2649 -0.1465
 3145SOL    HW121068   3.757   0.775   2.502 -1.4729 -0.8479 -1.9955
 3145SOL    HW221069   3.826   0.901   2.526  1.1644  0.7605 -2.3367
 3146SOL     OW21070   2.169   4.003   9.489 -1.0140 -0.4969 -0.3450
 3146SOL    HW121071   2.261   4.024   9.506 -0.7500 -1.3051 -0.7726
 3146SOL    HW221072   2.181   3.977   9.398  1.0617 -0.5517 -0.0653
 3147SOL     OW21073   2.758   1.824   8.426 -0.5922  0.0962 -0.6245
 3147SOL    HW121074   2.850   1.825   8.402 -1.0950  2.0922 -2.5245
 3147SOL    HW221075   2.729   1.907   8.386 -1.3652 -1.1652 -2.6694
 3148SOL     OW21076   0.037   0.841   9.207  0.0688 -0.3502  0.8263
 3148SOL    HW121077   4.718   0.838   9.287 -0.3806  0.6923  0.5610
 3148SOL    HW221078   0.010   0.764   9.156  1.0941  0.4881 -0.9893
 3149SOL     OW21079   1.984   3.227  17.463  0.7801  0.1328  0.1043
 3149SOL    HW121080   1.941   3.301  17.420  0.3604  0.5389  1.2389
 3149SOL    HW221081   1.909   3.169  17.456  0.8362  0.2957 -1.9175
 3150SOL     OW21082   2.920   1.765   6.376 -0.9392  0.6037 -0.7086
 3150SOL    HW121083   2.957   1.747   6.290 -0.9044 -1.8907 -0.1699
 3150SOL    HW221084   2.832   1.730   6.366  0.0331 -1.8961 -0.6074
 3151SOL     OW21085   0.684   0.139   8.977 -0.3394 -0.4116  0.4489
 3151SOL    HW121086   0.758   0.123   9.036 -0.6445  1.6206  1.4024
 3151SOL    HW221087   0.653   0.227   9.000 -1.7844 -1.1340  1.2473
 3152SOL     OW21088   4.228   0.423   6.885 -0.0333 -0.4483  0.2161
 3152SOL    HW121089   4.310   0.434   6.934  0.5055 -0.3766 -0.6817
 3152SOL    HW221090   4.174   0.500   6.896  1.6535  0.5413  1.5428
 3153SOL     OW21091   3.378   4.186  15.414 -0.5650  0.1969  0.3440
 3153SOL    HW121092   3.324   4.263  15.398  1.1948  1.7457  1.9040
 3153SOL    HW221093   3.460   4.235  15.416  0.6812 -2.0747  4.3041
 3154SOL     OW21094   0.278   1.169   1.907 -0.0982 -0.2253 -0.0050
 3154SOL    HW121095   0.212   1.143   1.843 -1.3796  0.1900  1.1630
 3154SOL    HW221096   0.288   1.089   1.959  1.9628 -0.9890 -1.5590
 3155SOL     OW21097   3.029   0.111   6.449 -0.0807 -0.2508  0.4153
 3155SOL    HW121098   3.086   0.177   6.411  1.5348 -0.6957  2.0672
 3155SOL    HW221099   3.063   0.117   6.538 -0.8056 -0.5710  0.7176
 3156SOL     OW21100   2.434   0.661   5.182  0.1725 -0.6175  0.1397
 3156SOL    HW121101   2.525   0.689   5.172  0.6298 -1.4720  1.9601
 3156SOL    HW221102   2.416   0.739   5.233  0.1444 -2.3637  2.8040
 3157SOL     OW21103   2.440   2.280  17.354  0.7253  0.2152  0.9630
 3157SOL    HW121104   2.535   2.271  17.365  1.0707  3.1670  0.2770
 3157SOL    HW221105   2.423   2.187  17.337  1.9697  0.5924 -2.1886
 3158SOL     OW21106   1.008   0.634   2.081 -0.0667  0.1455 -0.2703
 3158SOL    HW121107   1.010   0.578   2.003 -1.5468  0.1917 -0.3540
 3158SOL    HW221108   1.077   0.698   2.067  1.2904 -1.3936 -0.5335
 3159SOL     OW21109   3.351   2.078   2.759 -0.4602  0.6000 -0.2829
 3159SOL    HW121110   3.443   2.092   2.782 -1.5052  4.2696  1.8109
 3159SOL    HW221111   3.307   2.131   2.827 -0.6994  0.2179 -0.1426
 3160SOL     OW21112   4.364   2.532   7.263  0.1242  0.3245 -0.4047
 3160SOL    HW121113   4.396   2.461   7.318 -0.9314  0.7526  0.7728
 3160SOL    HW221114   4.349   2.482   7.183 -1.3012 -1.7300  1.1465
 3161SOL     OW21115   3.083   1.011   2.128 -0.6615 -0.1675 -0.2010
 3161SOL    HW121116   2.992   1.032   2.151 -0.7540  1.0115 -1.5774
 3161SOL    HW221117   3.070   0.919   2.106  0.0699  0.1016 -1.7499
 3162SOL     OW21118   2.928   4.012   3.437  0.3154  0.1043 -0.0158
 3162SOL    HW121119   2.984   4.053   3.372 -0.4843  3.4250  1.4093
 3162SOL    HW221120   2.866   4.083   3.450 -0.0365 -0.4353  1.2675
 3163SOL     OW21121   1.100   4.728   2.309 -0.1210  0.0325  0.4217
 3163SOL    HW121122   1.034   0.059   2.330  0.3408  0.0127  1.9148
 3163SOL    HW221123   1.053   4.678   2.242 -0.3200 -0.9165  1.2767
 3164SOL     OW21124   3.941   3.147  16.892  0.2381  0.6326 -0.0983
 3164SOL    HW121125   3.973   3.109  16.810 -0.9497 -0.8793  0.1478
 3164SOL    HW221126   3.896   3.071  16.928  2.2714 -0.4084  0.2293
 3165SOL     OW21127   4.476   4.521   2.442 -0.6394 -0.6621  0.4752
 3165SOL    HW121128   4.409   4.568   2.491 -2.7568 -1.5866 -1.5061
 3165SOL    HW221129   4.485   4.439   2.491  0.1659 -1.0108 -0.2529
 3166SOL     OW21130   4.659   2.741  15.810 -0.1027 -0.2100 -0.5299
 3166SOL    HW121131   0.006   2.779  15.844  0.2067 -0.5902 -0.8450
 3166SOL    HW221132   4.667   2.766  15.718  0.2861  0.9407 -0.1914
 3167SOL     OW21133   2.870   0.214   4.375  0.0909 -0.2906  0.4057
 3167SOL    HW121134   2.830   0.128   4.367  0.7896 -0.6013  0.2719
 3167SOL    HW221135   2.790   0.266   4.372 -0.7788 -1.5019  2.4803
 3168SOL     OW21136   3.834   4.650  13.590 -0.4358  0.7123  0.1170
 3168SOL    HW121137   3.900   4.713  13.620 -0.6854  1.2551 -0.4738
 3168SOL    HW221138   3.819   4.589  13.662  0.7326  2.0420  1.5076
 3169SOL     OW21139   3.110   1.560   2.510  0.1357  0.1123 -0.2332
 3169SOL    HW121140   3.136   1.556   2.418  0.2013 -1.8179 -0.1380
 3169SOL    HW221141   3.019   1.535   2.492  0.5489 -0.6185 -1.2545
 3170SOL     OW21142   2.361   1.053   8.778  0.1655 -0.1514 -0.0454
 3170SOL    HW121143   2.374   1.033   8.870  0.5952 -0.7396 -0.2358
 3170SOL    HW221144   2.269   1.080   8.777  0.2461  0.0496 -1.9529
 3171SOL     OW21145   3.411   2.271   8.943  0.3660  0.0409  0.2841
 3171SOL    HW121146   3.372   2.316   9.019  1.2862 -0.3611  0.9901
 3171SOL    HW221147   3.403   2.345   8.883 -0.4348 -0.6139 -0.4203
 3172SOL     OW21148   4.519   1.703  11.658 -0.2990  0.6239 -0.7958
 3172SOL    HW121149   4.460   1.779  11.659  0.5403  1.2845 -2.3242
 3172SOL    HW221150   4.599   1.732  11.616 -1.1898  2.6600 -1.0815
 3173SOL     OW21151   0.775   1.800   2.347  0.2365 -0.8041 -0.1215
 3173SOL    HW121152   0.749   1.819   2.257  2.0930  1.0614 -0.2655
 3173SOL    HW221153   0.818   1.881   2.374 -2.4104  0.4378  0.3607
 3174SOL     OW21154   2.289   2.275   8.715  0.2686 -0.2646  0.5093
 3174SOL    HW121155   2.218   2.216   8.741 -0.1641 -0.1073 -0.3229
 3174SOL    HW221156   2.325   2.214   8.650 -0.0391 -1.5522  1.5466
 3175SOL     OW21157   3.477   0.549   6.046 -0.0946  0.5261  0.4728
 3175SOL    HW121158   3.441   0.497   6.118  0.9025  0.5614  0.9940
 3175SOL    HW221159   3.549   0.492   6.021 -0.7784 -0.1071 -0.0622
 3176SOL     OW21160   2.563   2.255   4.681  0.3921 -0.4585 -0.1600
 3176SOL    HW121161   2.524   2.289   4.600 -1.1192  3.0984  2.0580
 3176SOL    HW221162   2.526   2.167   4.679  0.6052 -0.5367 -0.8408
 3177SOL     OW21163   0.054   0.361   3.792  0.0707  0.2470 -0.6209
 3177SOL    HW121164   0.120   0.314   3.843 -0.0882  1.1067  0.3786
 3177SOL    HW221165   0.035   0.293   3.727 -0.9597  0.8661 -0.9659
 3178SOL     OW21166   3.092   2.086   4.937  0.2206 -0.0234  0.4640
 3178SOL    HW121167   3.158   2.032   4.893  1.6361  0.4520  1.9923
 3178SOL    HW221168   3.033   2.118   4.868  1.3479 -0.2770 -0.6235
 3179SOL     OW21169   2.034   3.896  17.292 -0.3140  0.4032  0.2545
 3179SOL    HW121170   1.946   3.923  17.266  0.6445  2.1810 -1.1633
 3179SOL    HW221171   2.079   3.928  17.214 -1.4878  0.8650 -0.2389
 3180SOL     OW21172   2.384   2.826   8.854  0.8240  0.8799 -0.6146
 3180SOL    HW121173   2.290   2.829   8.835  0.5558 -0.3037  0.4761
 3180SOL    HW221174   2.394   2.919   8.874  0.5695  0.4952  1.3355
 3181SOL     OW21175   1.842   3.441  10.462 -0.3702  0.4130 -0.0977
 3181SOL    HW121176   1.791   3.452  10.542  0.6826  1.0744  0.4663
 3181SOL    HW221177   1.931   3.425  10.494 -1.0617  0.8870  2.0427
 3182SOL     OW21178   2.650   3.367   8.575 -0.5094 -0.2108  0.0745
 3182SOL    HW121179   2.735   3.330   8.600 -0.8238 -1.5720 -0.9127
 3182SOL    HW221180   2.659   3.364   8.480  2.6088  1.1277  0.3220
 3183SOL     OW21181   3.001   2.063   3.387  0.3972 -0.6215 -0.0208
 3183SOL    HW121182   3.078   2.007   3.376  1.0273  0.3487 -0.5221
 3183SOL    HW221183   2.930   2.002   3.367 -1.0156  0.0293  2.9032
 3184SOL     OW21184   1.167   1.049   8.741 -0.3878  0.4975 -0.1991
 3184SOL    HW121185   1.073   1.032   8.737 -0.3185 -0.1877  1.1979
 3184SOL    HW221186   1.198   1.032   8.652  0.0012  1.1622 -0.1953
 3185SOL     OW21187   4.724   0.754   8.132 -0.5884 -0.0636  0.5013
 3185SOL    HW121188   4.649   0.813   8.125  0.3265  0.9986 -0.2768
 3185SOL    HW221189   0.051   0.798   8.191  2.3636 -1.0875 -1.8229
 3186SOL     OW21190   4.324   1.550  14.881 -0.3276 -0.2480 -0.2735
 3186SOL    HW121191   4.322   1.520  14.972 -1.1432  0.4365 -0.0588
 3186SOL    HW221192   4.290   1.639  14.891 -1.8308 -0.7139 -1.2725
 3187SOL     OW21193   1.290   2.961   3.759  0.0047 -0.0204 -0.5360
 3187SOL    HW121194   1.297   3.046   3.717 -2.9028  1.6952  2.4706
 3187SOL    HW221195   1.299   2.913   3.677  1.0068  0.0558 -0.4708
 3188SOL     OW21196   4.119   0.826   4.885  0.0692 -0.2018  0.3246
 3188SOL    HW121197   4.112   0.731   4.877 -0.7153  0.1047 -2.9462
 3188SOL    HW221198   4.114   0.838   4.979  0.8731 -0.0967  0.3473
 3189SOL     OW21199   3.563   2.699  11.530 -0.4992 -0.0809  0.0863
 3189SOL    HW121200   3.487   2.718  11.585  0.9282  0.5653  1.8233
 3189SOL    HW221201   3.537   2.618  11.485 -0.4935  0.2671 -0.5518
 3190SOL     OW21202   3.718   0.853   1.988  0.1423 -0.3127 -0.2353
 3190SOL    HW121203   3.686   0.768   1.955 -1.0050  0.1289 -0.2639
 3190SOL    HW221204   3.707   0.848   2.083 -0.1068 -0.6103 -0.2760
 3191SOL     OW21205   0.679   2.531   4.759 -0.2866 -0.3512 -0.1284
 3191SOL    HW121206   0.727   2.449   4.751  0.2628  0.0014 -0.4598
 3191SOL    HW221207   0.733   2.577   4.824  1.2094 -0.5416 -1.2423
 3192SOL     OW21208   4.133   2.359   2.620  0.3201  0.2438 -0.6541
 3192SOL    HW121209   4.044   2.380   2.590  0.0642  0.0303 -0.0506
 3192SOL    HW221210   4.187   2.392   2.548 -1.1173  1.4084 -1.2054
 3193SOL     OW21211   4.540   4.334   8.196  0.6132 -0.0925 -0.3077
 3193SOL    HW121212   4.467   4.347   8.257 -0.7975  1.7298 -2.3822
 3193SOL    HW221213   4.499   4.267   8.141 -0.1476  0.2793 -0.2068
 3194SOL     OW21214   3.539   4.583   3.739  0.5374 -0.0804 -0.1572
 3194SOL    HW121215   3.595   4.629   3.677  1.1306 -0.4194  0.1278
 3194SOL    HW221216   3.487   4.525   3.683  2.0721 -1.0269 -0.5974
 3195SOL     OW21217   1.258   2.941  12.810 -0.1509 -0.5558 -0.3362
 3195SOL    HW121218   1.323   3.008  12.787 -0.4637 -0.3868 -0.7352
 3195SOL    HW221219   1.196   2.955  12.738  0.0060  2.4743  0.1202
 3196SOL     OW21220   0.975   2.121   6.974 -0.2550  0.4012 -0.1885
 3196SOL    HW121221   0.967   2.026   6.971 -0.2323  0.3517  1.4837
 3196SOL    HW221222   1.067   2.130   6.998  0.4013 -0.9072 -2.2318
 3197SOL     OW21223   2.251   4.528   7.562  0.5516 -0.3544 -0.2399
 3197SOL    HW121224   2.292   4.593   7.504  0.9338 -1.7335 -1.5229
 3197SOL    HW221225   2.305   4.450   7.555 -0.5223 -1.0747 -0.4531
 3198SOL     OW21226   2.732   0.809   1.960 -0.8406 -0.2645  0.1830
 3198SOL    HW121227   2.731   0.817   2.055 -2.7258 -0.0417  0.1344
 3198SOL    HW221228   2.825   0.811   1.936 -0.4050 -1.2550  1.7416
 3199SOL     OW21229   3.247   3.207   8.911 -0.7823 -0.1246  0.2903
 3199SOL    HW121230   3.264   3.232   9.002 -0.2033 -0.4487  0.2683
 3199SOL    HW221231   3.214   3.295   8.890 -0.3673  0.0151  0.2262
 3200SOL     OW21232   1.017   0.750   3.113  0.0029 -0.1862 -0.1040
 3200SOL    HW121233   1.000   0.666   3.070  0.4033  0.0259 -0.6833
 3200SOL    HW221234   1.099   0.721   3.151 -0.2840  0.5220  1.0642
 3201SOL     OW21235   4.414   4.062   6.870 -0.2641 -0.4430 -0.4300
 3201SOL    HW121236   4.466   3.982   6.863  0.3140 -0.0853 -0.2216
 3201SOL    HW221237   4.466   4.114   6.809 -0.5907  1.7013  1.0961
 3202SOL     OW21238   3.323   1.725  11.429  0.0787 -0.3490 -0.2821
 3202SOL    HW121239   3.387   1.794  11.449 -2.1651  0.7395  3.1485
 3202SOL    HW221240   3.266   1.730  11.506 -0.3285 -0.4387 -0.5788
 3203SOL     OW21241   3.683   0.730   5.795 -0.2705  0.1549 -0.2383
 3203SOL    HW121242   3.690   0.721   5.700  0.6709  1.6023 -0.2935
 3203SOL    HW221243   3.616   0.796   5.812 -0.5863 -0.2834  0.2191
 3204SOL     OW21244   2.890   0.887   8.453  0.6767 -0.5750  0.4140
 3204SOL    HW121245   2.823   0.952   8.473 -0.1085 -0.5555 -2.2552
 3204SOL    HW221246   2.895   0.831   8.530  0.8085 -1.9051 -0.5568
 3205SOL     OW21247   4.703   1.782   3.132 -0.2752 -0.4926 -0.1517
 3205SOL    HW121248   4.706   1.691   3.101 -2.1069  0.2933 -2.6113
 3205SOL    HW221249   4.724   1.778   3.225  2.4548 -1.3934 -0.7889
 3206SOL     OW21250   1.684   3.892   5.086 -0.8379  0.3026 -0.7863
 3206SOL    HW121251   1.748   3.832   5.047 -1.5033 -1.1480  0.3270
 3206SOL    HW221252   1.600   3.859   5.054 -1.7875  1.2997  0.6898
 3207SOL     OW21253   0.337   2.676   7.734  0.2147 -0.0275  0.2885
 3207SOL    HW121254   0.389   2.621   7.675 -1.5583 -2.5860  1.1195
 3207SOL    HW221255   0.411   2.707   7.785  0.2565 -3.4042  2.2847
 3208SOL     OW21256   1.983   0.322   7.837  0.1832  0.5604  0.4886
 3208SOL    HW121257   1.957   0.283   7.921  0.6376  0.0382  0.3895
 3208SOL    HW221258   1.949   0.248   7.787 -2.2160  0.4066  2.3330
 3209SOL     OW21259   3.057   1.156   3.595 -0.3258  0.1840  0.4025
 3209SOL    HW121260   3.070   1.249   3.577 -1.8491  0.2771 -0.2589
 3209SOL    HW221261   3.138   1.106   3.593 -1.4366 -1.6221  1.2736
 3210SOL     OW21262   3.498   2.263   6.742  0.2661 -0.0597  0.4041
 3210SOL    HW121263   3.462   2.350   6.724 -0.1793 -0.0979  1.1038
 3210SOL    HW221264   3.422   2.212   6.715  1.1527  0.1267 -2.4502
 3211SOL     OW21265   1.023   1.351  13.669  0.1968  0.1235  0.4138
 3211SOL    HW121266   0.967   1.424  13.696  2.4340  1.0946  2.4886
 3211SOL    HW221267   0.965   1.307  13.608 -1.9409  2.8379  0.4972
 3212SOL     OW21268   2.735   3.497   3.903  0.0446 -0.4812  0.3024
 3212SOL    HW121269   2.706   3.451   3.824 -1.4246  2.3998 -0.8249
 3212SOL    HW221270   2.666   3.470   3.963 -0.4548  1.5841  0.6524
 3213SOL     OW21271   1.652   2.423   5.000 -0.1446  0.4712 -1.1165
 3213SOL    HW121272   1.598   2.485   5.050  0.9255  2.5821 -2.5870
 3213SOL    HW221273   1.609   2.348   5.043  0.5135  2.1492  2.4380
 3214SOL     OW21274   4.587   2.287  15.900 -0.3404  0.2163 -0.2556
 3214SOL    HW121275   4.655   2.230  15.864 -0.3569 -0.4581  0.7503
 3214SOL    HW221276   4.530   2.303  15.825  1.0034 -2.2320 -1.8107
 3215SOL     OW21277   3.610   1.098   8.711 -0.0320 -0.3069 -0.6142
 3215SOL    HW121278   3.667   1.034   8.754  1.0301  0.5994 -0.6619
 3215SOL    HW221279   3.529   1.049   8.730 -0.2795 -0.1578 -1.3027
 3216SOL     OW21280   4.331   4.624   8.330 -0.5484 -0.0017  0.0588
 3216SOL    HW121281   4.276   4.677   8.274 -2.1642 -1.5896  0.1339
 3216SOL    HW221282   4.398   4.685   8.361  0.7386 -0.6075 -1.5414
 3217SOL     OW21283   0.262   2.965   6.208  0.2135 -0.2438  0.3018
 3217SOL    HW121284   0.271   2.876   6.174  1.2559  0.0249 -0.1097
 3217SOL    HW221285   0.345   2.981   6.253  1.3075 -0.8518 -1.4859
 3218SOL     OW21286   3.148   4.427  15.746 -0.4040 -0.1441 -0.2650
 3218SOL    HW121287   3.229   4.391  15.710 -0.8561 -0.2242 -1.2060
 3218SOL    HW221288   3.168   4.520  15.737  0.2149 -0.2283  0.2705
 3219SOL     OW21289   3.819   2.239   7.356  0.3300  0.1725  0.1253
 3219SOL    HW121290   3.755   2.285   7.302  2.0697  2.4787  0.0023
 3219SOL    HW221291   3.893   2.227   7.296  1.0451 -0.4132  1.1159
 3220SOL     OW21292   4.654   2.217  16.804  0.3981  0.0051 -0.4095
 3220SOL    HW121293   4.583   2.252  16.857  0.9895  0.6733 -0.0567
 3220SOL    HW221294   4.721   2.285  16.813 -0.4468  0.8210 -0.3126
 3221SOL     OW21295   1.802   4.126   0.479 -0.2934 -0.2050 -0.1461
 3221SOL    HW121296   1.713   4.112   0.448 -0.1110 -0.6778 -0.4619
 3221SOL    HW221297   1.836   4.036   0.479  0.3523  0.0503  2.8993
 3222SOL     OW21298   0.215   3.442  14.907  0.1829  0.2855  0.1432
 3222SOL    HW121299   0.219   3.531  14.872  1.4668 -0.6554 -2.0695
 3222SOL    HW221300   0.174   3.437  14.994 -0.5992 -0.8587 -0.2885
 3223SOL     OW21301   0.100   1.606  15.206  0.0168 -0.3660 -0.0569
 3223SOL    HW121302   0.130   1.582  15.118 -0.6130 -0.2471 -0.3010
 3223SOL    HW221303   0.165   1.674  15.222  2.3321 -2.2296 -1.5126
 3224SOL     OW21304   4.055   4.637   3.427  0.7165 -0.6152 -0.3151
 3224SOL    HW121305   3.992   4.567   3.446  0.7689  0.1118  2.4776
 3224SOL    HW221306   4.107   4.593   3.359  0.1117 -2.0425  0.1363
 3225SOL     OW21307   0.618   1.315   4.603  0.7063 -0.7920  0.2920
 3225SOL    HW121308   0.613   1.257   4.679 -0.2012 -0.5907  0.3854
 3225SOL    HW221309   0.693   1.374   4.619  0.7591 -0.5662 -0.8128
 3226SOL     OW21310   0.302   3.883  13.347  0.2648 -0.0624 -0.0287
 3226SOL    HW121311   0.307   3.806  13.290 -0.6727  1.0209 -1.5830
 3226SOL    HW221312   0.313   3.945  13.275  3.2350 -1.7692 -1.0268
 3227SOL     OW21313   4.230   2.811   5.198  0.6229  0.1202  0.1995
 3227SOL    HW121314   4.209   2.778   5.111  0.0660  0.5307  0.1821
 3227SOL    HW221315   4.149   2.850   5.230  0.5113 -0.8616  1.1238
 3228SOL     OW21316   4.617   2.844   7.574  0.0102  0.1116  0.3420
 3228SOL    HW121317   4.571   2.809   7.497 -1.8371  1.2117  0.9400
 3228SOL    HW221318   4.607   2.766   7.629 -2.0662  1.8532  2.4024
 3229SOL     OW21319   3.000   3.932   3.138 -0.0492 -0.0071  0.1520
 3229SOL    HW121320   2.996   3.984   3.058 -0.0353 -0.7299 -0.3150
 3229SOL    HW221321   2.917   3.887   3.125 -0.0874  0.2721 -0.5836
 3230SOL     OW21322   2.968   3.234   2.679  0.0501  0.4727 -0.1249
 3230SOL    HW121323   3.006   3.321   2.691 -0.0257  0.4044  0.6535
 3230SOL    HW221324   2.893   3.258   2.625  0.3068  1.6812  0.0358
 3231SOL     OW21325   0.949   2.602  13.388  0.1845 -0.6148  0.2561
 3231SOL    HW121326   0.940   2.672  13.453 -0.0752  0.0242 -0.4661
 3231SOL    HW221327   1.044   2.600  13.376  0.2884  1.1078  0.7520
 3232SOL     OW21328   0.851   4.478   2.466 -0.5265  0.1597 -0.1451
 3232SOL    HW121329   0.895   4.448   2.387 -0.9457 -1.5426  0.2689
 3232SOL    HW221330   0.816   4.559   2.429  2.1914  0.2369 -2.5007
 3233SOL     OW21331   2.523   1.077   8.324 -0.4114 -0.1944 -0.6757
 3233SOL    HW121332   2.582   1.112   8.258 -0.3326  0.8770 -0.0368
 3233SOL    HW221333   2.510   1.158   8.373  0.9236  0.4870 -1.4510
 3234SOL     OW21334   4.085   0.501   3.260 -0.0668 -0.3849 -0.3168
 3234SOL    HW121335   4.122   0.416   3.284  2.0087 -0.4526 -3.7973
 3234SOL    HW221336   4.129   0.503   3.175  0.5754 -0.8784  0.0026
 3235SOL     OW21337   1.172   2.737   3.266 -0.0589 -0.1379  0.6568
 3235SOL    HW121338   1.197   2.726   3.174 -3.7825 -1.4529 -0.2114
 3235SOL    HW221339   1.136   2.826   3.264  0.3318 -0.0378 -1.6129
 3236SOL     OW21340   0.329   2.721  16.149 -0.5301 -0.1330 -0.4181
 3236SOL    HW121341   0.304   2.785  16.082  1.3314  1.0477  0.0000
 3236SOL    HW221342   0.327   2.640  16.099 -0.2948 -0.7618  0.5825
 3237SOL     OW21343   0.246   0.396   7.727  0.7943 -0.3715  0.6819
 3237SOL    HW121344   0.153   0.411   7.742  0.3230 -0.4932 -2.0471
 3237SOL    HW221345   0.251   0.308   7.689 -0.8687 -0.4149  0.5843
 3238SOL     OW21346   4.527   4.118   2.404  1.2842 -0.2936 -0.3361
 3238SOL    HW121347   4.576   4.199   2.391  1.8926 -0.3742  1.4223
 3238SOL    HW221348   4.486   4.107   2.318  0.5046 -0.8806  0.1082
 3239SOL     OW21349   4.117   1.104  10.947 -0.0845 -0.0732 -0.1848
 3239SOL    HW121350   4.169   1.178  10.980  0.7228 -1.4263  1.5460
 3239SOL    HW221351   4.031   1.133  10.976 -0.5260 -2.7239  1.1808
 3240SOL     OW21352   3.218   3.983  15.451  0.2514  0.1628  0.4254
 3240SOL    HW121353   3.145   4.033  15.413 -1.0210 -3.4780 -1.8904
 3240SOL    HW221354   3.290   4.042  15.431  0.6687  0.0751  1.6389
 3241SOL     OW21355   3.051   4.415  14.308  0.0525  0.0711  0.1028
 3241SOL    HW121356   3.112   4.343  14.327 -0.7081 -0.9478 -1.3879
 3241SOL    HW221357   3.003   4.379  14.234 -0.1088  0.3835  0.0581
 3242SOL     OW21358   1.274   2.314   4.929 -0.3018  0.2648  0.4445
 3242SOL    HW121359   1.297   2.401   4.899  0.5431  0.3189  1.2185
 3242SOL    HW221360   1.254   2.328   5.022  0.3464  2.4277  0.2471
 3243SOL     OW21361   0.391   2.870  14.196  0.0333  0.6144  0.4831
 3243SOL    HW121362   0.440   2.798  14.236  2.7724  0.6970 -2.6978
 3243SOL    HW221363   0.422   2.875  14.105 -2.3670 -0.2987 -0.3706
 3244SOL     OW21364   2.828   1.114   2.583 -0.4731  0.4372 -0.4698
 3244SOL    HW121365   2.763   1.182   2.597 -0.4069  0.4603 -0.2699
 3244SOL    HW221366   2.900   1.157   2.630 -0.2885 -0.7356  0.3246
 3245SOL     OW21367   1.917   4.114   5.352  0.1772  0.4830 -0.5368
 3245SOL    HW121368   1.910   4.088   5.444  1.8735 -1.4002 -0.9455
 3245SOL    HW221369   1.874   4.199   5.344  0.1651  0.3586 -1.8480
 3246SOL     OW21370   1.615   0.289   3.215  0.6716 -0.3676  0.7133
 3246SOL    HW121371   1.703   0.278   3.253  1.3016  1.2222 -0.2739
 3246SOL    HW221372   1.580   0.355   3.275  2.1547  1.5045 -0.4706
 3247SOL     OW21373   0.184   4.474   0.217  0.3086  0.5699  0.0974
 3247SOL    HW121374   0.275   4.448   0.203  0.5865 -0.0684  3.0105
 3247SOL    HW221375   0.187   4.570   0.211  2.3974  0.5036 -0.1813
 3248SOL     OW21376   4.210   3.583  16.760 -0.0132  0.2876 -0.5581
 3248SOL    HW121377   4.137   3.614  16.813 -0.3126  1.7632 -1.8450
 3248SOL    HW221378   4.182   3.492  16.748 -3.3353  1.1901  0.5593
 3249SOL     OW21379   3.717   0.079   4.484 -0.2878  0.7749  0.2302
 3249SOL    HW121380   3.687   0.129   4.560 -0.6624  1.8988 -0.6489
 3249SOL    HW221381   3.685   0.139   4.416  0.4453 -0.7685 -1.4678
 3250SOL     OW21382   0.929   1.245   1.871  0.2137 -0.7622  0.5320
 3250SOL    HW121383   0.899   1.255   1.962  0.0571  1.6982  0.1988
 3250SOL    HW221384   0.847   1.263   1.826  0.7493  0.5294  0.0867
 3251SOL     OW21385   0.441   3.373  14.306  0.0768  0.5550  0.1731
 3251SOL    HW121386   0.377   3.444  14.307  0.8453  1.1976  4.2483
 3251SOL    HW221387   0.487   3.409  14.382 -2.7175  0.1777  2.0690
 3252SOL     OW21388   0.879   0.218  10.966  0.0826 -0.3865 -0.1196
 3252SOL    HW121389   0.895   0.309  10.942  0.1614 -0.3675  0.0094
 3252SOL    HW221390   0.787   0.216  10.992  0.2787  2.5229  0.7302
 3253SOL     OW21391   2.834   3.569   5.667 -0.7075  0.4126 -0.4917
 3253SOL    HW121392   2.772   3.611   5.609 -0.7435 -0.4816 -1.0998
 3253SOL    HW221393   2.809   3.477   5.653  3.6313 -0.9383  0.3277
 3254SOL     OW21394   4.079   1.377   6.475 -0.5855  0.1366  0.5428
 3254SOL    HW121395   4.108   1.407   6.562 -1.5147 -0.5678  1.0912
 3254SOL    HW221396   4.153   1.324   6.448  0.6742  1.8246  0.6706
 3255SOL     OW21397   2.751   3.703   1.856  0.5035  0.6617  0.5546
 3255SOL    HW121398   2.744   3.795   1.881 -1.1874  0.3681  1.1903
 3255SOL    HW221399   2.843   3.692   1.834  0.1913  1.8481 -1.3546
 3256SOL     OW21400   4.630   2.425   3.442  0.6263 -0.5095  0.1627
 3256SOL    HW121401   4.535   2.425   3.426  0.8288  0.1174 -1.1062
 3256SOL    HW221402   4.660   2.345   3.399  1.2092 -0.5208  0.6004
 3257SOL     OW21403   1.087   2.512  13.128 -0.0761 -0.3207  0.2955
 3257SOL    HW121404   1.150   2.516  13.200  0.6613 -2.1353 -0.2403
 3257SOL    HW221405   1.104   2.602  13.099 -0.8304  0.3171  1.8215
 3258SOL     OW21406   3.938   2.062   3.062  0.0723 -0.0352 -0.1698
 3258SOL    HW121407   4.029   2.087   3.051 -0.3885  1.4942 -0.5372
 3258SOL    HW221408   3.908   2.058   2.971  3.1749 -1.1336 -1.1139
 3259SOL     OW21409   2.773   2.930   0.899 -0.4323  0.1436 -0.4515
 3259SOL    HW121410   2.732   2.950   0.983  1.1405 -1.4317  0.6914
 3259SOL    HW221411   2.850   2.884   0.932  0.1236  0.5829 -1.1193
 3260SOL     OW21412   1.989   4.608   3.142 -1.0816  0.1900  0.6291
 3260SOL    HW121413   1.958   4.626   3.231 -0.4130 -1.4163  1.1878
 3260SOL    HW221414   2.083   4.625   3.143 -1.4533  2.2175  0.5063
 3261SOL     OW21415   2.846   1.377   9.100 -0.0885  0.2735  0.2437
 3261SOL    HW121416   2.861   1.471   9.094  0.4436  0.0710 -1.5083
 3261SOL    HW221417   2.824   1.381   9.193  1.1183 -0.2144  0.5355
 3262SOL     OW21418   2.764   0.420   6.155 -0.9036  0.0522  0.2213
 3262SOL    HW121419   2.755   0.327   6.134  1.0587 -0.1708  0.3640
 3262SOL    HW221420   2.854   0.426   6.124 -1.0964 -0.9295 -0.5265
 3263SOL     OW21421   0.146   4.028   4.516  0.5247  0.0302  0.1938
 3263SOL    HW121422   0.137   4.097   4.450  1.4793 -0.1764 -0.1380
 3263SOL    HW221423   0.077   4.051   4.578 -1.2181 -0.8551 -1.4112
 3264SOL     OW21424   1.235   0.581   8.545  0.0440 -0.1257 -0.3727
 3264SOL    HW121425   1.263   0.491   8.566 -1.1840 -0.5155 -0.3902
 3264SOL    HW221426   1.321   0.612   8.517  1.2641 -1.6847  1.5900
 3265SOL     OW21427   3.697   4.099   2.465 -0.5464 -0.5461  0.1018
 3265SOL    HW121428   3.649   4.019   2.484 -0.5631 -0.3195  1.0161
 3265SOL    HW221429   3.788   4.068   2.458 -0.8968 -2.1993  3.0155
 3266SOL     OW21430   0.312   2.908   3.589  0.0296 -0.0786  0.2459
 3266SOL    HW121431   0.318   2.917   3.494 -1.4486  1.1285  0.2788
 3266SOL    HW221432   0.226   2.867   3.599  0.0363 -0.0656  0.3617
 3267SOL     OW21433   4.292   0.151  13.997  0.3700 -0.0710 -0.3081
 3267SOL    HW121434   4.323   0.191  13.916 -0.0462 -1.6819 -1.2732
 3267SOL    HW221435   4.329   0.206  14.066  0.0443  0.5037 -0.5965
 3268SOL     OW21436   2.892   0.294   5.164 -0.4546  0.1266  0.8964
 3268SOL    HW121437   2.907   0.265   5.074  0.2055  1.9139  0.4253
 3268SOL    HW221438   2.852   0.378   5.140  0.3230 -0.1824 -1.4917
 3269SOL     OW21439   3.352   0.548   3.938  0.3542 -0.4033  0.1905
 3269SOL    HW121440   3.353   0.472   3.881  1.1787  0.7398 -1.3217
 3269SOL    HW221441   3.446   0.551   3.956  0.1659 -1.7835  1.3545
 3270SOL     OW21442   0.574   3.960  13.629 -0.1873 -0.7653  0.3420
 3270SOL    HW121443   0.593   3.896  13.560  1.3056 -0.0348  0.0737
 3270SOL    HW221444   0.661   3.999  13.636 -0.2627 -0.4936 -0.1892
 3271SOL     OW21445   3.486   2.328   3.395  0.6560  0.1295  0.5921
 3271SOL    HW121446   3.486   2.289   3.307 -2.4672 -1.0020  1.0844
 3271SOL    HW221447   3.531   2.411   3.383 -3.0229  2.1162  0.5927
 3272SOL     OW21448   2.047   2.495   9.296  0.4231  0.0846 -0.0798
 3272SOL    HW121449   2.119   2.555   9.316  0.3281 -0.4123  1.7027
 3272SOL    HW221450   2.102   2.417   9.301  0.5279  0.2355  1.1248
 3273SOL     OW21451   0.387   0.966   6.689 -0.2018  0.5547  0.0506
 3273SOL    HW121452   0.458   0.954   6.752 -0.1765 -0.0586 -0.0945
 3273SOL    HW221453   0.308   0.977   6.744 -0.0962 -0.1634  0.3385
 3274SOL     OW21454   3.706   0.217   7.950 -0.1122  0.7148 -0.2314
 3274SOL    HW121455   3.777   0.217   8.014 -0.2234 -0.6860 -0.0962
 3274SOL    HW221456   3.639   0.270   7.992 -2.5441 -1.3896 -1.4820
 3275SOL     OW21457   0.071   1.844   3.654 -0.0754  0.2155  0.3530
 3275SOL    HW121458   0.159   1.873   3.679  0.3185 -0.4638 -0.2450
 3275SOL    HW221459   0.026   1.900   3.717  0.6346  1.1473  0.0365
 3276SOL     OW21460   0.098   2.425   8.719  0.3509  0.4614 -0.4630
 3276SOL    HW121461   0.056   2.382   8.793  1.0076 -1.8324 -1.4188
 3276SOL    HW221462   0.085   2.358   8.652 -0.2042 -0.4829  0.5989
 3277SOL     OW21463   4.488   3.530   5.292 -0.2754  0.0553 -0.4407
 3277SOL    HW121464   4.500   3.461   5.357 -0.8015  0.3269 -0.0518
 3277SOL    HW221465   4.536   3.498   5.216  1.3691 -3.0936  1.9450
 3278SOL     OW21466   1.036   2.069   8.110 -0.3349  0.6552  0.2329
 3278SOL    HW121467   1.084   2.148   8.132  0.9507 -0.1437  0.3231
 3278SOL    HW221468   1.089   2.039   8.036 -1.2039 -0.0790 -0.0944
 3279SOL     OW21469   1.062   0.479   3.727 -0.6235 -0.1967 -0.5674
 3279SOL    HW121470   1.055   0.412   3.659 -3.0388  0.1879 -0.6674
 3279SOL    HW221471   0.979   0.465   3.771  0.5635 -0.9570  1.4345
 3280SOL     OW21472   1.490   3.292   2.952  0.0063 -0.1049 -0.1356
 3280SOL    HW121473   1.405   3.248   2.945  1.1380 -2.5044  1.1602
 3280SOL    HW221474   1.547   3.216   2.944  0.9285  0.3737  1.7639
 3281SOL     OW21475   2.361   3.563   2.319 -0.8282  0.4952  0.1232
 3281SOL    HW121476   2.334   3.653   2.338 -0.4743  0.4858  0.6716
 3281SOL    HW221477   2.457   3.567   2.317 -0.8309  0.6953  0.3950
 3282SOL     OW21478   1.047   4.673   5.881  0.6491  0.0001  0.0899
 3282SOL    HW121479   0.970   4.630   5.919  0.4833  0.8645  0.7520
 3282SOL    HW221480   1.043   4.655   5.787 -0.2490 -0.1904  0.1606
 3283SOL     OW21481   2.931   3.243   8.685  0.0659  0.2666  0.6554
 3283SOL    HW121482   2.973   3.175   8.632 -2.2574 -1.4420  1.0310
 3283SOL    HW221483   2.930   3.203   8.772 -0.0907 -2.3135 -0.5346
 3284SOL     OW21484   0.086   3.546   2.979 -0.4403 -0.0261 -0.6497
 3284SOL    HW121485   0.008   3.514   3.024  0.6768 -0.6497  0.8569
 3284SOL    HW221486   0.060   3.540   2.888 -0.5825  0.7142 -0.6593
 3285SOL     OW21487   4.399   0.811   5.202  0.0837 -0.3645 -0.0236
 3285SOL    HW121488   4.444   0.796   5.119 -2.4676 -1.7022 -1.1720
 3285SOL    HW221489   4.333   0.741   5.199 -0.3959  0.0245  1.2469
 3286SOL     OW21490   3.864   3.349   9.356 -0.0195 -0.0892 -0.0827
 3286SOL    HW121491   3.843   3.382   9.268  1.0092 -0.9642 -0.6478
 3286SOL    HW221492   3.947   3.304   9.343  0.4567  0.5177  0.9461
 3287SOL     OW21493   2.453   1.359   5.585 -0.1346 -0.7750  0.1629
 3287SOL    HW121494   2.376   1.359   5.527 -0.0575  1.3339  0.0430
 3287SOL    HW221495   2.422   1.290   5.643 -1.6350  0.6403  1.0348
 3288SOL     OW21496   2.547   4.398  16.905 -0.0832  0.5977 -0.3977
 3288SOL    HW121497   2.535   4.489  16.877 -1.2793  0.7134  0.4903
 3288SOL    HW221498   2.453   4.377  16.907 -0.1147  0.6999 -0.7278
 3289SOL     OW21499   3.327   2.248  10.885 -0.7308 -0.3775 -0.0993
 3289SOL    HW121500   3.380   2.183  10.840  1.2609  0.7896  0.5983
 3289SOL    HW221501   3.243   2.205  10.868  0.3160 -2.4199 -0.1048
 3290SOL     OW21502   3.436   4.041  11.623 -0.3254 -0.0885  0.6027
 3290SOL    HW121503   3.493   4.081  11.689 -1.4938 -1.4632  2.4612
 3290SOL    HW221504   3.382   3.988  11.682 -0.7790  1.7328  1.8085
 3291SOL     OW21505   3.509   0.271  16.287 -0.2487  1.1930  0.1102
 3291SOL    HW121506   3.559   0.303  16.362  0.9057  0.2904 -0.2686
 3291SOL    HW221507   3.563   0.288  16.210 -1.5124  0.9325 -0.8383
 3292SOL     OW21508   1.769   0.182   7.665 -0.0524  0.4257 -0.1414
 3292SOL    HW121509   1.720   0.196   7.585 -0.7570  0.9062  0.3708
 3292SOL    HW221510   1.697   0.165   7.726  1.5586 -3.5850  0.5876
 3293SOL     OW21511   4.241   0.879  13.893 -0.0988 -0.0002 -0.2053
 3293SOL    HW121512   4.272   0.969  13.887  0.4919 -0.1522  0.5880
 3293SOL    HW221513   4.185   0.884  13.970 -0.1292 -0.6068 -0.1902
 3294SOL     OW21514   4.333   2.011   6.037  0.1452  1.0072  0.3247
 3294SOL    HW121515   4.423   2.042   6.025 -0.2961  2.8213  1.6594
 3294SOL    HW221516   4.301   2.081   6.094  1.3963  2.9318 -1.2993
 3295SOL     OW21517   0.230   2.696  13.445 -0.0368 -0.1983  0.3673
 3295SOL    HW121518   0.213   2.675  13.537 -1.6302  0.7786  0.3115
 3295SOL    HW221519   0.285   2.774  13.446 -0.8554  0.3154  4.6285
 3296SOL     OW21520   2.156   2.753   8.189 -0.7410 -0.5289  0.1764
 3296SOL    HW121521   2.219   2.774   8.120  0.5783 -1.3203  1.1398
 3296SOL    HW221522   2.190   2.785   8.272 -0.2221 -2.0028  0.5375
 3297SOL     OW21523   4.050   3.558   4.562  1.2617  0.1962  0.2504
 3297SOL    HW121524   3.957   3.537   4.559  0.8184  1.8020  2.4420
 3297SOL    HW221525   4.070   3.522   4.475 -2.7929  1.1346 -1.0577
 3298SOL     OW21526   2.666   2.470   8.526  0.1857  0.2808 -0.4492
 3298SOL    HW121527   2.615   2.494   8.603  0.5223 -0.8405  0.1325
 3298SOL    HW221528   2.593   2.423   8.487 -0.0405  1.0883 -0.9851
 3299SOL     OW21529   0.872   4.411  12.246 -0.6079  0.0554 -0.2552
 3299SOL    HW121530   0.812   4.384  12.176  0.7004 -3.8480  0.1483
 3299SOL    HW221531   0.904   4.324  12.271  0.5301  0.9717  1.4940
 3300SOL     OW21532   4.004   4.468   6.753  0.3622 -0.2038  0.1092
 3300SOL    HW121533   4.022   4.495   6.662 -0.0076  1.1105  0.4292
 3300SOL    HW221534   4.088   4.483   6.796  0.5700 -2.0472  0.3368
 3301SOL     OW21535   0.957   3.919   4.074  0.4257 -0.1380 -0.7021
 3301SOL    HW121536   0.974   3.826   4.092  0.3640 -0.2639 -1.3012
 3301SOL    HW221537   0.887   3.908   4.009 -0.5069 -0.1150  0.2885
 3302SOL     OW21538   0.016   1.523   9.639 -0.7772 -0.1530 -0.7306
 3302SOL    HW121539   4.679   1.502   9.578 -1.9789 -0.4306  0.7421
 3302SOL    HW221540   4.708   1.581   9.703 -1.0828 -3.3527  1.9424
 3303SOL     OW21541   3.259   1.108   6.332 -0.3283  0.0070  0.1437
 3303SOL    HW121542   3.178   1.060   6.314  0.7750 -1.2019 -1.5784
 3303SOL    HW221543   3.315   1.038   6.366 -1.1392 -0.5504  0.3456
 3304SOL     OW21544   0.115   3.613   5.870  0.6671  0.2096  0.1771
 3304SOL    HW121545   0.063   3.693   5.861  0.0260 -0.4260 -1.8806
 3304SOL    HW221546   0.155   3.614   5.956  0.6538  0.1999  0.1834
 3305SOL     OW21547   2.450   0.224  17.199 -0.3326 -0.6093 -0.1464
 3305SOL    HW121548   2.517   0.266  17.253  0.7902 -0.5085 -1.6075
 3305SOL    HW221549   2.388   0.203  17.269 -2.7133  2.0350 -1.4589
 3306SOL     OW21550   1.408   2.190   1.832 -0.4895 -0.0280 -0.0491
 3306SOL    HW121551   1.444   2.274   1.863  0.5000 -0.6573  0.5020
 3306SOL    HW221552   1.387   2.225   1.746 -2.1998 -1.2942 -0.1425
 3307SOL     OW21553   2.867   2.703   1.851 -0.0922  0.1454 -0.0420
 3307SOL    HW121554   2.851   2.783   1.802  2.2807  0.9527  0.5462
 3307SOL    HW221555   2.809   2.643   1.804  1.4385 -1.7635  0.4862
 3308SOL     OW21556   4.553   3.765   8.845 -0.7831 -0.4283 -0.1970
 3308SOL    HW121557   4.560   3.819   8.924  1.3754 -0.0448 -0.6484
 3308SOL    HW221558   4.645   3.742   8.842 -1.8582 -5.1266  2.9674
 3309SOL     OW21559   3.792   1.323   8.396  0.1866  0.2960 -0.2012
 3309SOL    HW121560   3.887   1.316   8.385  0.3119 -0.6894  1.5006
 3309SOL    HW221561   3.757   1.245   8.353 -0.1182  0.1032  0.3888
 3310SOL     OW21562   2.198   1.309   2.718 -0.5063  0.1586 -0.0432
 3310SOL    HW121563   2.246   1.359   2.651  0.5306  0.1335  0.6747
 3310SOL    HW221564   2.268   1.289   2.781 -0.8161 -1.3003 -0.1712
 3311SOL     OW21565   0.303   1.922   5.125  0.2373 -0.2972 -0.0856
 3311SOL    HW121566   0.230   1.915   5.186  0.9436 -0.9485  0.6747
 3311SOL    HW221567   0.353   1.995   5.162  0.2670 -0.6985  0.6655
 3312SOL     OW21568   0.361   0.699   4.293  0.0916  0.5821  0.3002
 3312SOL    HW121569   0.305   0.682   4.218  0.2591 -1.5609  0.6584
 3312SOL    HW221570   0.291   0.728   4.352 -1.2586 -1.9297 -0.0580
 3313SOL     OW21571   3.260   0.515   6.944 -0.2590  0.0299 -0.1950
 3313SOL    HW121572   3.170   0.541   6.923 -0.5806  0.5039  1.7165
 3313SOL    HW221573   3.265   0.420   6.936 -1.3307 -0.3685  3.6956
 3314SOL     OW21574   4.722   3.560  17.051 -0.2578  0.4933  0.2329
 3314SOL    HW121575   4.693   3.533  16.964 -1.2912  0.6616  0.5339
 3314SOL    HW221576   0.015   3.651  17.035 -1.0015  0.6092 -0.3669
 3315SOL     OW21577   2.006   1.188   8.569  0.1663 -0.4361 -0.1325
 3315SOL    HW121578   2.067   1.119   8.545 -0.4824 -0.6881 -1.0514
 3315SOL    HW221579   2.042   1.207   8.656  0.5850  1.0462 -0.6143
 3316SOL     OW21580   3.444   1.883   8.910 -0.4559 -0.1377  0.1345
 3316SOL    HW121581   3.490   1.962   8.881  1.2988 -0.6317  1.5419
 3316SOL    HW221582   3.394   1.927   8.979 -0.6505 -1.2249  0.6768
 3317SOL     OW21583   1.911   3.230  14.799  0.2888  0.3681  0.4458
 3317SOL    HW121584   1.887   3.323  14.800 -1.6622 -0.1249 -2.6692
 3317SOL    HW221585   1.829   3.188  14.825  1.2136 -2.5765 -1.3639
 3318SOL     OW21586   4.180   3.242   1.781 -0.0560  0.3680 -0.4381
 3318SOL    HW121587   4.270   3.227   1.753 -0.7576 -1.4062 -1.7516
 3318SOL    HW221588   4.163   3.159   1.826 -2.3043  0.9838 -0.1280
 3319SOL     OW21589   2.987   3.898   6.344  0.0402  0.3816 -0.9611
 3319SOL    HW121590   2.960   3.958   6.413  0.2720 -1.0931  0.4062
 3319SOL    HW221591   3.006   3.814   6.387 -1.1342  0.8099  0.3757
 3320SOL     OW21592   0.648   1.377   5.503  0.2690 -0.5938  0.9667
 3320SOL    HW121593   0.641   1.355   5.596  2.1921 -1.5130  0.9037
 3320SOL    HW221594   0.742   1.392   5.491  0.3986 -1.3215  1.0471
 3321SOL     OW21595   3.381   1.885   1.104  0.4855  0.1052 -0.3500
 3321SOL    HW121596   3.369   1.972   1.142 -1.9895 -0.0639 -0.7670
 3321SOL    HW221597   3.374   1.821   1.175 -1.9428  0.5948 -0.1525
 3322SOL     OW21598   0.418   2.817  13.234  0.1703  0.2895  0.9332
 3322SOL    HW121599   0.323   2.832  13.241 -0.3556 -1.9243 -1.3475
 3322SOL    HW221600   0.423   2.765  13.154  1.1577 -1.3251  2.0601
 3323SOL     OW21601   4.023   0.473  15.855 -0.1623  0.5148 -0.5999
 3323SOL    HW121602   4.042   0.381  15.839 -0.0090  0.1388  1.6192
 3323SOL    HW221603   4.102   0.515  15.889 -0.6694 -0.5106  1.8552
 3324SOL     OW21604   4.170   0.866   7.318 -0.3750 -0.2689 -0.4828
 3324SOL    HW121605   4.192   0.957   7.339  1.1877 -0.2712 -2.0774
 3324SOL    HW221606   4.091   0.867   7.263 -1.5530  0.0726  1.2347
 3325SOL     OW21607   2.466   2.500  14.723 -0.1227  0.5641 -0.4222
 3325SOL    HW121608   2.502   2.413  14.738 -1.0886  0.4982  1.5742
 3325SOL    HW221609   2.393   2.482  14.664  1.0621 -1.8685 -1.1248
 3326SOL     OW21610   3.746   4.488  11.018 -0.6434 -0.1915 -0.0983
 3326SOL    HW121611   3.677   4.470  10.953 -0.6107  0.2926 -0.2699
 3326SOL    HW221612   3.779   4.398  11.021  1.2473  0.5371  0.5666
 3327SOL     OW21613   2.882   1.474   3.743  0.4700 -0.3253 -0.1591
 3327SOL    HW121614   2.847   1.385   3.744  1.2498 -0.6029  3.1232
 3327SOL    HW221615   2.960   1.468   3.688  0.6948  2.8786 -0.1826
 3328SOL     OW21616   2.909   4.204   7.748 -0.7059  0.3720  0.5535
 3328SOL    HW121617   2.877   4.291   7.722 -0.2556  0.3781  0.0020
 3328SOL    HW221618   2.907   4.198   7.843  0.6188 -0.8099  0.5170
 3329SOL     OW21619   0.627   2.537   1.352 -0.1131  0.0393 -0.2230
 3329SOL    HW121620   0.574   2.538   1.272  0.3435 -0.0272 -0.5270
 3329SOL    HW221621   0.570   2.595   1.403  0.7630  0.8094 -0.1082
 3330SOL     OW21622   1.464   1.108   4.493 -0.2124  0.1503  0.0921
 3330SOL    HW121623   1.410   1.075   4.420  1.7509 -1.3196 -0.7086
 3330SOL    HW221624   1.457   1.203   4.489 -0.3881  0.2554  3.1324
 3331SOL     OW21625   1.947   0.039   5.768 -0.0465 -0.1884  0.0844
 3331SOL    HW121626   1.981   0.015   5.682 -4.0813 -0.7891 -1.3572
 3331SOL    HW221627   1.989   4.703   5.818 -1.8735 -1.0085  0.4792
 3332SOL     OW21628   1.035   2.079   1.635  0.6384 -0.0903 -0.2782
 3332SOL    HW121629   1.014   1.985   1.635  1.4839 -0.2817  0.2799
 3332SOL    HW221630   0.972   2.114   1.698  1.2135  0.7727 -0.1779
 3333SOL     OW21631   4.073   4.633  17.065 -0.9950 -0.0494  0.0307
 3333SOL    HW121632   4.104   4.712  17.109  2.0125 -1.2943  0.0699
 3333SOL    HW221633   4.001   4.605  17.121 -0.1141  1.2225  1.8020
 3334SOL     OW21634   1.478   2.942   4.791  0.5874  0.6047 -0.3930
 3334SOL    HW121635   1.466   2.909   4.702  1.2711 -0.2690 -0.1621
 3334SOL    HW221636   1.401   2.906   4.834  2.6272 -1.2422  1.7166
 3335SOL     OW21637   1.031   1.390  10.667  0.3599  0.0362  0.1586
 3335SOL    HW121638   0.944   1.351  10.677 -0.9138  2.7694 -0.2593
 3335SOL    HW221639   1.077   1.355  10.744  1.2383 -1.5060 -1.0677
 3336SOL     OW21640   3.186   0.211   6.978  0.2879 -0.2122  0.3755
 3336SOL    HW121641   3.094   0.188   6.990  0.0126 -0.9016 -2.9621
 3336SOL    HW221642   3.224   0.213   7.065 -2.6823  0.7416  1.6428
 3337SOL     OW21643   0.842   2.900   9.806  0.1983  0.2455  0.3572
 3337SOL    HW121644   0.746   2.896   9.801  0.1692  0.1584  0.9423
 3337SOL    HW221645   0.856   2.937   9.719  3.0375  0.7776  1.0604
 3338SOL     OW21646   0.029   2.528   5.375  0.2124  0.0267  0.4493
 3338SOL    HW121647   0.110   2.537   5.426  0.8387 -0.4865 -0.4557
 3338SOL    HW221648   4.702   2.475   5.427  0.5549 -1.2511 -0.4570
 3339SOL     OW21649   3.725   0.876   3.138 -0.8286  0.1629  0.5973
 3339SOL    HW121650   3.772   0.829   3.207  0.5564 -1.3705 -1.3469
 3339SOL    HW221651   3.737   0.813   3.066 -0.7648  1.3213 -0.4029
 3340SOL     OW21652   1.149   1.454   1.966 -0.3379  0.3407  0.3961
 3340SOL    HW121653   1.118   1.490   1.882  0.2567  3.2848  1.4357
 3340SOL    HW221654   1.070   1.408   1.994 -0.7103  0.3262 -0.6523
 3341SOL     OW21655   4.076   2.661  17.283  0.3704 -0.0696  0.1409
 3341SOL    HW121656   4.131   2.628  17.213  0.4313  0.6447 -0.1435
 3341SOL    HW221657   4.089   2.754  17.263  0.8364 -0.0063  0.7370
 3342SOL     OW21658   2.583   0.832   1.719  0.0628 -0.0507  0.2723
 3342SOL    HW121659   2.649   0.806   1.784 -0.6654 -1.7942  0.3194
 3342SOL    HW221660   2.564   0.923   1.741  1.1004  0.4727 -0.9842
 3343SOL     OW21661   0.965   0.985   1.487 -0.4087  0.1585  0.3739
 3343SOL    HW121662   0.983   1.023   1.401 -1.8318 -0.2888 -0.1435
 3343SOL    HW221663   0.948   1.065   1.536 -2.6579 -0.1453  0.1138
 3344SOL     OW21664   1.420   4.067   6.063  0.0071  0.1325 -0.3092
 3344SOL    HW121665   1.337   4.114   6.056  1.1581  2.2289  0.3351
 3344SOL    HW221666   1.463   4.133   6.008 -1.8412  0.1646 -1.7138
 3345SOL     OW21667   2.867   0.679  13.214  0.1173  0.0538 -0.0399
 3345SOL    HW121668   2.825   0.734  13.148 -2.3122 -0.5239  1.0258
 3345SOL    HW221669   2.958   0.703  13.199  0.7827 -2.4588  0.0048
 3346SOL     OW21670   1.617   2.510  16.697  0.3466 -0.5367  0.6838
 3346SOL    HW121671   1.546   2.572  16.683  0.5384 -0.4868 -0.0727
 3346SOL    HW221672   1.573   2.430  16.669 -2.3756  2.0413 -2.4243
 3347SOL     OW21673   2.636   4.483  15.262 -0.2665 -0.6317 -0.0076
 3347SOL    HW121674   2.550   4.446  15.245 -0.0291 -2.1729  2.1283
 3347SOL    HW221675   2.688   4.467  15.184 -1.7538  2.5604 -1.6379
 3348SOL     OW21676   2.477   2.373   7.572 -0.8695 -0.1281 -0.4552
 3348SOL    HW121677   2.551   2.427   7.601 -0.2779 -0.2680 -1.7162
 3348SOL    HW221678   2.419   2.382   7.648  1.3058  1.7069  0.9996
 3349SOL     OW21679   4.140   4.154  15.901  0.1199 -0.3129 -0.5445
 3349SOL    HW121680   4.060   4.103  15.910  0.5058 -0.2970  3.0128
 3349SOL    HW221681   4.164   4.137  15.810  2.3702 -0.2215  0.0336
 3350SOL     OW21682   4.372   0.395   8.893  0.2469  0.0780 -0.2017
 3350SOL    HW121683   4.336   0.313   8.860 -0.7280  0.9241 -1.2413
 3350SOL    HW221684   4.392   0.371   8.984  0.2237 -0.7508 -0.4199
 3351SOL     OW21685   3.450   0.159   5.929 -0.1436  0.0013 -0.2475
 3351SOL    HW121686   3.386   0.225   5.902 -1.1998 -0.7894  0.3147
 3351SOL    HW221687   3.488   0.206   6.004 -0.9289  3.2608 -1.8891
 3352SOL     OW21688   1.668   2.360   3.615 -0.0660  0.6588 -0.1136
 3352SOL    HW121689   1.591   2.309   3.588  0.1928 -0.5377  1.3929
 3352SOL    HW221690   1.647   2.360   3.708  1.4279  1.5619  0.2166
 3353SOL     OW21691   0.134   1.268   6.716 -0.0367 -0.4193  0.1163
 3353SOL    HW121692   0.153   1.241   6.626  0.0778 -0.8963  0.2852
 3353SOL    HW221693   0.215   1.318   6.721  0.2476 -0.7153 -1.5783
 3354SOL     OW21694   2.169   3.740   5.100 -0.1191  0.4275 -0.3397
 3354SOL    HW121695   2.204   3.797   5.169 -0.8056 -0.8019  1.0213
 3354SOL    HW221696   2.211   3.766   5.018  0.0280 -0.2301 -0.4694
 3355SOL     OW21697   3.208   2.707   3.009 -0.0482 -0.1892  0.2163
 3355SOL    HW121698   3.284   2.762   2.988 -0.4717  0.4788  0.4340
 3355SOL    HW221699   3.143   2.735   2.945 -0.0503  0.1042  0.3484
 3356SOL     OW21700   2.150   1.299   7.844  0.0921  0.0183  0.3851
 3356SOL    HW121701   2.122   1.384   7.876 -1.9710 -0.7558  0.6151
 3356SOL    HW221702   2.108   1.243   7.910  2.6588 -0.1803  1.8632
 3357SOL     OW21703   3.172   0.728  14.268  0.1277 -0.2831  0.5263
 3357SOL    HW121704   3.165   0.650  14.213  2.0793 -0.0274 -0.1023
 3357SOL    HW221705   3.221   0.787  14.211  1.7040 -0.3045  1.8558
 3358SOL     OW21706   1.408   4.183  15.421  0.3496 -0.4025  0.4022
 3358SOL    HW121707   1.329   4.235  15.410 -0.4683 -1.4724  1.3036
 3358SOL    HW221708   1.469   4.251  15.450 -0.8478  1.2542 -0.9909
 3359SOL     OW21709   1.767   2.342   1.965  0.2647  0.1828 -0.0410
 3359SOL    HW121710   1.672   2.326   1.970 -0.1370  2.5270 -0.5144
 3359SOL    HW221711   1.794   2.255   1.995 -1.9583 -0.1709  0.9514
 3360SOL     OW21712   4.060   2.069  16.474 -0.0482 -0.0866  0.4247
 3360SOL    HW121713   4.131   2.095  16.416  0.8636 -0.4628  1.3657
 3360SOL    HW221714   4.091   1.983  16.502  2.1598  0.6157  0.0855
 3361SOL     OW21715   4.285   1.374   5.511  0.4762 -0.1394  0.2257
 3361SOL    HW121716   4.295   1.394   5.418  3.8075  0.6013  0.7578
 3361SOL    HW221717   4.194   1.404   5.519  0.5486  0.1907 -0.1607
 3362SOL     OW21718   0.759   0.086  12.690 -0.3529  0.2846  0.7718
 3362SOL    HW121719   0.762   0.163  12.747 -0.3271  2.1756 -1.8023
 3362SOL    HW221720   0.785   0.132  12.611  0.9993 -0.7206  0.6250
 3363SOL     OW21721   3.342   0.903  14.726 -0.6341  0.2672  0.3447
 3363SOL    HW121722   3.419   0.912  14.669  0.6638 -1.0749  1.8624
 3363SOL    HW221723   3.269   0.874  14.672 -1.2702  0.5319  1.0774
 3364SOL     OW21724   3.108   1.638  17.606 -0.1045  0.3541  0.1840
 3364SOL    HW121725   3.200   1.661  17.619 -0.3851  1.5196  0.1059
 3364SOL    HW221726   3.111   1.543  17.593  1.4214  0.3658  0.4756
 3365SOL     OW21727   4.396   3.378   8.954  0.2771 -0.5087  0.4909
 3365SOL    HW121728   4.341   3.341   8.884  3.1505 -0.6028 -1.7004
 3365SOL    HW221729   4.458   3.305   8.960 -0.7960 -1.2853  2.0511
 3366SOL     OW21730   1.805   3.297   0.120 -0.0138 -0.2256  0.0354
 3366SOL    HW121731   1.873   3.240   0.156  1.0039  1.0865  0.1805
 3366SOL    HW221732   1.722   3.250   0.129 -0.4223  0.6041  0.6055
 3367SOL     OW21733   4.220   4.648  15.510  0.1754  0.2093 -0.0939
 3367SOL    HW121734   4.251   4.715  15.570 -1.1895  1.0785 -0.3381
 3367SOL    HW221735   4.175   4.698  15.441  3.4643  0.4998 -2.0387
 3368SOL     OW21736   2.661   1.657   6.354 -0.4055 -0.2112 -0.3294
 3368SOL    HW121737   2.569   1.685   6.362  0.1230  1.2228  0.7154
 3368SOL    HW221738   2.656   1.599   6.278  1.2638  0.8207 -1.2296
 3369SOL     OW21739   3.065   0.277   8.068  0.5033  0.3530  0.5114
 3369SOL    HW121740   3.082   0.309   7.980  3.8384  0.8643  1.3635
 3369SOL    HW221741   3.129   0.207   8.078 -2.1487 -2.2710 -1.0354
 3370SOL     OW21742   0.165   0.428   9.176 -0.3011  0.0184  0.0533
 3370SOL    HW121743   0.161   0.366   9.103 -2.1112  1.0304 -0.6873
 3370SOL    HW221744   0.243   0.392   9.219 -0.3110 -0.3110 -0.2043
 3371SOL     OW21745   0.237   0.933   1.059  0.1344 -0.7849  0.0404
 3371SOL    HW121746   0.189   1.010   1.089 -1.7128 -2.2627  0.8715
 3371SOL    HW221747   0.320   0.945   1.104  0.9718 -0.9917 -1.4391
 3372SOL     OW21748   2.738   3.269   3.129  0.5498 -0.0379  0.5058
 3372SOL    HW121749   2.774   3.189   3.167 -0.8255 -1.1679 -0.5974
 3372SOL    HW221750   2.686   3.221   3.066  0.6011  3.1334 -1.9164
 3373SOL     OW21751   0.960   1.335   8.834 -0.7456 -0.0364 -0.5485
 3373SOL    HW121752   1.017   1.411   8.842  0.9021 -1.2144 -1.1594
 3373SOL    HW221753   0.952   1.321   8.739  2.3390  0.6809 -0.8949
 3374SOL     OW21754   1.516   0.068   5.788  0.0753  0.8306 -0.7980
 3374SOL    HW121755   1.568   0.095   5.864 -0.1159  0.1301 -0.4225
 3374SOL    HW221756   1.558   4.724   5.749 -2.4443 -1.7525  1.6971
 3375SOL     OW21757   4.503   2.843  11.693 -0.0707 -0.1439 -0.0407
 3375SOL    HW121758   4.447   2.794  11.752 -1.8782  0.0553 -1.5975
 3375SOL    HW221759   4.450   2.902  11.638  1.8189  1.4785 -0.1126
 3376SOL     OW21760   4.512   2.673  11.931 -1.0064 -0.2546  0.5265
 3376SOL    HW121761   4.521   2.616  12.008  2.4929 -0.4711 -0.0607
 3376SOL    HW221762   4.589   2.650  11.880  0.1392  1.8295  1.3174
 3377SOL     OW21763   3.128   3.721   4.062  0.5688  0.0671  0.5023
 3377SOL    HW121764   3.192   3.740   3.994  0.5557 -2.7577 -0.3033
 3377SOL    HW221765   3.188   3.690   4.130 -0.7345 -0.4547  1.4190
 3378SOL     OW21766   0.974   2.821   0.825  0.1520  0.3256  0.3022
 3378SOL    HW121767   0.920   2.882   0.875 -1.0101 -2.0443  1.9511
 3378SOL    HW221768   1.004   2.755   0.888 -0.3333  2.5617  2.8420
 3379SOL     OW21769   0.824   3.433   2.797  0.5749 -0.5217 -0.1125
 3379SOL    HW121770   0.856   3.522   2.780  1.7661 -0.5100  2.1727
 3379SOL    HW221771   0.884   3.401   2.864 -1.0301  0.5073  1.8101
 3380SOL     OW21772   0.417   1.787   6.669 -0.1312 -0.3213 -0.1412
 3380SOL    HW121773   0.355   1.837   6.615 -0.9702 -0.2025  0.9413
 3380SOL    HW221774   0.441   1.855   6.731  0.5734 -0.3301 -0.4028
 3381SOL     OW21775   0.289   1.074   6.236  0.6862  0.1215  0.0822
 3381SOL    HW121776   0.343   1.146   6.202  0.2727 -0.0393 -0.9124
 3381SOL    HW221777   0.312   1.005   6.174 -0.7693 -0.3546  0.0742
 3382SOL     OW21778   2.253   3.596   3.842 -0.0421  0.1314 -0.3080
 3382SOL    HW121779   2.306   3.654   3.898 -0.2701  0.0374  0.0077
 3382SOL    HW221780   2.273   3.626   3.754  2.7774  0.3686  0.4028
 3383SOL     OW21781   4.726   2.089   5.549 -0.5267  0.0791  0.3330
 3383SOL    HW121782   4.688   2.039   5.621  0.2910  0.2077  0.8582
 3383SOL    HW221783   0.072   2.124   5.589 -0.9974  2.6223 -0.9415
 3384SOL     OW21784   2.838   0.287   3.034  1.0252 -0.4824 -0.3754
 3384SOL    HW121785   2.905   0.219   3.027  1.7742  0.0101  2.2571
 3384SOL    HW221786   2.888   0.368   3.021 -1.1666  1.4107  2.9114
 3385SOL     OW21787   2.618   2.737   4.167 -0.7123  1.0350  0.3639
 3385SOL    HW121788   2.664   2.653   4.171  0.4251  1.7110  1.4695
 3385SOL    HW221789   2.669   2.791   4.106  1.1432 -1.3149 -0.1957
 3386SOL     OW21790   2.177   1.144   0.225  0.0283 -0.1150 -0.4886
 3386SOL    HW121791   2.121   1.106   0.156  2.3260 -0.8244 -1.9785
 3386SOL    HW221792   2.116   1.185   0.286 -2.8111 -2.5319 -1.6498
 3387SOL     OW21793   4.651   4.228   4.609  0.0824 -0.1019  0.7138
 3387SOL    HW121794   4.725   4.284   4.634  1.6380 -1.8693  0.0749
 3387SOL    HW221795   4.591   4.291   4.570  1.7036  0.0590 -1.5443
 3388SOL     OW21796   1.424   3.365  11.910  0.0232  0.1357 -0.2229
 3388SOL    HW121797   1.334   3.370  11.944 -0.1984 -1.0357 -0.6395
 3388SOL    HW221798   1.463   3.412  11.984  0.9976 -0.4584 -0.3648
 3389SOL     OW21799   2.364   4.331   7.299  0.1546 -0.5936  0.4961
 3389SOL    HW121800   2.375   4.235   7.299 -0.2096 -0.6347 -1.1477
 3389SOL    HW221801   2.432   4.355   7.237  1.4564  3.8469  3.6673
 3390SOL     OW21802   1.419   1.155  11.663  0.5556  0.1290  0.0194
 3390SOL    HW121803   1.346   1.211  11.636  0.0662 -0.7765 -0.5262
 3390SOL    HW221804   1.489   1.220  11.674  1.6698 -1.4703  2.4598
 3391SOL     OW21805   0.278   3.424   5.413 -0.1298  0.3333 -0.0302
 3391SOL    HW121806   0.346   3.359   5.431  1.3487  2.3158  1.5256
 3391SOL    HW221807   0.283   3.466   5.499 -0.3565 -1.4593  0.8618
 3392SOL     OW21808   3.796   1.588  14.551  0.2770  0.8165 -0.4614
 3392SOL    HW121809   3.728   1.621  14.492 -1.1632 -0.8774  0.2768
 3392SOL    HW221810   3.779   1.648  14.624  1.7506  0.8464 -0.1484
 3393SOL     OW21811   2.248   4.033   1.679 -0.5512  0.4831  0.0322
 3393SOL    HW121812   2.281   3.946   1.699 -1.0472  0.0366 -1.0771
 3393SOL    HW221813   2.186   4.051   1.750  1.5983  1.8540  1.5495
 3394SOL     OW21814   4.054   0.865   5.139 -0.0180  0.2063 -0.0223
 3394SOL    HW121815   4.083   0.777   5.165  1.7482  0.9472  0.5161
 3394SOL    HW221816   4.069   0.925   5.212  1.4901 -0.2955  0.0851
 3395SOL     OW21817   0.307   1.357   5.902  0.2263 -0.7315 -0.3255
 3395SOL    HW121818   0.268   1.417   5.967  0.0622 -0.3814 -0.7487
 3395SOL    HW221819   0.384   1.327   5.951  0.8697  0.1354 -0.8111
 3396SOL     OW21820   3.199   4.501  13.810 -0.0933 -0.2967 -0.0979
 3396SOL    HW121821   3.293   4.493  13.795 -0.6140 -0.5315 -3.4208
 3396SOL    HW221822   3.192   4.556  13.888 -1.4073 -1.2790  0.4878
 3397SOL     OW21823   3.586   4.341   1.096 -0.1932  0.2781 -0.6884
 3397SOL    HW121824   3.674   4.314   1.125 -0.5412  1.5487  1.5281
 3397SOL    HW221825   3.538   4.278   1.149  1.4751  0.7965  1.4620
 3398SOL     OW21826   2.808   1.873   6.014 -0.6842  0.6730 -0.0660
 3398SOL    HW121827   2.846   1.937   6.074 -2.1504  0.5179  1.0353
 3398SOL    HW221828   2.874   1.883   5.946  1.9629 -3.1494  1.9626
 3399SOL     OW21829   2.556   0.040   6.750 -0.1904  0.6363  0.0756
 3399SOL    HW121830   2.647   0.069   6.759  1.5181 -3.4933 -3.2531
 3399SOL    HW221831   2.504   0.119   6.759 -0.9745  0.2260 -0.7978
 3400SOL     OW21832   2.014   3.697   2.979  0.3645 -0.3194  0.0060
 3400SOL    HW121833   2.073   3.711   3.053  0.2100 -0.8927  0.2347
 3400SOL    HW221834   1.940   3.746   3.016  0.7815 -0.3834  0.9281
 3401SOL     OW21835   2.154   2.701   6.160  0.9614 -0.1989  0.9123
 3401SOL    HW121836   2.190   2.618   6.191  0.4391 -0.4976  0.7226
 3401SOL    HW221837   2.222   2.736   6.103  1.6571  1.0986  2.5538
 3402SOL     OW21838   1.439   2.196   3.602  0.1872  0.1170  0.8319
 3402SOL    HW121839   1.447   2.101   3.593 -1.7856 -0.0754  1.0961
 3402SOL    HW221840   1.350   2.198   3.638 -1.1126 -0.8650 -2.3028
 3403SOL     OW21841   3.920   1.598   4.368 -0.2140 -0.9705  0.1286
 3403SOL    HW121842   3.964   1.514   4.353  2.8794  1.1065 -2.3350
 3403SOL    HW221843   3.851   1.597   4.301  0.4902 -0.7593 -0.5997
 3404SOL     OW21844   2.444   1.347   7.759  0.3454  0.2513  0.2264
 3404SOL    HW121845   2.428   1.441   7.772  1.5308  0.6288 -1.1033
 3404SOL    HW221846   2.355   1.313   7.771  0.0727  0.0948 -2.3172
 3405SOL     OW21847   1.896   2.586   4.999  0.2817  0.3496  0.0607
 3405SOL    HW121848   1.861   2.660   4.949  0.6775  0.0324 -0.6921
 3405SOL    HW221849   1.818   2.531   5.009  1.0235 -0.8413 -0.6849
 3406SOL     OW21850   1.411   0.183   7.437 -0.7423  0.5386  0.0809
 3406SOL    HW121851   1.433   0.090   7.441 -0.9067  0.4964  0.0233
 3406SOL    HW221852   1.321   0.195   7.406  0.0423  0.8590 -2.0925
 3407SOL     OW21853   0.364   1.318   0.950 -0.6653 -0.3225 -0.0968
 3407SOL    HW121854   0.448   1.287   0.985 -1.9255  0.4887  3.5647
 3407SOL    HW221855   0.348   1.388   1.012 -0.1632 -0.7936  0.5686
 3408SOL     OW21856   4.329   1.258   1.566 -0.3336 -0.5452 -0.3660
 3408SOL    HW121857   4.337   1.165   1.546  0.3559 -0.2059 -1.6876
 3408SOL    HW221858   4.421   1.279   1.575  0.2376 -3.0193 -0.5324
 3409SOL     OW21859   0.858   3.212  13.529  0.6023  0.5008 -0.2527
 3409SOL    HW121860   0.913   3.134  13.523 -1.7777 -1.2310  0.7255
 3409SOL    HW221861   0.841   3.231  13.437 -1.8246 -0.6596 -0.0360
 3410SOL     OW21862   0.148   4.237   3.612  0.0601  0.0004 -0.3911
 3410SOL    HW121863   0.233   4.222   3.652 -0.3655 -0.0938  0.4788
 3410SOL    HW221864   0.153   4.260   3.519 -0.2991  3.4989  0.4347
 3411SOL     OW21865   3.759   3.374   0.222  0.0117 -0.2302 -0.1349
 3411SOL    HW121866   3.669   3.366   0.251 -0.2964 -3.1066 -1.9255
 3411SOL    HW221867   3.757   3.451   0.166 -0.3566  1.6057  2.4152
 3412SOL     OW21868   4.229   4.506  10.612  0.2333  0.0114  0.1217
 3412SOL    HW121869   4.261   4.477  10.698 -1.2814 -3.0715 -0.3146
 3412SOL    HW221870   4.149   4.454  10.601  1.0750 -1.2775  0.0150
 3413SOL     OW21871   1.147   1.073  11.779  0.4448 -0.0533  0.6792
 3413SOL    HW121872   1.212   1.128  11.822  0.0665  0.8762  0.0696
 3413SOL    HW221873   1.203   0.997  11.761  2.0036  1.6202 -1.5163
 3414SOL     OW21874   3.326   4.051   6.887  0.3426 -0.1780  0.6435
 3414SOL    HW121875   3.355   3.963   6.862 -0.1400 -0.4621  1.0922
 3414SOL    HW221876   3.318   4.042   6.982 -0.7543 -0.7119  0.4999
 3415SOL     OW21877   2.810   2.389   1.029 -0.9939 -0.0125  0.1106
 3415SOL    HW121878   2.761   2.468   1.051  1.6067  1.4337  0.6886
 3415SOL    HW221879   2.851   2.407   0.944 -0.0397  0.9813  0.7875
 3416SOL     OW21880   3.076   2.059  11.101 -0.1374  0.1167  0.1645
 3416SOL    HW121881   3.136   1.995  11.139 -0.4168 -0.9715 -1.2363
 3416SOL    HW221882   3.102   2.060  11.009 -0.8117 -4.1047 -0.1022
 3417SOL     OW21883   1.543   2.662  14.026 -0.3012 -0.1649  0.1689
 3417SOL    HW121884   1.485   2.646  14.101 -0.2322 -1.9771 -0.1569
 3417SOL    HW221885   1.601   2.733  14.055 -0.3457 -1.2333  2.9119
 3418SOL     OW21886   4.337   1.086  16.058  0.2020  0.4418  0.7506
 3418SOL    HW121887   4.299   0.999  16.050 -0.0633  0.7157 -0.9741
 3418SOL    HW221888   4.410   1.086  15.995  0.5058  1.5417  1.0969
 3419SOL     OW21889   3.202   3.421   3.466 -0.3297  0.2972  0.7449
 3419SOL    HW121890   3.195   3.343   3.521 -0.6935 -2.7459 -3.5721
 3419SOL    HW221891   3.291   3.416   3.430 -0.3128 -1.0997  0.9748
 3420SOL     OW21892   2.031   4.031   0.716  0.9436  0.0686  0.2540
 3420SOL    HW121893   2.094   4.095   0.684  1.1986 -0.1959  0.2250
 3420SOL    HW221894   2.054   3.957   0.660  0.9880 -0.7275  1.3203
 3421SOL     OW21895   1.995   4.398   5.591  0.2989  0.0963 -0.1419
 3421SOL    HW121896   1.924   4.370   5.532 -2.3456  1.7818  2.2866
 3421SOL    HW221897   1.944   4.394   5.672 -2.4946  0.7362 -1.8646
 3422SOL     OW21898   0.130   4.508   4.292  0.6132 -0.6021 -0.1674
 3422SOL    HW121899   0.126   4.535   4.384  1.5872 -2.8649  0.5100
 3422SOL    HW221900   0.039   4.490   4.267  0.6545 -0.0601 -0.7249
 3423SOL     OW21901   4.088   3.209   7.063 -0.3207 -0.5040  0.4505
 3423SOL    HW121902   4.050   3.241   7.145 -0.6111  2.7316 -0.9623
 3423SOL    HW221903   4.179   3.236   7.073 -0.3749  0.1671 -0.9424
 3424SOL     OW21904   3.242   3.835   8.902 -0.0451 -0.5414  0.2181
 3424SOL    HW121905   3.174   3.877   8.849  0.8169  0.6588  0.0750
 3424SOL    HW221906   3.204   3.843   8.989 -0.5315  1.6074 -0.2019
 3425SOL     OW21907   1.788   0.327  10.035  0.7559 -0.1077 -0.2113
 3425SOL    HW121908   1.766   0.344   9.943 -0.1802 -1.3045 -0.2107
 3425SOL    HW221909   1.882   0.311  10.037  1.4060  3.9429  2.0274
 3426SOL     OW21910   3.784   2.432   6.657  0.3337 -0.6593  0.0749
 3426SOL    HW121911   3.792   2.487   6.736  0.8529  0.4728 -0.7614
 3426SOL    HW221912   3.696   2.454   6.629  0.4979  1.2594  0.9934
 3427SOL     OW21913   3.467   2.158  12.290 -0.1837 -0.3891 -0.3411
 3427SOL    HW121914   3.531   2.112  12.237  2.5275  0.4536  2.2495
 3427SOL    HW221915   3.445   2.232  12.233  0.6217  1.1997  1.4147
 3428SOL     OW21916   0.879   4.316  14.964  0.7065  0.1862  0.7280
 3428SOL    HW121917   0.922   4.382  14.909 -0.1934 -0.4191 -0.6963
 3428SOL    HW221918   0.788   4.340  14.975 -0.3767 -3.2444 -0.7469
 3429SOL     OW21919   3.550   4.454   4.625 -0.3006  0.1742  0.4525
 3429SOL    HW121920   3.622   4.491   4.575 -0.0390  3.1107  2.9733
 3429SOL    HW221921   3.477   4.513   4.606  2.1679  2.8851 -0.5251
 3430SOL     OW21922   3.908   3.824   5.069  0.1843 -0.1267 -0.6906
 3430SOL    HW121923   3.930   3.822   4.976  0.7180  0.4660 -0.5746
 3430SOL    HW221924   3.931   3.732   5.083 -1.3008 -0.2683  0.8222
 3431SOL     OW21925   3.679   1.236  13.587  0.2730 -1.0749  0.2355
 3431SOL    HW121926   3.715   1.183  13.658 -1.0024 -0.2193  1.5101
 3431SOL    HW221927   3.598   1.190  13.568 -0.7492  0.7296  0.2715
 3432SOL     OW21928   1.933   1.735   6.488 -0.0516  1.0059  0.1145
 3432SOL    HW121929   1.844   1.757   6.463 -1.8398 -1.4161  4.3091
 3432SOL    HW221930   1.939   1.718   6.582  0.1665 -1.8482 -0.4172
 3433SOL     OW21931   3.211   2.426   4.659 -0.3598 -0.3366  0.7708
 3433SOL    HW121932   3.156   2.411   4.581  0.7448  1.6731 -0.3796
 3433SOL    HW221933   3.299   2.414   4.624 -0.9361  1.7331 -1.3862
 3434SOL     OW21934   4.203   3.961   7.334  0.1261 -0.8363  0.0886
 3434SOL    HW121935   4.186   4.041   7.284  1.0411 -1.3241 -1.0000
 3434SOL    HW221936   4.297   3.953   7.318 -0.0993 -2.6169 -0.3663
 3435SOL     OW21937   3.691   4.449   4.848 -0.0167 -0.3860  0.1780
 3435SOL    HW121938   3.610   4.472   4.893 -0.0557 -1.8434  0.8672
 3435SOL    HW221939   3.658   4.448   4.758 -0.4401 -0.0693  0.3337
 3436SOL     OW21940   0.727   1.284  12.797 -0.6196 -0.6920  0.1093
 3436SOL    HW121941   0.778   1.332  12.732 -0.8466 -1.0306 -0.3197
 3436SOL    HW221942   0.642   1.272  12.754  0.4937  0.0249 -2.2650
 3437SOL     OW21943   2.896   2.995   7.800 -0.0174 -0.2569 -0.5029
 3437SOL    HW121944   2.829   3.024   7.738  0.7195 -2.0876 -2.1675
 3437SOL    HW221945   2.953   3.072   7.804 -0.5702  0.0344  1.8184
 3438SOL     OW21946   2.522   0.338   2.252  0.1383  0.0354  0.1571
 3438SOL    HW121947   2.479   0.260   2.217  0.3544 -0.4719  1.0187
 3438SOL    HW221948   2.449   0.376   2.301 -0.1354  1.0736 -1.0726
 3439SOL     OW21949   0.671   2.493   7.013  0.3175 -0.3806  0.4274
 3439SOL    HW121950   0.598   2.531   7.062 -0.5075 -0.9477 -0.3747
 3439SOL    HW221951   0.719   2.573   6.990  1.0890 -1.1095 -0.5078
 3440SOL     OW21952   2.743   2.518   5.827  0.8156  0.2434  0.0909
 3440SOL    HW121953   2.803   2.476   5.764  1.7064 -0.6452  1.5363
 3440SOL    HW221954   2.801   2.583   5.864 -0.5479  0.4149  1.9097
 3441SOL     OW21955   1.334   3.739   7.233  0.5253 -0.3170 -0.2047
 3441SOL    HW121956   1.274   3.723   7.160 -0.2364 -0.7193  0.5061
 3441SOL    HW221957   1.403   3.786   7.185 -0.5049  1.2976 -0.0984
 3442SOL     OW21958   3.141   3.999   2.158 -0.1088 -0.0436  0.4433
 3442SOL    HW121959   3.070   3.940   2.185 -0.2948 -1.1700 -2.5430
 3442SOL    HW221960   3.172   3.972   2.071 -1.5339 -0.5231  0.0836
 3443SOL     OW21961   4.068   0.166   2.376 -0.2904  0.3114  0.0221
 3443SOL    HW121962   4.033   0.079   2.355 -1.2121  0.9192 -0.9775
 3443SOL    HW221963   4.157   0.161   2.342 -0.3298  2.2030 -0.3089
 3444SOL     OW21964   0.014   3.522   3.606 -0.2200 -0.1691  0.0183
 3444SOL    HW121965   4.712   3.599   3.562 -1.0152 -0.1189  0.7704
 3444SOL    HW221966   0.054   3.568   3.679  0.1844 -2.6079  1.3455
 3445SOL     OW21967   3.838   3.690   2.751  0.1458 -0.0453 -0.1119
 3445SOL    HW121968   3.743   3.692   2.767  0.2942  1.8378  0.5815
 3445SOL    HW221969   3.878   3.621   2.804 -1.5386 -0.0343  1.1743
 3446SOL     OW21970   2.537   1.204   6.927  0.5845  0.0482 -0.0649
 3446SOL    HW121971   2.609   1.166   6.877  0.9447  2.1710 -1.1717
 3446SOL    HW221972   2.479   1.235   6.857  0.5979  2.4987  1.0132
 3447SOL     OW21973   2.263   2.093   8.164  0.1494  0.3806  0.1774
 3447SOL    HW121974   2.215   2.014   8.187  0.7055 -0.5933 -1.9573
 3447SOL    HW221975   2.195   2.153   8.195 -0.0430 -0.7307  1.9230
 3448SOL     OW21976   0.714   3.765   8.216 -0.1375  0.2703 -0.1183
 3448SOL    HW121977   0.622   3.786   8.196 -0.6246 -1.2752  0.5415
 3448SOL    HW221978   0.752   3.853   8.210  0.0426  0.1628 -0.5889
 3449SOL     OW21979   3.805   3.059   0.171 -0.0883  0.3191 -0.1356
 3449SOL    HW121980   3.730   3.000   0.176  0.2226  0.0780  1.5907
 3449SOL    HW221981   3.773   3.114   0.099 -0.9582  0.9710  0.7449
 3450SOL     OW21982   0.503   1.396  15.585  1.0861  0.4916  0.2765
 3450SOL    HW121983   0.512   1.342  15.507 -1.6422 -0.7947  0.8744
 3450SOL    HW221984   0.548   1.337  15.646 -1.5984 -0.0134  1.7631
 3451SOL     OW21985   2.300   0.502   4.863 -0.6413  0.0912 -0.5405
 3451SOL    HW121986   2.248   0.483   4.941 -0.3212  1.0723 -0.0805
 3451SOL    HW221987   2.371   0.441   4.886  0.7181  2.6703  2.1513
 3452SOL     OW21988   3.689   4.217   4.453 -0.5296 -0.0068  0.9622
 3452SOL    HW121989   3.690   4.159   4.376  0.5804 -1.2707  1.9211
 3452SOL    HW221990   3.622   4.279   4.424  0.4593  1.3504  1.5980
 3453SOL     OW21991   3.664   2.638   1.182 -0.4724 -0.3093  0.5277
 3453SOL    HW121992   3.656   2.566   1.120  0.5106 -1.1156  1.3436
 3453SOL    HW221993   3.642   2.607   1.270 -0.3960  1.9881  1.3474
 3454SOL     OW21994   3.456   3.303   4.005  0.0554 -0.3730  0.0963
 3454SOL    HW121995   3.524   3.337   3.948  0.3398 -1.6868 -0.3490
 3454SOL    HW221996   3.496   3.224   4.043 -0.4488 -1.7089 -2.1480
 3455SOL     OW21997   3.794   1.057   3.984 -0.4837 -0.3911  0.3812
 3455SOL    HW121998   3.795   0.963   4.004 -0.4023 -0.3989  0.3417
 3455SOL    HW221999   3.748   1.087   4.062  0.1870 -0.3940  0.7791
 3456SOL     OW22000   3.782   3.989   7.018  0.0583  0.4660 -0.3363
 3456SOL    HW122001   3.808   3.974   7.109  1.2884 -1.0891 -0.9559
 3456SOL    HW222002   3.751   4.080   7.016 -2.1224 -0.2756  0.3721
 3457SOL     OW22003   2.204   4.347   1.989 -0.4635  0.3345 -0.1034
 3457SOL    HW122004   2.146   4.407   1.942 -0.3310  1.0283  0.6095
 3457SOL    HW222005   2.278   4.397   2.024  0.5146 -0.9407 -0.3292
 3458SOL     OW22006   2.889   4.335   6.459  0.0729  0.4946  0.0458
 3458SOL    HW122007   2.844   4.301   6.537  0.1052  0.2424 -0.0446
 3458SOL    HW222008   2.947   4.407   6.482 -1.0255  0.3094  3.4913
 3459SOL     OW22009   3.709   4.666   3.538 -0.4925  0.7791 -0.0522
 3459SOL    HW122010   3.714   0.009   3.481  1.4744  0.2933 -0.5346
 3459SOL    HW222011   3.796   4.676   3.576 -1.2492 -2.4132  2.4654
 3460SOL     OW22012   1.809   1.447   8.917  0.2758 -0.3518  0.2021
 3460SOL    HW122013   1.759   1.429   8.837 -0.2353 -1.7844  0.8556
 3460SOL    HW222014   1.781   1.372   8.969  2.5293 -0.0763  1.7653
 3461SOL     OW22015   0.770   2.501  12.311  0.3287  0.0286  0.1465
 3461SOL    HW122016   0.845   2.443  12.298 -0.8910 -1.7105  0.9552
 3461SOL    HW222017   0.708   2.462  12.249  1.5454 -0.2614 -0.8941
 3462SOL     OW22018   0.041   2.194   8.217  0.2956  0.1627  0.1772
 3462SOL    HW122019   0.045   2.250   8.140  0.8641 -1.3109 -0.8472
 3462SOL    HW222020   0.098   2.122   8.190 -0.8339 -1.0265  0.9062
 3463SOL     OW22021   3.500   0.685  16.123 -0.0872  0.5184  0.4079
 3463SOL    HW122022   3.580   0.652  16.163 -0.8008 -0.0192  1.3893
 3463SOL    HW222023   3.501   0.777  16.150  1.0747  0.9469 -1.1039
 3464SOL     OW22024   4.402   2.789   6.360  0.0105  0.0836  0.0504
 3464SOL    HW122025   4.416   2.855   6.427  2.6865 -1.8671  1.4344
 3464SOL    HW222026   4.484   2.739   6.362 -0.6691 -1.0195  0.9995
 3465SOL     OW22027   1.028   3.006   6.167 -0.1273  0.8301  0.2460
 3465SOL    HW122028   1.028   3.024   6.073  0.0824  4.5486  0.9466
 3465SOL    HW222029   1.072   2.921   6.166  0.4036  1.1257 -1.5781
 3466SOL     OW22030   0.099   0.222   8.978 -0.1968  0.0129 -0.4345
 3466SOL    HW122031   0.094   0.157   9.048 -0.9110  1.4773  0.8529
 3466SOL    HW222032   0.069   0.172   8.902 -1.3462  2.2270 -1.4170
 3467SOL     OW22033   1.592   4.166   3.610 -0.2468 -0.5459  0.1929
 3467SOL    HW122034   1.589   4.256   3.643  3.0010 -0.1182 -0.6699
 3467SOL    HW222035   1.685   4.170   3.585 -0.7186  2.3257 -1.0784
 3468SOL     OW22036   4.171   4.032  10.574  0.4429 -0.3453 -0.1025
 3468SOL    HW122037   4.206   4.018  10.486  1.5179  2.7488 -0.1783
 3468SOL    HW222038   4.147   4.124  10.563 -0.4648 -0.9270 -2.8794
 3469SOL     OW22039   2.460   2.689   7.334 -0.1226 -0.1202 -0.0927
 3469SOL    HW122040   2.481   2.757   7.270  1.3213  0.4314  0.9524
 3469SOL    HW222041   2.410   2.726   7.407  0.6046 -1.8109  1.2596
 3470SOL     OW22042   3.449   2.094   4.691 -0.2403 -0.5418 -0.2709
 3470SOL    HW122043   3.514   2.030   4.663  0.4827 -0.5003  1.3019
 3470SOL    HW222044   3.488   2.180   4.674 -1.8236 -0.4112 -3.3542
 3471SOL     OW22045   3.162   4.274   3.049 -0.2714  0.1814  0.2454
 3471SOL    HW122046   3.141   4.189   3.010  1.6582  0.9399 -2.4236
 3471SOL    HW222047   3.254   4.254   3.066  0.9414  2.8938 -3.1919
 3472SOL     OW22048   0.665   2.213  10.589  0.0931  0.5029  0.1166
 3472SOL    HW122049   0.613   2.135  10.569  0.8910 -0.3739  1.4825
 3472SOL    HW222050   0.743   2.165  10.617 -0.7864  0.1382  1.9143
 3473SOL     OW22051   1.093   2.642   3.923 -0.0762 -0.7947 -0.0663
 3473SOL    HW122052   1.004   2.678   3.922  0.2251 -0.0011  1.4261
 3473SOL    HW222053   1.092   2.603   3.835  0.1800 -0.6511 -0.1327
 3474SOL     OW22054   0.182   3.422   8.293  0.0680 -0.4697 -0.1494
 3474SOL    HW122055   0.158   3.348   8.349 -1.3635  0.7665  0.9071
 3474SOL    HW222056   0.205   3.372   8.215  0.6346 -0.4420  0.0011
 3475SOL     OW22057   2.713   3.975   1.958  0.9047 -0.3994  0.4798
 3475SOL    HW122058   2.665   4.044   1.912  1.3026  0.3667  1.2173
 3475SOL    HW222059   2.703   4.007   2.048 -2.8481 -0.2535  0.0433
 3476SOL     OW22060   1.330   3.826   2.250 -0.0678 -0.4320 -0.5329
 3476SOL    HW122061   1.277   3.870   2.315 -0.3558  2.0799 -2.4925
 3476SOL    HW222062   1.380   3.893   2.203  1.6819 -0.7082  0.9203
 3477SOL     OW22063   4.690   0.893   2.672 -0.7152  0.0389 -0.1466
 3477SOL    HW122064   4.663   0.902   2.581 -1.3196 -0.7041 -0.0396
 3477SOL    HW222065   4.676   0.799   2.681  1.7297 -0.2338  0.8912
 3478SOL     OW22066   0.124   2.576   0.055 -0.5902  0.0393 -0.5256
 3478SOL    HW122067   0.153   2.648   0.111 -0.9432  0.7482 -1.2349
 3478SOL    HW222068   0.064   2.610  17.723 -0.8736  3.2564  1.3511
 3479SOL     OW22069   3.498   0.517   7.198  1.0482  0.0677  0.1330
 3479SOL    HW122070   3.517   0.444   7.139 -2.2608 -1.4242  0.9521
 3479SOL    HW222071   3.468   0.590   7.145  0.0451 -0.3695  0.1046
 3480SOL     OW22072   2.860   2.181   2.705 -0.1857  0.1316 -0.7250
 3480SOL    HW122073   2.918   2.130   2.762  0.6927 -0.0154 -1.7515
 3480SOL    HW222074   2.775   2.189   2.748  0.2851 -0.5670  0.3395
 3481SOL     OW22075   2.680   2.475   9.478  0.5202  0.1975 -0.3215
 3481SOL    HW122076   2.650   2.546   9.535 -0.9928 -1.3723  0.8376
 3481SOL    HW222077   2.663   2.516   9.393  0.4717  1.1248  0.1264
 3482SOL     OW22078   1.275   1.816   4.398 -0.7422 -0.1653  0.2244
 3482SOL    HW122079   1.281   1.740   4.456  1.6674  0.5621  0.9370
 3482SOL    HW222080   1.195   1.858   4.431  0.0473 -0.0269  1.9927
 3483SOL     OW22081   3.713   2.096  14.182 -0.1139  0.2157  0.8500
 3483SOL    HW122082   3.677   2.028  14.238  0.7610 -0.2756  0.8098
 3483SOL    HW222083   3.652   2.168  14.200 -0.9174  0.0861 -1.3318
 3484SOL     OW22084   0.727   3.214   4.954  0.9448  0.5322  0.6603
 3484SOL    HW122085   0.773   3.155   4.895  1.8005  3.4845 -1.5730
 3484SOL    HW222086   0.641   3.170   4.953  2.2083 -1.8974  0.0489
 3485SOL     OW22087   2.470   1.367   7.135  0.3046  0.2920 -0.1721
 3485SOL    HW122088   2.481   1.309   7.060  1.7909 -0.2327  0.4348
 3485SOL    HW222089   2.471   1.450   7.088  2.4592  0.7860  0.7272
 3486SOL     OW22090   2.340   3.195  13.708 -0.4026 -0.0960  0.9802
 3486SOL    HW122091   2.289   3.261  13.663  3.3118  2.2220  0.1536
 3486SOL    HW222092   2.316   3.116  13.659 -0.8167  0.3593  0.4622
 3487SOL     OW22093   0.966   0.030   3.703 -0.1142  0.3910  0.1537
 3487SOL    HW122094   0.893   4.701   3.698 -1.7103  2.3266 -1.1911
 3487SOL    HW222095   0.919   0.113   3.699 -1.2381 -0.2489  0.0028
 3488SOL     OW22096   0.987   1.685   8.183 -0.3006 -0.0913 -0.0585
 3488SOL    HW122097   1.003   1.591   8.179 -2.1846 -0.4498  0.7177
 3488SOL    HW222098   0.965   1.706   8.093  1.0311  1.1257 -0.1007
 3489SOL     OW22099   0.125   2.357  14.818 -0.0897  0.1576  0.6961
 3489SOL    HW122100   0.164   2.276  14.849 -0.1220 -0.4252 -0.7883
 3489SOL    HW222101   0.137   2.421  14.889 -0.1009  0.4075  0.4721
 3490SOL     OW22102   2.703   1.999  10.747 -0.1047  0.3969 -0.5648
 3490SOL    HW122103   2.764   1.941  10.793 -1.2359 -2.0630 -2.1589
 3490SOL    HW222104   2.754   2.003  10.666 -0.9369  0.3799 -1.0858
 3491SOL     OW22105   2.765   3.076   6.033 -0.3245  0.6072 -0.1280
 3491SOL    HW122106   2.677   3.084   5.996  0.7417  0.0439 -2.8270
 3491SOL    HW222107   2.743   3.028   6.113 -0.1889  1.2428  0.2867
 3492SOL     OW22108   0.955   3.113   6.645 -0.1291 -0.5534  0.0985
 3492SOL    HW122109   1.012   3.115   6.568 -0.4791  1.4606 -0.1140
 3492SOL    HW222110   0.991   3.175   6.709  0.8297 -0.2036 -0.7829
 3493SOL     OW22111   3.411   3.020   7.191  0.1339 -0.3267 -0.3066
 3493SOL    HW122112   3.339   3.048   7.248  0.4512 -2.9496  1.3824
 3493SOL    HW222113   3.414   3.103   7.145 -0.8907  0.5379  1.1926
 3494SOL     OW22114   2.581   1.795  17.690 -0.0812 -0.0937 -0.5827
 3494SOL    HW122115   2.485   1.784  17.693 -0.2777  1.1448 -2.4606
 3494SOL    HW222116   2.609   1.876  17.648 -0.8426 -0.9483 -2.7523
 3495SOL     OW22117   0.618   1.167  13.584  0.0216  0.2620  0.4866
 3495SOL    HW122118   0.553   1.148  13.516  1.4466  1.0901 -1.1278
 3495SOL    HW222119   0.566   1.216  13.647 -1.7390 -0.3591 -0.4567
 3496SOL     OW22120   1.390   2.275   8.650  0.3474  0.4285 -0.2940
 3496SOL    HW122121   1.455   2.299   8.584  0.2203  0.5829 -0.3601
 3496SOL    HW222122   1.383   2.353   8.705 -0.2215  0.8546 -0.9764
 3497SOL     OW22123   3.034   0.542   1.521 -0.1859  0.4091 -0.0036
 3497SOL    HW122124   3.125   0.568   1.534  0.7773 -2.0346 -1.8296
 3497SOL    HW222125   3.023   0.559   1.427  1.3405  1.9328  0.0982
 3498SOL     OW22126   0.121   4.310   7.363  0.2603  0.7077  0.2136
 3498SOL    HW122127   0.086   4.246   7.301 -1.3510  2.3497 -0.5858
 3498SOL    HW222128   0.178   4.252   7.414  0.2161  0.1700 -0.3511
 3499SOL     OW22129   2.336   1.914   1.536 -0.1066 -0.0974 -0.0243
 3499SOL    HW122130   2.374   1.893   1.621  1.1223 -1.3281 -0.8780
 3499SOL    HW222131   2.343   2.009   1.543 -1.7031 -0.0763  1.2116
 3500SOL     OW22132   2.473   1.606   3.018  0.1557  0.0704  0.3972
 3500SOL    HW122133   2.409   1.637   2.953  1.0621 -1.0236 -1.0165
 3500SOL    HW222134   2.556   1.587   2.975  0.1514  2.0145 -0.4667
 3501SOL     OW22135   3.826   2.003  17.227 -0.3465  0.3829 -0.0444
 3501SOL    HW122136   3.804   1.974  17.315 -3.6131  0.2749 -0.9042
 3501SOL    HW222137   3.741   2.045  17.214 -1.5148 -1.8663  0.5084
 3502SOL     OW22138   4.581   4.707   6.707 -0.1336 -0.6327  0.0602
 3502SOL    HW122139   4.567   4.616   6.733 -0.6653 -0.9061 -1.2002
 3502SOL    HW222140   4.560   0.014   6.791 -1.0479  0.6330 -0.7854
 3503SOL     OW22141   2.814   1.990  11.512  0.5482  0.7335 -0.1585
 3503SOL    HW122142   2.785   1.959  11.426  0.4852  0.9829 -0.2270
 3503SOL    HW222143   2.733   2.034  11.539  1.1862  0.1700  2.6949
 3504SOL     OW22144   2.199   4.525   4.349  0.1448 -1.1446  0.7241
 3504SOL    HW122145   2.118   4.494   4.391 -1.9992  0.5188 -2.1689
 3504SOL    HW222146   2.165   4.547   4.263  1.9476 -1.8803 -0.1763
 3505SOL     OW22147   2.193   1.691  10.001 -0.3773  0.4051 -0.2455
 3505SOL    HW122148   2.145   1.643   9.933 -0.3651  0.8065 -0.5345
 3505SOL    HW222149   2.182   1.615  10.060  0.8409  1.6060  1.5309
 3506SOL     OW22150   4.612   1.228   7.299  0.7000 -0.4622  0.0054
 3506SOL    HW122151   4.591   1.159   7.361  0.8702 -0.3132  0.2269
 3506SOL    HW222152   4.522   1.238   7.268  0.4871 -3.4062 -0.3746
 3507SOL     OW22153   3.513   3.439   4.530 -0.1201  0.4534 -0.0639
 3507SOL    HW122154   3.467   3.384   4.592 -1.5729 -0.5803 -2.0594
 3507SOL    HW222155   3.473   3.430   4.443  0.1631 -1.5823  0.0270
 3508SOL     OW22156   4.536   2.197   6.015 -0.0019 -0.5976  0.6456
 3508SOL    HW122157   4.514   2.259   6.084  0.3818  0.0552  0.1806
 3508SOL    HW222158   4.622   2.227   5.986  0.5626 -2.4564  0.3625
 3509SOL     OW22159   4.083   2.969   0.720 -0.2107 -0.2752 -0.1887
 3509SOL    HW122160   3.995   2.982   0.683 -0.9938  1.3890  2.2292
 3509SOL    HW222161   4.120   3.052   0.689  0.5548 -1.0985 -1.4781
 3510SOL     OW22162   0.005   0.168  16.375 -0.5202 -0.6430  0.5780
 3510SOL    HW122163   0.072   0.235  16.386 -1.6497  0.6229 -0.2940
 3510SOL    HW222164   0.054   0.106  16.320  0.0581  0.7680 -0.5040
 3511SOL     OW22165   3.121   1.738   1.223 -0.0615 -0.4353  0.1625
 3511SOL    HW122166   3.142   1.822   1.183  0.5635 -0.6788 -0.0240
 3511SOL    HW222167   3.148   1.740   1.315  1.1252  1.1443 -0.2325
 3512SOL     OW22168   3.555   1.967   3.477  0.4303  0.2411 -0.0768
 3512SOL    HW122169   3.497   1.894   3.494 -0.0353  0.7673  0.5646
 3512SOL    HW222170   3.506   2.042   3.512  2.9833  2.1971 -0.6221
 3513SOL     OW22171   3.267   1.234   1.670 -0.0312 -0.6652  0.1696
 3513SOL    HW122172   3.333   1.179   1.712  1.4540  1.9182  1.2068
 3513SOL    HW222173   3.295   1.236   1.579  1.8147  0.1890  0.7585
 3514SOL     OW22174   2.305   0.303   9.782  0.1903 -0.2092 -0.2607
 3514SOL    HW122175   2.333   0.257   9.862  2.6889  1.2401 -0.2858
 3514SOL    HW222176   2.213   0.280   9.785  0.3546 -0.5757  2.2112
 3515SOL     OW22177   0.127   2.087  13.807  0.2684  0.0290  0.2349
 3515SOL    HW122178   0.129   1.994  13.787  1.3183  0.2455 -0.7364
 3515SOL    HW222179   0.076   2.093  13.887  0.7309 -1.7051  0.6468
 3516SOL     OW22180   1.125   3.991  13.750 -0.4158 -0.3907  0.6801
 3516SOL    HW122181   1.073   4.068  13.727  0.6034 -0.0273 -0.4112
 3516SOL    HW222182   1.136   4.000  13.844 -0.1167  0.0620  0.6027
 3517SOL     OW22183   2.842   0.777   3.251 -0.1606 -0.2757  0.4951
 3517SOL    HW122184   2.850   0.857   3.303 -0.4881 -0.1161  0.2967
 3517SOL    HW222185   2.936   0.757   3.247  0.4963  2.7682  0.8610
 3518SOL     OW22186   3.320   0.013   6.588 -0.0128  0.4935  0.3581
 3518SOL    HW122187   3.400   4.713   6.549 -0.1360  0.6720 -0.0445
 3518SOL    HW222188   3.289   4.667   6.629 -0.0706 -0.9468 -2.5233
 3519SOL     OW22189   2.978   0.498   6.867 -0.0882  0.1337 -0.7320
 3519SOL    HW122190   2.959   0.477   6.776 -1.2491  1.5157 -0.8011
 3519SOL    HW222191   2.934   0.425   6.912 -0.2292  0.3079 -0.5844
 3520SOL     OW22192   1.302   3.453   4.906 -0.4841  0.1734  0.1050
 3520SOL    HW122193   1.386   3.411   4.927 -0.1183  0.9011  0.0781
 3520SOL    HW222194   1.311   3.472   4.813 -0.4786  0.1068  0.0912
 3521SOL     OW22195   0.787   3.945   4.335 -0.1899 -0.5210  0.2043
 3521SOL    HW122196   0.758   3.887   4.405 -0.6219  2.6246  2.6308
 3521SOL    HW222197   0.752   3.901   4.257 -1.6799  2.6795 -0.9413
 3522SOL     OW22198   1.428   1.416  15.651 -0.1940 -0.3313  0.2659
 3522SOL    HW122199   1.382   1.339  15.618  0.4378 -0.8936  0.7015
 3522SOL    HW222200   1.510   1.405  15.602 -0.6841 -1.7441 -0.2471
 3523SOL     OW22201   0.801   1.026  10.162 -0.1217  0.5088  0.5781
 3523SOL    HW122202   0.706   1.018  10.152  0.0204  4.2436 -3.8709
 3523SOL    HW222203   0.813   1.047  10.254 -1.0156  2.6419  0.2006
 3524SOL     OW22204   3.817   4.116   5.954  0.1718 -0.0269  0.1646
 3524SOL    HW122205   3.869   4.036   5.964 -0.8269 -0.7214 -0.2693
 3524SOL    HW222206   3.760   4.110   6.030 -0.4371 -1.3274 -0.4038
 3525SOL     OW22207   0.689   0.966   3.473  0.1442  0.3093  0.8360
 3525SOL    HW122208   0.749   0.962   3.398  0.1919 -2.5788  1.0319
 3525SOL    HW222209   0.747   0.956   3.548  0.9686 -2.5714 -0.1993
 3526SOL     OW22210   0.593   1.317   9.932  0.2182 -0.1425  0.6168
 3526SOL    HW122211   0.653   1.367   9.987 -0.8864  1.9867 -0.1141
 3526SOL    HW222212   0.568   1.255  10.000 -0.7872  2.4497  2.6336
 3527SOL     OW22213   0.300   2.566   3.277  0.2019  0.3921 -0.3760
 3527SOL    HW122214   0.366   2.502   3.248  1.0403  0.4151  1.4567
 3527SOL    HW222215   0.308   2.629   3.205  1.3198  1.5204  0.7473
 3528SOL     OW22216   1.327   4.339   5.010  0.7729 -0.8565 -0.1410
 3528SOL    HW122217   1.405   4.363   4.960  1.9908  1.3412  2.7753
 3528SOL    HW222218   1.325   4.245   4.993 -0.2439 -0.5829 -1.4765
 3529SOL     OW22219   3.738   2.541   8.615 -0.0817  0.1904  0.2103
 3529SOL    HW122220   3.726   2.535   8.710 -1.8542  2.3219  0.1307
 3529SOL    HW222221   3.731   2.636   8.606  0.2321  0.3911  2.1725
 3530SOL     OW22222   0.553   0.922  10.850 -0.0251 -0.2530 -0.4369
 3530SOL    HW122223   0.483   0.895  10.791 -0.6271  2.3798 -0.9106
 3530SOL    HW222224   0.510   0.927  10.935  0.8151 -0.5173  0.0074
 3531SOL     OW22225   4.260   1.506   4.907  0.3580 -0.1180 -0.6420
 3531SOL    HW122226   4.239   1.591   4.869  0.3343  0.5245  0.8305
 3531SOL    HW222227   4.209   1.457   4.842 -0.5541  1.5468 -1.1789
 3532SOL     OW22228   1.588   3.054   0.974 -0.3284 -0.3073  0.1384
 3532SOL    HW122229   1.623   3.027   0.889  0.4784 -0.7138  0.6024
 3532SOL    HW222230   1.514   3.109   0.946  0.1316 -0.2366 -0.9384
 3533SOL     OW22231   3.232   1.703  10.608 -0.5107 -0.1637 -0.0606
 3533SOL    HW122232   3.286   1.771  10.566  0.8138 -0.2355  1.5203
 3533SOL    HW222233   3.291   1.630  10.626  0.8054  1.5197  2.5294
 3534SOL     OW22234   3.828   2.476   7.521  0.5759  0.9854  0.0865
 3534SOL    HW122235   3.829   2.457   7.615  1.8292  1.4481  0.1625
 3534SOL    HW222236   3.817   2.388   7.486  2.5638  0.4397  0.8745
 3535SOL     OW22237   1.296   1.428   6.602  0.0678 -0.2409  0.3897
 3535SOL    HW122238   1.285   1.522   6.594  1.1136 -0.0689  0.8890
 3535SOL    HW222239   1.269   1.389   6.519 -0.4050 -1.4041  1.0843
 3536SOL     OW22240   4.457   4.275   5.920 -0.1520 -0.5882 -0.3862
 3536SOL    HW122241   4.548   4.287   5.949 -0.6825  1.3304  0.5364
 3536SOL    HW222242   4.424   4.226   5.995  3.2871 -1.5024  0.5545
 3537SOL     OW22243   0.212   1.000   4.053  0.2308 -0.0029  0.4743
 3537SOL    HW122244   0.131   0.948   4.053  0.7354 -0.7847  0.0501
 3537SOL    HW222245   0.186   1.083   4.092  0.6180  1.0067 -1.4415
 3538SOL     OW22246   3.439   0.289   6.669  0.4812  0.1662  0.1592
 3538SOL    HW122247   3.510   0.284   6.732  0.6743  1.0151  0.0157
 3538SOL    HW222248   3.461   0.210   6.619  1.5572  0.3277  0.3702
 3539SOL     OW22249   4.575   1.610  16.840 -0.1585 -0.1787 -0.3683
 3539SOL    HW122250   4.562   1.658  16.922 -1.7260  1.4349 -1.5540
 3539SOL    HW222251   4.484   1.588  16.820 -0.7416  2.7487 -0.9843
 3540SOL     OW22252   1.434   4.080   4.133  0.3281 -0.0753  0.1181
 3540SOL    HW122253   1.468   4.064   4.045  0.5692 -0.6243  0.3172
 3540SOL    HW222254   1.404   4.170   4.115  0.7944  0.0040 -0.2839
 3541SOL     OW22255   0.927   1.704   4.073  0.2140 -0.4347 -1.1249
 3541SOL    HW122256   0.934   1.794   4.104 -3.3516 -0.3062 -0.6923
 3541SOL    HW222257   0.849   1.676   4.121  1.4386 -1.5147  0.2294
 3542SOL     OW22258   4.295   0.340   4.421 -0.1374  0.1927  0.4468
 3542SOL    HW122259   4.269   0.409   4.481 -0.4724  2.2752 -2.0995
 3542SOL    HW222260   4.376   0.305   4.458  0.3344 -2.1909 -2.7984
 3543SOL     OW22261   3.529   0.142   2.977  0.4538  0.3151 -0.2182
 3543SOL    HW122262   3.540   0.207   3.047 -0.0511  1.4866 -1.2351
 3543SOL    HW222263   3.581   0.178   2.905  0.8987  1.0312  0.4649
 3544SOL     OW22264   1.070   1.547  15.065 -0.4778  0.4893  0.3346
 3544SOL    HW122265   1.136   1.593  15.013  0.1099  0.9309  1.4521
 3544SOL    HW222266   1.082   1.581  15.154 -0.5327  2.5898 -0.4481
 3545SOL     OW22267   1.979   3.554   2.276  0.5745  0.3801 -0.6092
 3545SOL    HW122268   2.027   3.598   2.346  0.5562  1.2746 -1.1594
 3545SOL    HW222269   2.018   3.466   2.283 -0.4095  0.0789  1.0800
 3546SOL     OW22270   0.233   2.394  16.067 -0.0318  0.3118 -0.5730
 3546SOL    HW122271   0.227   2.395  15.972  0.8983  0.3065 -0.6318
 3546SOL    HW222272   0.209   2.304  16.089  1.7468  0.0137  0.1855
 3547SOL     OW22273   1.109   4.464   5.163  0.1016  0.5495  0.0341
 3547SOL    HW122274   1.184   4.450   5.105 -0.7349 -0.3503 -0.8341
 3547SOL    HW222275   1.160   4.470   5.244  0.7747 -2.8967 -0.1379
 3548SOL     OW22276   1.332   2.281  15.312 -0.0101  0.1778 -0.3746
 3548SOL    HW122277   1.291   2.199  15.339  1.0017 -0.7361 -1.6577
 3548SOL    HW222278   1.327   2.342  15.386  1.7084 -0.4997  0.2996
 3549SOL     OW22279   3.363   3.841   3.926 -0.4128 -0.7210  0.7866
 3549SOL    HW122280   3.386   3.763   3.876 -1.5190 -0.2150 -0.5153
 3549SOL    HW222281   3.383   3.906   3.857 -0.2708  0.6977  2.1621
 3550SOL     OW22282   4.343   2.703   5.582  0.3135  0.2649  0.2721
 3550SOL    HW122283   4.277   2.765   5.550  1.1328 -0.1093 -2.1768
 3550SOL    HW222284   4.369   2.748   5.662  4.7753  0.6628 -1.3913
 3551SOL     OW22285   0.745   4.186   8.927  0.1447 -0.3562  0.3822
 3551SOL    HW122286   0.824   4.195   8.874 -0.8931  0.0811 -1.1001
 3551SOL    HW222287   0.708   4.274   8.927  2.1848  0.4829 -0.1589
 3552SOL     OW22288   2.062   4.545   4.121 -0.5519 -0.1560  0.0075
 3552SOL    HW122289   1.975   4.533   4.158 -1.8654  0.1881 -2.9649
 3552SOL    HW222290   2.062   4.636   4.092 -0.8098 -0.4389 -0.8780
 3553SOL     OW22291   0.212   3.001  13.340  0.3552  0.2648  0.2099
 3553SOL    HW122292   0.130   2.956  13.365  0.0341  1.2754  0.9525
 3553SOL    HW222293   0.183   3.072  13.283  0.9641 -0.7092 -1.3116
 3554SOL     OW22294   4.248   1.075   7.661  0.2409 -0.0711  0.1090
 3554SOL    HW122295   4.152   1.075   7.658  0.3408  0.8703 -2.7057
 3554SOL    HW222296   4.274   0.984   7.676  0.1944 -0.1177 -0.1009
 3555SOL     OW22297   4.157   3.224   0.621  0.3397  0.0045  0.4431
 3555SOL    HW122298   4.075   3.273   0.627  1.3939  1.8079  0.3233
 3555SOL    HW222299   4.207   3.265   0.691  1.2610  1.8730 -1.2907
 3556SOL     OW22300   4.620   4.357   1.052  0.5154  0.2860  0.7204
 3556SOL    HW122301   4.628   4.367   1.147  2.6164 -2.1578  0.8043
 3556SOL    HW222302   4.532   4.393   1.039  0.4358  0.1190  0.7956
 3557SOL     OW22303   3.893   0.216   8.159 -0.2494  0.0154  0.0980
 3557SOL    HW122304   3.819   0.199   8.217 -1.4331 -0.1615 -1.4532
 3557SOL    HW222305   3.908   0.306   8.187 -0.6561  0.5192 -1.3258
 3558SOL     OW22306   2.394   1.862   4.059 -0.3035 -0.6112 -0.2903
 3558SOL    HW122307   2.455   1.790   4.071  0.4009 -0.0066 -0.2152
 3558SOL    HW222308   2.369   1.847   3.967 -0.8906 -1.6286  0.0391
 3559SOL     OW22309   2.266   2.781   7.023  0.1938  0.3388 -0.1206
 3559SOL    HW122310   2.230   2.841   6.957 -0.1018  2.2637  1.7651
 3559SOL    HW222311   2.327   2.834   7.075  0.5387 -1.8429  1.7172
 3560SOL     OW22312   2.328   3.363   8.440  0.3005 -0.0160  0.1673
 3560SOL    HW122313   2.253   3.380   8.497 -1.2507  0.1749 -1.9194
 3560SOL    HW222314   2.333   3.272   8.468  0.6605  0.7397  2.4852
 3561SOL     OW22315   4.340   1.181   5.025  0.1573 -0.4797  0.1271
 3561SOL    HW122316   4.304   1.207   4.941 -0.3217  2.2442  1.1979
 3561SOL    HW222317   4.401   1.120   4.984  1.7495  0.3628  1.2334
 3562SOL     OW22318   0.799   0.263   5.920 -0.2967  0.1281 -0.7982
 3562SOL    HW122319   0.809   0.184   5.974  1.0096  0.5029 -0.4893
 3562SOL    HW222320   0.870   0.251   5.857 -0.5669  0.8749 -1.2490
 3563SOL     OW22321   0.469   0.337  12.217 -0.1399 -0.4244  0.1138
 3563SOL    HW122322   0.430   0.413  12.173 -0.1138 -1.4693 -1.7161
 3563SOL    HW222323   0.401   0.305  12.276 -0.1129  1.8862  1.4359
 3564SOL     OW22324   3.728   0.342   6.604  0.0518 -0.0506  0.0873
 3564SOL    HW122325   3.749   0.378   6.690 -2.5249  1.4736  0.0517
 3564SOL    HW222326   3.772   0.411   6.554 -0.2230 -0.3986 -0.6433
 3565SOL     OW22327   4.238   3.013  11.614 -0.0715 -0.4536 -0.6300
 3565SOL    HW122328   4.188   3.000  11.533 -0.1106 -0.3488 -0.6231
 3565SOL    HW222329   4.212   3.101  11.643 -0.8463 -0.2660 -1.9086
 3566SOL     OW22330   3.414   3.653   4.960  0.5697 -0.6294  0.3009
 3566SOL    HW122331   3.327   3.614   4.955  0.5152 -0.6184  1.2051
 3566SOL    HW222332   3.421   3.664   4.865  3.9439  0.2093  0.6364
 3567SOL     OW22333   4.125   4.423   9.868  0.4077 -0.9143  0.1535
 3567SOL    HW122334   4.191   4.356   9.848 -0.2138 -1.8290  1.1586
 3567SOL    HW222335   4.111   4.463   9.782 -1.9329  0.5035  1.1997
 3568SOL     OW22336   3.931   3.867  16.335  0.3703 -0.0195  0.1105
 3568SOL    HW122337   3.908   3.910  16.417 -2.0046 -0.5974 -0.2535
 3568SOL    HW222338   3.938   3.943  16.278 -0.3993 -0.5649 -0.7030
 3569SOL     OW22339   4.168   2.136   4.271 -0.3562 -0.1214 -0.3655
 3569SOL    HW122340   4.157   2.093   4.186  1.9115 -1.7234  0.1751
 3569SOL    HW222341   4.215   2.216   4.245 -2.5532  1.1488 -0.4769
 3570SOL     OW22342   0.914   4.025  14.992 -0.5936 -0.4520 -0.6880
 3570SOL    HW122343   0.875   4.108  14.964  0.2630  0.3112  0.3415
 3570SOL    HW222344   0.834   3.977  15.014  0.1091 -1.3028  0.0453
 3571SOL     OW22345   3.405   1.181  10.353  0.1884 -0.0355  0.6002
 3571SOL    HW122346   3.372   1.244  10.418  0.2620 -0.1222  0.7223
 3571SOL    HW222347   3.325   1.146  10.315 -1.3750  1.6675  2.3169
 3572SOL     OW22348   3.025   3.988  10.573  0.1760  0.2948 -0.2834
 3572SOL    HW122349   2.959   3.922  10.591  0.1915  0.2928 -0.2337
 3572SOL    HW222350   3.055   4.004  10.663  0.6126 -1.5440 -0.1073
 3573SOL     OW22351   2.031   2.960   5.643  0.4830  0.2256  0.3139
 3573SOL    HW122352   2.031   2.865   5.630  2.2848  0.3805 -0.8733
 3573SOL    HW222353   2.111   2.980   5.691  0.6022 -0.7945  0.5442
 3574SOL     OW22354   4.323   1.102  15.087 -0.4122 -0.1724  0.0731
 3574SOL    HW122355   4.416   1.102  15.064 -0.2420 -2.0630  0.7451
 3574SOL    HW222356   4.314   1.105  15.182 -2.7410 -2.6720 -0.0758
 3575SOL     OW22357   2.292   3.447   3.431 -0.2814  0.0519 -0.6922
 3575SOL    HW122358   2.341   3.475   3.509  0.2024 -3.8438  0.3719
 3575SOL    HW222359   2.206   3.451   3.472 -0.2112  0.7438 -0.6048
 3576SOL     OW22360   0.015   2.396   2.213 -0.0622  0.1848  0.0750
 3576SOL    HW122361   0.006   2.384   2.307 -1.2065 -1.7192 -0.2850
 3576SOL    HW222362   4.662   2.369   2.185  1.1065 -1.8304 -1.5833
 3577SOL     OW22363   1.449   1.981   6.639 -0.2715  0.0925  0.4967
 3577SOL    HW122364   1.536   2.014   6.662 -0.3862  0.4778  0.3678
 3577SOL    HW222365   1.462   1.961   6.546 -0.9208  0.3515  0.3501
 3578SOL     OW22366   1.768   1.364  11.703  0.0692 -0.1216  0.9787
 3578SOL    HW122367   1.675   1.382  11.720 -0.3425 -2.1328  0.9486
 3578SOL    HW222368   1.796   1.448  11.739  1.0612 -0.1825  0.3408
 3579SOL     OW22369   2.717   3.756   5.471  0.8247  0.3609 -0.2229
 3579SOL    HW122370   2.785   3.741   5.405  0.5488  0.9812 -0.6425
 3579SOL    HW222371   2.638   3.733   5.423  0.7044 -0.7527  0.5025
 3580SOL     OW22372   1.145   4.076   5.408  0.0535 -0.4198 -0.4936
 3580SOL    HW122373   1.065   4.031   5.436 -1.2034  2.5815  0.8141
 3580SOL    HW222374   1.116   4.123   5.331 -1.3449 -0.0666  0.2513
 3581SOL     OW22375   4.328   2.092   8.952 -0.7318 -0.3704  0.4802
 3581SOL    HW122376   4.269   2.019   8.969  0.1808 -1.1619  0.2747
 3581SOL    HW222377   4.329   2.133   9.038  0.3909  1.4434 -0.4078
 3582SOL     OW22378   2.015   4.307   6.076 -0.1539 -0.7539 -0.2819
 3582SOL    HW122379   2.097   4.285   6.030 -0.5549 -0.0132 -1.3484
 3582SOL    HW222380   2.007   4.240   6.144 -0.6605 -0.7709 -0.3595
 3583SOL     OW22381   1.697   1.158   1.491 -0.2801 -0.4079 -0.7321
 3583SOL    HW122382   1.751   1.080   1.497 -0.6519 -0.7057 -1.3591
 3583SOL    HW222383   1.686   1.180   1.584  2.4013  0.1857 -0.5720
 3584SOL     OW22384   0.016   2.750   0.554  0.0610 -0.2688  0.2824
 3584SOL    HW122385   4.675   2.796   0.515  0.4604  0.1890  0.0473
 3584SOL    HW222386   0.068   2.829   0.570 -1.3930  0.9909 -1.1682
 3585SOL     OW22387   4.334   4.040   4.025 -0.4643 -0.3008 -0.4166
 3585SOL    HW122388   4.321   4.112   3.963 -4.0476 -1.4338 -0.9892
 3585SOL    HW222389   4.254   3.988   4.031  0.6887 -1.6923  2.9895
 3586SOL     OW22390   2.392   3.630   5.654 -0.1689 -0.2511 -0.4327
 3586SOL    HW122391   2.348   3.547   5.666  1.0531 -0.7892  0.3331
 3586SOL    HW222392   2.419   3.628   5.562  2.4735  1.3950  0.3046
 3587SOL     OW22393   0.673   2.911  16.928  0.3049 -0.0711  0.2564
 3587SOL    HW122394   0.748   2.970  16.917  1.3505 -1.7158 -1.2871
 3587SOL    HW222395   0.612   2.938  16.860  0.0103 -2.5608 -0.4362
 3588SOL     OW22396   0.717   0.708   1.413 -0.0009 -0.3051 -0.0563
 3588SOL    HW122397   0.803   0.669   1.401 -0.8454 -1.6902 -1.6548
 3588SOL    HW222398   0.736   0.763   1.337 -0.9152  0.0812 -0.0071
 3589SOL     OW22399   2.219   0.784   5.027  0.3752  0.4686  0.1614
 3589SOL    HW122400   2.172   0.797   5.109  0.6152  0.7020  0.2636
 3589SOL    HW222401   2.292   0.726   5.047 -0.6734 -0.3807  1.5344
 3590SOL     OW22402   1.787   0.285  16.067  0.3680 -0.2494 -0.1955
 3590SOL    HW122403   1.876   0.255  16.048  1.3448  2.6316 -0.0951
 3590SOL    HW222404   1.799   0.378  16.087 -1.1016  0.0874 -0.8941
 3591SOL     OW22405   1.595   3.296   2.118  0.2671  0.1080  0.1196
 3591SOL    HW122406   1.518   3.333   2.161 -0.6693 -2.3553  0.5272
 3591SOL    HW222407   1.625   3.371   2.066  1.0389 -0.0645  0.3133
 3592SOL     OW22408   0.745   1.300  16.659 -0.4767  0.1683 -0.8696
 3592SOL    HW122409   0.746   1.349  16.577 -0.3521 -0.8089 -1.4535
 3592SOL    HW222410   0.824   1.316  16.711  0.6328 -2.5864 -1.6926
 3593SOL     OW22411   1.939   4.362   4.823 -0.5781 -0.1438 -0.3846
 3593SOL    HW122412   1.981   4.330   4.903 -0.1053 -2.3323 -1.5318
 3593SOL    HW222413   1.933   4.279   4.776 -0.9048 -0.4724  0.2429
 3594SOL     OW22414   0.044   0.685  15.115  0.0219  0.0393  0.7126
 3594SOL    HW122415   0.008   0.609  15.161  1.2215 -1.0042 -0.0793
 3594SOL    HW222416   4.732   0.762  15.149  1.3473  0.8553  0.6596
 3595SOL     OW22417   1.014   0.800   6.108  0.4062  0.5128  0.1189
 3595SOL    HW122418   1.008   0.783   6.014 -1.7543 -1.2709  0.5847
 3595SOL    HW222419   0.955   0.730   6.137  0.5164 -0.0490 -1.0103
 3596SOL     OW22420   4.318   3.978   7.612 -0.3450  0.1574 -0.4593
 3596SOL    HW122421   4.349   4.037   7.543  1.2450  1.4930  1.3836
 3596SOL    HW222422   4.290   3.899   7.566 -1.5063  0.2026  0.1724
 3597SOL     OW22423   3.642   4.509   1.363  0.1093 -0.0325  0.2197
 3597SOL    HW122424   3.669   4.465   1.282 -0.1333 -1.7299  1.0623
 3597SOL    HW222425   3.641   4.434   1.423  0.1089  0.9072  1.3821
 3598SOL     OW22426   3.615   3.288   7.464 -0.0942 -0.0264 -0.1094
 3598SOL    HW122427   3.531   3.335   7.461  0.6142  1.3191  1.1697
 3598SOL    HW222428   3.585   3.198   7.478 -0.9174  0.1069 -0.9914
 3599SOL     OW22429   0.264   2.635   8.947 -0.1051  0.5770  0.9101
 3599SOL    HW122430   0.260   2.559   9.005 -0.9064  1.6052  2.2092
 3599SOL    HW222431   0.319   2.691   9.001 -1.3788  1.1240  1.6429
 3600SOL     OW22432   0.602   0.512   9.439  0.5865  0.1552 -0.1951
 3600SOL    HW122433   0.674   0.564   9.404  0.1904 -0.9999 -2.7660
 3600SOL    HW222434   0.576   0.481   9.352  4.0090 -2.6109 -0.2078
 3601SOL     OW22435   2.836   0.729  15.349 -0.4746 -0.1441 -0.2363
 3601SOL    HW122436   2.808   0.638  15.354 -1.7742  0.4018  2.2978
 3601SOL    HW222437   2.752   0.774  15.358 -0.4807 -0.5117  1.5643
 3602SOL     OW22438   1.501   2.812   6.737  0.2637  0.2747  0.1609
 3602SOL    HW122439   1.544   2.728   6.719 -2.2824 -0.6902 -1.4500
 3602SOL    HW222440   1.574   2.847   6.788 -0.4475  1.2913  0.4953
 3603SOL     OW22441   1.936   2.111   5.962  0.3441 -1.1175  0.0619
 3603SOL    HW122442   1.877   2.037   5.954  0.1520 -0.8524 -1.0142
 3603SOL    HW222443   2.004   2.085   5.900  1.2702  0.6762  0.3357
 3604SOL     OW22444   1.593   4.312   8.181 -0.1082 -0.0511  0.8791
 3604SOL    HW122445   1.530   4.288   8.248 -0.2672 -2.4468 -0.1597
 3604SOL    HW222446   1.541   4.288   8.105 -0.9728  0.8775  1.1731
 3605SOL     OW22447   4.382   3.876   7.858 -0.8074 -0.5104  0.3703
 3605SOL    HW122448   4.365   3.914   7.772  2.2880 -2.0801 -0.9701
 3605SOL    HW222449   4.313   3.810   7.853 -0.5122 -0.9121  1.4350
 3606SOL     OW22450   2.816   1.115  10.424  0.2338  0.0195  0.3944
 3606SOL    HW122451   2.892   1.062  10.397  0.5123  1.1580 -1.0770
 3606SOL    HW222452   2.850   1.148  10.507 -0.5210  0.9329  0.3312
 3607SOL     OW22453   1.421   2.496   8.193 -0.4402  1.1023 -0.4395
 3607SOL    HW122454   1.339   2.540   8.213 -1.4383 -1.2041  0.5113
 3607SOL    HW222455   1.461   2.540   8.118  0.9604  1.3381  0.4243
 3608SOL     OW22456   3.969   3.945   2.454 -0.1270  0.3521  0.6758
 3608SOL    HW122457   4.040   3.881   2.456  1.3173  1.9933  1.6120
 3608SOL    HW222458   4.014   4.005   2.512 -0.3926  1.5375 -0.3351
 3609SOL     OW22459   1.580   0.099   1.296  0.4150  0.3530  0.0784
 3609SOL    HW122460   1.660   0.126   1.341 -0.1439 -2.5439  2.8509
 3609SOL    HW222461   1.563   0.154   1.220 -0.9806 -0.4193 -0.1846
 3610SOL     OW22462   1.794   2.684   7.501  0.2261 -0.8984 -0.4329
 3610SOL    HW122463   1.838   2.722   7.577 -1.1665  1.5293 -0.8261
 3610SOL    HW222464   1.705   2.719   7.512 -0.3207 -1.4826 -2.9441
 3611SOL     OW22465   3.774   3.843   5.698  0.8051 -0.3884 -0.0987
 3611SOL    HW122466   3.813   3.756   5.706  1.4548  0.0956  1.9351
 3611SOL    HW222467   3.856   3.892   5.695  0.9426 -0.5164  2.0635
 3612SOL     OW22468   3.525   2.167   2.034 -0.0236 -0.4868 -0.6347
 3612SOL    HW122469   3.465   2.241   2.041 -1.6481 -2.0937  2.2305
 3612SOL    HW222470   3.523   2.131   2.123  0.5525 -0.0406 -0.4346
 3613SOL     OW22471   0.273   1.273   2.976 -0.2941  0.0039  0.1956
 3613SOL    HW122472   0.284   1.360   3.015 -1.5471  0.1554  0.1937
 3613SOL    HW222473   0.200   1.297   2.919 -0.3465  2.3875  1.2939
 3614SOL     OW22474   1.792   3.024   0.473  0.0801  0.7147  0.7177
 3614SOL    HW122475   1.868   2.968   0.490  2.7384  2.9235 -4.0005
 3614SOL    HW222476   1.824   3.100   0.424 -1.3617  2.6420  2.7671
 3615SOL     OW22477   0.866   0.167   8.774 -0.2277  0.2119  1.2209
 3615SOL    HW122478   0.789   0.125   8.810  0.9671 -1.3123  2.0164
 3615SOL    HW222479   0.856   0.138   8.683  0.1895 -1.3474  1.6896
 3616SOL     OW22480   4.400   2.342   1.669 -0.4144 -0.2283 -0.1309
 3616SOL    HW122481   4.454   2.391   1.731 -2.5487  0.6448  1.0718
 3616SOL    HW222482   4.319   2.341   1.720  2.4959 -1.1671  4.4888
 3617SOL     OW22483   2.097   2.285   8.248  0.4622  0.0120  0.1447
 3617SOL    HW122484   2.104   2.377   8.272  1.2224  0.0341 -0.1654
 3617SOL    HW222485   2.030   2.257   8.310  0.5910  0.8278  0.6524
 3618SOL     OW22486   2.366   3.756   8.501  0.1559  0.1773  0.0850
 3618SOL    HW122487   2.392   3.698   8.429 -1.5364 -0.6955  0.1978
 3618SOL    HW222488   2.272   3.743   8.507  0.3640 -2.0048 -1.3244
 3619SOL     OW22489   0.477   0.053   4.510 -0.1311 -0.3398 -0.1163
 3619SOL    HW122490   0.557   0.045   4.562  1.3371 -0.1496 -2.3255
 3619SOL    HW222491   0.421   4.729   4.561 -0.9953  1.1912  0.6801
 3620SOL     OW22492   2.422   3.611   3.241 -0.3039 -0.2685  0.8257
 3620SOL    HW122493   2.509   3.570   3.249  1.4286  2.9276 -1.8572
 3620SOL    HW222494   2.376   3.555   3.305 -0.3827 -0.8021  0.3004
 3621SOL     OW22495   2.938   0.604   6.466  0.0510 -0.4803  0.2307
 3621SOL    HW122496   2.853   0.632   6.432  0.5726 -1.6431 -2.0421
 3621SOL    HW222497   2.963   0.664   6.536 -1.6908 -0.6056  0.9634
 3622SOL     OW22498   0.623   1.742  11.716  0.1371  0.6943 -0.0173
 3622SOL    HW122499   0.654   1.782  11.797 -3.2572 -4.0907  3.6157
 3622SOL    HW222500   0.614   1.820  11.661  0.0609 -0.1616 -1.2301
 3623SOL     OW22501   2.871   3.779   7.670  0.2655  0.4552  0.4137
 3623SOL    HW122502   2.803   3.844   7.651 -1.9526 -2.4478 -1.4373
 3623SOL    HW222503   2.832   3.742   7.750 -0.0543  1.5628  0.7686
 3624SOL     OW22504   0.953   3.781   7.565 -0.0242 -0.3473 -0.1948
 3624SOL    HW122505   0.862   3.760   7.587  0.0411 -0.4325  0.0010
 3624SOL    HW222506   0.984   3.808   7.652 -3.2233  1.2762  0.4448
 3625SOL     OW22507   4.484   0.579   5.737  0.5136  0.4145  0.2747
 3625SOL    HW122508   4.461   0.546   5.824  2.0701  0.3732  0.6784
 3625SOL    HW222509   4.397   0.614   5.718  0.4059 -0.5426 -1.0093
 3626SOL     OW22510   1.534   4.498   3.073  0.7281  0.7431 -0.1403
 3626SOL    HW122511   1.486   4.464   2.998 -1.7889  1.7698  1.0348
 3626SOL    HW222512   1.489   4.576   3.106  2.7051  1.0654  1.8190
 3627SOL     OW22513   4.520   1.618  12.809 -0.0416  0.7098 -0.3008
 3627SOL    HW122514   4.458   1.552  12.838  0.0154  0.5321 -0.5816
 3627SOL    HW222515   4.501   1.696  12.862 -1.5466  1.0693 -1.3712
 3628SOL     OW22516   1.724   3.771  11.967  0.0673  0.9473  0.0456
 3628SOL    HW122517   1.710   3.846  11.909 -0.8567  0.2519 -0.6294
 3628SOL    HW222518   1.664   3.787  12.041  1.4724 -1.0635  1.5978
 3629SOL     OW22519   2.640   4.711   0.980  0.4922  0.1490 -0.2676
 3629SOL    HW122520   2.658   0.060   1.025  0.4348 -0.1565  0.3096
 3629SOL    HW222521   2.544   4.707   0.980  0.4847  0.4846  1.4018
 3630SOL     OW22522   2.659   1.594   1.619  0.1961 -0.5237 -0.0186
 3630SOL    HW122523   2.606   1.581   1.540 -1.3482 -0.5998  1.0371
 3630SOL    HW222524   2.744   1.580   1.577  0.0296  1.4431 -1.0284
 3631SOL     OW22525   1.879   2.806  10.953  0.4808  0.5344  0.0534
 3631SOL    HW122526   1.907   2.746  11.022  1.9279  1.1682  0.0191
 3631SOL    HW222527   1.805   2.856  10.988  0.1140  0.4892 -0.6673
 3632SOL     OW22528   1.318   3.489  13.243  0.1365 -0.2968 -0.9091
 3632SOL    HW122529   1.312   3.407  13.292 -1.3439  1.4058  1.6981
 3632SOL    HW222530   1.250   3.537  13.289 -0.1809 -0.5380 -1.1262
 3633SOL     OW22531   2.221   0.982   7.620  0.1085 -0.6484  0.1563
 3633SOL    HW122532   2.179   1.066   7.602  0.0929 -0.8093 -0.5506
 3633SOL    HW222533   2.246   0.948   7.534  0.6281 -2.8773  1.1992
 3634SOL     OW22534   3.659   0.694   2.848 -0.6101  0.5280  0.2227
 3634SOL    HW122535   3.579   0.724   2.804  1.7370  2.4567 -2.7923
 3634SOL    HW222536   3.715   0.769   2.827  0.8942 -1.0634 -1.4808
 3635SOL     OW22537   2.968   1.393   2.949  0.0526 -0.1761  0.0698
 3635SOL    HW122538   2.940   1.358   3.034  0.0590  0.4317  0.3161
 3635SOL    HW222539   2.958   1.488   2.957 -1.0711 -0.3222  0.4422
 3636SOL     OW22540   1.899   4.408   0.301 -0.0107  0.0145  0.1045
 3636SOL    HW122541   1.908   4.503   0.301 -1.2282  0.1261  1.1544
 3636SOL    HW222542   1.956   4.365   0.237  1.9853 -1.4189  2.7934
 3637SOL     OW22543   1.406   0.566   2.388 -0.2473 -0.4908  0.8374
 3637SOL    HW122544   1.478   0.609   2.433 -1.7069 -1.0078  3.6470
 3637SOL    HW222545   1.407   0.625   2.312 -0.5818 -2.2483 -0.5298
 3638SOL     OW22546   2.921   2.908   2.151 -0.2594  0.9497 -0.2054
 3638SOL    HW122547   2.850   2.967   2.125 -0.9370 -0.1522 -0.8391
 3638SOL    HW222548   2.975   2.951   2.217 -1.1165  0.6272  0.6970
 3639SOL     OW22549   2.405   2.502  11.321  0.1195 -0.5916 -0.2660
 3639SOL    HW122550   2.476   2.541  11.371 -0.5107  0.3809 -0.1349
 3639SOL    HW222551   2.338   2.492  11.388 -0.7753  0.6527 -0.9864
 3640SOL     OW22552   3.847   3.217   8.684  0.5370  0.1315 -0.4815
 3640SOL    HW122553   3.865   3.304   8.648 -0.8925  0.0498 -1.4103
 3640SOL    HW222554   3.937   3.185   8.681  0.2883 -0.3569 -2.7868
 3641SOL     OW22555   0.285   2.411   2.167  0.1375  0.0895  0.4263
 3641SOL    HW122556   0.190   2.414   2.176  0.1231  2.0760 -0.3918
 3641SOL    HW222557   0.314   2.501   2.185 -0.4999  0.0840  1.4910
 3642SOL     OW22558   4.086   3.709   8.692 -0.0973  0.0516 -0.1251
 3642SOL    HW122559   4.124   3.790   8.659  1.8801 -0.5029  0.7886
 3642SOL    HW222560   4.160   3.677   8.745 -0.7587 -1.7295 -0.2889
 3643SOL     OW22561   3.101   2.607   5.725 -0.1273  0.0780 -0.1975
 3643SOL    HW122562   3.071   2.519   5.704  2.6988 -1.1581  0.9868
 3643SOL    HW222563   3.136   2.583   5.811 -2.6002  0.6576  1.0009
 3644SOL     OW22564   2.326   0.557   9.181 -0.3074 -0.8176  0.3233
 3644SOL    HW122565   2.268   0.576   9.255 -2.0509 -1.2628 -0.9404
 3644SOL    HW222566   2.398   0.510   9.225 -0.3565 -1.8223 -0.6687
 3645SOL     OW22567   4.395   0.718   7.384  0.3229  0.2688  0.0391
 3645SOL    HW122568   4.415   0.791   7.442 -1.1600 -0.5128  1.5286
 3645SOL    HW222569   4.320   0.749   7.333 -0.5125  2.4186  2.6105
 3646SOL     OW22570   1.430   1.616   1.380 -0.3206 -0.0229 -0.9858
 3646SOL    HW122571   1.423   1.695   1.434 -2.3939 -0.0720 -1.1605
 3646SOL    HW222572   1.496   1.617   1.311  0.6292  2.3027 -0.0537
 3647SOL     OW22573   1.891   2.482   6.587  0.4398  0.3492  0.0154
 3647SOL    HW122574   1.967   2.539   6.579  0.3369  0.3126 -1.2854
 3647SOL    HW222575   1.835   2.531   6.648 -0.3437 -0.2376 -0.2341
 3648SOL     OW22576   4.125   0.675   6.868 -0.2573 -0.2069 -0.2642
 3648SOL    HW122577   4.157   0.655   6.780 -1.0164 -0.6599 -0.4359
 3648SOL    HW222578   4.033   0.691   6.850  0.1711  1.0082 -1.3585
 3649SOL     OW22579   0.986   0.000   5.206  0.3570  0.4947  0.1027
 3649SOL    HW122580   0.983   4.656   5.150 -0.0681 -0.0754  0.9235
 3649SOL    HW222581   1.053   4.705   5.268  0.2865  2.3517  1.0460
 3650SOL     OW22582   1.903   3.252   8.378 -0.3220  0.0081  0.3880
 3650SOL    HW122583   1.960   3.283   8.448 -0.2414 -0.6538  0.6120
 3650SOL    HW222584   1.858   3.181   8.424  0.9985 -1.3650 -0.4459
 3651SOL     OW22585   1.880   0.642   9.594 -0.1946 -0.1342 -0.2910
 3651SOL    HW122586   1.968   0.650   9.631 -0.7082  1.8371  0.4937
 3651SOL    HW222587   1.853   0.732   9.575 -0.7935  0.0048  1.1885
 3652SOL     OW22588   1.566   3.887   7.098  0.0706  0.1706 -0.2140
 3652SOL    HW122589   1.490   3.929   7.058  1.3051  0.8946 -1.7953
 3652SOL    HW222590   1.606   3.959   7.148 -1.7851  0.2229  1.1975
 3653SOL     OW22591   1.041   1.902   9.298 -0.0084 -0.0412 -0.5671
 3653SOL    HW122592   0.968   1.842   9.284 -1.3796  1.1753  1.2691
 3653SOL    HW222593   1.082   1.907   9.211  0.0187  1.2519 -0.4837
 3654SOL     OW22594   1.173   2.203   4.680 -0.0126 -0.0918 -0.4074
 3654SOL    HW122595   1.204   2.226   4.768  2.5021  1.4041 -1.6793
 3654SOL    HW222596   1.081   2.179   4.694  0.2054 -1.0745 -0.6041
 3655SOL     OW22597   1.026   0.692   9.388  0.2676  0.5932 -0.2531
 3655SOL    HW122598   1.112   0.652   9.375 -0.8675 -2.2567  1.0654
 3655SOL    HW222599   1.049   0.785   9.385  0.6486  0.5003 -0.0915
 3656SOL     OW22600   1.385   3.348   4.037  0.2054 -0.0835  0.5916
 3656SOL    HW122601   1.383   3.252   4.040 -0.5376 -0.1236 -1.3278
 3656SOL    HW222602   1.427   3.358   3.952 -0.8726  1.0923  0.1984
 3657SOL     OW22603   3.435   3.568   8.275  0.1049 -0.0810  0.3246
 3657SOL    HW122604   3.381   3.489   8.280 -0.6532  0.4494  0.6128
 3657SOL    HW222605   3.514   3.534   8.233 -0.1857 -0.2395 -0.0922
 3658SOL     OW22606   2.268   3.748  17.389 -0.5886 -1.0595  0.0094
 3658SOL    HW122607   2.327   3.772  17.318 -0.5773  2.1931  1.0895
 3658SOL    HW222608   2.199   3.813  17.373 -0.3590 -0.7589  0.2291
 3659SOL     OW22609   0.854   1.303   9.381 -0.5659 -0.2470 -0.2740
 3659SOL    HW122610   0.793   1.307   9.307  0.3166 -0.8520 -1.0221
 3659SOL    HW222611   0.813   1.377   9.426 -1.6464 -0.7610 -0.3904
 3660SOL     OW22612   4.359   4.298  16.003  0.3717  0.1949 -0.5036
 3660SOL    HW122613   4.296   4.267  15.939  0.4921  1.4013 -1.2025
 3660SOL    HW222614   4.319   4.263  16.082 -0.1703  1.5817 -0.1560
 3661SOL     OW22615   3.511   3.567   6.591 -0.0276  0.4913 -0.0637
 3661SOL    HW122616   3.484   3.491   6.643 -2.0209  0.9882 -0.3791
 3661SOL    HW222617   3.605   3.552   6.599  0.5477  3.6781 -1.1641
 3662SOL     OW22618   0.579   4.470   9.929  0.2442 -0.4278  0.1645
 3662SOL    HW122619   0.629   4.393   9.899  0.2944  0.2056 -1.3627
 3662SOL    HW222620   0.524   4.438  10.001 -0.5125 -0.8386 -0.5997
 3663SOL     OW22621   1.991   0.712  11.259  0.2106  0.0090 -0.2133
 3663SOL    HW122622   2.021   0.687  11.347  0.7530 -0.2971 -0.4856
 3663SOL    HW222623   1.900   0.682  11.264  0.0205  0.2506 -2.1049
 3664SOL     OW22624   1.384   3.018  16.054 -0.1070 -0.4543 -0.0860
 3664SOL    HW122625   1.297   2.979  16.061  0.0706 -0.6609  0.8744
 3664SOL    HW222626   1.382   3.073  15.976 -0.4325 -1.3643 -0.7304
 3665SOL     OW22627   4.672   2.567  15.164 -0.3707  0.2373  0.6026
 3665SOL    HW122628   4.721   2.641  15.130  0.6349 -1.5389 -1.8013
 3665SOL    HW222629   4.618   2.542  15.089  1.2185  1.6323 -0.9784
 3666SOL     OW22630   4.066   2.075   3.725 -0.3608 -0.7319 -0.4649
 3666SOL    HW122631   4.114   2.107   3.649 -1.8334 -0.1864 -1.1641
 3666SOL    HW222632   4.007   2.148   3.745  0.0032  0.1106 -2.5208
 3667SOL     OW22633   0.123   1.828   6.308 -0.4489 -0.3380 -0.5561
 3667SOL    HW122634   0.112   1.741   6.346 -0.2541 -1.0510 -2.1354
 3667SOL    HW222635   0.032   1.851   6.293 -1.4128 -2.9960  1.1976
 3668SOL     OW22636   0.101   0.170   0.769 -0.2107 -0.3347  0.4935
 3668SOL    HW122637   0.030   0.138   0.825  3.1975 -3.7641  2.8019
 3668SOL    HW222638   0.099   0.258   0.807  1.4278 -0.5694  1.1109
 3669SOL     OW22639   1.570   3.392   4.860  0.1914  0.0610 -0.2132
 3669SOL    HW122640   1.628   3.451   4.811  1.4594 -0.5607  0.5406
 3669SOL    HW222641   1.603   3.406   4.949  0.0898  0.3352 -0.2178
 3670SOL     OW22642   1.839   0.413   6.345 -0.0673 -0.1062  0.0966
 3670SOL    HW122643   1.912   0.468   6.372  0.4401 -0.5699 -0.3227
 3670SOL    HW222644   1.879   0.357   6.278  0.1296  0.4295 -0.2303
 3671SOL     OW22645   1.994   4.350   2.200  0.0688  0.5293 -0.6005
 3671SOL    HW122646   1.940   4.388   2.269 -1.4161 -1.8098 -0.4855
 3671SOL    HW222647   1.972   4.391   2.116  0.7418 -0.2675 -1.1713
 3672SOL     OW22648   0.160   2.089   9.425  0.0352 -0.0926  0.2366
 3672SOL    HW122649   0.130   2.177   9.401 -0.8287 -1.6165 -4.3657
 3672SOL    HW222650   0.252   2.109   9.409 -0.1464 -0.1879 -0.9539
 3673SOL     OW22651   2.750   0.766   2.287  0.3245  0.1890 -0.1148
 3673SOL    HW122652   2.681   0.700   2.276 -0.4034  0.8812  0.2881
 3673SOL    HW222653   2.748   0.775   2.383  0.0303 -1.8470  0.0789
 3674SOL     OW22654   3.266   1.656   8.913  0.1873  0.1115 -0.4285
 3674SOL    HW122655   3.309   1.742   8.917 -2.9396  1.6219  0.2910
 3674SOL    HW222656   3.346   1.607   8.933 -0.3269 -0.2963  0.5849
 3675SOL     OW22657   4.402   1.086   3.498 -0.2289 -0.3923  0.1361
 3675SOL    HW122658   4.377   1.166   3.451 -1.0273 -1.0072 -0.4951
 3675SOL    HW222659   4.403   1.123   3.586  0.8736  0.9921 -0.4514
 3676SOL     OW22660   4.002   1.142   3.836  0.6632 -0.7258 -0.2818
 3676SOL    HW122661   3.998   1.233   3.866  1.0447 -0.7806 -0.0563
 3676SOL    HW222662   3.948   1.097   3.900 -2.5736  2.0435 -1.0986
 3677SOL     OW22663   1.540   4.303   5.917 -0.2546 -0.5881 -0.5093
 3677SOL    HW122664   1.474   4.370   5.934  1.3179  0.8023  0.2051
 3677SOL    HW222665   1.614   4.356   5.887 -0.1420 -0.1158  0.5956
 3678SOL     OW22666   2.581   3.106   8.673 -0.0274  0.0078 -0.0577
 3678SOL    HW122667   2.561   3.156   8.752  0.3357  0.9866 -0.5937
 3678SOL    HW222668   2.643   3.171   8.643 -0.6674 -0.0497 -1.5194
 3679SOL     OW22669   0.352   4.180   7.002 -0.1839 -0.4198 -0.1869
 3679SOL    HW122670   0.385   4.270   7.005 -1.4767  0.0815 -0.8738
 3679SOL    HW222671   0.426   4.145   6.953  0.3271 -0.2696  0.4870
 3680SOL     OW22672   3.944   0.757   8.667 -0.3499 -0.1613  0.3411
 3680SOL    HW122673   3.946   0.796   8.579 -0.9918  0.5148  0.6284
 3680SOL    HW222674   4.037   0.745   8.686 -0.2193  2.6750  1.5817
 3681SOL     OW22675   0.036   1.774   9.828 -0.5597  0.4704  0.3616
 3681SOL    HW122676   0.028   1.862   9.866  1.1615  0.5682  0.4934
 3681SOL    HW222677   0.068   1.795   9.741 -0.0486 -0.2812  0.3688
 3682SOL     OW22678   3.744   1.103   7.834  0.1749  0.0298  0.1065
 3682SOL    HW122679   3.685   1.028   7.847 -0.5888  0.7569  0.9059
 3682SOL    HW222680   3.714   1.173   7.892  1.7092 -0.5521  1.6059
 3683SOL     OW22681   0.641   3.300   2.607 -0.1540 -0.3562 -0.6255
 3683SOL    HW122682   0.608   3.232   2.666 -0.6713 -0.8691 -1.5091
 3683SOL    HW222683   0.669   3.370   2.666 -0.5006  0.1422 -1.0424
 3684SOL     OW22684   2.817   0.286  12.194  0.0300 -0.5640 -0.1000
 3684SOL    HW122685   2.779   0.201  12.170 -2.7785  1.0425 -1.3286
 3684SOL    HW222686   2.811   0.275  12.289  1.0086 -0.0895  0.0227
 3685SOL     OW22687   0.595   3.117   7.456 -0.1273 -0.5562  0.2450
 3685SOL    HW122688   0.636   3.100   7.371 -1.2685  0.1500 -0.4481
 3685SOL    HW222689   0.664   3.166   7.500 -0.8391  0.7819 -0.1252
 3686SOL     OW22690   3.195   1.864  15.419  0.1161 -0.2291  0.4340
 3686SOL    HW122691   3.203   1.957  15.397  0.3367  0.3949  3.1357
 3686SOL    HW222692   3.142   1.863  15.498 -1.2664 -2.1474 -0.5100
 3687SOL     OW22693   0.430   3.015  11.723 -0.5834  0.0366 -0.1617
 3687SOL    HW122694   0.491   3.041  11.654 -0.8779 -0.2116 -0.5196
 3687SOL    HW222695   0.406   3.103  11.751 -0.8048 -0.0635 -0.0343
 3688SOL     OW22696   0.789   1.668  16.713  0.3008 -0.0758 -0.2378
 3688SOL    HW122697   0.704   1.673  16.756 -1.0485  0.9525 -3.0899
 3688SOL    HW222698   0.776   1.677  16.619  0.1685 -3.4386 -0.5127
 3689SOL     OW22699   1.854   4.110   7.551  0.2205 -0.5335  0.0444
 3689SOL    HW122700   1.947   4.093   7.570  0.2974  2.8309  2.6574
 3689SOL    HW222701   1.820   4.118   7.640 -0.9441 -0.9507 -0.3737
 3690SOL     OW22702   2.817   1.675  17.206 -0.6298 -0.2410 -0.4055
 3690SOL    HW122703   2.885   1.718  17.155  1.4455 -1.0025  1.7193
 3690SOL    HW222704   2.736   1.712  17.170 -0.9126 -0.5539 -0.0913
 3691SOL     OW22705   1.557   1.159   2.112 -1.0207  0.3006  0.0909
 3691SOL    HW122706   1.519   1.245   2.093 -1.3160 -0.1854 -1.4982
 3691SOL    HW222707   1.520   1.143   2.199  0.3031 -3.3496 -0.0232
 3692SOL     OW22708   1.496   3.703   3.217 -0.0534  0.8260 -0.2282
 3692SOL    HW122709   1.554   3.668   3.284 -0.6571 -0.9350 -0.6179
 3692SOL    HW222710   1.434   3.632   3.200 -0.7686  1.2457  0.5978
 3693SOL     OW22711   2.908   3.236   1.810  0.2779  0.1551 -0.0906
 3693SOL    HW122712   2.990   3.276   1.780 -0.2052  1.0942 -0.1506
 3693SOL    HW222713   2.861   3.306   1.854  2.2382  1.4936 -0.1015
 3694SOL     OW22714   0.550   0.097   4.248 -0.2199 -0.0504  0.4479
 3694SOL    HW122715   0.522   0.082   4.338 -2.7540 -0.8953 -0.4747
 3694SOL    HW222716   0.481   0.058   4.195  0.8533 -2.0357  0.4972
 3695SOL     OW22717   2.125   4.658  12.105 -0.2667  0.3522  0.0137
 3695SOL    HW122718   2.129   4.720  12.178 -2.4532  1.0502 -0.4475
 3695SOL    HW222719   2.050   4.607  12.136 -1.8222  2.5159 -0.1993
 3696SOL     OW22720   2.189   2.890   7.559 -0.1617  0.8852  0.1987
 3696SOL    HW122721   2.132   2.853   7.492 -1.1218 -0.9356  2.0263
 3696SOL    HW222722   2.249   2.818   7.578 -1.0783  0.2346  0.6218
 3697SOL     OW22723   4.722   4.294  15.415 -0.2550  0.5345  0.6467
 3697SOL    HW122724   4.630   4.291  15.390 -0.0870  0.4795  0.0406
 3697SOL    HW222725   4.706   4.316  15.507 -1.5994 -2.8648  1.2138
 3698SOL     OW22726   2.518   2.870   7.784 -0.1805  0.2100  0.1047
 3698SOL    HW122727   2.591   2.853   7.726 -0.4292  0.1755 -0.1941
 3698SOL    HW222728   2.527   2.965   7.800  0.1544  0.1931  0.0181
 3699SOL     OW22729   2.328   0.175   0.257  0.3079 -0.1873  0.2572
 3699SOL    HW122730   2.320   0.138   0.169  3.9219 -0.3916 -0.0103
 3699SOL    HW222731   2.419   0.205   0.250 -0.6724  2.3542 -1.5953
 3700SOL     OW22732   2.899   0.290   0.919 -0.2066  0.0168  0.1296
 3700SOL    HW122733   2.840   0.316   0.848  0.1432 -1.8718 -0.8594
 3700SOL    HW222734   2.935   0.206   0.891 -1.8860 -0.6353 -0.0919
 3701SOL     OW22735   2.575   3.135   6.807  0.2211 -0.2283 -0.7699
 3701SOL    HW122736   2.616   3.221   6.812  0.3463 -0.2569 -1.3183
 3701SOL    HW222737   2.608   3.104   6.723  0.0230  2.1566 -1.7193
 3702SOL     OW22738   3.130   1.637   9.422  0.5160 -0.1239 -0.3084
 3702SOL    HW122739   3.046   1.682   9.429 -0.3364 -1.5902 -0.9829
 3702SOL    HW222740   3.106   1.550   9.390  2.0428 -0.8434  0.4776
 3703SOL     OW22741   4.129   1.929  10.476 -0.0741  0.1732 -0.1424
 3703SOL    HW122742   4.076   1.935  10.396  0.3330 -0.0073 -0.4257
 3703SOL    HW222743   4.202   1.991  10.470 -0.0980  0.0563 -1.7393
 3704SOL     OW22744   0.364   1.605  14.847 -0.4784 -0.2163  0.5104
 3704SOL    HW122745   0.454   1.572  14.848  0.6978  3.0089 -0.3041
 3704SOL    HW222746   0.348   1.635  14.757 -0.7394 -1.5112  0.1232
 3705SOL     OW22747   4.278   4.023  11.178  0.6153  0.0912  0.1074
 3705SOL    HW122748   4.329   4.012  11.097 -2.3526 -1.2798 -1.6004
 3705SOL    HW222749   4.326   4.095  11.219 -1.3420  1.6672 -0.3445
 3706SOL     OW22750   4.240   3.816   6.762  0.0279  0.1679 -0.2519
 3706SOL    HW122751   4.162   3.774   6.727  0.8702 -0.6834 -1.0941
 3706SOL    HW222752   4.307   3.763   6.718 -1.1087  0.7610 -2.7167
 3707SOL     OW22753   2.511   2.269   0.764  0.6106  0.0374 -0.1034
 3707SOL    HW122754   2.439   2.209   0.784  1.0475 -0.6205 -0.4920
 3707SOL    HW222755   2.463   2.352   0.760  1.4398  0.5428  0.4315
 3708SOL     OW22756   0.050   4.425   8.244  0.0868 -0.2138 -0.0220
 3708SOL    HW122757   0.074   4.358   8.309 -0.9193  2.9919  3.6455
 3708SOL    HW222758   4.697   4.387   8.233 -0.1865  0.0516  1.2633
 3709SOL     OW22759   4.125   1.064  14.766  0.2791 -0.2329 -0.2971
 3709SOL    HW122760   4.091   1.117  14.838 -0.5657  0.2077 -1.0225
 3709SOL    HW222761   4.164   0.995  14.820  2.3270 -0.4299 -2.0652
 3710SOL     OW22762   2.654   0.978   6.280 -0.1342 -0.1805 -0.3893
 3710SOL    HW122763   2.711   0.950   6.208 -0.3948  1.5505 -1.2634
 3710SOL    HW222764   2.712   0.955   6.352 -0.0976 -0.6317 -0.5627
 3711SOL     OW22765   2.665   4.174   6.314  0.4568  0.0933 -0.4601
 3711SOL    HW122766   2.756   4.159   6.289  0.3064 -0.5781 -0.6005
 3711SOL    HW222767   2.614   4.173   6.233  1.5984 -0.5027 -1.1751
 3712SOL     OW22768   3.320   1.575  14.620 -0.1200 -0.0288 -0.3141
 3712SOL    HW122769   3.283   1.643  14.676  1.6205  1.5693 -1.1127
 3712SOL    HW222770   3.387   1.621  14.569  1.5045  1.1799  2.9467
 3713SOL     OW22771   3.731   2.515   6.929 -0.0546 -0.1664 -0.0668
 3713SOL    HW122772   3.736   2.428   6.967  1.0002  0.0152  0.2140
 3713SOL    HW222773   3.754   2.563   7.009  0.2033 -1.5697  0.7010
 3714SOL     OW22774   1.388   0.611   3.694 -0.3633  0.8912  0.3359
 3714SOL    HW122775   1.400   0.694   3.742 -1.4969  0.8229  0.7222
 3714SOL    HW222776   1.336   0.565   3.760  1.2750 -0.7149  0.5052
 3715SOL     OW22777   2.121   3.145  14.308 -0.0357 -0.2543  0.0729
 3715SOL    HW122778   2.053   3.170  14.371  0.9125  2.7130 -0.1077
 3715SOL    HW222779   2.174   3.224  14.305 -0.9460  0.3745  0.6797
 3716SOL     OW22780   1.459   1.232   7.764  0.1801 -0.5593  0.0256
 3716SOL    HW122781   1.382   1.195   7.807 -1.1756  1.9027 -0.2759
 3716SOL    HW222782   1.425   1.275   7.686  0.7916  1.5408  0.9291
 3717SOL     OW22783   2.951   0.186   7.086  0.0279 -0.3120  0.4113
 3717SOL    HW122784   2.885   0.117   7.097  0.5882 -0.6606  1.6068
 3717SOL    HW222785   2.905   0.251   7.033 -1.6120 -0.1599  2.0309
 3718SOL     OW22786   0.642   1.379   8.435  0.1351  0.7396  0.4596
 3718SOL    HW122787   0.683   1.335   8.360 -1.5870  2.1432 -1.2958
 3718SOL    HW222788   0.622   1.466   8.401 -0.8046  0.1729 -0.4455
 3719SOL     OW22789   0.661   4.489   3.035  0.2993  0.6356  0.5675
 3719SOL    HW122790   0.618   4.566   2.997 -3.4183 -0.4864  2.4720
 3719SOL    HW222791   0.675   4.429   2.962 -2.4397  2.1616 -1.1933
 3720SOL     OW22792   3.394   4.104   5.434 -0.3334 -0.5643  0.8156
 3720SOL    HW122793   3.361   4.135   5.518  1.5449 -0.4157  1.4811
 3720SOL    HW222794   3.488   4.098   5.448 -0.0618  1.8562 -0.1048
 3721SOL     OW22795   2.185   4.559   7.842 -0.0864  0.1199 -0.3133
 3721SOL    HW122796   2.125   4.620   7.798  0.2966  1.7130  1.3603
 3721SOL    HW222797   2.250   4.546   7.774  1.6629  2.1259  0.9560
 3722SOL     OW22798   2.950   4.058  16.039  0.0429 -0.1478  0.1486
 3722SOL    HW122799   2.933   3.977  16.086  0.9055  0.0942  0.8748
 3722SOL    HW222800   2.895   4.118  16.089  2.2538  0.9709  1.2694
 3723SOL     OW22801   1.691   4.153  14.394  1.2362 -0.8800 -0.1793
 3723SOL    HW122802   1.765   4.104  14.429  0.8862 -1.2775  0.0065
 3723SOL    HW222803   1.698   4.113  14.307 -0.7560 -0.6146 -0.4639
 3724SOL     OW22804   2.856   1.903  10.960 -0.0861  0.2240  0.2991
 3724SOL    HW122805   2.897   1.975  11.009  0.1132  1.0319 -1.0514
 3724SOL    HW222806   2.921   1.867  10.898 -0.4656 -1.0867  0.6755
 3725SOL     OW22807   0.508   3.945   7.886  0.4763  0.1423 -0.4812
 3725SOL    HW122808   0.423   3.988   7.895  0.9747  1.2758 -1.2483
 3725SOL    HW222809   0.507   3.894   7.968  1.3573  2.3758  0.9301
 3726SOL     OW22810   4.710   4.347   3.299  0.0641  0.0129  0.4263
 3726SOL    HW122811   4.716   4.260   3.341  1.8349 -1.0147 -1.9501
 3726SOL    HW222812   4.619   4.370   3.319  0.1329  2.5032 -2.1862
 3727SOL     OW22813   4.441   4.597  11.221  0.0441 -0.5592  0.1412
 3727SOL    HW122814   4.462   4.647  11.300  1.0339 -1.7681  0.6510
 3727SOL    HW222815   4.471   4.650  11.147 -2.1328  1.0480  0.4103
 3728SOL     OW22816   1.532   4.580   6.035  0.5190 -0.5996  0.1576
 3728SOL    HW122817   1.600   4.639   6.003 -0.4801  0.1316 -0.6018
 3728SOL    HW222818   1.585   4.549   6.109  1.3180 -1.2781 -0.6793
 3729SOL     OW22819   4.718   1.154   8.365 -0.1774  0.1496  0.5541
 3729SOL    HW122820   4.699   1.100   8.288  1.4655 -1.7229  1.4787
 3729SOL    HW222821   0.021   1.078   8.410 -0.6704 -1.1880 -1.3013
 3730SOL     OW22822   2.434   0.431   2.749 -0.5227 -0.5959  0.3928
 3730SOL    HW122823   2.529   0.428   2.749 -0.5255 -0.6685  1.5398
 3730SOL    HW222824   2.416   0.341   2.776  0.9972 -1.6212 -2.0676
 3731SOL     OW22825   3.700   3.275   4.738  0.0720  0.0311  0.4798
 3731SOL    HW122826   3.684   3.274   4.644 -1.1181 -0.2524  0.6831
 3731SOL    HW222827   3.706   3.370   4.752  1.0565  0.0836 -0.3115
 3732SOL     OW22828   4.623   2.184   1.616 -0.1434  0.4366 -0.0364
 3732SOL    HW122829   4.545   2.231   1.643 -0.5163  0.2618 -0.8233
 3732SOL    HW222830   4.579   2.103   1.592  2.1488 -1.4358  2.0210
 3733SOL     OW22831   0.578   3.643  13.053 -0.0218  0.1509 -0.0195
 3733SOL    HW122832   0.665   3.609  13.073  0.4039  0.9814 -0.4827
 3733SOL    HW222833   0.535   3.571  13.006 -0.0838 -0.3281  0.7653
 3734SOL     OW22834   0.818   2.364   5.170  0.1637 -0.3457 -0.3262
 3734SOL    HW122835   0.751   2.432   5.174 -0.4496 -1.0389  1.2922
 3734SOL    HW222836   0.892   2.412   5.132  0.8631 -2.6487 -1.8484
 3735SOL     OW22837   1.488   0.353   7.075 -0.0469  0.8640  0.0047
 3735SOL    HW122838   1.574   0.335   7.038  0.0202 -3.8086  2.4093
 3735SOL    HW222839   1.512   0.333   7.165  1.7892  0.8670 -0.4801
 3736SOL     OW22840   0.537   3.438   6.125 -0.1454  0.4636 -0.5022
 3736SOL    HW122841   0.492   3.516   6.157 -0.6211  0.1397 -0.3771
 3736SOL    HW222842   0.622   3.480   6.118  0.4404 -0.8731 -1.3093
 3737SOL     OW22843   0.087   2.082  17.479  0.1245  0.1177 -0.1278
 3737SOL    HW122844   0.047   2.161  17.442 -0.3281  0.4506  1.0958
 3737SOL    HW222845   0.099   2.110  17.569 -0.3067 -2.0334  0.5967
 3738SOL     OW22846   1.997   1.116  16.968 -0.5853 -0.1893  0.3551
 3738SOL    HW122847   2.023   1.146  17.055 -0.8647 -2.4097  1.1931
 3738SOL    HW222848   2.009   1.021  16.970 -1.8582 -0.3672  0.0450
 3739SOL     OW22849   2.736   4.182   9.032  0.1554  0.1689 -0.8984
 3739SOL    HW122850   2.745   4.268   8.992  2.4620 -1.5206 -4.0168
 3739SOL    HW222851   2.800   4.192   9.103  0.0611  1.6091 -1.0158
 3740SOL     OW22852   1.126   3.556   9.995 -0.3123  0.3798  0.1832
 3740SOL    HW122853   1.059   3.532  10.059  2.3271 -3.2960  1.5330
 3740SOL    HW222854   1.171   3.625  10.045  1.1822  0.3941 -1.1718
 3741SOL     OW22855   4.096   4.469   2.605 -0.0336  0.0530  0.0882
 3741SOL    HW122856   4.021   4.493   2.551 -1.7991 -1.3723  1.9280
 3741SOL    HW222857   4.062   4.486   2.692  1.4018 -0.7335  0.8036
 3742SOL     OW22858   3.995   0.947   2.636  0.3307  0.4216  0.2459
 3742SOL    HW122859   4.064   0.898   2.681  2.2294  2.5464 -0.3603
 3742SOL    HW222860   4.037   1.031   2.617  0.3799 -0.0942 -2.0324
 3743SOL     OW22861   0.921   4.464   4.513  0.2938 -0.6497  0.5769
 3743SOL    HW122862   0.934   4.489   4.605 -0.5281 -0.4809  0.6422
 3743SOL    HW222863   0.945   4.371   4.521 -0.4136 -0.8205  0.6595
 3744SOL     OW22864   0.724   4.509   4.047  0.5069  0.3108 -0.1729
 3744SOL    HW122865   0.754   4.593   4.082  1.1327  0.4825 -1.1141
 3744SOL    HW222866   0.737   4.507   3.952 -2.2322 -1.4617 -0.4999
 3745SOL     OW22867   2.405   0.445  15.425 -0.4943  0.1197  0.0786
 3745SOL    HW122868   2.473   0.380  15.441 -0.8208 -0.7901 -2.3067
 3745SOL    HW222869   2.452   0.527  15.438  0.7445 -0.9260  2.2403
 3746SOL     OW22870   4.453   0.168   5.989  0.3967  0.5460  0.6960
 3746SOL    HW122871   4.478   0.097   5.929  0.3219 -0.8552  2.3056
 3746SOL    HW222872   4.501   0.134   6.065  2.2550  2.2189  0.2826
 3747SOL     OW22873   0.651   3.365   3.166  0.0988  0.2758  0.0125
 3747SOL    HW122874   0.604   3.373   3.249  1.7570  0.6772  0.9147
 3747SOL    HW222875   0.693   3.451   3.161 -1.0837  0.9547  1.7166
 3748SOL     OW22876   0.853   0.073   4.390  0.1194  0.4544  0.8368
 3748SOL    HW122877   0.789   0.023   4.441 -0.0784 -2.2738 -2.0533
 3748SOL    HW222878   0.924   0.093   4.450  2.1424  0.6761 -1.6263
 3749SOL     OW22879   3.190   3.961  17.482  0.1020  0.8263  0.8085
 3749SOL    HW122880   3.173   4.026  17.551 -2.3511  0.4717  0.5604
 3749SOL    HW222881   3.271   3.913  17.494 -0.6969 -0.3060  1.6964
 3750SOL     OW22882   0.736   3.616   0.936 -0.1480  0.1849  0.3220
 3750SOL    HW122883   0.668   3.620   1.003  0.4615 -1.4203  1.0575
 3750SOL    HW222884   0.717   3.671   0.861  0.8522  0.1027  0.0081
 3751SOL     OW22885   2.072   1.476  12.785 -0.5996  0.3762 -0.0363
 3751SOL    HW122886   2.044   1.529  12.860  0.2774 -0.3366  0.7809
 3751SOL    HW222887   1.990   1.448  12.743  0.1064  0.5947 -1.5485
 3752SOL     OW22888   4.330   2.070  15.757  0.1197 -0.2502  0.1167
 3752SOL    HW122889   4.246   2.032  15.729  0.5209  0.1644 -1.6606
 3752SOL    HW222890   4.388   2.036  15.689 -0.8402 -0.8326 -0.4221
 3753SOL     OW22891   3.250   3.167   5.425 -0.1969 -0.3210  0.4297
 3753SOL    HW122892   3.204   3.093   5.386  0.2417 -1.2193  1.5745
 3753SOL    HW222893   3.172   3.201   5.468 -1.7697 -0.7279 -2.1425
 3754SOL     OW22894   0.810   0.647   1.151  0.2413 -0.2502  0.3814
 3754SOL    HW122895   0.864   0.720   1.121 -0.1741 -0.6303 -1.3343
 3754SOL    HW222896   0.729   0.655   1.099  0.1103 -1.3242  0.4065
 3755SOL     OW22897   2.079   3.418   8.245  0.1364  0.1945  0.3000
 3755SOL    HW122898   2.006   3.375   8.289  1.7484 -1.4806  1.3223
 3755SOL    HW222899   2.146   3.415   8.314  0.8466 -0.3084 -0.4105
 3756SOL     OW22900   4.100   3.620  10.100 -0.7427 -0.6562  0.8980
 3756SOL    HW122901   4.171   3.568  10.138  0.4437 -1.4579 -2.4337
 3756SOL    HW222902   4.050   3.643  10.179 -0.8322  3.2418 -0.3138
 3757SOL     OW22903   3.555   0.259   7.129  0.3799  0.3594 -1.0634
 3757SOL    HW122904   3.610   0.193   7.172  0.1347 -0.9423 -2.7799
 3757SOL    HW222905   3.489   0.267   7.198  1.7880 -1.1436  0.4664
 3758SOL     OW22906   3.231   4.488   6.687  0.5199 -0.1627  0.1112
 3758SOL    HW122907   3.142   4.463   6.660  0.3215 -0.3638  0.9477
 3758SOL    HW222908   3.268   4.414   6.734  0.2783 -1.7904 -2.2430
 3759SOL     OW22909   4.278   3.985  13.986 -0.1359 -0.0214  0.3263
 3759SOL    HW122910   4.208   4.030  13.939 -0.6885 -0.5316  0.6769
 3759SOL    HW222911   4.322   4.063  14.021 -0.6577 -0.1482  1.2704
 3760SOL     OW22912   3.080   2.028   8.093  0.1360  0.1343  0.4865
 3760SOL    HW122913   3.165   2.071   8.101  0.4917  0.1904 -3.6205
 3760SOL    HW222914   3.096   1.959   8.029 -0.0758  1.1596 -0.6809
 3761SOL     OW22915   2.830   2.132  11.183 -0.0345 -0.5184  0.9182
 3761SOL    HW122916   2.922   2.107  11.198  0.7121  1.0793 -1.0390
 3761SOL    HW222917   2.828   2.170  11.095 -0.0087  1.1825  1.6520
 3762SOL     OW22918   3.190   1.815  15.031 -0.7844  0.1911 -0.0695
 3762SOL    HW122919   3.150   1.773  15.107 -0.0350  1.2905  0.9505
 3762SOL    HW222920   3.177   1.906  15.060 -0.3310  0.6068 -1.1681
 3763SOL     OW22921   0.338   3.474   4.089 -0.1405 -0.3090 -0.1257
 3763SOL    HW122922   0.355   3.554   4.040 -3.7372  0.1610 -0.5814
 3763SOL    HW222923   0.402   3.493   4.158  2.2442 -1.5815 -1.9647
 3764SOL     OW22924   0.846   2.362   0.836 -0.6332  0.0556 -0.0627
 3764SOL    HW122925   0.805   2.449   0.829 -0.4420  0.1681  0.2156
 3764SOL    HW222926   0.827   2.342   0.927  0.5850 -0.7243  0.0098
 3765SOL     OW22927   0.729   3.802   4.549  0.9549  0.3821 -0.0920
 3765SOL    HW122928   0.802   3.741   4.561 -2.6037 -3.4772  1.8389
 3765SOL    HW222929   0.657   3.740   4.542  1.4161 -0.4720  2.8201
 3766SOL     OW22930   0.465   0.967   7.677 -0.2018 -0.4119  0.0496
 3766SOL    HW122931   0.542   0.934   7.632  0.0316 -1.2976  1.1189
 3766SOL    HW222932   0.401   0.898   7.662 -1.7734  1.2346 -0.9211
 3767SOL     OW22933   3.034   3.971   2.679  0.7131  0.3251 -0.0950
 3767SOL    HW122934   3.080   4.018   2.609  2.8408 -0.5792  0.6872
 3767SOL    HW222935   2.944   3.981   2.648  0.1964 -3.6742  0.1103
 3768SOL     OW22936   3.192   3.758   5.229 -0.0084  0.2594 -0.5551
 3768SOL    HW122937   3.233   3.827   5.177  1.5356 -1.0230 -1.0467
 3768SOL    HW222938   3.245   3.768   5.308  0.8176  1.3591 -1.2595
 3769SOL     OW22939   0.894   1.564   2.106 -0.3057  0.1819  0.5129
 3769SOL    HW122940   0.956   1.608   2.164 -1.1017 -0.5711  1.9443
 3769SOL    HW222941   0.808   1.578   2.145  0.2988  0.9719  1.5722
 3770SOL     OW22942   3.490   0.637  17.256  0.2347  0.3142 -0.3035
 3770SOL    HW122943   3.453   0.592  17.180 -0.8994 -1.0082  1.0293
 3770SOL    HW222944   3.561   0.688  17.218 -1.6327  1.8349 -1.8056
 3771SOL     OW22945   0.310   0.788   6.050  0.1126  0.2525 -0.1710
 3771SOL    HW122946   0.395   0.831   6.040  1.1347 -1.7295  0.1502
 3771SOL    HW222947   0.256   0.849   6.000 -1.6958 -0.1394  1.3094
 3772SOL     OW22948   3.081   1.431   7.984  0.4485 -0.0521 -0.2475
 3772SOL    HW122949   3.099   1.521   7.955  1.1200  0.8154  2.8300
 3772SOL    HW222950   3.000   1.443   8.033  0.1300 -1.7027 -0.3780
 3773SOL     OW22951   2.037   0.370   3.014  0.4795 -0.0172 -0.4909
 3773SOL    HW122952   2.130   0.386   2.999  1.0019 -1.7684  0.8056
 3773SOL    HW222953   2.026   0.278   2.990  3.8734 -0.6939  0.5679
 3774SOL     OW22954   4.107   0.994   5.369 -0.6855 -0.4891 -0.0024
 3774SOL    HW122955   4.196   0.959   5.380 -0.9901 -2.0644 -2.4539
 3774SOL    HW222956   4.109   1.059   5.439 -0.3425 -0.5359  0.0314
 3775SOL     OW22957   2.777   2.245   4.066  0.0641  0.0249  0.0168
 3775SOL    HW122958   2.830   2.195   4.128  0.4621 -0.0698 -0.4036
 3775SOL    HW222959   2.724   2.179   4.020  1.2400 -0.8759 -0.0463
 3776SOL     OW22960   2.470   3.541   2.642  0.6491  0.1696  0.4366
 3776SOL    HW122961   2.462   3.614   2.580 -1.0429 -1.0873 -0.8327
 3776SOL    HW222962   2.459   3.577   2.730  1.2242 -0.6894  0.8630
 3777SOL     OW22963   0.580   3.117   6.462 -0.8442  0.0477 -0.0592
 3777SOL    HW122964   0.574   3.134   6.368  1.0578  0.7366 -0.0667
 3777SOL    HW222965   0.672   3.090   6.466 -0.8539 -0.0384 -0.4399
 3778SOL     OW22966   1.437   3.509   5.951 -0.1407  0.5553 -0.5210
 3778SOL    HW122967   1.411   3.570   5.882  0.1939  1.3826  0.0932
 3778SOL    HW222968   1.518   3.554   5.974  0.0725  0.2116 -0.6064
 3779SOL     OW22969   3.205   1.179   7.397 -0.6564 -0.3230 -0.9420
 3779SOL    HW122970   3.162   1.237   7.460 -0.8345  0.6918 -2.0018
 3779SOL    HW222971   3.167   1.099   7.433  0.4249 -0.2920  0.2926
 3780SOL     OW22972   4.034   4.110   7.962 -0.1406 -0.4337  0.2594
 3780SOL    HW122973   3.993   4.024   7.950  2.1048 -1.3395 -0.8936
 3780SOL    HW222974   3.970   4.160   8.011  0.9186 -0.3972  1.5967
 3781SOL     OW22975   4.334   2.693   9.134 -0.3339 -0.2474 -0.3529
 3781SOL    HW122976   4.273   2.741   9.190  0.8417  0.4491  0.3356
 3781SOL    HW222977   4.298   2.605   9.128  1.6052 -1.0649 -0.1235
 3782SOL     OW22978   0.773   2.519   3.405  0.4954  0.0424  0.0034
 3782SOL    HW122979   0.731   2.592   3.359  1.6652  0.1335 -0.9105
 3782SOL    HW222980   0.716   2.443   3.392  0.1789  0.4785 -1.2542
 3783SOL     OW22981   4.621   3.018   8.246 -0.6288 -0.0083 -0.4374
 3783SOL    HW122982   4.610   3.084   8.314 -1.0909  2.0762 -2.5393
 3783SOL    HW222983   4.534   2.984   8.226 -1.9284  2.0970  1.6780
 3784SOL     OW22984   0.589   4.384  14.736 -0.4666 -0.3178 -0.3145
 3784SOL    HW122985   0.612   4.451  14.672  1.1217  0.7972  1.4194
 3784SOL    HW222986   0.645   4.309  14.715 -2.3411 -1.1498 -2.2992
 3785SOL     OW22987   0.811   0.609  17.075  0.2589 -0.4842  0.2471
 3785SOL    HW122988   0.809   0.666  17.151  3.7304  0.1355 -0.1545
 3785SOL    HW222989   0.896   0.565  17.083  0.5170  0.4753  2.4986
 3786SOL     OW22990   1.168   3.168   2.682 -0.1163 -0.0112  0.5193
 3786SOL    HW122991   1.204   3.256   2.676 -1.5077  0.4199 -1.5252
 3786SOL    HW222992   1.080   3.168   2.645 -0.0302  1.2207  0.3276
 3787SOL     OW22993   1.140   3.323   5.317  0.5174  0.3451  0.0005
 3787SOL    HW122994   1.183   3.405   5.339  0.8454  0.0203  0.5802
 3787SOL    HW222995   1.119   3.335   5.224  0.0571  0.6331  0.1467
 3788SOL     OW22996   4.278   1.583   2.862  0.1715  0.2971 -0.4012
 3788SOL    HW122997   4.220   1.642   2.911 -2.4510 -2.1356 -0.6163
 3788SOL    HW222998   4.357   1.612   2.909  1.3854  0.9451 -2.8294
 3789SOL     OW22999   1.137   2.393   4.110 -0.1853 -0.4910 -0.5751
 3789SOL    HW123000   1.202   2.459   4.136  0.5727 -1.2510 -0.5620
 3789SOL    HW223001   1.081   2.442   4.049 -3.2741 -1.9422  1.1247
 3790SOL     OW23002   0.841   3.612   9.160  0.2217  0.6242 -0.2329
 3790SOL    HW123003   0.844   3.516   9.155  0.0624  0.5880  0.4280
 3790SOL    HW223004   0.888   3.621   9.242 -0.8173 -1.0602  0.5661
 3791SOL     OW23005   0.503   4.439   5.866  0.1282 -0.3280  1.1941
 3791SOL    HW123006   0.478   4.501   5.934 -0.2602  0.0301  0.7310
 3791SOL    HW223007   0.535   4.374   5.929  0.1340 -0.0955  1.4317
 3792SOL     OW23008   0.078   4.052   2.373 -0.6067  0.2951  0.0166
 3792SOL    HW123009   0.120   4.135   2.396  0.9246 -0.2410 -0.8677
 3792SOL    HW223010   4.724   4.072   2.404  0.5183  1.7475  2.2809
 3793SOL     OW23011   2.706   2.605   7.978 -0.0735  0.5519 -0.1372
 3793SOL    HW123012   2.791   2.649   7.973 -0.1747  0.8393  0.8267
 3793SOL    HW223013   2.667   2.636   8.060  0.3816 -0.3212  0.4051
 3794SOL     OW23014   0.742   1.335  14.989  0.2673 -0.5962 -0.6303
 3794SOL    HW123015   0.827   1.293  14.999  1.3091  1.8000  0.3190
 3794SOL    HW223016   0.676   1.289  15.042  1.1452  1.1911  2.0029
 3795SOL     OW23017   4.680   3.148  10.199  0.1696  0.2403 -0.3927
 3795SOL    HW123018   0.001   3.220  10.169  0.5924  1.0084  2.2329
 3795SOL    HW223019   4.705   3.088  10.129 -0.0979  0.3546 -0.5863
 3796SOL     OW23020   2.739   0.402   3.297  0.3704  0.2083  0.0026
 3796SOL    HW123021   2.746   0.349   3.218 -4.0126  2.1354 -1.6745
 3796SOL    HW223022   2.741   0.335   3.365 -0.6786 -1.7686 -1.9482
 3797SOL     OW23023   0.760   1.087  12.558  0.1540 -0.2029 -0.4683
 3797SOL    HW123024   0.800   1.174  12.566 -0.8173  0.2401 -0.4450
 3797SOL    HW223025   0.764   1.051  12.646  0.6067 -0.8233 -0.7450
 3798SOL     OW23026   1.748   0.867   8.772 -0.3915 -0.7836 -0.8278
 3798SOL    HW123027   1.844   0.861   8.772 -0.3292  0.1106  2.1543
 3798SOL    HW223028   1.735   0.906   8.685 -2.6955 -1.7915 -0.9253
 3799SOL     OW23029   0.960   2.417  14.663 -0.1665 -0.2917  0.3856
 3799SOL    HW123030   0.868   2.424  14.689  1.1755 -1.1996  5.4167
 3799SOL    HW223031   0.992   2.379  14.745 -1.9278 -0.2761  1.0921
 3800SOL     OW23032   4.561   4.725   3.398  0.2764  0.4322  0.0246
 3800SOL    HW123033   4.613   4.732   3.478  1.6550  1.8130 -1.0087
 3800SOL    HW223034   4.514   0.074   3.400 -0.3555  0.0144  2.4679
 3801SOL     OW23035   0.075   0.119   4.490  0.2276 -0.2858 -0.4049
 3801SOL    HW123036   0.123   0.155   4.565 -0.2685 -1.2700  0.3828
 3801SOL    HW223037   0.124   0.145   4.411 -0.3985 -1.9455 -1.3251
 3802SOL     OW23038   2.032   2.507   2.618  0.1722  0.1275  0.0280
 3802SOL    HW123039   1.996   2.547   2.539  1.7027 -0.8903 -1.2035
 3802SOL    HW223040   2.093   2.446   2.577 -2.9947 -0.5651 -3.7302
 3803SOL     OW23041   1.660   1.740   6.440  0.4033  0.4715  0.1547
 3803SOL    HW123042   1.599   1.675   6.406 -0.4028  1.2671  0.0793
 3803SOL    HW223043   1.609   1.821   6.436  1.1228  0.9653  1.0043
 3804SOL     OW23044   2.516   1.952   8.197 -0.1522 -0.0203 -0.3895
 3804SOL    HW123045   2.446   2.011   8.172  1.1499  1.8609  0.3855
 3804SOL    HW223046   2.573   2.009   8.249 -1.4650 -0.3839  1.4669
 3805SOL     OW23047   3.385   4.637  16.705  0.2877 -0.1455 -0.3493
 3805SOL    HW123048   3.480   4.629  16.697  0.1148 -1.9095 -0.6077
 3805SOL    HW223049   3.368   4.724  16.669  2.4365  0.2321 -0.4660
 3806SOL     OW23050   0.883   1.842  14.210 -0.0664 -0.1185 -0.2491
 3806SOL    HW123051   0.808   1.860  14.268 -0.0510 -1.7046  0.2445
 3806SOL    HW223052   0.890   1.919  14.154 -0.9492  0.1479 -0.0026
 3807SOL     OW23053   1.434   3.323  16.244 -0.1564  0.3102  1.1675
 3807SOL    HW123054   1.453   3.234  16.272  0.2469 -0.2195 -0.8128
 3807SOL    HW223055   1.472   3.325  16.156 -1.4129 -0.8216  0.5920
 3808SOL     OW23056   1.564   0.213   6.179 -0.0145  0.0478 -0.1067
 3808SOL    HW123057   1.638   0.159   6.150 -0.4553  0.4963 -2.0529
 3808SOL    HW223058   1.582   0.288   6.122  1.3462  0.2489  0.5673
 3809SOL     OW23059   0.029   0.171   7.645 -0.4326 -0.0846  0.4731
 3809SOL    HW123060   4.719   0.110   7.705 -1.0734 -1.4954 -1.4458
 3809SOL    HW223061   0.113   0.126   7.641 -0.2546  0.3821 -0.9295
 3810SOL     OW23062   3.396   1.758   3.588 -0.0213 -0.1083  0.4454
 3810SOL    HW123063   3.454   1.683   3.579  1.6375  0.8402  3.1110
 3810SOL    HW223064   3.357   1.738   3.674  1.7463  0.1926  1.3213
 3811SOL     OW23065   1.498   4.648  16.428 -0.3373 -0.7742  0.0356
 3811SOL    HW123066   1.511   4.732  16.384 -0.6216 -1.2823 -1.0225
 3811SOL    HW223067   1.464   4.591  16.358  2.7933 -2.0160 -0.4935
 3812SOL     OW23068   1.641   0.599   4.266 -0.3285  0.7237  0.0497
 3812SOL    HW123069   1.560   0.569   4.225  0.6646 -0.3155 -1.1811
 3812SOL    HW223070   1.685   0.514   4.270 -0.2096  0.7029 -1.5511
 3813SOL     OW23071   1.332   3.926   4.703  0.1466  0.3422  0.2954
 3813SOL    HW123072   1.242   3.893   4.705  0.0983  0.3135 -2.8891
 3813SOL    HW223073   1.367   3.857   4.648 -0.8510  0.2036 -0.1647
 3814SOL     OW23074   0.565   1.662   4.541  0.5996 -0.0768 -0.5596
 3814SOL    HW123075   0.505   1.728   4.576  1.9846  2.1837 -2.4119
 3814SOL    HW223076   0.630   1.714   4.493  2.0531  0.4029  1.9438
 3815SOL     OW23077   0.954   1.949   2.603  0.3700  0.3674  0.1969
 3815SOL    HW123078   0.882   1.985   2.551  0.1159 -0.1925  0.1604
 3815SOL    HW223079   0.997   1.909   2.528 -1.6688  0.9125 -1.2671
 3816SOL     OW23080   0.560   0.365   5.767 -0.0313  0.0352 -0.4451
 3816SOL    HW123081   0.644   0.324   5.789 -0.6020  0.3396  2.3394
 3816SOL    HW223082   0.559   0.372   5.671  1.8969  0.9483 -0.4013
 3817SOL     OW23083   4.283   4.090  14.593 -0.1494 -0.0231 -0.7331
 3817SOL    HW123084   4.188   4.085  14.591 -0.1840 -0.2898  1.3480
 3817SOL    HW223085   4.307   4.087  14.686  1.9889  4.4500 -1.0992
 3818SOL     OW23086   2.464   3.860   4.254  0.0903  0.5669  0.5528
 3818SOL    HW123087   2.413   3.938   4.273 -1.4975  0.0771 -1.6775
 3818SOL    HW223088   2.550   3.897   4.272  0.6201  0.1458 -1.1180
 3819SOL     OW23089   4.456   2.815   7.330 -0.3937  0.2368  0.3012
 3819SOL    HW123090   4.402   2.738   7.310 -0.3290 -0.1421  1.5716
 3819SOL    HW223091   4.526   2.800   7.266 -3.8776 -2.6724 -2.8181
 3820SOL     OW23092   2.821   1.900   6.852 -0.0815 -0.0645  0.4613
 3820SOL    HW123093   2.856   1.885   6.940 -1.3400 -1.7981  0.6738
 3820SOL    HW223094   2.898   1.921   6.798  2.2458 -0.0579  3.7672
 3821SOL     OW23095   3.538   3.774   1.530 -0.6136 -0.3153 -0.4297
 3821SOL    HW123096   3.523   3.817   1.446  0.6333  0.9612  0.0118
 3821SOL    HW223097   3.600   3.707   1.501  0.8878  0.3427  1.2291
 3822SOL     OW23098   4.716   2.917  12.026 -0.1662  0.3855  0.4155
 3822SOL    HW123099   4.695   2.886  12.114  0.2262 -1.5837 -0.1944
 3822SOL    HW223100   0.062   2.965  12.049  1.0421 -1.7628  0.6923
 3823SOL     OW23101   2.706   3.442   7.666  0.1477  0.4361  0.6184
 3823SOL    HW123102   2.728   3.418   7.756 -2.4946 -1.1597  0.8157
 3823SOL    HW223103   2.643   3.513   7.679 -0.9346 -0.5486  0.7596
 3824SOL     OW23104   0.777   1.946  10.381 -0.0754 -0.0579  0.1282
 3824SOL    HW123105   0.824   1.991  10.452 -0.5289 -0.5946  0.7698
 3824SOL    HW223106   0.826   1.865  10.363 -0.0564  0.3025 -1.3781
 3825SOL     OW23107   2.418   1.032   0.301 -0.2054 -0.2227  0.3542
 3825SOL    HW123108   2.450   1.033   0.211  0.8629  1.3144  0.7361
 3825SOL    HW223109   2.343   1.090   0.289 -1.2389 -1.2140  2.0306
 3826SOL     OW23110   4.187   0.397   7.896  0.8479  0.0714 -0.0677
 3826SOL    HW123111   4.112   0.342   7.919  1.4544 -1.8674 -2.5887
 3826SOL    HW223112   4.178   0.407   7.801 -0.7289  2.8501  0.3862
 3827SOL     OW23113   4.378   1.204   2.124 -0.3779 -0.0804  0.4038
 3827SOL    HW123114   4.292   1.161   2.129 -1.3787  1.6022 -2.1659
 3827SOL    HW223115   4.350   1.295   2.124  1.0198  0.3435 -1.7301
 3828SOL     OW23116   3.100   2.640  11.031  0.7518 -0.7729  0.4263
 3828SOL    HW123117   3.045   2.713  11.002  0.5839 -1.2520 -0.4790
 3828SOL    HW223118   3.168   2.683  11.082 -0.3014  1.6429 -0.2214
 3829SOL     OW23119   0.870   1.932   5.872  0.3350 -0.4739  0.4157
 3829SOL    HW123120   0.802   1.866   5.857 -0.0811 -0.1503  0.8982
 3829SOL    HW223121   0.918   1.888   5.942  1.4644 -2.0806 -1.3593
 3830SOL     OW23122   3.710   1.553   0.426  0.4014 -0.0336  0.1944
 3830SOL    HW123123   3.661   1.490   0.373 -0.3326  0.1301  0.6776
 3830SOL    HW223124   3.800   1.528   0.407 -0.6791 -2.2806 -1.9122
 3831SOL     OW23125   2.974   3.063   6.774  0.4970 -0.4812 -0.6306
 3831SOL    HW123126   2.941   3.040   6.861  0.2116 -0.5725 -0.7633
 3831SOL    HW223127   2.912   3.014   6.719  4.0101 -3.2304 -2.1660
 3832SOL     OW23128   4.473   1.155   4.704 -0.0446 -0.1593 -0.4962
 3832SOL    HW123129   4.382   1.127   4.718 -0.1809 -0.0276 -1.1341
 3832SOL    HW223130   4.518   1.102   4.770  0.7390  1.2688  0.1343
 3833SOL     OW23131   2.772   3.796   7.209 -0.0084 -0.1208 -0.1077
 3833SOL    HW123132   2.801   3.727   7.269 -1.9499  0.6538  1.7140
 3833SOL    HW223133   2.681   3.808   7.234  0.0735  2.1118 -0.8158
 3834SOL     OW23134   4.383   0.600  12.352 -0.3855  0.0062 -0.0552
 3834SOL    HW123135   4.313   0.535  12.362 -0.0935 -0.0328  1.8415
 3834SOL    HW223136   4.366   0.631  12.263 -1.7581  1.1624  0.5978
 3835SOL     OW23137   4.308   1.682  13.472  0.5888  0.3443 -0.3503
 3835SOL    HW123138   4.366   1.606  13.478  0.1014  0.0130  0.0687
 3835SOL    HW223139   4.381   1.744  13.473  0.7376  0.1488  0.7907
 3836SOL     OW23140   3.844   2.863  12.542  0.0480 -0.4958  0.0300
 3836SOL    HW123141   3.809   2.952  12.537 -2.9562 -1.5975  1.2719
 3836SOL    HW223142   3.865   2.836  12.453 -2.8029 -0.7819 -0.5511
 3837SOL     OW23143   2.295   1.017   4.263 -0.3914 -0.2347 -0.3633
 3837SOL    HW123144   2.390   1.020   4.251 -0.1949 -1.9012  0.9288
 3837SOL    HW223145   2.289   0.940   4.319 -1.1363  1.3246  1.6989
 3838SOL     OW23146   4.428   4.229  15.454 -0.3734  0.2403  0.0901
 3838SOL    HW123147   4.394   4.287  15.522 -1.6997 -0.8067  0.3173
 3838SOL    HW223148   4.412   4.287  15.380  2.8081 -0.4835 -1.1926
 3839SOL     OW23149   1.335   3.306   3.384  0.3574  0.3083 -0.4419
 3839SOL    HW123150   1.421   3.305   3.342 -0.0475  1.7220 -1.3061
 3839SOL    HW223151   1.314   3.213   3.376 -1.7676  0.6298  1.3365
 3840SOL     OW23152   2.030   1.502   6.803 -0.0666  0.1342 -0.4325
 3840SOL    HW123153   2.073   1.491   6.888  0.5777  2.6736 -0.4328
 3840SOL    HW223154   1.939   1.478   6.820  0.1499  0.0590  0.6379
 3841SOL     OW23155   4.568   1.923  14.269  0.0519  0.1354  0.2892
 3841SOL    HW123156   4.639   1.978  14.301  2.8707 -3.1154 -0.3163
 3841SOL    HW223157   4.497   1.987  14.264 -0.2548 -0.1446  1.1224
 3842SOL     OW23158   3.706   1.136  12.611  0.0928 -0.1520  0.0706
 3842SOL    HW123159   3.736   1.061  12.559 -1.7738 -0.8690  0.0451
 3842SOL    HW223160   3.763   1.210  12.589  2.6525 -1.8126  1.0634
 3843SOL     OW23161   4.075   3.967   5.736 -0.1480 -0.0985 -0.4726
 3843SOL    HW123162   4.052   3.946   5.826  1.4885  3.0207  0.6821
 3843SOL    HW223163   4.135   3.894   5.724  0.3598  0.2757 -0.2330
 3844SOL     OW23164   1.373   3.442  16.494 -0.5598  0.1715  0.0420
 3844SOL    HW123165   1.389   3.422  16.401 -0.1162 -0.9830  0.3691
 3844SOL    HW223166   1.376   3.357  16.537  0.6583  0.5638  0.7311
 3845SOL     OW23167   0.468   2.275   8.078 -0.4305  0.0263  0.2259
 3845SOL    HW123168   0.410   2.316   8.014  1.6997  1.3288 -0.9030
 3845SOL    HW223169   0.486   2.193   8.032  0.6926  0.5134 -0.2166
 3846SOL     OW23170   1.583   4.546   1.254  0.3156 -0.4990  0.1601
 3846SOL    HW123171   1.572   4.560   1.160  1.4330 -1.1328 -0.0685
 3846SOL    HW223172   1.592   4.638   1.280  0.1139 -0.3888 -0.1633
 3847SOL     OW23173   1.721   2.161   4.467 -0.0880 -0.2840  0.1985
 3847SOL    HW123174   1.644   2.105   4.464  0.4244 -1.0237  1.0120
 3847SOL    HW223175   1.767   2.139   4.386 -1.1903 -0.8946 -0.2615
 3848SOL     OW23176   1.429   0.356   4.361  0.5405 -0.2846  0.4740
 3848SOL    HW123177   1.392   0.335   4.275 -0.2682 -0.9805  0.9910
 3848SOL    HW223178   1.511   0.307   4.364  0.3746 -0.6988 -1.4392
 3849SOL     OW23179   2.035   3.545  10.715  0.2500 -0.1942  0.8832
 3849SOL    HW123180   2.087   3.501  10.782 -3.1516 -2.5642  1.9294
 3849SOL    HW223181   2.099   3.581  10.653  0.9821 -0.8679  1.2453
 3850SOL     OW23182   4.123   2.269   7.783  0.7434  0.0414  0.2263
 3850SOL    HW123183   4.147   2.274   7.691  0.4116  2.2208  0.2585
 3850SOL    HW223184   4.098   2.176   7.784  0.9577 -0.0196 -0.3217
 3851SOL     OW23185   4.013   1.016   4.714  0.3475 -0.2572  0.0673
 3851SOL    HW123186   4.076   0.965   4.766  0.9112 -0.2147 -0.5766
 3851SOL    HW223187   3.932   1.012   4.764  0.0490 -0.6314 -0.4436
 3852SOL     OW23188   0.731   3.773  11.631 -0.4115 -0.3627  0.0133
 3852SOL    HW123189   0.676   3.832  11.683  0.2859  0.3827 -0.0987
 3852SOL    HW223190   0.683   3.690  11.640 -0.1677 -0.4096  0.8956
 3853SOL     OW23191   2.410   0.272   6.443 -0.3534 -0.1542 -0.0912
 3853SOL    HW123192   2.399   0.195   6.387  0.6589 -0.9672  0.8247
 3853SOL    HW223193   2.506   0.276   6.440 -0.3727  0.3313 -0.1488
 3854SOL     OW23194   1.620   3.999   2.784  0.3542 -0.2239 -0.1183
 3854SOL    HW123195   1.642   4.090   2.808 -1.1201  0.0161  0.2853
 3854SOL    HW223196   1.640   4.013   2.691 -0.4368  1.1475 -0.0857
 3855SOL     OW23197   2.356   4.120  17.069  0.1530 -0.5631  0.0613
 3855SOL    HW123198   2.408   4.079  17.000  0.3436 -0.1094 -0.0706
 3855SOL    HW223199   2.326   4.201  17.027  0.1067 -1.4534 -1.6357
 3856SOL     OW23200   2.075   3.284  11.160 -0.0402 -0.1882 -0.2054
 3856SOL    HW123201   2.024   3.204  11.148  0.8246 -0.9778  1.5013
 3856SOL    HW223202   2.043   3.319  11.243 -1.6854  0.1929 -0.9899
 3857SOL     OW23203   3.635   3.982   5.517  0.5113  0.0778 -0.7862
 3857SOL    HW123204   3.666   3.953   5.603 -3.5162  1.8108  1.2822
 3857SOL    HW223205   3.708   3.942   5.472  1.2406 -1.1105  1.4287
 3858SOL     OW23206   3.966   0.275  13.534 -0.1014  0.5520  0.1401
 3858SOL    HW123207   3.941   0.354  13.486  0.6055  0.8830  0.3158
 3858SOL    HW223208   3.899   0.268  13.602  0.9627 -1.6526  0.9495
 3859SOL     OW23209   0.521   3.840  14.928 -0.0502 -0.2214  0.1846
 3859SOL    HW123210   0.583   3.837  15.001 -0.6718 -1.3272  0.6693
 3859SOL    HW223211   0.499   3.933  14.934 -2.9896 -1.0242  1.7720
 3860SOL     OW23212   3.772   3.336   6.086 -0.1500  0.0432  0.2331
 3860SOL    HW123213   3.720   3.260   6.112  0.1398 -0.0960  0.3926
 3860SOL    HW223214   3.831   3.359   6.157  0.4905 -0.4629 -0.1380
 3861SOL     OW23215   0.342   1.706  14.581  0.3479  0.1426 -0.3429
 3861SOL    HW123216   0.256   1.682  14.547  0.7508  2.1463 -2.8344
 3861SOL    HW223217   0.391   1.674  14.506  0.5328  2.9463 -1.4283
 3862SOL     OW23218   4.630   1.364   6.797  0.2360  0.0154 -0.0386
 3862SOL    HW123219   4.713   1.317   6.790  0.4184  0.2095  0.8197
 3862SOL    HW223220   4.655   1.450   6.830 -0.6173  0.0083  0.6128
 3863SOL     OW23221   1.386   2.973  12.052 -0.3619  0.0223  0.1223
 3863SOL    HW123222   1.339   3.006  11.975 -1.5675  1.4360  1.4798
 3863SOL    HW223223   1.437   3.049  12.080 -0.8779  1.1547 -2.0189
 3864SOL     OW23224   1.645   3.536   6.718 -0.4266  0.3234 -0.6962
 3864SOL    HW123225   1.654   3.565   6.809  0.6903  0.6258 -0.9136
 3864SOL    HW223226   1.662   3.616   6.670  1.1985  1.0795  1.1501
 3865SOL     OW23227   4.371   1.326   5.252 -0.1825 -0.2175  0.2547
 3865SOL    HW123228   4.365   1.264   5.179  1.4245  0.3374 -0.3320
 3865SOL    HW223229   4.456   1.368   5.251 -0.1813 -0.1300  2.9442
 3866SOL     OW23230   3.364   3.835   0.048  0.0772 -0.0179  0.5270
 3866SOL    HW123231   3.410   3.910   0.009 -1.0819  1.2857  1.6753
 3866SOL    HW223232   3.379   3.767  17.717  0.3840  0.0196  0.5557
 3867SOL     OW23233   3.482   3.021  15.496 -0.2336  0.5750  0.4009
 3867SOL    HW123234   3.421   3.088  15.465  0.7309  1.6212  0.7602
 3867SOL    HW223235   3.426   2.954  15.534 -0.9630  0.4900 -0.8419
 3868SOL     OW23236   2.620   2.280   8.956 -0.4585  0.1939  0.5425
 3868SOL    HW123237   2.666   2.300   9.037 -0.0428  1.3902  0.0133
 3868SOL    HW223238   2.700   2.284   8.904 -0.7385  0.8507  0.1672
 3869SOL     OW23239   0.012   0.016  12.985  0.1563 -0.1790 -0.1176
 3869SOL    HW123240   4.707   0.092  12.942  1.1906  0.5996  0.3201
 3869SOL    HW223241   4.718   4.676  12.932  1.0359 -0.0808 -0.7129
 3870SOL     OW23242   0.222   0.844   3.250 -0.2932 -0.3830  0.1292
 3870SOL    HW123243   0.260   0.894   3.177  0.5182 -1.9502 -0.5246
 3870SOL    HW223244   0.184   0.916   3.300  0.3893 -0.6062  0.9574
 3871SOL     OW23245   2.551   3.866   8.814  0.2520  0.4624  0.3008
 3871SOL    HW123246   2.570   3.785   8.766  0.6087  1.5298 -1.3559
 3871SOL    HW223247   2.458   3.861   8.836  0.2385 -1.1765 -0.0697
 3872SOL     OW23248   3.602   2.552   5.255  0.0554 -0.1852  0.0568
 3872SOL    HW123249   3.597   2.460   5.281  1.1200 -0.7757 -1.8755
 3872SOL    HW223250   3.578   2.596   5.337  0.3295 -1.1484  0.6456
 3873SOL     OW23251   4.602   3.673   0.965 -0.0694 -0.1036 -0.0500
 3873SOL    HW123252   4.534   3.720   0.915 -1.5779 -1.2964  0.8907
 3873SOL    HW223253   4.546   3.610   1.011  0.0238  0.3058  0.6205
 3874SOL     OW23254   4.190   3.074   4.015  0.0087 -0.6871 -0.5286
 3874SOL    HW123255   4.182   2.990   3.969  0.9235 -2.0682  1.7798
 3874SOL    HW223256   4.105   3.078   4.058  0.7706 -3.0776  1.2297
 3875SOL     OW23257   0.253   0.552  11.735  0.1405  0.0762  0.2101
 3875SOL    HW123258   0.229   0.597  11.816 -0.2525 -2.1386  1.3256
 3875SOL    HW223259   0.346   0.575  11.737  0.6926 -2.2898  1.3802
 3876SOL     OW23260   1.657   0.596   8.012  0.0267 -0.5304  0.2306
 3876SOL    HW123261   1.658   0.688   7.985 -2.6463 -0.6939 -0.3398
 3876SOL    HW223262   1.666   0.548   7.930 -0.6938 -1.4674  0.7072
 3877SOL     OW23263   1.815   1.049   3.279  0.3614 -0.1080 -0.6210
 3877SOL    HW123264   1.769   1.038   3.362 -2.8725 -1.3547 -2.5447
 3877SOL    HW223265   1.865   0.967   3.272  0.7921  0.1411 -0.4516
 3878SOL     OW23266   2.605   3.665  15.402  0.4898  0.2151  0.0199
 3878SOL    HW123267   2.664   3.738  15.420  1.3836 -0.2680 -1.0015
 3878SOL    HW223268   2.596   3.670  15.307 -0.3488  0.2891  0.0980
 3879SOL     OW23269   2.770   1.349   4.610  0.8022 -0.1083 -0.1902
 3879SOL    HW123270   2.779   1.439   4.579 -1.5319  0.7064  1.4767
 3879SOL    HW223271   2.684   1.324   4.579  1.0189  0.1340 -0.9817
 3880SOL     OW23272   1.818   2.825  11.811  0.7913 -0.2915 -0.0153
 3880SOL    HW123273   1.740   2.816  11.866  0.7122  1.9179  0.2227
 3880SOL    HW223274   1.856   2.910  11.836  3.0430 -1.5240  0.7909
 3881SOL     OW23275   1.334   0.533  14.014  0.5685  0.1629 -0.2934
 3881SOL    HW123276   1.414   0.480  14.017  1.3374  1.2926 -0.7604
 3881SOL    HW223277   1.270   0.462  14.007  0.8764 -0.4740  3.0076
 3882SOL     OW23278   1.090   2.338   2.643  0.8983  0.2784  0.0788
 3882SOL    HW123279   1.090   2.262   2.701  4.2694 -0.7563 -1.2940
 3882SOL    HW223280   1.096   2.289   2.561  0.7686  0.9980 -0.3649
 3883SOL     OW23281   3.643   3.751   4.318 -0.1915  0.0072 -0.1393
 3883SOL    HW123282   3.620   3.806   4.393  2.0162 -1.0743  1.3077
 3883SOL    HW223283   3.628   3.815   4.248 -2.9842  1.0720  1.4212
 3884SOL     OW23284   3.284   3.558   2.019  0.1897  0.4648  0.2464
 3884SOL    HW123285   3.190   3.558   2.035  0.2586 -0.7316  0.6737
 3884SOL    HW223286   3.318   3.472   2.046  0.4859  0.2579 -0.7782
 3885SOL     OW23287   1.487   1.388   1.804  0.7560  0.2682 -0.1102
 3885SOL    HW123288   1.456   1.388   1.894  0.5528  1.6298 -0.1675
 3885SOL    HW223289   1.409   1.370   1.752  1.6091 -2.1781 -0.5339
 3886SOL     OW23290   0.134   3.862  16.914 -0.3412 -0.1251  0.1549
 3886SOL    HW123291   0.140   3.893  17.004 -0.8288 -0.5097  0.3181
 3886SOL    HW223292   0.225   3.870  16.883 -0.5610  1.9775  0.0574
 3887SOL     OW23293   4.520   1.669   8.732 -0.2305 -0.2164  0.2730
 3887SOL    HW123294   4.534   1.730   8.805 -1.6826  0.8901 -0.3878
 3887SOL    HW223295   4.430   1.682   8.703 -0.2962 -0.9440  0.1376
 3888SOL     OW23296   3.559   0.763   5.291 -0.5966 -0.2938  0.7080
 3888SOL    HW123297   3.467   0.780   5.307 -0.7430  0.1198 -0.5864
 3888SOL    HW223298   3.574   0.673   5.321 -0.4871 -0.0503  1.3862
 3889SOL     OW23299   1.774   3.073  14.297  0.5298 -0.7897 -0.0626
 3889SOL    HW123300   1.836   3.076  14.370 -0.7762  0.9474  0.9834
 3889SOL    HW223301   1.742   3.162  14.286 -1.4245 -1.8436 -3.0235
 3890SOL     OW23302   1.707   2.766   8.669  0.4649  0.2815 -0.2679
 3890SOL    HW123303   1.656   2.827   8.722  0.1944  0.2800 -0.5281
 3890SOL    HW223304   1.677   2.790   8.581 -1.1571  0.7465  0.4092
 3891SOL     OW23305   3.862   4.367   5.510 -0.2929  0.2258 -0.0130
 3891SOL    HW123306   3.858   4.461   5.493  0.7738  0.2009 -0.3869
 3891SOL    HW223307   3.826   4.360   5.598 -3.0457 -1.7031 -1.2911
 3892SOL     OW23308   4.709   0.221   5.333 -0.3170 -0.5088 -0.0720
 3892SOL    HW123309   4.660   0.139   5.338 -0.4491 -0.3992  0.5160
 3892SOL    HW223310   0.037   0.195   5.402  0.0008 -1.4710 -0.7146
 3893SOL     OW23311   4.601   2.642   1.675 -0.0178  0.3398  0.3789
 3893SOL    HW123312   4.511   2.656   1.643  0.1909 -0.2359 -0.4373
 3893SOL    HW223313   4.599   2.559   1.722 -1.3008  0.4448  0.5160
 3894SOL     OW23314   3.165   0.160  16.097  0.2725  0.0628 -0.4735
 3894SOL    HW123315   3.129   0.072  16.085 -0.9221  0.2775  1.5196
 3894SOL    HW223316   3.247   0.141  16.141 -0.5774 -0.4934  0.8719
 3895SOL     OW23317   2.018   1.141   6.200 -0.0302 -0.2776 -0.1298
 3895SOL    HW123318   2.034   1.143   6.295 -0.4728  0.7588 -0.0742
 3895SOL    HW223319   2.099   1.185   6.176  0.8075 -1.4254  0.5898
 3896SOL     OW23320   0.897   0.621   2.343 -0.0049  0.4275  0.0562
 3896SOL    HW123321   0.940   0.608   2.258  2.2100  1.4133  1.0090
 3896SOL    HW223322   0.808   0.639   2.313 -0.6579 -3.0283 -0.0235
 3897SOL     OW23323   2.861   2.679   7.198  0.1770  0.6974 -0.3617
 3897SOL    HW123324   2.877   2.752   7.258  2.4775 -2.1373  2.4639
 3897SOL    HW223325   2.782   2.641   7.237  1.1342 -1.0510 -0.1141
 3898SOL     OW23326   2.363   0.119   0.885  0.1127 -0.4687  0.1283
 3898SOL    HW123327   2.293   0.084   0.831  0.3398  0.3171 -0.6719
 3898SOL    HW223328   2.307   0.178   0.936  1.5465  1.7325 -0.8114
 3899SOL     OW23329   3.090   0.684   3.194 -0.0412  0.7285 -0.5266
 3899SOL    HW123330   3.150   0.677   3.268  0.1447  3.5872 -0.4448
 3899SOL    HW223331   3.065   0.592   3.179 -0.8358  0.9081 -0.3230
 3900SOL     OW23332   2.697   1.664   3.591  0.6221 -0.1492  0.0533
 3900SOL    HW123333   2.630   1.596   3.584  0.5100  0.2647 -2.8153
 3900SOL    HW223334   2.738   1.648   3.676  1.9006 -0.2483 -0.5695
 3901SOL     OW23335   1.390   2.489   4.146 -0.5564 -0.1990 -0.7336
 3901SOL    HW123336   1.457   2.500   4.214 -1.3863  0.3479 -0.0153
 3901SOL    HW223337   1.402   2.571   4.097  0.7656  1.0744  1.7374
 3902SOL     OW23338   0.637   0.846   6.543 -0.2712  0.2486  0.4586
 3902SOL    HW123339   0.546   0.863   6.566 -1.5214 -4.4435 -0.9233
 3902SOL    HW223340   0.663   0.775   6.601 -0.2827 -0.5250 -0.4745
 3903SOL     OW23341   1.610   1.249   1.227 -0.3994  0.2761  0.4181
 3903SOL    HW123342   1.574   1.213   1.309 -0.9191 -2.3172 -0.9496
 3903SOL    HW223343   1.637   1.336   1.256 -0.7351  0.7527 -0.7045
 3904SOL     OW23344   1.189   1.919   7.917  0.5759 -0.0098 -0.5987
 3904SOL    HW123345   1.232   1.938   7.833 -0.8773  1.3757 -1.0508
 3904SOL    HW223346   1.265   1.918   7.974  0.8160 -1.1711 -0.9484
 3905SOL     OW23347   0.911   0.972  17.722 -0.2223  0.3131 -0.3706
 3905SOL    HW123348   0.838   1.017  17.679 -0.3154  0.2008 -0.3302
 3905SOL    HW223349   0.908   1.007   0.075  0.7831  2.4067 -1.1618
 3906SOL     OW23350   0.342   1.852   7.835  0.1052 -0.2688  0.2940
 3906SOL    HW123351   0.434   1.857   7.809 -0.1068 -1.9298 -0.7468
 3906SOL    HW223352   0.335   1.914   7.907  0.3083 -0.0779  0.1510
 3907SOL     OW23353   4.315   0.334   4.998  0.2131  0.2372  0.1623
 3907SOL    HW123354   4.335   0.421   4.965 -0.0775  0.4540  0.5563
 3907SOL    HW223355   4.243   0.304   4.943 -0.2657  0.3729  0.7118
 3908SOL     OW23356   0.897   3.093  15.090 -0.3972 -0.5812  0.0664
 3908SOL    HW123357   0.931   3.161  15.148 -0.6774 -1.0049  0.7231
 3908SOL    HW223358   0.945   3.016  15.119 -0.8120 -0.4142  1.1884
 3909SOL     OW23359   2.755   0.695  12.123 -0.2221  0.4487  0.3371
 3909SOL    HW123360   2.837   0.728  12.088 -2.3809  1.7542 -3.4648
 3909SOL    HW223361   2.700   0.771  12.102  0.3286  0.3141 -1.5480
 3910SOL     OW23362   1.254   1.105   1.094 -0.4527 -0.6021 -0.0640
 3910SOL    HW123363   1.172   1.145   1.125 -0.4502  0.1084 -0.9799
 3910SOL    HW223364   1.307   1.183   1.080  1.2710 -1.7161  0.3328
 3911SOL     OW23365   3.705   3.940   8.353  0.4166 -0.0762 -0.2161
 3911SOL    HW123366   3.791   3.930   8.395 -0.5624 -0.5269  1.6808
 3911SOL    HW223367   3.722   3.892   8.272  1.0835 -0.3610  0.0850
 3912SOL     OW23368   3.429   2.621  17.594  0.8039 -0.1391  0.0501
 3912SOL    HW123369   3.401   2.583  17.677  1.0402  1.9599  1.0601
 3912SOL    HW223370   3.426   2.714  17.612 -1.9922  0.0251 -1.1123
 3913SOL     OW23371   0.909   0.156   9.533 -0.6006 -0.3717  0.1766
 3913SOL    HW123372   0.823   0.159   9.491 -0.8118  0.9745  0.6986
 3913SOL    HW223373   0.919   0.249   9.557 -0.1502 -0.8743  1.9109
 3914SOL     OW23374   1.677   3.431   9.131 -0.2374 -0.0477 -0.8336
 3914SOL    HW123375   1.612   3.426   9.201  0.9026 -0.9708  0.1703
 3914SOL    HW223376   1.748   3.470   9.183 -0.8571  0.2312 -0.2002
 3915SOL     OW23377   4.445   4.185   8.574 -0.2156 -0.2830  0.5282
 3915SOL    HW123378   4.405   4.270   8.589  0.8385  0.3912 -0.4683
 3915SOL    HW223379   4.398   4.158   8.495 -1.0276  1.3378  0.4637
 3916SOL     OW23380   0.683   1.335   3.553  0.7240 -0.5078 -0.3135
 3916SOL    HW123381   0.685   1.351   3.647  2.3134 -1.5632 -0.1572
 3916SOL    HW223382   0.594   1.304   3.542  0.5823 -0.6199  1.2322
 3917SOL     OW23383   0.635   4.199  10.177 -0.2536  0.1551  0.0716
 3917SOL    HW123384   0.588   4.282  10.182  0.0897  0.2541  1.5409
 3917SOL    HW223385   0.714   4.227  10.132 -0.2224  0.5253  0.3637
 3918SOL     OW23386   2.999   1.919   7.775  0.1398  0.2992 -0.3945
 3918SOL    HW123387   2.965   1.834   7.803  0.3624  0.9912  2.0372
 3918SOL    HW223388   2.931   1.941   7.712 -0.5402 -0.4216  0.0951
 3919SOL     OW23389   4.430   0.515   4.808  0.2311  0.7721  0.3359
 3919SOL    HW123390   4.479   0.563   4.740  1.6894  0.9228  1.4853
 3919SOL    HW223391   4.367   0.468   4.753  0.3052  0.5745  0.4208
 3920SOL     OW23392   3.673   3.130  12.621  0.6198 -0.1930 -0.1429
 3920SOL    HW123393   3.652   3.040  12.595  2.2194 -0.7873  0.6458
 3920SOL    HW223394   3.637   3.124  12.710  0.2775 -0.8919 -0.3306
 3921SOL     OW23395   1.295   1.950   2.980  0.2059 -0.1180  0.3087
 3921SOL    HW123396   1.235   1.902   2.922 -2.0538  0.4322  2.1918
 3921SOL    HW223397   1.372   1.955   2.923  0.0253 -0.9459 -0.0133
 3922SOL     OW23398   4.507   2.465   5.058 -0.6543  0.2057  0.2943
 3922SOL    HW123399   4.459   2.514   5.125  1.8251  2.5246  0.3803
 3922SOL    HW223400   4.533   2.537   5.002 -0.4021 -0.9430 -1.0627
 3923SOL     OW23401   3.675   0.299   3.951  0.0469  0.3697 -0.3343
 3923SOL    HW123402   3.618   0.222   3.950  2.3587 -1.3462 -0.1171
 3923SOL    HW223403   3.703   0.284   3.861  0.2348  1.7385 -0.4996
 3924SOL     OW23404   4.184   2.894  16.949 -0.2870  0.6303  0.0022
 3924SOL    HW123405   4.205   2.961  16.885  2.2660  0.5834  0.7881
 3924SOL    HW223406   4.203   2.809  16.909 -0.1373  1.0980 -0.9137
 3925SOL     OW23407   3.182   1.564   2.231  0.0917 -0.5280  0.0499
 3925SOL    HW123408   3.269   1.535   2.207  0.9520  0.1634  2.2540
 3925SOL    HW223409   3.134   1.527   2.157  2.5801 -0.2530 -1.7068
 3926SOL     OW23410   0.115   0.596   9.697  0.0627 -0.5277  0.1625
 3926SOL    HW123411   0.140   0.671   9.752  2.1249 -1.2851  0.2732
 3926SOL    HW223412   0.179   0.598   9.626  1.5983 -0.3382  1.5522
 3927SOL     OW23413   2.346   0.764   4.755 -0.0291  0.5615  0.1008
 3927SOL    HW123414   2.347   0.670   4.772 -1.2010  0.2056 -1.7207
 3927SOL    HW223415   2.292   0.793   4.829 -0.1087  2.0056 -0.5137
 3928SOL     OW23416   1.180   2.595   4.803  0.4304  0.6223 -0.0554
 3928SOL    HW123417   1.180   2.563   4.713 -0.3943 -0.5425  0.3560
 3928SOL    HW223418   1.224   2.680   4.802  1.3992  0.1165 -0.7312
 3929SOL     OW23419   4.483   3.505   6.451 -0.2195  0.2200 -0.2256
 3929SOL    HW123420   4.464   3.473   6.539  1.9598 -2.5558 -0.7672
 3929SOL    HW223421   4.578   3.515   6.456 -0.4247  1.6072  1.1671
 3930SOL     OW23422   4.003   0.311   5.870 -0.1569 -0.0761  0.1493
 3930SOL    HW123423   4.075   0.307   5.808  0.0637  0.0953  0.3913
 3930SOL    HW223424   4.023   0.235   5.924  3.6111 -0.1006 -1.3205
 3931SOL     OW23425   0.933   4.256   5.773 -0.3024  0.1476  0.4033
 3931SOL    HW123426   0.936   4.162   5.755  2.7745  0.2645  0.4308
 3931SOL    HW223427   0.920   4.257   5.868 -0.8728 -0.3128  0.3326
 3932SOL     OW23428   4.281   0.599   5.482 -0.1752 -0.1749 -0.5429
 3932SOL    HW123429   4.239   0.556   5.556  0.1436  0.2153 -0.1388
 3932SOL    HW223430   4.342   0.536   5.444  0.0614 -0.8753  1.0179
 3933SOL     OW23431   3.977   1.580   5.067  0.7490  0.1061 -0.4838
 3933SOL    HW123432   3.952   1.546   4.982 -0.9901  0.9167 -0.2917
 3933SOL    HW223433   4.001   1.500   5.114  0.3349 -0.2041 -0.8053
 3934SOL     OW23434   0.894   2.322   7.856 -0.2409 -0.2145  0.3999
 3934SOL    HW123435   0.843   2.358   7.928  0.9635  2.4975 -0.1229
 3934SOL    HW223436   0.983   2.352   7.871 -0.0015  0.1555 -1.7458
 3935SOL     OW23437   2.369   1.779  12.666 -0.1684  0.3088  0.1641
 3935SOL    HW123438   2.285   1.809  12.631 -0.2020 -0.2707 -0.2331
 3935SOL    HW223439   2.413   1.793  12.583  1.4898 -0.1091  0.9752
 3936SOL     OW23440   1.843   2.855   2.520 -0.2252  0.3190 -0.2917
 3936SOL    HW123441   1.768   2.797   2.506 -0.3435  0.6787 -1.1528
 3936SOL    HW223442   1.874   2.871   2.431  1.5959  1.7529  0.6041
 3937SOL     OW23443   3.212   0.433  10.652 -0.1313  0.1049 -0.1493
 3937SOL    HW123444   3.303   0.420  10.627 -0.4583 -0.9698 -0.8194
 3937SOL    HW223445   3.168   0.357  10.613  2.2223  1.0977 -4.7168
 3938SOL     OW23446   3.857   1.261   3.086 -0.1611  0.4000 -0.4151
 3938SOL    HW123447   3.804   1.323   3.036  0.0763  1.5004  0.6998
 3938SOL    HW223448   3.834   1.292   3.174  1.8720 -0.5567  0.4494
 3939SOL     OW23449   0.596   1.486  10.332 -0.1897  0.1880  0.5940
 3939SOL    HW123450   0.654   1.451  10.400 -0.5499 -1.3834  0.0914
 3939SOL    HW223451   0.537   1.411  10.336  0.7145 -0.6352 -1.3836
 3940SOL     OW23452   0.713   0.305   4.340  0.5643 -0.2272 -0.3947
 3940SOL    HW123453   0.648   0.242   4.309 -0.6326  0.9915 -0.3828
 3940SOL    HW223454   0.790   0.248   4.346  0.8777  0.3307  0.8966
 3941SOL     OW23455   3.036   3.637   2.360  0.3670 -0.1556  0.3075
 3941SOL    HW123456   3.017   3.614   2.269  1.4961 -0.9658  0.2759
 3941SOL    HW223457   3.131   3.631   2.360  0.4463  1.2128  0.3639
 3942SOL     OW23458   2.701   3.460  15.937 -0.4325  0.7108 -0.4543
 3942SOL    HW123459   2.712   3.473  15.843  0.4263 -1.7472 -0.6990
 3942SOL    HW223460   2.635   3.529  15.946 -0.6847  0.6759 -2.0323
 3943SOL     OW23461   1.132   2.060  16.481 -0.5015  0.2663  0.3558
 3943SOL    HW123462   1.134   2.138  16.537  2.5722  0.6628 -0.3391
 3943SOL    HW223463   1.078   2.095  16.410  0.5790 -1.3954 -1.2703
 3944SOL     OW23464   4.362   1.918  10.155 -0.4703  0.0722 -0.0520
 3944SOL    HW123465   4.281   1.867  10.159  0.1837 -0.8886  0.9839
 3944SOL    HW223466   4.423   1.851  10.123 -2.5834 -1.1884 -1.4051
 3945SOL     OW23467   3.750   2.466  15.120 -0.3672 -0.0326  0.0942
 3945SOL    HW123468   3.675   2.435  15.069  1.3067 -0.9953 -1.7672
 3945SOL    HW223469   3.724   2.440  15.208 -1.7658 -2.8065 -1.1060
 3946SOL     OW23470   1.245   0.291   5.140 -0.2619  0.3832 -0.5759
 3946SOL    HW123471   1.235   0.278   5.234  0.1496  0.7480 -0.4815
 3946SOL    HW223472   1.256   0.206   5.098  1.0920  0.0212  0.5413
 3947SOL     OW23473   3.833   4.407   7.467  0.0166  0.3713 -0.3380
 3947SOL    HW123474   3.889   4.453   7.405 -1.9452  2.1637 -0.7819
 3947SOL    HW223475   3.822   4.469   7.539 -0.9745 -0.3747  0.1583
 3948SOL     OW23476   4.397   3.605  17.072  0.6574  0.7984 -0.3637
 3948SOL    HW123477   4.364   3.523  17.108  0.1401  0.9456 -0.5136
 3948SOL    HW223478   4.493   3.600  17.065  0.6043 -1.3754  0.4921
 3949SOL     OW23479   2.238   0.828   2.497  0.3695 -0.0231  0.0692
 3949SOL    HW123480   2.320   0.874   2.477  0.7856 -0.8125 -0.0633
 3949SOL    HW223481   2.212   0.862   2.582  1.4180 -1.8889  1.1654
 3950SOL     OW23482   0.429   1.522   6.280  0.4326 -0.3222 -0.5817
 3950SOL    HW123483   0.352   1.520   6.223  0.0875  2.2154 -0.2192
 3950SOL    HW223484   0.392   1.525   6.368  1.7932 -0.4998 -0.0167
 3951SOL     OW23485   1.500   0.926   9.337  0.4350 -0.5237  0.4054
 3951SOL    HW123486   1.500   0.940   9.243  2.2286 -1.7146  0.2393
 3951SOL    HW223487   1.586   0.886   9.352  0.4813 -1.1536 -1.6171
 3952SOL     OW23488   0.455   2.384   9.585  0.0986 -0.1354 -0.4876
 3952SOL    HW123489   0.405   2.446   9.532  0.6308  0.7838  0.1027
 3952SOL    HW223490   0.524   2.356   9.524  0.3520  0.6670 -0.5684
 3953SOL     OW23491   4.110   1.488   0.233 -0.1788  0.2120  0.5631
 3953SOL    HW123492   4.161   1.453   0.160  2.1000  1.9182  1.3267
 3953SOL    HW223493   4.030   1.501   0.183 -0.4749 -0.7362  0.7915
 3954SOL     OW23494   0.113   1.321   0.601 -0.1642  0.2819 -0.3075
 3954SOL    HW123495   0.068   1.383   0.544  0.0234 -1.8668 -2.7555
 3954SOL    HW223496   0.165   1.274   0.536 -0.6259  0.1740 -0.5930
 3955SOL     OW23497   3.514   0.989   5.456  0.1424  0.6024  0.9147
 3955SOL    HW123498   3.608   0.984   5.438  0.2470 -4.1480  2.9239
 3955SOL    HW223499   3.499   0.904   5.498 -2.0086  1.6074  2.1780
 3956SOL     OW23500   2.420   1.239   9.040 -0.1705 -0.0736  0.1297
 3956SOL    HW123501   2.446   1.314   9.093  1.0156  0.1277 -0.7264
 3956SOL    HW223502   2.394   1.283   8.959  0.3177 -1.0109 -0.5466
 3957SOL     OW23503   2.804   0.852   6.091 -0.0819  0.2481 -0.2059
 3957SOL    HW123504   2.740   0.849   6.020 -0.0539 -1.2998 -0.1611
 3957SOL    HW223505   2.873   0.893   6.038  1.1021 -0.9092  0.4482
 3958SOL     OW23506   0.259   2.383   4.127  0.0193 -0.6648 -0.0805
 3958SOL    HW123507   0.171   2.347   4.123  0.3885 -1.7479  1.3649
 3958SOL    HW223508   0.299   2.347   4.207  0.1342  0.1520  0.2303
 3959SOL     OW23509   1.500   2.704   0.311  0.3245 -0.4084 -0.3585
 3959SOL    HW123510   1.445   2.736   0.383  0.2764  0.5224 -0.8100
 3959SOL    HW223511   1.502   2.613   0.341  0.1534 -0.9648 -2.0703
 3960SOL     OW23512   1.576   0.850   9.646  0.4041  0.2326 -0.2276
 3960SOL    HW123513   1.538   0.827   9.561 -1.8729  0.7206  0.6628
 3960SOL    HW223514   1.536   0.781   9.700  0.5638 -0.1089 -0.5460
 3961SOL     OW23515   0.682   1.778   0.102 -0.0330 -0.3015  0.2680
 3961SOL    HW123516   0.683   1.780   0.198 -0.2028 -0.7727  0.2795
 3961SOL    HW223517   0.775   1.762   0.088 -0.5767 -1.9742 -1.3669
 3962SOL     OW23518   0.559   3.846  17.694  0.3699 -0.2057 -0.8063
 3962SOL    HW123519   0.605   3.845   0.043  0.0278 -1.2686 -0.6315
 3962SOL    HW223520   0.546   3.935  17.662  1.1876  0.2708  0.1756
 3963SOL     OW23521   1.390   4.311   2.350  0.4996  0.0045  0.1207
 3963SOL    HW123522   1.404   4.403   2.373 -0.5963 -0.0048  0.8557
 3963SOL    HW223523   1.477   4.276   2.332 -0.8307 -1.7130 -2.8992
 3964SOL     OW23524   3.562   1.621   6.577 -0.0303 -0.1544  0.0352
 3964SOL    HW123525   3.609   1.704   6.578  1.9183 -1.2406 -1.2583
 3964SOL    HW223526   3.594   1.607   6.666 -0.7976 -0.3065  0.2859
 3965SOL     OW23527   3.821   2.143   8.727  0.2940  0.2215  0.9214
 3965SOL    HW123528   3.878   2.203   8.680  1.8492  0.0545  2.6224
 3965SOL    HW223529   3.757   2.112   8.662  3.7578 -0.9664 -1.9446
 3966SOL     OW23530   4.496   2.210   8.750  0.6951 -0.2631  0.5419
 3966SOL    HW123531   4.442   2.185   8.826  1.1895  0.3191  1.0872
 3966SOL    HW223532   4.553   2.275   8.791  0.5532  0.3233 -0.1870
 3967SOL     OW23533   1.015   2.165   3.950  0.0193 -0.3661 -0.0969
 3967SOL    HW123534   1.074   2.118   4.009 -0.7547 -0.3071  0.7262
 3967SOL    HW223535   1.019   2.255   3.982  0.4819 -1.2835  2.4049
 3968SOL     OW23536   4.198   2.952  15.648 -0.1232  0.3221  0.1579
 3968SOL    HW123537   4.162   3.040  15.639  1.3336  0.9140  0.0548
 3968SOL    HW223538   4.136   2.926  15.716  0.2519  0.5051  0.5671
 3969SOL     OW23539   1.721   0.560   3.748 -0.2174  0.3872  0.2923
 3969SOL    HW123540   1.698   0.648   3.778 -2.4933 -0.8081  2.0974
 3969SOL    HW223541   1.635   0.546   3.707 -0.2211 -1.4268  0.9239
 3970SOL     OW23542   1.357   0.314   0.449 -0.9797 -0.0537 -0.9875
 3970SOL    HW123543   1.284   0.287   0.505 -0.9175 -0.4635 -1.1032
 3970SOL    HW223544   1.380   0.396   0.492 -3.5217 -0.4820  1.1817
 3971SOL     OW23545   3.869   0.649   3.187  0.0314  1.0031 -0.1840
 3971SOL    HW123546   3.934   0.591   3.227  0.2498  0.8907 -0.7006
 3971SOL    HW223547   3.926   0.715   3.147  1.0468  0.4236  0.3033
 3972SOL     OW23548   3.939   2.926   8.437 -0.0465 -0.2397 -0.3127
 3972SOL    HW123549   3.915   2.847   8.390  0.2551 -1.1184  1.0156
 3972SOL    HW223550   3.914   2.995   8.375  0.4962  1.2246  1.0830
 3973SOL     OW23551   0.099   0.238  16.065 -0.0878 -0.1776 -0.4826
 3973SOL    HW123552   0.053   0.285  16.134  0.1874 -0.3802 -0.1627
 3973SOL    HW223553   0.190   0.270  16.068  0.0664 -0.7119  0.4414
 3974SOL     OW23554   0.600   3.519   6.667 -0.0514 -0.1087  0.1789
 3974SOL    HW123555   0.689   3.487   6.652  0.6987  2.3498 -0.6554
 3974SOL    HW223556   0.625   3.591   6.725 -0.4221 -0.6059  0.9535
 3975SOL     OW23557   1.561   0.845  14.828 -0.1193 -0.0854 -0.2638
 3975SOL    HW123558   1.572   0.836  14.923  1.6219 -2.3572 -0.6829
 3975SOL    HW223559   1.514   0.927  14.813  0.6275  0.5664  0.9192
 3976SOL     OW23560   0.451   4.161   7.531  0.3346 -0.2138 -0.3207
 3976SOL    HW123561   0.544   4.152   7.512  0.4953 -3.1276  1.7352
 3976SOL    HW223562   0.423   4.146   7.440  1.1371 -1.8415 -0.2995
 3977SOL     OW23563   0.380   1.694  13.840  0.6952 -0.8822 -0.9559
 3977SOL    HW123564   0.285   1.695  13.829  0.3205 -4.2951  2.1411
 3977SOL    HW223565   0.386   1.619  13.898  3.1848  0.1564  0.1262
 3978SOL     OW23566   0.423   2.101   5.325  0.4727 -0.5872  0.4390
 3978SOL    HW123567   0.379   2.170   5.275 -0.4798 -2.4572 -1.3118
 3978SOL    HW223568   0.502   2.155   5.334 -0.2021  0.6516 -0.8989
 3979SOL     OW23569   3.194   0.643   0.738 -0.2060 -0.0798 -0.0921
 3979SOL    HW123570   3.107   0.678   0.719 -0.4136 -0.3650  0.3412
 3979SOL    HW223571   3.241   0.713   0.784  0.5574 -0.4767 -0.2679
 3980SOL     OW23572   1.943   3.677   6.313 -1.1738 -0.0181 -0.4082
 3980SOL    HW123573   1.925   3.759   6.358  1.6863 -0.2362  1.1709
 3980SOL    HW223574   1.987   3.629   6.384 -0.9705 -2.2628 -2.0555
 3981SOL     OW23575   1.902   2.637   6.067  0.0149 -0.4520  0.8446
 3981SOL    HW123576   1.990   2.674   6.074 -0.6064  0.8354  1.9662
 3981SOL    HW223577   1.918   2.552   6.027  2.7242  1.4541 -2.1291
 3982SOL     OW23578   4.373   3.836   8.336 -0.0427 -0.2378 -0.1503
 3982SOL    HW123579   4.422   3.850   8.417  0.4411 -2.7266 -0.0276
 3982SOL    HW223580   4.352   3.927   8.316 -0.6016 -0.2913  0.2150
 3983SOL     OW23581   1.669   3.968  10.789 -0.4133  0.5090 -0.1412
 3983SOL    HW123582   1.663   4.039  10.853 -1.3560 -0.3915  0.7554
 3983SOL    HW223583   1.595   3.916  10.819  0.6381 -1.1724 -0.4310
 3984SOL     OW23584   0.914   0.893   5.059  0.0103 -0.2257 -0.3680
 3984SOL    HW123585   0.896   0.817   5.114 -0.1149  0.5285  0.6331
 3984SOL    HW223586   0.875   0.876   4.973 -0.6387 -0.5855 -0.0065
 3985SOL     OW23587   0.748   4.012   9.651  0.1313  0.3718  0.3052
 3985SOL    HW123588   0.806   3.936   9.650  1.6686  1.5395  2.3097
 3985SOL    HW223589   0.766   4.037   9.560 -0.8131  1.5131  0.4403
 3986SOL     OW23590   2.639   2.851   2.698 -0.1148  0.1868  0.5586
 3986SOL    HW123591   2.580   2.781   2.727  1.3091 -1.3935 -0.3976
 3986SOL    HW223592   2.592   2.902   2.633 -0.1950 -2.2487 -1.2793
 3987SOL     OW23593   4.052   2.437   6.769 -0.0887 -0.6955  0.1110
 3987SOL    HW123594   4.000   2.408   6.694 -1.1389 -0.7249  0.8522
 3987SOL    HW223595   4.011   2.379   6.833 -0.3472  0.9017  1.4039
 3988SOL     OW23596   2.120   3.863   4.659  0.2414  0.4244  0.3923
 3988SOL    HW123597   2.070   3.789   4.692 -0.1493 -0.9777 -3.3398
 3988SOL    HW223598   2.124   3.831   4.569 -0.1533  1.3953  0.0244
 3989SOL     OW23599   3.665   1.402  13.972 -0.0934  0.3768  0.1598
 3989SOL    HW123600   3.653   1.479  14.028  0.2148  0.0342  0.6899
 3989SOL    HW223601   3.578   1.363  13.983  0.0439  0.0118 -0.0568
 3990SOL     OW23602   2.299   0.984   7.907  0.0316 -0.0957  0.1329
 3990SOL    HW123603   2.382   1.010   7.867 -1.1660  2.0044 -0.9734
 3990SOL    HW223604   2.257   0.974   7.822 -0.5872 -1.4681  0.5928
 3991SOL     OW23605   3.352   4.452   3.437  0.0836  0.4542 -0.1869
 3991SOL    HW123606   3.414   4.405   3.382 -0.1976  0.5007 -0.5479
 3991SOL    HW223607   3.333   4.392   3.509  3.7513  2.6690  2.6003
 3992SOL     OW23608   0.756   0.388   9.074  0.3779 -0.2867  0.6136
 3992SOL    HW123609   0.785   0.454   9.011 -0.4439 -1.1451 -0.6532
 3992SOL    HW223610   0.843   0.366   9.107  1.1005  0.3071 -0.9038
 3993SOL     OW23611   3.355   0.346   5.358  0.5813 -0.1484 -0.3715
 3993SOL    HW123612   3.315   0.260   5.362  1.3102 -0.6123 -3.2184
 3993SOL    HW223613   3.311   0.385   5.282  1.1138  0.0501 -0.5811
 3994SOL     OW23614   1.152   4.521   4.284  0.1949 -0.5833 -0.1067
 3994SOL    HW123615   1.062   4.530   4.315  0.5583 -0.1214  0.7960
 3994SOL    HW223616   1.201   4.564   4.353  0.3450 -0.4175 -0.3167
 3995SOL     OW23617   1.656   4.217   2.262  0.3266 -0.5751  0.4380
 3995SOL    HW123618   1.740   4.223   2.307  0.6282  1.0796 -0.3224
 3995SOL    HW223619   1.650   4.298   2.211 -3.2642 -0.4259  1.0982
 3996SOL     OW23620   3.432   3.613   3.354  0.5728 -0.1531  0.1542
 3996SOL    HW123621   3.428   3.526   3.314  3.0442  0.2112 -0.8641
 3996SOL    HW223622   3.341   3.634   3.331  1.1021  2.4838  0.4865
 3997SOL     OW23623   1.557   3.701   6.334 -0.0242 -0.2146  0.0632
 3997SOL    HW123624   1.605   3.730   6.412 -1.0398  0.8069  0.3018
 3997SOL    HW223625   1.605   3.740   6.261 -2.6423  0.2849 -1.3762
 3998SOL     OW23626   3.123   1.822   2.527 -0.1892 -0.7146 -0.2952
 3998SOL    HW123627   3.108   1.728   2.537  0.7945 -1.2200 -3.4422
 3998SOL    HW223628   3.069   1.845   2.451 -1.0573 -0.8804  0.2722
 3999SOL     OW23629   2.673   3.137  17.143 -0.0298  0.6151 -0.3213
 3999SOL    HW123630   2.637   3.122  17.055 -2.0928 -0.8558  0.7812
 3999SOL    HW223631   2.742   3.191  17.105  0.0280 -0.7197 -2.1522
 4000SOL     OW23632   1.443   3.232   6.242 -0.2068 -0.0392  0.4632
 4000SOL    HW123633   1.423   3.325   6.248  0.3819  0.2829 -2.2127
 4000SOL    HW223634   1.431   3.210   6.149  1.6690  1.5884 -0.1623
 4001SOL     OW23635   0.178   2.388   7.428  0.1170 -0.0298  0.0198
 4001SOL    HW123636   0.154   2.419   7.341 -0.6303  1.2288  0.6751
 4001SOL    HW223637   0.245   2.327   7.397  1.6883  0.9553  1.4638
 4002SOL     OW23638   3.455   4.201   8.087 -0.7371 -0.1192  0.0981
 4002SOL    HW123639   3.498   4.156   8.014  0.3512  0.6438  0.2813
 4002SOL    HW223640   3.480   4.293   8.083 -1.0011  0.0317  2.0332
 4003SOL     OW23641   3.429   0.662   8.367  0.0621 -0.0440 -0.5799
 4003SOL    HW123642   3.335   0.672   8.350 -0.2069 -2.0289 -0.2910
 4003SOL    HW223643   3.459   0.752   8.363  0.0298 -0.0529 -1.0304
 4004SOL     OW23644   1.021   3.093   7.160 -0.1401 -0.8921 -0.2272
 4004SOL    HW123645   1.022   3.025   7.227 -0.6232 -0.0383  0.6390
 4004SOL    HW223646   1.103   3.072   7.115  0.2548 -0.1761  0.1673
 4005SOL     OW23647   3.428   3.326   8.407 -0.3135  0.1571 -0.3873
 4005SOL    HW123648   3.513   3.290   8.435 -0.4359  1.0423  1.1305
 4005SOL    HW223649   3.393   3.361   8.489 -0.0363 -0.0264 -0.1904
 4006SOL     OW23650   1.086   1.102   3.344 -0.2903  0.3201  0.3500
 4006SOL    HW123651   1.090   1.084   3.438  0.8615  2.0714  0.6391
 4006SOL    HW223652   1.020   1.172   3.344 -1.0126 -0.3893  1.8468
 4007SOL     OW23653   4.538   3.880   4.018 -0.3153  0.5890  0.1535
 4007SOL    HW123654   4.595   3.898   4.094 -1.8265 -1.8869  1.8692
 4007SOL    HW223655   4.465   3.942   4.018 -0.9536 -0.1615  0.6188
 4008SOL     OW23656   3.655   0.893   0.474  0.1035  0.1063  0.1953
 4008SOL    HW123657   3.608   0.966   0.516 -3.1543 -1.2621 -1.0190
 4008SOL    HW223658   3.616   0.826   0.531  1.4529  0.0680  1.0767
 4009SOL     OW23659   0.006   1.711  11.413  0.3641 -0.3338 -0.1401
 4009SOL    HW123660   0.100   1.694  11.404  0.5466 -0.0851  1.3852
 4009SOL    HW223661   4.700   1.628  11.440  1.0775 -0.4825  0.4824
 4010SOL     OW23662   3.968   2.641   5.470  0.3992  0.9702 -0.3555
 4010SOL    HW123663   3.964   2.592   5.551  0.1303 -1.9390 -2.1283
 4010SOL    HW223664   4.033   2.588   5.423 -0.6410 -0.4592 -0.1789
 4011SOL     OW23665   1.354   0.158  15.473  0.3011  0.1659 -0.1884
 4011SOL    HW123666   1.410   0.227  15.509 -1.4190  2.1988 -1.3949
 4011SOL    HW223667   1.347   0.187  15.382 -2.1159 -3.8052 -1.2702
 4012SOL     OW23668   4.322   1.806  10.806  0.6904 -0.1888  0.1546
 4012SOL    HW123669   4.231   1.815  10.778  0.4804  1.4135  1.4287
 4012SOL    HW223670   4.363   1.789  10.720  0.5809  0.3463 -0.0003
 4013SOL     OW23671   1.326   1.153   9.364 -0.5218  0.6433 -0.2551
 4013SOL    HW123672   1.365   1.215   9.302  1.9766  1.2391  1.8978
 4013SOL    HW223673   1.404   1.099   9.377 -0.5749  1.3039  2.7760
 4014SOL     OW23674   3.323   3.323   4.724 -0.1542 -0.3031  0.3260
 4014SOL    HW123675   3.249   3.384   4.734  1.7625  2.2111 -0.7795
 4014SOL    HW223676   3.306   3.274   4.805  2.5840 -1.3844  0.2270
 4015SOL     OW23677   0.993   2.361   3.426 -0.1202 -0.2263 -0.4008
 4015SOL    HW123678   1.061   2.419   3.461  0.8037 -0.8942 -1.0942
 4015SOL    HW223679   0.921   2.424   3.428  1.4440  1.4767  2.0262
 4016SOL     OW23680   4.226   2.951   0.419 -0.4270  0.1886 -0.1664
 4016SOL    HW123681   4.142   2.906   0.424  0.6088 -1.8771 -1.4555
 4016SOL    HW223682   4.236   2.974   0.326  1.3579 -0.0581 -0.0326
 4017SOL     OW23683   2.228   2.964   2.553 -0.0085 -0.3551 -0.4120
 4017SOL    HW123684   2.195   2.904   2.486 -0.0042 -2.6548  1.6777
 4017SOL    HW223685   2.204   2.912   2.629  0.7331 -1.1719 -0.7325
 4018SOL     OW23686   2.505   4.573   5.106  0.3599  0.1216  0.3580
 4018SOL    HW123687   2.520   4.519   5.029  0.7368  0.8125 -0.0580
 4018SOL    HW223688   2.524   4.504   5.169 -3.4040 -2.2055 -1.0500
 4019SOL     OW23689   0.955   0.990   2.989 -1.0012 -0.9517 -0.0168
 4019SOL    HW123690   0.870   0.977   2.948  0.9589 -0.5726 -4.2004
 4019SOL    HW223691   0.971   0.908   3.036 -0.0225  1.0063  3.0880
 4020SOL     OW23692   3.477   1.082  13.609 -0.5483  0.0015  0.3641
 4020SOL    HW123693   3.452   1.056  13.697 -0.1655 -0.1980  0.4125
 4020SOL    HW223694   3.410   1.029  13.565  1.9244 -0.8547 -2.3902
 4021SOL     OW23695   0.852   0.476   3.902  0.1526  0.3836  0.3936
 4021SOL    HW123696   0.864   0.473   3.996  0.9584 -0.7751  0.2520
 4021SOL    HW223697   0.800   0.556   3.898 -0.6093 -0.1206  0.3020
 4022SOL     OW23698   3.410   2.494   6.663 -0.2637  0.3500  0.4792
 4022SOL    HW123699   3.431   2.582   6.694  2.2612  0.7535 -2.3816
 4022SOL    HW223700   3.444   2.481   6.575  0.0174 -2.0436  0.9272
 4023SOL     OW23701   2.390   2.676  14.267  0.8649 -0.8228  0.5400
 4023SOL    HW123702   2.337   2.745  14.307  0.1435 -1.6333  0.9957
 4023SOL    HW223703   2.314   2.623  14.245 -2.0471  2.9683  1.3927
 4024SOL     OW23704   0.813   3.014   3.921 -0.8331 -0.2884 -0.0884
 4024SOL    HW123705   0.798   3.005   3.827 -3.0652  1.1652  0.1428
 4024SOL    HW223706   0.807   2.920   3.938 -1.9325 -0.0758  0.7237
 4025SOL     OW23707   2.640   4.512   4.491 -0.9390  0.0508  0.4177
 4025SOL    HW123708   2.613   4.440   4.435  0.1431  0.1562 -0.2397
 4025SOL    HW223709   2.559   4.563   4.498 -0.4874  0.6201  1.4913
 4026SOL     OW23710   1.642   0.303   3.620  0.2625  0.1616  0.0375
 4026SOL    HW123711   1.582   0.371   3.588  0.3088  0.2578  0.1554
 4026SOL    HW223712   1.651   0.333   3.711  0.0877  0.0893  0.0799
 4027SOL     OW23713   3.969   1.652   6.450  0.1630 -0.4267 -0.0560
 4027SOL    HW123714   3.994   1.712   6.519 -1.0702  0.7923 -0.6797
 4027SOL    HW223715   3.993   1.569   6.492  0.8012 -0.3277 -0.2307
 4028SOL     OW23716   2.149   3.433  10.930  0.0805  0.2631 -0.3013
 4028SOL    HW123717   2.194   3.350  10.914  1.2720  0.4184  2.2321
 4028SOL    HW223718   2.112   3.420  11.017  1.4186 -0.1405  0.2223
 4029SOL     OW23719   0.552   0.403   7.872  0.4989 -0.3452 -0.1500
 4029SOL    HW123720   0.514   0.481   7.912  0.7425 -0.8375  1.0429
 4029SOL    HW223721   0.471   0.356   7.849  0.3579  1.0008 -2.3965
 4030SOL     OW23722   2.043   2.167   3.217 -0.2644 -0.0015 -0.1777
 4030SOL    HW123723   2.025   2.083   3.175  2.5052  1.5545 -4.4539
 4030SOL    HW223724   1.955   2.204   3.228 -0.1154  0.9140 -2.0818
 4031SOL     OW23725   2.166   3.711   3.247 -0.0694 -1.0025  0.6721
 4031SOL    HW123726   2.105   3.653   3.292 -0.5973 -2.8542 -2.4353
 4031SOL    HW223727   2.249   3.673   3.273  1.3212  0.5707 -1.5208
 4032SOL     OW23728   2.597   2.548   4.479  0.1542  0.2159 -0.1416
 4032SOL    HW123729   2.588   2.492   4.402  0.7570  0.2206 -0.2180
 4032SOL    HW223730   2.676   2.599   4.459  1.9324 -1.5585  2.4004
 4033SOL     OW23731   4.724   3.546   0.722  0.7842 -0.5674 -0.1991
 4033SOL    HW123732   0.033   3.592   0.795  2.6439  0.1512 -1.7449
 4033SOL    HW223733   4.679   3.475   0.768 -0.2060 -1.0233 -1.8624
 4034SOL     OW23734   3.642   4.082   5.085  0.5335  0.2526  0.0336
 4034SOL    HW123735   3.717   4.081   5.026 -0.0633  0.2541 -0.7321
 4034SOL    HW223736   3.657   4.134   5.164  2.0261 -0.4013  0.1707
 4035SOL     OW23737   2.820   0.621   3.027 -0.1256  0.1477  0.2605
 4035SOL    HW123738   2.882   0.671   2.974 -0.0782  1.0497  1.1577
 4035SOL    HW223739   2.809   0.682   3.100 -2.3939  0.6407 -0.4813
 4036SOL     OW23740   4.589   1.267  14.085  0.0571  0.0869 -0.4085
 4036SOL    HW123741   4.507   1.312  14.065 -0.4237 -0.8415 -0.5388
 4036SOL    HW223742   4.650   1.340  14.093  0.6995 -0.5468  0.4668
 4037SOL     OW23743   3.324   4.610   9.889 -0.5567 -0.3250  0.1835
 4037SOL    HW123744   3.351   4.596   9.980  0.0348  1.0975  0.2346
 4037SOL    HW223745   3.409   4.586   9.852 -0.2789 -1.2513  1.4201
 4038SOL     OW23746   2.583   0.531  12.257 -0.1151 -0.8215 -0.1287
 4038SOL    HW123747   2.644   0.583  12.204 -0.6361  0.1370  0.2176
 4038SOL    HW223748   2.632   0.515  12.337  1.2062  2.6549 -0.2550
 4039SOL     OW23749   0.446   1.177   5.160  0.4609 -0.2865 -0.3892
 4039SOL    HW123750   0.418   1.089   5.183 -0.9769  0.3076  0.1427
 4039SOL    HW223751   0.384   1.200   5.090  1.7016 -0.6177 -1.5890
 4040SOL     OW23752   1.589   3.624   2.847  0.6671 -0.0140 -0.0936
 4040SOL    HW123753   1.656   3.556   2.840  0.2294 -0.4891  0.3643
 4040SOL    HW223754   1.586   3.653   2.756  0.3945 -3.0823 -1.0479
 4041SOL     OW23755   3.338   2.872   5.068  0.1908 -0.4316  0.4139
 4041SOL    HW123756   3.422   2.826   5.055  1.5649  2.3304 -0.5114
 4041SOL    HW223757   3.377   2.957   5.084 -0.4955  0.1975 -1.2089
 4042SOL     OW23758   4.107   3.331   3.635  0.0695 -0.2887 -0.5046
 4042SOL    HW123759   4.162   3.262   3.670 -1.1784 -1.4829 -0.8937
 4042SOL    HW223760   4.071   3.285   3.559  1.5340 -0.7575 -0.9026
 4043SOL     OW23761   3.612   2.188   7.978 -0.3067  0.5370  1.0616
 4043SOL    HW123762   3.643   2.221   8.062 -0.3411 -0.9136  1.6489
 4043SOL    HW223763   3.569   2.270   7.954 -0.3049  0.5076  0.9565
 4044SOL     OW23764   4.246   2.984  12.542  0.0377  0.3876 -0.5866
 4044SOL    HW123765   4.224   3.038  12.618 -0.5581 -0.1859 -0.3541
 4044SOL    HW223766   4.188   3.026  12.478  0.9918  0.6311 -1.2876
 4045SOL     OW23767   0.915   3.624   7.348 -0.3393  0.6381  0.3733
 4045SOL    HW123768   0.955   3.678   7.416 -0.1838  1.7855 -0.6378
 4045SOL    HW223769   0.956   3.542   7.376  1.0634  0.7671 -1.3270
 4046SOL     OW23770   4.619   2.397   6.532  0.4308 -0.0725  0.0204
 4046SOL    HW123771   4.625   2.312   6.487  1.4416 -0.3724  0.7274
 4046SOL    HW223772   4.583   2.451   6.462 -0.1837  1.4125  1.5019
 4047SOL     OW23773   0.107   2.436  13.996  0.0001 -0.1414 -0.1677
 4047SOL    HW123774   0.047   2.363  14.013 -0.5580  0.0127 -1.5099
 4047SOL    HW223775   0.073   2.508  14.050  0.0468 -0.3986  0.2084
 4048SOL     OW23776   3.063   0.214  15.837 -0.1124  0.0182 -0.2548
 4048SOL    HW123777   3.101   0.206  15.925  0.3759 -0.7396 -0.5372
 4048SOL    HW223778   3.062   0.121  15.814 -0.6543  0.3925 -1.7488
 4049SOL     OW23779   3.382   2.957   3.000  0.2133 -0.0299  0.6857
 4049SOL    HW123780   3.421   2.974   2.914  0.3777  1.1217  0.9862
 4049SOL    HW223781   3.466   2.943   3.044  0.8593  1.0217 -0.1775
 4050SOL     OW23782   4.116   1.794   5.345  0.1328  0.0791  0.2934
 4050SOL    HW123783   4.095   1.701   5.352 -1.6425  0.4619 -0.1576
 4050SOL    HW223784   4.108   1.811   5.438 -0.4397 -2.6056  0.7364
 4051SOL     OW23785   4.113   0.073   5.455  0.4744 -0.1360  0.1118
 4051SOL    HW123786   4.046   0.027   5.405 -0.1616  0.0350  0.8005
 4051SOL    HW223787   4.055   0.134   5.501 -1.2052 -2.4873  1.1403
 4052SOL     OW23788   2.577   3.332   4.749  0.1214 -0.4471  0.0909
 4052SOL    HW123789   2.579   3.254   4.805 -0.6319  1.6114  2.9709
 4052SOL    HW223790   2.610   3.403   4.803  0.0181 -0.3351  0.0064
 4053SOL     OW23791   4.206   0.628   5.792  0.0565  0.1341  0.3686
 4053SOL    HW123792   4.195   0.721   5.774  1.8246 -0.1031 -2.0369
 4053SOL    HW223793   4.114   0.604   5.788  0.0682  0.3458 -1.2093
 4054SOL     OW23794   4.684   4.065   7.865  0.3409  0.2189 -0.1842
 4054SOL    HW123795   4.683   4.160   7.874 -0.2200  0.0014  2.1079
 4054SOL    HW223796   4.680   4.047   7.771 -0.5926  0.4473 -0.1907
 4055SOL     OW23797   3.619   1.889   0.369 -0.0878  0.1402  0.7585
 4055SOL    HW123798   3.529   1.920   0.367 -0.1708 -0.1218  0.5242
 4055SOL    HW223799   3.630   1.877   0.275  0.2341 -1.8387  1.0618
 4056SOL     OW23800   0.187   0.826   7.688 -0.3968 -0.0454  0.1179
 4056SOL    HW123801   0.154   0.754   7.634  0.5106  0.7691 -1.5235
 4056SOL    HW223802   0.152   0.794   7.771 -1.0552 -2.1244 -0.9538
 4057SOL     OW23803   0.215   0.261  10.744  0.0925 -0.1951  0.1988
 4057SOL    HW123804   0.224   0.166  10.750 -1.6954 -0.5435 -2.7058
 4057SOL    HW223805   0.122   0.269  10.721 -0.2480 -1.8064  0.9764
 4058SOL     OW23806   0.434   2.176   6.320  0.2418  0.7271  0.2659
 4058SOL    HW123807   0.475   2.262   6.311 -1.8850  1.5741 -1.2477
 4058SOL    HW223808   0.412   2.162   6.228 -1.8844  1.1680  0.7030
 4059SOL     OW23809   3.366   2.104   1.264 -0.5027  0.6133  0.3544
 4059SOL    HW123810   3.440   2.141   1.313  1.4309 -1.8065 -0.7214
 4059SOL    HW223811   3.338   2.189   1.230  1.8176  1.1317 -0.2601
 4060SOL     OW23812   3.917   0.683   2.291 -1.1111 -0.5044  0.0317
 4060SOL    HW123813   3.966   0.626   2.350  1.9206  2.2742  0.2727
 4060SOL    HW223814   3.942   0.769   2.327 -2.1911  0.0934 -0.6496
 4061SOL     OW23815   4.528   0.812   8.418  0.0166  0.0088  1.0954
 4061SOL    HW123816   4.618   0.804   8.449  1.0950 -0.8700 -2.3295
 4061SOL    HW223817   4.541   0.901   8.383 -0.9312 -0.6828 -1.0531
 4062SOL     OW23818   1.071   3.352   6.078  0.1875 -0.5008  0.6110
 4062SOL    HW123819   1.165   3.350   6.061  0.0815 -0.5869  0.0339
 4062SOL    HW223820   1.040   3.328   5.991  1.5104 -1.0714  0.2953
 4063SOL     OW23821   4.484   0.057   6.955 -0.1629 -0.3910 -0.6036
 4063SOL    HW123822   4.538   0.135   6.942  1.5109 -1.2194  1.3771
 4063SOL    HW223823   4.444   0.070   7.041  2.5448  0.0289  0.5633
 4064SOL     OW23824   3.656   1.534   6.837  0.2504  0.5382 -0.5199
 4064SOL    HW123825   3.567   1.519   6.868 -0.0114  5.0140  0.9925
 4064SOL    HW223826   3.712   1.509   6.911 -1.6819  0.2465  0.8626
 4065SOL     OW23827   1.161   0.382   2.036 -0.5298  0.1078  0.1452
 4065SOL    HW123828   1.196   0.464   2.071  1.4933 -0.6849 -0.0012
 4065SOL    HW223829   1.071   0.383   2.070 -0.4499 -0.3574  0.3744
 4066SOL     OW23830   1.132   3.127   6.458 -0.2135 -0.4379  0.2656
 4066SOL    HW123831   1.228   3.122   6.451  0.0417  1.4525  2.6741
 4066SOL    HW223832   1.112   3.210   6.414 -1.0399 -0.9974 -0.4127
 4067SOL     OW23833   4.261   2.766   4.919 -0.0207  0.0467  0.1597
 4067SOL    HW123834   4.314   2.689   4.899  0.5951  0.4036  0.4190
 4067SOL    HW223835   4.181   2.713   4.924 -0.8933  1.1186 -2.0641
 4068SOL     OW23836   1.806   2.026   2.016 -0.3672  0.4340 -0.2352
 4068SOL    HW123837   1.751   2.028   1.937 -1.0720  0.7636  0.2639
 4068SOL    HW223838   1.854   1.947   1.990  1.1382  0.9856  0.9026
 4069SOL     OW23839   2.987   1.094   5.073 -0.2556 -0.1606  0.1788
 4069SOL    HW123840   2.938   1.151   5.013 -0.0740 -0.9071 -0.6794
 4069SOL    HW223841   2.916   1.075   5.135 -0.2053 -1.2299 -0.1060
 4070SOL     OW23842   2.998   2.456   7.492 -0.4332  0.0522  0.3098
 4070SOL    HW123843   3.031   2.367   7.496 -1.2483 -0.3012 -0.7868
 4070SOL    HW223844   2.917   2.442   7.444 -1.0598  0.6878  1.1909
 4071SOL     OW23845   3.369   4.081   4.341  0.4127  0.2710 -0.3365
 4071SOL    HW123846   3.276   4.060   4.336  0.5429 -0.1833 -0.8359
 4071SOL    HW223847   3.363   4.169   4.377 -1.3320 -0.0226  0.0585
 4072SOL     OW23848   0.722   3.163   4.169 -0.3618 -0.5188  0.2020
 4072SOL    HW123849   0.783   3.102   4.127 -2.0205 -0.8550 -1.6756
 4072SOL    HW223850   0.661   3.191   4.102  0.5763  1.0062 -0.0237
 4073SOL     OW23851   2.334   1.301   0.650  0.6765 -0.2119 -0.4320
 4073SOL    HW123852   2.360   1.353   0.574 -1.1634 -0.0900 -0.9931
 4073SOL    HW223853   2.368   1.216   0.625 -1.7645 -1.1421 -0.5894
 4074SOL     OW23854   2.102   3.592   4.760 -0.0287 -0.2924  0.5508
 4074SOL    HW123855   2.121   3.521   4.822  1.4649 -1.2326 -0.9629
 4074SOL    HW223856   2.128   3.545   4.680  2.3018  0.4439  0.8696
 4075SOL     OW23857   2.080   1.301   7.362 -0.3450  1.0594 -0.6750
 4075SOL    HW123858   2.051   1.290   7.452  0.0469 -2.8386 -1.0043
 4075SOL    HW223859   2.046   1.221   7.322  1.7904  1.0990 -2.5598
 4076SOL     OW23860   1.391   0.276   6.652  0.2171 -0.1083 -0.4181
 4076SOL    HW123861   1.344   0.257   6.571  0.8272 -1.9109 -0.3723
 4076SOL    HW223862   1.472   0.310   6.615  0.5098 -0.7986 -0.4092
 4077SOL     OW23863   0.088   1.403   1.784 -0.7019 -0.6697 -0.3712
 4077SOL    HW123864   0.039   1.349   1.722 -1.3912 -0.2844 -0.1504
 4077SOL    HW223865   0.012   1.438   1.829  0.2069 -1.6433  1.9034
 4078SOL     OW23866   2.505   2.992  17.605 -0.5782 -0.1032  0.2308
 4078SOL    HW123867   2.434   2.938  17.572  0.3036 -1.8584  1.2062
 4078SOL    HW223868   2.514   3.062  17.540 -0.7430 -2.6199 -2.4929
 4079SOL     OW23869   1.373   2.770  13.853  0.7362  0.1887 -0.2768
 4079SOL    HW123870   1.415   2.803  13.774  2.0409 -1.2697 -0.1924
 4079SOL    HW223871   1.439   2.707  13.882 -0.9321 -0.3978  2.3366
 4080SOL     OW23872   0.586   1.950   3.739  0.3675 -0.5195 -0.5387
 4080SOL    HW123873   0.621   1.868   3.775  0.8263  0.2492  0.7252
 4080SOL    HW223874   0.667   1.994   3.714 -0.8922  1.3739 -1.2415
 4081SOL     OW23875   2.163   1.074   4.656  0.4478  0.4543  0.0341
 4081SOL    HW123876   2.253   1.045   4.673  0.1154 -0.5723  0.0290
 4081SOL    HW223877   2.110   1.049   4.731 -1.2624 -0.7136 -1.5586
 4082SOL     OW23878   4.029   4.551   7.635  0.0562  0.2286  0.0623
 4082SOL    HW123879   4.076   4.509   7.563  1.2888  0.1613  0.9034
 4082SOL    HW223880   4.069   4.637   7.646  0.7097 -0.3843  2.4042
 4083SOL     OW23881   2.148   1.859   8.275 -0.4422 -0.1378  0.1420
 4083SOL    HW123882   2.107   1.786   8.321  0.1966  1.6338  3.4886
 4083SOL    HW223883   2.189   1.817   8.200  0.9956  0.2582  0.6920
 4084SOL     OW23884   1.242   2.602   6.772 -0.0212  0.1087  0.2593
 4084SOL    HW123885   1.328   2.643   6.777  0.9422 -2.0374  1.2808
 4084SOL    HW223886   1.224   2.605   6.678  2.3545 -1.8122 -0.2632
 4085SOL     OW23887   4.380   4.584   1.248  0.3153 -0.1174 -0.9520
 4085SOL    HW123888   4.474   4.575   1.266 -0.0912 -0.8639  0.7391
 4085SOL    HW223889   4.365   4.531   1.170  0.5456  0.1796 -1.1986
 4086SOL     OW23890   2.064   4.449  10.181 -0.2922 -0.1334  0.2087
 4086SOL    HW123891   1.997   4.517  10.175  1.1152  1.3404  1.1461
 4086SOL    HW223892   2.055   4.419  10.271 -1.1018 -0.8928 -0.1230
 4087SOL     OW23893   2.989   3.053   8.469  0.7075  0.1878 -0.3348
 4087SOL    HW123894   2.917   3.040   8.407 -1.0237  2.7328  1.1592
 4087SOL    HW223895   3.039   3.111   8.412 -0.1889  1.5415  0.2688
 4088SOL     OW23896   0.229   2.462   3.527  0.6415  0.2272  0.4020
 4088SOL    HW123897   0.314   2.445   3.569  1.3784 -0.2220 -1.3022
 4088SOL    HW223898   0.257   2.516   3.454  0.8919 -0.2808  0.1193
 4089SOL     OW23899   2.132   2.438   2.910 -0.0821 -0.7291 -0.1031
 4089SOL    HW123900   2.127   2.507   2.976 -0.6216 -0.7326 -0.1384
 4089SOL    HW223901   2.094   2.476   2.831  1.3724  0.8432 -0.0458
 4090SOL     OW23902   2.832   1.318   1.034 -0.2443 -0.7181 -0.3095
 4090SOL    HW123903   2.820   1.223   1.042  2.2554 -1.0867 -0.9095
 4090SOL    HW223904   2.751   1.337   0.987 -0.7509  0.6539  1.1279
 4091SOL     OW23905   4.538   1.475   6.506 -0.0631  0.2739 -0.4073
 4091SOL    HW123906   4.522   1.393   6.553 -0.7760 -0.1908 -1.4590
 4091SOL    HW223907   4.489   1.455   6.427 -0.3687 -1.6021  0.2598
 4092SOL     OW23908   4.279   0.090   8.111 -0.7282 -0.3721 -0.1235
 4092SOL    HW123909   4.202   0.116   8.062 -0.3982 -3.6471 -2.4162
 4092SOL    HW223910   4.305   0.011   8.063 -0.7131 -0.7549  0.5116
 4093SOL     OW23911   4.254   2.752   1.702 -0.7285 -0.1538 -0.7953
 4093SOL    HW123912   4.220   2.663   1.696 -1.7715  0.1421  0.6084
 4093SOL    HW223913   4.174   2.805   1.697 -2.0452 -2.0665  0.0653
 4094SOL     OW23914   3.624   4.054  15.978 -0.0347 -0.3065 -0.1538
 4094SOL    HW123915   3.597   4.049  16.070  0.3921  0.0407 -0.0063
 4094SOL    HW223916   3.567   3.986  15.942  1.1934 -1.2237 -0.3812
 4095SOL     OW23917   0.685   0.436  12.683 -0.1184 -0.4125  0.0613
 4095SOL    HW123918   0.700   0.522  12.723 -0.0413  0.0567 -0.9730
 4095SOL    HW223919   0.769   0.392  12.695  1.0343  1.5235 -0.8021
 4096SOL     OW23920   0.950   3.324   9.585 -0.2494  0.1722 -0.0210
 4096SOL    HW123921   0.900   3.382   9.642  0.6477  1.2977 -0.3865
 4096SOL    HW223922   1.039   3.328   9.620 -0.6518  3.3791  0.6094
 4097SOL     OW23923   3.539   4.721  13.489  0.4128  0.6104  0.1858
 4097SOL    HW123924   3.608   4.715  13.555  1.2835 -3.3146 -1.0507
 4097SOL    HW223925   3.477   4.651  13.514 -0.9456  0.8029 -2.5937
 4098SOL     OW23926   0.993   1.044  16.767  0.3636  0.8375 -0.7122
 4098SOL    HW123927   0.910   1.066  16.810  0.7971  0.1214  0.4966
 4098SOL    HW223928   1.040   1.126  16.781 -1.4336  1.1000  3.5957
 4099SOL     OW23929   1.544   2.788   7.564  0.2864 -0.0044  0.0918
 4099SOL    HW123930   1.526   2.763   7.474  3.8430 -1.0763 -0.3435
 4099SOL    HW223931   1.473   2.850   7.582  0.8028  0.6986 -0.2824
 4100SOL     OW23932   4.647   2.575  16.016 -0.4930  0.2357 -0.0610
 4100SOL    HW123933   4.625   2.494  15.971  0.5751  0.6632 -1.3174
 4100SOL    HW223934   4.640   2.639  15.945 -0.6621  0.4111  0.1132
 4101SOL     OW23935   0.636   1.500  14.207  0.1979 -0.1658  0.4164
 4101SOL    HW123936   0.681   1.421  14.237 -2.8405 -1.2023  2.2262
 4101SOL    HW223937   0.708   1.534  14.153 -0.0534  0.5513  0.5238
 4102SOL     OW23938   0.045   2.969   7.195 -0.2717 -0.4009 -0.0018
 4102SOL    HW123939   0.010   2.880   7.193 -2.4689  0.4755 -0.4095
 4102SOL    HW223940   0.004   3.008   7.117  1.5020  1.1863 -0.1430
 4103SOL     OW23941   3.105   1.415   3.582  0.4944  0.0962 -0.1419
 4103SOL    HW123942   3.189   1.374   3.565  1.9960  2.8230  0.7260
 4103SOL    HW223943   3.098   1.469   3.503 -4.0741 -0.7375 -0.3013
 4104SOL     OW23944   0.646   3.846   3.893  0.3125  0.0560  0.3172
 4104SOL    HW123945   0.708   3.885   3.830 -0.8035 -0.6403 -1.2264
 4104SOL    HW223946   0.694   3.791   3.955  0.8087  0.2830  0.1375
 4105SOL     OW23947   1.722   1.449   4.196 -0.1294  0.3840  0.4653
 4105SOL    HW123948   1.796   1.388   4.198  0.0835  0.6454  0.4875
 4105SOL    HW223949   1.652   1.391   4.165  1.2282  0.4207 -2.6502
 4106SOL     OW23950   3.891   2.066   8.330 -0.7341 -0.1462 -0.1996
 4106SOL    HW123951   3.923   2.090   8.244 -0.7984  0.2096 -0.1236
 4106SOL    HW223952   3.888   2.150   8.375 -0.9853 -0.0934 -0.3152
 4107SOL     OW23953   2.310   3.074  16.538  0.7169  0.0897 -0.1978
 4107SOL    HW123954   2.215   3.080  16.539  0.7111 -0.7436  2.9922
 4107SOL    HW223955   2.317   3.129  16.459  1.1806 -1.5801 -1.3214
 4108SOL     OW23956   1.649   0.395   5.982  0.4188 -0.1761  0.4152
 4108SOL    HW123957   1.659   0.486   6.010  1.9948  0.4984 -2.3095
 4108SOL    HW223958   1.739   0.375   5.957  0.4986 -1.0725  1.4170
 4109SOL     OW23959   1.777   0.561   0.370  0.7390 -0.4098  0.5518
 4109SOL    HW123960   1.685   0.575   0.351  1.0630  0.0611 -0.6688
 4109SOL    HW223961   1.791   0.607   0.453  1.0368 -1.3006  1.0040
 4110SOL     OW23962   1.387   0.962   8.623  0.1898  0.3152 -0.1451
 4110SOL    HW123963   1.482   0.973   8.634  0.0570  0.6474  0.7233
 4110SOL    HW223964   1.388   0.881   8.573  0.9436 -0.8887  1.8188
 4111SOL     OW23965   1.619   4.009  12.883 -1.0054  0.2334 -0.4119
 4111SOL    HW123966   1.587   4.060  12.809  0.9018  1.4502 -0.4036
 4111SOL    HW223967   1.625   4.076  12.951 -2.4753 -1.2448  1.1798
 4112SOL     OW23968   3.615   0.797  14.618  0.1221 -0.6126  0.3482
 4112SOL    HW123969   3.551   0.734  14.585  0.5810 -0.6272 -0.5414
 4112SOL    HW223970   3.694   0.743  14.614  1.3029  1.3288 -3.3027
 4113SOL     OW23971   2.068   2.972  17.408 -0.3880  0.1833  0.5162
 4113SOL    HW123972   2.129   2.941  17.474 -0.6031 -0.7550  0.2734
 4113SOL    HW223973   2.066   3.068  17.418  0.5491  0.2220  0.2644
 4114SOL     OW23974   2.853   0.632   4.201  0.1934  0.4313  0.0422
 4114SOL    HW123975   2.864   0.575   4.125  0.2886 -1.8450  1.7524
 4114SOL    HW223976   2.759   0.650   4.197  0.3261  0.2251 -3.8074
 4115SOL     OW23977   2.977   4.545   6.602  0.1248  0.5419  0.6149
 4115SOL    HW123978   3.022   4.621   6.639  0.5140  1.5377 -1.8822
 4115SOL    HW223979   2.911   4.594   6.553 -0.7149 -2.9446 -1.7266
 4116SOL     OW23980   0.815   3.739  15.360  0.1359  0.4384 -0.3149
 4116SOL    HW123981   0.838   3.652  15.392  0.8486  0.7420 -0.0117
 4116SOL    HW223982   0.896   3.789  15.354  0.7047 -0.7240 -2.3826
 4117SOL     OW23983   0.384   3.023   9.836 -0.5581  0.2535 -0.4067
 4117SOL    HW123984   0.363   3.108   9.798  0.5947  0.2685 -0.9973
 4117SOL    HW223985   0.305   2.975   9.811 -0.8367  0.1422  0.6601
 4118SOL     OW23986   0.090   1.507   7.885  0.0937  0.5299 -0.4847
 4118SOL    HW123987   0.185   1.512   7.876 -0.0522 -0.1442 -2.3147
 4118SOL    HW223988   0.060   1.584   7.836 -0.5175  0.2957 -0.4854
 4119SOL     OW23989   3.772   3.620   0.075  0.2859  0.0220 -0.4194
 4119SOL    HW123990   3.740   3.667  17.733  0.7442 -0.7083 -1.0547
 4119SOL    HW223991   3.864   3.610   0.050 -0.2088  0.7739 -2.5298
 4120SOL     OW23992   3.205   4.442  16.684  0.3390  0.1992 -0.1090
 4120SOL    HW123993   3.263   4.518  16.692  1.3541 -0.5376 -0.4620
 4120SOL    HW223994   3.237   4.375  16.745 -1.6980  0.8606  1.6848
 4121SOL     OW23995   1.672   0.155   8.551  0.2328  0.0621 -0.4987
 4121SOL    HW123996   1.619   0.138   8.629  0.9547 -0.5226 -0.1396
 4121SOL    HW223997   1.748   0.189   8.598 -2.0548  2.8590  1.1589
 4122SOL     OW23998   1.948   1.556   7.249 -0.2852 -0.2425 -0.4328
 4122SOL    HW123999   1.959   1.474   7.298 -1.2447 -0.3589 -0.4205
 4122SOL    HW224000   1.963   1.629   7.309  0.6283 -0.1842 -0.7391
 4123SOL     OW24001   2.957   0.933   5.885 -0.2128 -0.3268  0.4602
 4123SOL    HW124002   2.894   0.921   5.814  0.1369 -0.5869  0.1865
 4123SOL    HW224003   3.017   0.983   5.829  0.4067 -1.8538 -0.2507
 4124SOL     OW24004   3.549   2.871  12.111  0.3821  0.1095 -0.0092
 4124SOL    HW124005   3.526   2.815  12.185 -2.1093 -1.8279 -2.2692
 4124SOL    HW224006   3.512   2.815  12.043  2.5783 -0.8845 -0.3588
 4125SOL     OW24007   2.525   1.376  12.160  0.0013 -0.3338 -0.3495
 4125SOL    HW124008   2.452   1.390  12.099  0.9870  0.1712 -1.4036
 4125SOL    HW224009   2.499   1.424  12.239 -1.6219 -1.7310 -0.0078
 4126SOL     OW24010   2.490   1.263   8.043 -0.1629 -0.4078 -0.6921
 4126SOL    HW124011   2.463   1.280   7.952  0.3930 -1.4612 -1.0600
 4126SOL    HW224012   2.569   1.314   8.062 -1.9830  1.5787  1.5125
 4127SOL     OW24013   2.121   0.869   2.757  0.3721 -0.2884 -0.3470
 4127SOL    HW124014   2.063   0.943   2.771 -0.1147 -0.6813 -0.2702
 4127SOL    HW224015   2.062   0.799   2.784  0.2309  0.6048  1.6742
 4128SOL     OW24016   1.957   2.327   3.635  0.1898  0.5659  0.1706
 4128SOL    HW124017   1.962   2.422   3.651  0.3080  0.7409 -0.9212
 4128SOL    HW224018   1.864   2.308   3.625  0.3054  0.6645 -0.9956
 4129SOL     OW24019   1.914   0.401   5.926 -0.7380 -0.6009 -0.3076
 4129SOL    HW124020   1.902   0.488   5.888  0.8176 -0.1216  0.2887
 4129SOL    HW224021   2.003   0.372   5.905 -1.0462 -0.0753 -2.3205
 4130SOL     OW24022   4.295   1.424   1.784 -0.4494  0.4477  0.5671
 4130SOL    HW124023   4.290   1.369   1.706  0.1690 -1.3485  1.7904
 4130SOL    HW224024   4.213   1.411   1.833 -0.6929 -1.2928 -0.3334
 4131SOL     OW24025   3.762   4.305   5.769  0.0998  0.2054  0.0044
 4131SOL    HW124026   3.785   4.234   5.828  0.2954  1.9556  2.0672
 4131SOL    HW224027   3.674   4.325   5.802  0.5985 -0.8214  1.9291
 4132SOL     OW24028   1.950   3.314   4.820 -0.3975 -0.1827  0.1041
 4132SOL    HW124029   1.933   3.376   4.890  0.3632  1.5271 -1.2206
 4132SOL    HW224030   1.919   3.352   4.737  0.3126 -0.3482 -0.2330
 4133SOL     OW24031   2.845   0.155   6.170 -0.2733  0.6503 -0.0873
 4133SOL    HW124032   2.920   0.101   6.195 -0.5020  0.1943 -0.3862
 4133SOL    HW224033   2.813   0.099   6.099 -1.6078  0.8924  0.3199
 4134SOL     OW24034   1.348   0.107   2.387  0.2842  0.3164 -0.0168
 4134SOL    HW124035   1.355   0.190   2.339 -0.5915 -1.0767 -2.5806
 4134SOL    HW224036   1.263   0.074   2.356  0.0614  0.5612  0.3351
 4135SOL     OW24037   0.328   0.443   3.563 -0.4331  0.7867  0.2107
 4135SOL    HW124038   0.410   0.492   3.568 -0.3248  0.5232  0.9735
 4135SOL    HW224039   0.295   0.472   3.478  0.6088 -1.9826 -1.1196
 4136SOL     OW24040   0.816   3.520   6.112 -0.2567  0.1545  0.8409
 4136SOL    HW124041   0.834   3.607   6.147  0.9348  0.2688 -0.0434
 4136SOL    HW224042   0.905   3.485   6.105 -1.1455 -1.9810  0.2886
 4137SOL     OW24043   2.218   0.584   5.353  0.0327  0.0106  0.0439
 4137SOL    HW124044   2.298   0.617   5.312 -0.6721 -0.4927 -1.7392
 4137SOL    HW224045   2.168   0.665   5.361  1.7255  0.8079  2.9172
 4138SOL     OW24046   4.679   2.676  17.608 -0.4021 -0.8186  0.2885
 4138SOL    HW124047   4.667   2.768  17.632  1.5509  0.3506 -3.2610
 4138SOL    HW224048   4.683   2.665  17.513  0.8510 -2.8457  0.5826
 4139SOL     OW24049   1.343   3.188   4.498 -0.4233 -0.2823 -0.1522
 4139SOL    HW124050   1.433   3.177   4.529 -0.8447 -1.3367  0.7026
 4139SOL    HW224051   1.353   3.249   4.426  2.4571 -3.1929 -2.1912
 4140SOL     OW24052   2.621   3.371   3.656 -0.3409  0.5611 -0.2015
 4140SOL    HW124053   2.619   3.327   3.571  4.2661  1.9894 -1.0133
 4140SOL    HW224054   2.552   3.319   3.699  0.2978  0.6388  0.9231
 4141SOL     OW24055   1.034   1.307  16.830 -0.0964  0.0180  0.7801
 4141SOL    HW124056   0.977   1.359  16.886  1.8947 -0.7049  3.4548
 4141SOL    HW224057   1.103   1.372  16.815 -0.1796 -0.0460  0.1160
 4142SOL     OW24058   0.767   3.478   7.922  0.4311 -0.4419 -0.3241
 4142SOL    HW124059   0.857   3.448   7.934  0.0179 -0.2177  3.3853
 4142SOL    HW224060   0.762   3.479   7.826  0.8214 -0.3320 -0.3435
 4143SOL     OW24061   0.663   2.225   5.339  0.6011 -0.8110 -0.1523
 4143SOL    HW124062   0.732   2.208   5.403 -0.7649 -0.4115  1.4118
 4143SOL    HW224063   0.713   2.272   5.273 -1.4182  0.0172 -1.0893
 4144SOL     OW24064   4.105   1.958  11.001 -0.2720 -0.1783 -0.6495
 4144SOL    HW124065   4.073   1.919  10.920 -1.3852 -4.0053  1.6636
 4144SOL    HW224066   4.154   2.032  10.965  1.1339 -2.1774 -2.8266
 4145SOL     OW24067   3.431   1.619   0.101 -0.1152 -0.0841 -0.3346
 4145SOL    HW124068   3.383   1.559   0.158  2.3918 -1.4414  0.3814
 4145SOL    HW224069   3.369   1.626   0.028  0.0684  0.4980 -0.4323
 4146SOL     OW24070   0.846   3.321  13.228 -0.4967  0.0415 -0.3218
 4146SOL    HW124071   0.826   3.400  13.178  0.0121 -0.3215 -1.1012
 4146SOL    HW224072   0.924   3.298  13.177  1.2135 -0.2038  2.3894
 4147SOL     OW24073   4.590   0.917   3.745  0.4331 -0.4052  0.1205
 4147SOL    HW124074   4.592   0.916   3.649  1.4470  1.2886  0.1157
 4147SOL    HW224075   4.496   0.899   3.757  0.4566 -0.0284  0.8859
 4148SOL     OW24076   1.162   0.366   3.156 -0.0643 -0.1759  0.3293
 4148SOL    HW124077   1.191   0.357   3.246 -1.4854 -0.8579  0.7255
 4148SOL    HW224078   1.117   0.284   3.137  0.5110 -0.3290 -0.3767
 4149SOL     OW24079   3.292   3.085   7.666  0.3793 -0.1184 -0.0168
 4149SOL    HW124080   3.379   3.054   7.691  0.3309  0.3220  0.6780
 4149SOL    HW224081   3.295   3.059   7.573 -1.1449  2.0050 -0.6557
 4150SOL     OW24082   0.834   2.065   2.397 -0.4244 -0.1000  0.5683
 4150SOL    HW124083   0.843   2.114   2.314 -1.8707  0.6464  0.8616
 4150SOL    HW224084   0.770   2.112   2.449 -1.0238 -0.5350  0.2189
 4151SOL     OW24085   2.052   0.384   8.871  0.0294 -0.2961 -0.3758
 4151SOL    HW124086   2.141   0.382   8.836  0.9471 -1.8518  2.1089
 4151SOL    HW224087   2.042   0.465   8.921  0.2759 -0.3948 -0.1698
 4152SOL     OW24088   0.876   2.137   3.562  0.6345  0.0847  0.0910
 4152SOL    HW124089   0.831   2.209   3.518  1.5490  0.7594  0.2740
 4152SOL    HW224090   0.871   2.072   3.491  0.1298 -0.4303  0.6040
 4153SOL     OW24091   0.890   3.892  12.886  0.3712 -0.1205 -0.6279
 4153SOL    HW124092   0.814   3.912  12.942  0.4505  1.0417 -0.9327
 4153SOL    HW224093   0.866   3.904  12.794 -1.8144  0.8003  0.0444
 4154SOL     OW24094   0.422   3.640   3.829  0.5494  0.9840 -0.2625
 4154SOL    HW124095   0.483   3.591   3.774 -0.0779 -0.1040  0.0036
 4154SOL    HW224096   0.481   3.712   3.849  0.0988  1.7266 -1.5614
 4155SOL     OW24097   0.905   4.064   7.061 -0.2925  0.5555  0.9471
 4155SOL    HW124098   0.923   3.978   7.023  0.5942  1.0021  0.3403
 4155SOL    HW224099   0.907   4.051   7.156  1.2563  2.3043  1.1716
 4156SOL     OW24100   1.367   2.963   8.501  0.0667  0.0803 -0.5314
 4156SOL    HW124101   1.387   3.057   8.501 -0.3679  0.1789 -1.5773
 4156SOL    HW224102   1.284   2.969   8.548  0.2941  2.3741 -0.4029
 4157SOL     OW24103   1.662   2.563  10.471 -0.0741  1.0380 -0.1903
 4157SOL    HW124104   1.583   2.512  10.488 -0.1680  2.1275  2.6686
 4157SOL    HW224105   1.714   2.538  10.548 -0.1067  3.1663  0.5111
 4158SOL     OW24106   3.620   4.167   6.136 -0.1301 -0.1198 -0.3797
 4158SOL    HW124107   3.583   4.091   6.181  0.4775  0.9179  1.8602
 4158SOL    HW224108   3.631   4.215   6.218  0.0383 -1.5814  0.4559
 4159SOL     OW24109   1.688   2.474   3.133  0.5189  0.1820  0.2216
 4159SOL    HW124110   1.631   2.551   3.134 -1.4515 -1.2563 -0.4424
 4159SOL    HW224111   1.723   2.471   3.222 -0.4332  3.1512  0.6740
 4160SOL     OW24112   0.197   3.423   8.801  0.0171  0.2569  0.2811
 4160SOL    HW124113   0.214   3.517   8.810  0.0798  0.3504 -0.7826
 4160SOL    HW224114   0.252   3.386   8.870  2.1447  1.3675 -0.7972
 4161SOL     OW24115   1.914   1.696   2.993 -0.0682 -0.4154  0.0005
 4161SOL    HW124116   1.967   1.650   3.058 -0.3638  2.0682  2.0192
 4161SOL    HW224117   1.865   1.623   2.956  0.9375 -1.2702  0.3848
 4162SOL     OW24118   0.596   2.205   9.856 -0.3579  0.0336 -0.4178
 4162SOL    HW124119   0.515   2.235   9.897 -0.6524 -0.3660 -0.7014
 4162SOL    HW224120   0.602   2.113   9.883 -0.1798 -0.8149 -3.3356
 4163SOL     OW24121   1.366   4.597  17.724 -0.3628  0.2632 -0.1765
 4163SOL    HW124122   1.438   4.628   0.044 -1.6372 -0.1012  1.7123
 4163SOL    HW224123   1.414   4.530  17.676  0.8908  1.6884 -0.8947
 4164SOL     OW24124   4.189   3.323   0.327 -0.0588  0.1595 -0.1170
 4164SOL    HW124125   4.118   3.306   0.265 -0.2447  0.2783  0.0630
 4164SOL    HW224126   4.164   3.268   0.402 -0.4425  1.3036  0.5951
 4165SOL     OW24127   2.785   3.223  17.572  0.0480  0.4893 -0.4996
 4165SOL    HW124128   2.765   3.288  17.639  1.4197 -2.6847  3.0639
 4165SOL    HW224129   2.811   3.157  17.637  1.3423 -0.2664 -1.7913
 4166SOL     OW24130   1.363   1.398   3.702 -0.2664  0.1140 -0.2765
 4166SOL    HW124131   1.333   1.469   3.645  0.1718 -0.9550 -1.8463
 4166SOL    HW224132   1.452   1.431   3.715  0.1182 -0.5464 -1.2252
 4167SOL     OW24133   2.181   2.554  15.141 -0.0291  0.0785 -0.3746
 4167SOL    HW124134   2.095   2.534  15.103  0.0302 -0.6259 -0.1253
 4167SOL    HW224135   2.230   2.564  15.059 -1.5183 -1.8582 -1.5021
 4168SOL     OW24136   0.504   4.460  10.237  0.9841 -0.6186  0.4313
 4168SOL    HW124137   0.433   4.461  10.301  1.9351  0.9367  1.4508
 4168SOL    HW224138   0.489   4.536  10.180 -2.9747 -1.0874  0.8455
 4169SOL     OW24139   2.137   3.746  13.018  0.4075  1.0674  0.4874
 4169SOL    HW124140   2.178   3.815  12.966  2.7955  0.4986  1.6352
 4169SOL    HW224141   2.148   3.674  12.955  0.5284  2.7093 -1.3480
 4170SOL     OW24142   0.123   0.215   8.084  0.3398 -0.3375 -0.6093
 4170SOL    HW124143   0.043   0.185   8.041 -0.7365 -0.4512  1.4678
 4170SOL    HW224144   0.103   0.309   8.095 -2.7442 -1.3543  2.7177
 4171SOL     OW24145   3.152   2.618   0.036  0.0694 -0.0360  0.3574
 4171SOL    HW124146   3.182   2.643   0.124 -1.6772 -1.8218  1.4901
 4171SOL    HW224147   3.147   2.699  17.720  0.6463 -1.0933 -1.3352
 4172SOL     OW24148   0.057   3.391  15.214  0.5169 -0.1008 -0.4139
 4172SOL    HW124149   0.059   3.484  15.194  1.8192  0.2731  1.5203
 4172SOL    HW224150   0.132   3.395  15.273  1.3308 -2.4389 -1.2874
 4173SOL     OW24151   3.406   2.136   6.287  0.0071 -0.5465  0.1869
 4173SOL    HW124152   3.428   2.121   6.379 -3.4628  0.2414  1.1425
 4173SOL    HW224153   3.403   2.045   6.259  0.7202 -0.6904  0.5741
 4174SOL     OW24154   4.663   2.900   5.537 -0.0804  0.1185  0.2201
 4174SOL    HW124155   4.626   2.865   5.456  4.4070 -0.1923 -1.7355
 4174SOL    HW224156   0.009   2.937   5.499 -0.8280  0.9726 -0.5277
 4175SOL     OW24157   2.364   1.607   7.846 -0.0736  0.3191  0.7358
 4175SOL    HW124158   2.293   1.640   7.900 -0.5889 -0.2896  0.4301
 4175SOL    HW224159   2.404   1.680   7.799  0.8567 -0.6317  0.0371
 4176SOL     OW24160   2.081   2.219  15.157  0.2837 -0.4956  0.1562
 4176SOL    HW124161   2.015   2.182  15.216  1.1184  0.4933  1.6887
 4176SOL    HW224162   2.049   2.304  15.126 -0.0311 -1.3898 -2.0061
 4177SOL     OW24163   4.324   1.328   7.774 -0.7152 -0.1044 -0.1474
 4177SOL    HW124164   4.345   1.249   7.724  1.3306  0.5644 -0.3226
 4177SOL    HW224165   4.294   1.287   7.855  0.0933  0.0711  0.2455
 4178SOL     OW24166   2.112   4.674   4.813 -0.1983 -0.5007 -0.0538
 4178SOL    HW124167   2.146   0.022   4.848 -0.9453  0.0910 -0.7085
 4178SOL    HW224168   2.025   4.701   4.784  0.5539  1.2807 -0.6306
 4179SOL     OW24169   1.571   2.198   6.182 -0.1024 -0.4636  0.0424
 4179SOL    HW124170   1.486   2.169   6.147  1.7112 -2.6703 -2.5062
 4179SOL    HW224171   1.574   2.287   6.147 -1.6199  0.4559  2.1990
 4180SOL     OW24172   4.005   0.058  15.311 -0.0249 -0.0298  0.4057
 4180SOL    HW124173   3.973   0.084  15.225  1.2472 -1.9802 -0.6401
 4180SOL    HW224174   4.056   4.718  15.280  1.8631  2.5090 -2.4393
 4181SOL     OW24175   4.443   1.557   1.524 -0.5640 -0.1710  0.1593
 4181SOL    HW124176   4.513   1.505   1.485  0.4403  1.1208  0.2438
 4181SOL    HW224177   4.447   1.637   1.471 -1.3777 -0.5521 -0.4728
 4182SOL     OW24178   4.602   3.079   7.013 -0.4145  0.3585  0.0618
 4182SOL    HW124179   4.564   2.998   6.979  0.2036  1.7121 -3.7996
 4182SOL    HW224180   4.545   3.137   6.963  1.4788  1.9379 -0.2724
 4183SOL     OW24181   3.780   0.150   6.035 -0.0259 -0.5132 -0.9209
 4183SOL    HW124182   3.737   0.067   6.054 -1.1823  0.7098  1.9169
 4183SOL    HW224183   3.802   0.132   5.944  1.9821  1.0463 -0.7412
 4184SOL     OW24184   4.623   0.848  12.925  0.1551  0.0427  1.1038
 4184SOL    HW124185   4.613   0.924  12.983 -0.5265  0.8707 -0.0940
 4184SOL    HW224186   4.700   0.874  12.874 -0.0029 -1.2009  0.2385
 4185SOL     OW24187   2.297   1.703  13.743 -0.3412 -0.0875  0.2049
 4185SOL    HW124188   2.361   1.681  13.675 -0.9072  0.1391 -0.3946
 4185SOL    HW224189   2.229   1.637  13.743 -2.4693  2.1055  2.4623
 4186SOL     OW24190   4.572   4.198   5.458 -0.1936 -0.1139  0.3888
 4186SOL    HW124191   4.528   4.116   5.434 -0.0854  0.5032 -1.9670
 4186SOL    HW224192   4.502   4.262   5.468  0.9046  1.2081 -0.2917
 4187SOL     OW24193   1.301   1.661   7.363 -0.2077 -0.1615  0.1330
 4187SOL    HW124194   1.252   1.620   7.292 -0.9047  2.5331 -0.9456
 4187SOL    HW224195   1.322   1.735   7.307  1.1752  0.1311  1.0540
 4188SOL     OW24196   2.729   3.878   3.124 -0.9712  0.1407 -0.3320
 4188SOL    HW124197   2.641   3.888   3.088 -0.2945 -1.5165 -2.4814
 4188SOL    HW224198   2.711   3.905   3.214  0.0756  1.6678 -0.5799
 4189SOL     OW24199   1.552   0.532   9.773 -1.0173  1.2052 -0.0609
 4189SOL    HW124200   1.506   0.603   9.816  2.0076  3.3206 -0.3161
 4189SOL    HW224201   1.510   0.540   9.688 -2.6873 -1.0335  0.5431
 4190SOL     OW24202   3.457   2.983   1.490  0.1772  0.3051  0.3621
 4190SOL    HW124203   3.519   3.048   1.524 -0.5876  0.5188  1.3343
 4190SOL    HW224204   3.374   3.029   1.502 -0.1844 -0.1994 -0.1947
 4191SOL     OW24205   1.912   1.764   2.034  0.4337 -0.0072 -0.2978
 4191SOL    HW124206   1.967   1.697   1.993  1.2967  1.6817 -1.8853
 4191SOL    HW224207   1.890   1.721   2.117  1.2231  0.5037  0.1767
 4192SOL     OW24208   2.751   3.923  13.996 -0.1771  0.0094  0.0319
 4192SOL    HW124209   2.667   3.954  13.962  0.6260  1.1749 -0.8586
 4192SOL    HW224210   2.806   3.997  13.971  0.0128 -1.1936 -3.0335
 4193SOL     OW24211   1.737   1.396   2.690  0.6129 -0.3866  0.5843
 4193SOL    HW124212   1.768   1.382   2.779 -1.5932 -1.0119  1.2237
 4193SOL    HW224213   1.671   1.327   2.685 -0.2392  0.7100 -3.9274
 4194SOL     OW24214   0.638   2.004   4.795  0.4738 -0.6006  0.5355
 4194SOL    HW124215   0.571   1.958   4.845  1.5788 -0.4184  2.1916
 4194SOL    HW224216   0.708   1.940   4.810 -0.4734 -2.2684 -2.2780
 4195SOL     OW24217   0.653   3.798  13.437  0.3578  0.2389  0.0714
 4195SOL    HW124218   0.599   3.729  13.399  2.1454 -1.7944  1.2618
 4195SOL    HW224219   0.728   3.788  13.380  0.7323 -0.6267  0.7156
 4196SOL     OW24220   2.385   0.145   8.233  0.6654  0.0610  0.1052
 4196SOL    HW124221   2.312   0.110   8.181 -0.6094  1.5199  0.9044
 4196SOL    HW224222   2.462   0.143   8.177 -0.3820  0.3362 -1.3422
 4197SOL     OW24223   2.649   0.650   6.217  0.5479  0.3978  0.3150
 4197SOL    HW124224   2.683   0.570   6.177 -1.9965  0.1234 -1.2975
 4197SOL    HW224225   2.711   0.715   6.183  0.9106  0.3939  0.9664
 4198SOL     OW24226   2.027   4.564   6.326  0.2509 -0.2585 -0.3360
 4198SOL    HW124227   2.048   4.608   6.408 -0.2164  2.0461 -1.4619
 4198SOL    HW224228   2.020   4.472   6.353  1.0118 -0.5446 -1.1448
 4199SOL     OW24229   4.428   0.678  13.915  0.5797 -0.0422 -0.0361
 4199SOL    HW124230   4.365   0.751  13.920 -0.8303 -1.2199 -0.6969
 4199SOL    HW224231   4.385   0.622  13.851 -1.5655  1.2723  0.2363
 4200SOL     OW24232   3.406   2.831   6.963 -0.3042 -0.4298 -0.0575
 4200SOL    HW124233   3.484   2.859   7.012  0.3377  1.2432 -1.9945
 4200SOL    HW224234   3.460   2.802   6.889  2.5564  1.6321  1.2049
 4201SOL     OW24235   0.272   2.031   1.506 -0.3901  0.0189  0.2502
 4201SOL    HW124236   0.322   2.094   1.453  1.3026 -1.0862  0.5345
 4201SOL    HW224237   0.312   1.951   1.472 -0.2866  0.5710 -0.9239
 4202SOL     OW24238   1.269   4.307   4.155 -0.8824 -0.4528  0.1887
 4202SOL    HW124239   1.244   4.251   4.229 -0.1190  1.4583  1.8884
 4202SOL    HW224240   1.246   4.395   4.186 -1.8326 -0.8139  0.5329
 4203SOL     OW24241   1.733   1.775  16.211 -0.0803  0.3047  0.0533
 4203SOL    HW124242   1.762   1.717  16.141  1.5590  0.3760  0.6653
 4203SOL    HW224243   1.808   1.773  16.271  0.2194 -2.4629 -0.4495
 4204SOL     OW24244   4.550   3.281   6.821 -0.6625  0.1648 -0.5352
 4204SOL    HW124245   4.642   3.306   6.823 -0.1862 -1.7881  1.5142
 4204SOL    HW224246   4.507   3.350   6.770 -0.3486  0.2161 -0.7320
 4205SOL     OW24247   2.452   2.150   6.827 -0.4106  0.5568  0.3468
 4205SOL    HW124248   2.452   2.176   6.735  1.1421  0.8366  0.4261
 4205SOL    HW224249   2.517   2.204   6.872 -0.1603 -0.5504  1.3093
 4206SOL     OW24250   2.417   2.143   5.751 -0.5145  0.3394  0.4717
 4206SOL    HW124251   2.482   2.105   5.810  1.1329 -0.6590 -2.0012
 4206SOL    HW224252   2.469   2.206   5.701 -0.0831  0.1157  0.6369
 4207SOL     OW24253   3.595   2.222   4.290  0.4780 -0.1187 -0.1793
 4207SOL    HW124254   3.578   2.298   4.234 -4.5083 -0.2297  1.1388
 4207SOL    HW224255   3.681   2.243   4.326  1.0257 -1.3529 -0.7818
 4208SOL     OW24256   2.658   0.432   5.386 -0.0754 -0.4522  0.0287
 4208SOL    HW124257   2.675   0.339   5.399  1.2779  0.1524  2.6726
 4208SOL    HW224258   2.643   0.468   5.474  2.8083 -0.1401  0.3880
 4209SOL     OW24259   1.059   3.514   9.007  0.0573  0.3144 -0.7405
 4209SOL    HW124260   1.004   3.589   8.986  0.6254  1.4755  1.9331
 4209SOL    HW224261   1.067   3.516   9.102  1.2940 -1.5169 -0.8026
 4210SOL     OW24262   1.807   4.180   5.072  0.4623  0.0619 -0.0262
 4210SOL    HW124263   1.795   4.154   5.163  3.3476  0.5277  0.4548
 4210SOL    HW224264   1.748   4.128   5.017 -1.4544  2.2410 -0.0363
 4211SOL     OW24265   0.166   0.434   6.918  0.4002  0.0760 -0.0309
 4211SOL    HW124266   0.150   0.519   6.878 -0.3122  0.5397  1.2295
 4211SOL    HW224267   0.174   0.385   6.836  1.2577  0.8633 -0.4117
 4212SOL     OW24268   4.254   0.301   4.134  0.0808  0.8576  0.2230
 4212SOL    HW124269   4.319   0.358   4.093 -0.4019  1.6740  0.5911
 4212SOL    HW224270   4.272   0.313   4.227 -3.5759 -0.5481  1.0980
 4213SOL     OW24271   3.692   2.925  17.353 -0.1650  0.2037 -0.2220
 4213SOL    HW124272   3.671   2.835  17.379 -3.2045  1.3303  1.1561
 4213SOL    HW224273   3.615   2.978  17.370  0.5102  1.0928  0.0756
 4214SOL     OW24274   2.678   4.233   6.651 -0.0402  0.2012 -0.2508
 4214SOL    HW124275   2.620   4.180   6.596  1.2525 -1.0134 -0.4266
 4214SOL    HW224276   2.653   4.321   6.623  0.1265 -0.1829 -1.6373
 4215SOL     OW24277   4.447   2.425  11.768 -0.3137 -0.5087  0.0304
 4215SOL    HW124278   4.403   2.456  11.689 -0.0542 -1.0812 -0.3437
 4215SOL    HW224279   4.391   2.349  11.781 -0.0053 -0.7248  0.0936
 4216SOL     OW24280   1.070   1.845   9.899  0.1085  0.0562 -0.4501
 4216SOL    HW124281   1.132   1.866   9.969 -0.6352 -0.9061  0.4894
 4216SOL    HW224282   1.055   1.752   9.915  0.0624  0.0665 -0.4330
 4217SOL     OW24283   0.146   3.070  14.512  0.2462 -0.0310  0.2156
 4217SOL    HW124284   0.212   3.104  14.452  1.6922 -0.2040  1.6850
 4217SOL    HW224285   0.150   3.137  14.581  1.0598  1.3154 -1.1389
 4218SOL     OW24286   0.231   3.690  14.050 -0.0571 -0.0735 -0.0650
 4218SOL    HW124287   0.273   3.716  13.968  4.6008 -1.4212  1.8529
 4218SOL    HW224288   0.167   3.760  14.061  0.8602  0.8811 -0.7885
 4219SOL     OW24289   4.701   3.631   7.785 -0.5161  0.3608 -0.7303
 4219SOL    HW124290   4.680   3.558   7.843 -1.0680 -1.1140 -2.7950
 4219SOL    HW224291   4.682   3.706   7.841  4.1859 -0.1806  1.5512
 4220SOL     OW24292   3.508   3.656   5.641  0.4718 -0.0112 -0.0134
 4220SOL    HW124293   3.516   3.678   5.734  3.6012  1.3501 -0.5943
 4220SOL    HW224294   3.496   3.562   5.657  2.0978 -0.2479 -0.2143
 4221SOL     OW24295   1.742   1.816   9.735  0.0015 -0.0117 -0.6160
 4221SOL    HW124296   1.678   1.748   9.716  2.0365 -1.8440 -0.9389
 4221SOL    HW224297   1.756   1.857   9.650 -0.0043  0.7670 -0.2420
 4222SOL     OW24298   4.458   3.057   2.779  0.5814  0.8067  0.0061
 4222SOL    HW124299   4.406   3.138   2.780 -2.2220 -1.0126  0.0473
 4222SOL    HW224300   4.497   3.075   2.694 -2.7981 -0.1401 -1.7185
 4223SOL     OW24301   0.494   0.266  12.926 -0.1086  0.0543  0.1454
 4223SOL    HW124302   0.421   0.305  12.877  0.2932  0.7893  0.1415
 4223SOL    HW224303   0.573   0.306  12.891  1.1350 -1.1615  1.5502
 4224SOL     OW24304   3.710   2.565   1.726 -0.1950  0.1189 -0.0037
 4224SOL    HW124305   3.779   2.527   1.671 -0.8523 -0.3970 -0.4719
 4224SOL    HW224306   3.693   2.492   1.787  1.1960  1.5710  2.1168
 4225SOL     OW24307   4.728   1.482   4.825 -0.0115  0.6576 -0.5916
 4225SOL    HW124308   4.701   1.562   4.780  0.2958  0.4659 -1.1289
 4225SOL    HW224309   4.656   1.485   4.887 -0.5221  2.6070 -1.2819
 4226SOL     OW24310   2.088   0.424   6.176  0.2030 -0.6502  0.1331
 4226SOL    HW124311   2.176   0.439   6.210  0.0369  1.6677 -0.4739
 4226SOL    HW224312   2.102   0.338   6.136  0.8187 -1.0186  1.1433
 4227SOL     OW24313   1.744   3.531   5.513  0.4617 -0.0177  0.4258
 4227SOL    HW124314   1.805   3.593   5.472  0.5475  0.7519  1.7045
 4227SOL    HW224315   1.768   3.538   5.606  2.1996 -2.1080  0.1302
 4228SOL     OW24316   2.592   0.182   7.119  0.1433 -0.0814  0.0276
 4228SOL    HW124317   2.566   0.119   7.052  2.7372  0.8895 -1.9076
 4228SOL    HW224318   2.674   0.137   7.143 -0.2407 -0.8158 -0.0465
 4229SOL     OW24319   2.651   2.443   4.194 -0.0194  0.5760  0.0359
 4229SOL    HW124320   2.693   2.363   4.164 -2.1376 -0.4627 -0.1624
 4229SOL    HW224321   2.561   2.420   4.168 -0.4932  1.7948  0.6083
 4230SOL     OW24322   2.420   3.862   6.325 -0.2609 -0.2567 -0.3334
 4230SOL    HW124323   2.497   3.880   6.270 -0.9106 -0.0580 -1.1692
 4230SOL    HW224324   2.440   3.771   6.345 -0.0540 -0.0866  0.2324
 4231SOL     OW24325   4.364   3.214   1.125 -0.2132 -0.5465 -0.6984
 4231SOL    HW124326   4.356   3.139   1.065 -0.9429 -0.2642 -0.9550
 4231SOL    HW224327   4.424   3.188   1.195 -0.8051 -0.2758 -0.0868
 4232SOL     OW24328   2.622   3.846   8.194 -0.0092 -0.2446 -0.3186
 4232SOL    HW124329   2.584   3.788   8.261 -0.7301  1.4686  0.7659
 4232SOL    HW224330   2.715   3.827   8.202 -0.5601 -3.3189 -0.9796
 4233SOL     OW24331   3.977   1.483  14.928 -0.6431  0.4824 -0.0537
 4233SOL    HW124332   4.039   1.543  14.887 -0.0568  2.2515  3.3925
 4233SOL    HW224333   3.968   1.419  14.857  2.2251  1.5823 -1.4272
 4234SOL     OW24334   2.514   0.106  17.495  0.1321 -0.1254 -0.5531
 4234SOL    HW124335   2.464   0.174  17.540  0.2220 -1.1119  1.0314
 4234SOL    HW224336   2.593   0.103  17.550  0.1826 -1.2427 -0.6950
 4235SOL     OW24337   2.352   4.200   8.268 -0.1944  0.3044 -0.0227
 4235SOL    HW124338   2.280   4.252   8.303 -1.4099  0.4401 -2.6880
 4235SOL    HW224339   2.402   4.202   8.349  1.4598 -0.6053 -1.0241
 4236SOL     OW24340   3.248   4.564   9.585 -0.2603  0.0765 -0.4943
 4236SOL    HW124341   3.264   4.619   9.662  0.6321  0.3789 -0.8952
 4236SOL    HW224342   3.194   4.500   9.630 -2.0849  0.9150 -1.4928
 4237SOL     OW24343   2.625   0.920   3.909  0.3605 -0.5138  0.0745
 4237SOL    HW124344   2.599   0.853   3.846 -0.8510 -0.3628  0.4155
 4237SOL    HW224345   2.570   0.993   3.880 -1.6819 -2.7106 -1.6100
 4238SOL     OW24346   2.289   1.714   2.384 -0.4768 -0.1340 -0.0962
 4238SOL    HW124347   2.213   1.669   2.420 -1.8402 -0.5946 -3.4850
 4238SOL    HW224348   2.300   1.656   2.308  0.1291 -2.8498  2.0395
 4239SOL     OW24349   2.039   3.393  11.551  0.0593  0.2102  0.4567
 4239SOL    HW124350   1.978   3.355  11.613  0.0500  0.2679  0.4829
 4239SOL    HW224351   2.110   3.331  11.565 -0.2461  0.0905  1.4435
 4240SOL     OW24352   4.204   4.394   3.270 -0.5168 -0.6575 -0.1107
 4240SOL    HW124353   4.122   4.374   3.314 -0.7884 -0.2106 -0.4234
 4240SOL    HW224354   4.218   4.313   3.221  1.3168 -0.2931 -0.1996
 4241SOL     OW24355   1.220   4.217   5.969 -0.1809  0.2674 -0.1994
 4241SOL    HW124356   1.266   4.257   5.895  2.1460 -0.7877  0.6693
 4241SOL    HW224357   1.136   4.262   5.968 -0.0023  0.6117  0.2939
 4242SOL     OW24358   4.103   1.705   7.258  0.4890 -0.1117  0.1485
 4242SOL    HW124359   4.009   1.716   7.244  0.5624  0.7398  0.3127
 4242SOL    HW224360   4.128   1.747   7.176 -0.2918 -0.1230 -0.0865
 4243SOL     OW24361   0.246   2.890   7.357  0.0573  0.5950  0.5588
 4243SOL    HW124362   0.291   2.868   7.276 -1.6675 -0.8537  0.0044
 4243SOL    HW224363   0.164   2.924   7.322  1.4826  2.8172 -0.5985
 4244SOL     OW24364   2.500   1.309  17.555  0.1875  0.2385 -0.1886
 4244SOL    HW124365   2.537   1.280  17.471 -0.3207 -0.5513 -0.1424
 4244SOL    HW224366   2.547   1.390  17.573 -0.5656  1.1510 -2.2632
 4245SOL     OW24367   2.670   0.116   8.155  0.4528  0.6153 -0.5625
 4245SOL    HW124368   2.718   0.080   8.081  1.3600 -0.4594  0.5290
 4245SOL    HW224369   2.710   0.203   8.152  0.8014  0.4185 -1.5440
 4246SOL     OW24370   0.136   2.645   7.934 -0.2721 -0.2861 -0.0584
 4246SOL    HW124371   0.208   2.672   7.991  1.5795 -2.9301 -1.1323
 4246SOL    HW224372   0.197   2.619   7.865 -0.2309  1.2941 -0.6246
 4247SOL     OW24373   1.626   1.770   7.324 -0.0052  0.7073 -0.1405
 4247SOL    HW124374   1.543   1.809   7.297 -0.0412  1.6156  1.2561
 4247SOL    HW224375   1.648   1.714   7.250  0.2006  0.1373  0.3567
 4248SOL     OW24376   1.008   4.175   4.925 -0.4097  0.3666  0.2904
 4248SOL    HW124377   1.079   4.122   4.959 -2.3048 -1.0245  2.0802
 4248SOL    HW224378   0.980   4.127   4.847  0.2385 -1.6524  1.3212
 4249SOL     OW24379   1.529   0.555  12.521 -0.0526  0.4863  0.1141
 4249SOL    HW124380   1.594   0.492  12.552 -0.5370 -0.6391 -1.1722
 4249SOL    HW224381   1.481   0.494  12.466  1.0570 -0.7477  0.5426
 4250SOL     OW24382   0.158   3.989  11.983  0.0022 -0.0031 -0.2738
 4250SOL    HW124383   0.250   3.985  12.009  0.2654 -1.1847 -1.4000
 4250SOL    HW224384   0.108   3.998  12.064  0.1138  1.5626 -0.3774
 4251SOL     OW24385   0.065   0.676   4.961 -0.0191  0.0417 -0.3886
 4251SOL    HW124386   0.106   0.707   5.042 -1.5770  0.8662  0.0910
 4251SOL    HW224387   0.144   0.675   4.906  0.7982 -0.5991  0.7908
 4252SOL     OW24388   2.809   3.954   6.968  0.2281  0.0553  0.1353
 4252SOL    HW124389   2.874   3.906   6.915  1.5961  0.9069  1.0294
 4252SOL    HW224390   2.786   3.894   7.039  0.0340 -0.6862 -0.5543
 4253SOL     OW24391   1.638   1.126   3.784 -0.2815 -0.3454  0.4760
 4253SOL    HW124392   1.551   1.161   3.802  0.0282  0.7989 -0.2346
 4253SOL    HW224393   1.655   1.075   3.863  0.0023  0.1866  0.7568
 4254SOL     OW24394   3.345   4.033   1.894 -0.5959 -0.4728  0.0405
 4254SOL    HW124395   3.408   3.979   1.847 -2.9558 -2.2612 -1.0668
 4254SOL    HW224396   3.320   4.084   1.818  0.8767 -0.5626 -0.5059
 4255SOL     OW24397   1.579   0.916   2.387 -0.5588 -0.7074 -0.0991
 4255SOL    HW124398   1.597   0.842   2.446 -1.3326 -0.1737  0.7963
 4255SOL    HW224399   1.590   0.988   2.449  4.1441 -1.5035  0.0303
 4256SOL     OW24400   1.779   2.658  10.213 -0.1111  0.3218 -0.2448
 4256SOL    HW124401   1.870   2.678  10.235  0.1463 -0.8982 -0.2059
 4256SOL    HW224402   1.770   2.591  10.281 -0.5685 -0.5884 -1.2094
 4257SOL     OW24403   3.291   3.006   6.185 -0.1003 -0.1412  0.3309
 4257SOL    HW124404   3.260   2.927   6.230 -2.3509 -0.2021 -1.2890
 4257SOL    HW224405   3.206   3.048   6.170  0.0422 -0.6514 -1.8460
 4258SOL     OW24406   2.566   2.894   8.316 -0.0948 -0.0847 -0.2950
 4258SOL    HW124407   2.477   2.881   8.282 -0.8355  1.9790  0.8131
 4258SOL    HW224408   2.552   2.902   8.410 -0.3120 -1.3474 -0.2253
 4259SOL     OW24409   1.275   0.827   1.756 -0.2576  0.1242 -0.5606
 4259SOL    HW124410   1.243   0.898   1.810  1.5657 -1.4101  2.5020
 4259SOL    HW224411   1.261   0.858   1.666 -0.4853  2.7230  0.3765
 4260SOL     OW24412   2.222   0.414   6.596 -0.1888 -0.1757 -0.3621
 4260SOL    HW124413   2.287   0.485   6.593 -1.8303  1.4076  1.5131
 4260SOL    HW224414   2.268   0.350   6.541 -3.0968 -2.6285  0.0989
 4261SOL     OW24415   0.575   0.039  17.045 -0.1251  0.3304 -0.0510
 4261SOL    HW124416   0.637   0.110  17.063  0.4926 -0.0872 -0.5304
 4261SOL    HW224417   0.577   0.001  17.133  0.7272  0.0840 -0.1698
 4262SOL     OW24418   0.625   0.568   1.759  0.4094  0.1047  0.2508
 4262SOL    HW124419   0.710   0.561   1.716 -0.6381 -0.6168 -1.7054
 4262SOL    HW224420   0.658   0.554   1.848  1.9230  1.5428 -0.0740
 4263SOL     OW24421   0.432   1.294   2.677 -0.1020 -0.2335 -0.3134
 4263SOL    HW124422   0.340   1.304   2.653 -0.2822 -0.1275  0.4400
 4263SOL    HW224423   0.465   1.264   2.592 -0.5969  2.5126 -1.4657
 4264SOL     OW24424   1.155   3.391  12.018  0.1738  0.3188 -0.1038
 4264SOL    HW124425   1.206   3.451  12.073 -0.9391  0.6379  0.5770
 4264SOL    HW224426   1.175   3.314  12.071 -2.6782 -1.4709 -1.6296
 4265SOL     OW24427   4.606   4.663  15.490  0.7226 -0.7083 -0.0410
 4265SOL    HW124428   4.521   4.620  15.501 -0.2195  1.0395 -0.3961
 4265SOL    HW224429   4.599   4.684  15.397 -0.6596  2.0929  0.6825
 4266SOL     OW24430   0.561   1.937   3.398  0.1196 -0.3911 -0.2468
 4266SOL    HW124431   0.562   1.955   3.492 -1.0429 -2.5995  0.1717
 4266SOL    HW224432   0.525   1.848   3.401 -0.7641 -0.0508 -0.7842
 4267SOL     OW24433   1.270   0.232   3.402 -0.0088 -0.4703  0.2598
 4267SOL    HW124434   1.226   0.163   3.352  0.5320  1.3303 -2.7245
 4267SOL    HW224435   1.203   0.296   3.424  0.2012 -0.5686  1.1771
 4268SOL     OW24436   2.520   0.355  13.725  0.6554  0.4830 -0.0617
 4268SOL    HW124437   2.494   0.299  13.652  1.5198 -1.7712  1.3504
 4268SOL    HW224438   2.437   0.401  13.739  1.5587  1.9466  0.4550
 4269SOL     OW24439   2.810   0.841   2.571  0.6954  0.2028 -0.0685
 4269SOL    HW124440   2.874   0.912   2.558  0.9854  0.0703  0.6200
 4269SOL    HW224441   2.728   0.890   2.561 -0.0325 -0.9761  0.1484
 4270SOL     OW24442   3.623   2.332   4.720  0.4586 -0.1060  0.1334
 4270SOL    HW124443   3.696   2.283   4.757  0.3364  1.0243  1.8980
 4270SOL    HW224444   3.589   2.360   4.806  0.3880  0.9744 -0.2458
 4271SOL     OW24445   1.108   0.124   1.788 -0.0323  0.2417  0.0378
 4271SOL    HW124446   1.055   0.172   1.852 -1.2767 -0.6970 -0.3151
 4271SOL    HW224447   1.078   0.034   1.797  0.4645  0.3496  3.1468
 4272SOL     OW24448   2.052   0.942   5.244 -0.1505  1.0740 -0.4634
 4272SOL    HW124449   1.973   0.996   5.253 -0.5396  0.4180  0.0378
 4272SOL    HW224450   2.114   1.012   5.224  1.2103 -0.0022  0.0523
 4273SOL     OW24451   1.670   2.642   2.516 -0.1238  0.1934 -0.4986
 4273SOL    HW124452   1.642   2.601   2.598 -1.5909  2.0805 -0.0484
 4273SOL    HW224453   1.691   2.570   2.457  1.2446  2.2651 -2.5741
 4274SOL     OW24454   3.793   1.452   0.913  0.2401  0.4762  0.6286
 4274SOL    HW124455   3.741   1.517   0.866 -0.1963  1.0249  1.8746
 4274SOL    HW224456   3.769   1.475   1.003  0.5312 -1.4400  1.1984
 4275SOL     OW24457   2.880   1.441   2.441  0.1570 -0.0821  0.2315
 4275SOL    HW124458   2.820   1.424   2.369 -1.7339  0.6783  1.6405
 4275SOL    HW224459   2.820   1.443   2.516 -0.4446 -1.6082 -0.2076
 4276SOL     OW24460   0.526   3.401   3.401 -0.1611 -0.0906 -0.3761
 4276SOL    HW124461   0.453   3.340   3.411  0.4311 -0.4899  1.4534
 4276SOL    HW224462   0.475   3.479   3.423 -1.1700 -0.8113 -0.1665
 4277SOL     OW24463   1.658   0.605   6.357 -0.0516  0.2264  0.0333
 4277SOL    HW124464   1.701   0.660   6.292  1.6703 -0.8435  0.2604
 4277SOL    HW224465   1.710   0.525   6.350  2.2878  1.6871  0.5196
 4278SOL     OW24466   0.692   4.182   9.874  0.1837 -0.4838 -0.1519
 4278SOL    HW124467   0.783   4.195   9.902 -0.0412  0.8208 -0.0539
 4278SOL    HW224468   0.702   4.125   9.797  1.3966 -1.9861  1.1179
 4279SOL     OW24469   0.420   2.300   6.981 -0.4614  0.1810 -0.8247
 4279SOL    HW124470   0.442   2.319   6.890  0.1655 -1.0229 -0.9294
 4279SOL    HW224471   0.422   2.390   7.012 -1.7627 -0.7140  1.8032
 4280SOL     OW24472   0.339   1.028   2.150  0.0418  0.6303  0.4305
 4280SOL    HW124473   0.364   1.012   2.241 -0.0951  0.3185  0.4155
 4280SOL    HW224474   0.285   0.950   2.133 -2.2104  2.7008 -1.9260
 4281SOL     OW24475   3.978   2.720  13.810 -1.0025 -0.1275  0.0817
 4281SOL    HW124476   3.918   2.648  13.829 -3.2213  0.7504 -3.6971
 4281SOL    HW224477   3.987   2.759  13.897  0.4237 -2.4190  0.9905
 4282SOL     OW24478   1.580   0.974   0.256  0.4670 -0.3524  0.3452
 4282SOL    HW124479   1.672   0.999   0.249 -0.4206  2.8378  0.0470
 4282SOL    HW224480   1.574   0.973   0.351 -0.8529  1.5412  0.2763
 4283SOL     OW24481   0.368   4.297  11.768 -0.9542 -0.0055  0.5871
 4283SOL    HW124482   0.417   4.357  11.712  1.0905 -2.3911 -0.2092
 4283SOL    HW224483   0.447   4.250  11.795 -1.9864 -1.4455  1.1132
 4284SOL     OW24484   3.437   3.341   6.754 -0.2119 -0.0432  0.4269
 4284SOL    HW124485   3.368   3.275   6.764  0.1694 -0.6896 -1.2727
 4284SOL    HW224486   3.509   3.285   6.727 -1.7935 -2.2384  0.6884
 4285SOL     OW24487   0.536   1.099  10.177 -0.7648  0.4089  0.4078
 4285SOL    HW124488   0.553   1.140  10.263  1.6581 -2.0679  1.1075
 4285SOL    HW224489   0.459   1.150  10.154 -1.3017 -0.1124  1.0560
 4286SOL     OW24490   1.865   1.043   5.020 -0.1018 -0.3923  0.6531
 4286SOL    HW124491   1.856   1.104   5.093  1.2468  0.3538  0.1981
 4286SOL    HW224492   1.775   1.020   4.996  0.1220 -1.2457  0.6287
 4287SOL     OW24493   4.658   2.032   2.765  0.0505  0.5048  0.5170
 4287SOL    HW124494   4.616   2.080   2.693 -0.3232  1.3232  1.2799
 4287SOL    HW224495   4.585   1.976   2.791 -0.5981  0.4108 -1.4876
 4288SOL     OW24496   0.497   1.977   2.299 -0.1366 -0.1857  0.3243
 4288SOL    HW124497   0.519   1.913   2.232 -0.5348 -0.8825  0.8510
 4288SOL    HW224498   0.525   1.944   2.385  1.5993 -0.8178 -0.4836
 4289SOL     OW24499   4.266   1.171   4.464 -0.3977 -0.3593 -0.2229
 4289SOL    HW124500   4.352   1.130   4.458 -0.4341 -0.1649 -2.1943
 4289SOL    HW224501   4.262   1.185   4.559 -1.2255 -1.7559 -0.0605
 4290SOL     OW24502   4.494   1.230   6.588  0.0997 -0.1490  0.0876
 4290SOL    HW124503   4.418   1.199   6.638  0.8153 -0.1870  1.1428
 4290SOL    HW224504   4.569   1.225   6.647  0.0775  0.8708  0.2046
 4291SOL     OW24505   0.403   2.113   4.180  0.8987  0.1417  0.3995
 4291SOL    HW124506   0.369   2.156   4.259 -0.0059  0.1822 -0.0061
 4291SOL    HW224507   0.323   2.069   4.153 -0.1279  0.8104  2.3201
 4292SOL     OW24508   0.786   3.206   6.926  0.1773 -0.8597  0.2058
 4292SOL    HW124509   0.747   3.211   6.839 -1.2106  0.5216  0.9091
 4292SOL    HW224510   0.818   3.116   6.927 -0.7736 -1.2037 -0.5101
 4293SOL     OW24511   0.058   1.644  15.468 -0.0928 -0.9681 -0.4305
 4293SOL    HW124512   0.078   1.624  15.376  0.9736 -0.5860 -0.2897
 4293SOL    HW224513   0.008   1.724  15.454 -0.0787 -0.5321  2.0817
 4294SOL     OW24514   3.297   4.242   7.333 -0.0269 -0.2445 -0.0437
 4294SOL    HW124515   3.203   4.257   7.322  0.4790  2.4142 -0.8006
 4294SOL    HW224516   3.304   4.242   7.429  0.0596 -2.5327 -0.0389
 4295SOL     OW24517   2.856   3.622   6.974 -0.2651  0.8165  0.1973
 4295SOL    HW124518   2.761   3.631   6.963 -0.1773  1.3227 -0.1737
 4295SOL    HW224519   2.869   3.588   7.063 -2.5235  0.5957  0.4536
 4296SOL     OW24520   3.447   3.748   8.516 -0.8219 -0.2561  0.2132
 4296SOL    HW124521   3.424   3.836   8.487 -2.0737 -1.0335 -1.1526
 4296SOL    HW224522   3.428   3.686   8.446 -2.0731  0.7821 -0.3709
 4297SOL     OW24523   1.002   2.926   8.435 -0.2059 -0.6512  0.5703
 4297SOL    HW124524   0.989   2.955   8.345  0.7703  1.2091  1.0274
 4297SOL    HW224525   0.922   2.882   8.464 -0.6711  0.5219  1.0402
 4298SOL     OW24526   3.467   3.881  11.259 -0.4107 -0.7451 -0.1498
 4298SOL    HW124527   3.469   3.831  11.341  0.9680  0.9720  0.8586
 4298SOL    HW224528   3.377   3.913  11.272  0.0832 -0.0000  1.4892
 4299SOL     OW24529   2.260   3.517   7.275 -0.1971 -0.3595  0.2200
 4299SOL    HW124530   2.198   3.480   7.213  0.1686 -0.4885 -0.0719
 4299SOL    HW224531   2.230   3.476   7.357  2.8714  0.2731  1.6770
 4300SOL     OW24532   0.099   4.035   6.037  0.7660  0.0035 -0.0030
 4300SOL    HW124533   0.167   4.080   6.088 -1.8830  1.2179  2.4423
 4300SOL    HW224534   0.150   4.007   5.961  1.3921  0.3168  0.3011
 4301SOL     OW24535   3.235   2.750   6.251  0.2980 -0.3774  0.1307
 4301SOL    HW124536   3.298   2.726   6.319 -0.2739  1.7221  1.4099
 4301SOL    HW224537   3.155   2.757   6.303 -0.1680 -1.1307 -0.4854
 4302SOL     OW24538   2.170   1.266   4.210 -0.7258  0.1135  0.4354
 4302SOL    HW124539   2.183   1.304   4.297  0.0310  1.9577 -0.4770
 4302SOL    HW224540   2.201   1.178   4.230  1.9362  0.9042 -0.2739
 4303SOL     OW24541   2.497   1.650  13.567  0.3997 -0.1046 -0.1321
 4303SOL    HW124542   2.519   1.730  13.519  1.4732  0.5394  1.4203
 4303SOL    HW224543   2.580   1.627  13.610 -0.3231 -0.6971  0.9303
 4304SOL     OW24544   4.440   0.768   4.175  0.0436  0.8780  0.0165
 4304SOL    HW124545   4.387   0.848   4.175 -1.8220 -0.3392  0.2939
 4304SOL    HW224546   4.498   0.786   4.249  0.5320  0.8993 -0.3693
 4305SOL     OW24547   4.690   2.056   0.369  1.0929  0.3442 -0.3484
 4305SOL    HW124548   4.711   2.149   0.375 -0.2049  0.5751  0.5931
 4305SOL    HW224549   4.679   2.036   0.276  0.3059 -1.7562  0.2043
 4306SOL     OW24550   0.878   2.243   3.172 -0.1004  0.1583  0.2783
 4306SOL    HW124551   0.896   2.278   3.259  1.1366  1.7781 -0.6346
 4306SOL    HW224552   0.950   2.182   3.156 -1.4617 -1.5516  0.7283
 4307SOL     OW24553   3.590   3.485   7.708  0.2754  0.9289 -0.3917
 4307SOL    HW124554   3.529   3.457   7.640  0.7484 -1.1669  0.0491
 4307SOL    HW224555   3.598   3.401   7.752 -3.8619 -0.7185 -2.8059
 4308SOL     OW24556   0.123   1.034   1.746  0.1795 -0.0315  0.0817
 4308SOL    HW124557   0.076   0.958   1.782  0.9647 -0.4753  0.1709
 4308SOL    HW224558   0.185   0.993   1.686 -0.9725  1.0988 -1.8908
 4309SOL     OW24559   0.367   3.608   8.299 -0.0188  0.5110  0.0052
 4309SOL    HW124560   0.296   3.544   8.301 -1.2319  1.8249 -0.9237
 4309SOL    HW224561   0.329   3.684   8.343  2.4127  1.1504  0.9913
 4310SOL     OW24562   2.288   2.394   5.503  0.4536 -0.1341 -0.7090
 4310SOL    HW124563   2.311   2.439   5.584 -1.2707 -0.9320  0.2428
 4310SOL    HW224564   2.248   2.315   5.541  0.6741  0.5028  0.8608
 4311SOL     OW24565   3.773   1.664   9.463  0.3233  0.0289 -0.1369
 4311SOL    HW124566   3.701   1.634   9.406  1.7031 -0.5920 -1.5419
 4311SOL    HW224567   3.797   1.579   9.500 -0.3993 -0.3225 -0.4622
 4312SOL     OW24568   0.996   0.357  14.608  0.5302 -0.5296 -0.4268
 4312SOL    HW124569   0.995   0.373  14.513  1.9647  1.1124 -0.1522
 4312SOL    HW224570   1.091   0.360  14.612  0.4140 -0.6663  2.4383
 4313SOL     OW24571   0.579   2.015   3.141  0.0463 -0.8169  0.4783
 4313SOL    HW124572   0.579   2.007   3.237  0.1686  0.4541  0.5776
 4313SOL    HW224573   0.673   2.031   3.136 -0.3268  0.7745 -1.3181
 4314SOL     OW24574   3.342   3.670   7.279 -0.6472 -0.0903  0.3338
 4314SOL    HW124575   3.277   3.694   7.213  0.4008 -1.2793 -1.1447
 4314SOL    HW224576   3.337   3.747   7.334  0.6064  0.2759 -0.0657
 4315SOL     OW24577   2.937   1.801   7.070  0.1070 -0.4404 -0.4375
 4315SOL    HW124578   2.909   1.817   7.160  1.7404  1.6233 -0.2942
 4315SOL    HW224579   2.887   1.723   7.047  1.7447 -1.3892 -0.8338
 4316SOL     OW24580   2.566   2.598  12.312  0.4851  0.2693 -0.0700
 4316SOL    HW124581   2.589   2.641  12.395  0.8081  1.2201 -0.6482
 4316SOL    HW224582   2.488   2.550  12.342  1.0646 -0.9901 -0.5863
 4317SOL     OW24583   0.570   4.300   8.206 -0.2790  0.5559 -0.5548
 4317SOL    HW124584   0.508   4.350   8.259  0.2997 -0.5410  1.1780
 4317SOL    HW224585   0.587   4.357   8.131  3.8893 -1.4730 -1.1584
 4318SOL     OW24586   2.328   4.107   3.604 -0.1336 -0.5775  0.5868
 4318SOL    HW124587   2.391   4.077   3.538  0.5328  0.6446  0.6546
 4318SOL    HW224588   2.255   4.053   3.575 -0.0086 -1.8686  2.6820
 4319SOL     OW24589   1.033   2.129   5.768 -0.5947 -0.1995 -0.1848
 4319SOL    HW124590   1.098   2.060   5.778 -0.7656 -0.7757 -2.9741
 4319SOL    HW224591   0.950   2.084   5.784 -0.9872  0.6121  0.1077
 4320SOL     OW24592   0.145   0.915   8.966  0.2646 -0.5922 -0.1868
 4320SOL    HW124593   0.105   0.876   9.044  1.4581 -2.0720 -0.3080
 4320SOL    HW224594   0.135   0.854   8.892 -0.6966 -0.4775 -0.1573
 4321SOL     OW24595   0.718   3.021   2.756 -0.1514  0.2938  0.1168
 4321SOL    HW124596   0.672   2.966   2.820 -1.6792  0.9125 -0.4631
 4321SOL    HW224597   0.705   2.974   2.674 -2.6611  0.0805  0.6427
 4322SOL     OW24598   3.599   0.589   3.228  0.0279  0.1837  0.0401
 4322SOL    HW124599   3.586   0.666   3.284 -0.5334  1.4170 -1.7978
 4322SOL    HW224600   3.691   0.593   3.201 -0.2026 -1.4921 -1.0035
 4323SOL     OW24601   3.726   2.189   0.930 -0.0035 -0.3175 -0.5561
 4323SOL    HW124602   3.672   2.114   0.905 -2.0729  0.8054  0.5125
 4323SOL    HW224603   3.782   2.149   0.996  1.0453 -0.2267 -1.3874
 4324SOL     OW24604   1.122   2.171   4.375  0.3334 -0.7023  0.3645
 4324SOL    HW124605   1.154   2.176   4.465  1.3318 -0.6200 -0.0007
 4324SOL    HW224606   1.102   2.258   4.339 -1.5056 -0.5975  1.6084
 4325SOL     OW24607   4.424   0.833   2.208 -0.3551  0.9275  0.3317
 4325SOL    HW124608   4.426   0.752   2.258 -0.3784  1.3438  1.0097
 4325SOL    HW224609   4.441   0.891   2.283 -0.9841  0.9231  0.4783
 4326SOL     OW24610   0.882   2.455   8.348 -0.5847 -0.1987 -0.0656
 4326SOL    HW124611   0.875   2.379   8.406 -0.5039  0.4507  0.8052
 4326SOL    HW224612   0.790   2.480   8.338 -0.0787  2.0080  0.8528
 4327SOL     OW24613   2.194   0.224   1.078  1.0379  0.0904 -0.0895
 4327SOL    HW124614   2.231   0.279   1.147 -0.3461  0.5194  0.3097
 4327SOL    HW224615   2.132   0.289   1.044  0.9527  0.2151  0.3080
 4328SOL     OW24616   0.941   1.293   1.571 -0.0583  0.0647 -0.4174
 4328SOL    HW124617   0.878   1.311   1.501 -0.2116 -1.6176 -0.7052
 4328SOL    HW224618   0.880   1.311   1.642 -0.0149  0.5847 -0.5044
 4329SOL     OW24619   1.911   0.356   4.473  0.4595 -0.3308  0.5402
 4329SOL    HW124620   1.945   0.406   4.548 -0.8354  1.4414 -0.0573
 4329SOL    HW224621   1.919   0.425   4.407  1.1134 -0.6116  0.3337
 4330SOL     OW24622   4.223   3.922  10.815 -0.0961 -0.1918 -0.3946
 4330SOL    HW124623   4.317   3.936  10.827 -0.2579  2.4595 -2.1493
 4330SOL    HW224624   4.215   3.959  10.727 -3.6307 -3.1739 -1.3416
 4331SOL     OW24625   4.121   2.609   3.666  0.0792  0.0562 -0.7297
 4331SOL    HW124626   4.209   2.598   3.630 -0.5085 -2.5728 -1.3650
 4331SOL    HW224627   4.067   2.580   3.593 -2.1001 -0.4466  1.0591
 4332SOL     OW24628   2.069   0.938   4.872  0.6539  0.0002 -1.0516
 4332SOL    HW124629   2.123   0.887   4.933 -0.2246 -0.9941 -1.1152
 4332SOL    HW224630   1.996   0.966   4.928  0.0140 -0.5727 -1.6079
 4333SOL     OW24631   2.427   0.352  17.566 -0.4413  0.2746 -0.0794
 4333SOL    HW124632   2.361   0.416  17.595 -0.9882 -0.6205  0.6543
 4333SOL    HW224633   2.483   0.337  17.642  0.0911  0.9518 -0.3369
 4334SOL     OW24634   4.293   3.359   3.346  0.1799  0.3845 -0.4697
 4334SOL    HW124635   4.292   3.451   3.321 -3.0764  1.0903  2.2350
 4334SOL    HW224636   4.376   3.357   3.394  1.1324  0.0106 -2.1122
 4335SOL     OW24637   3.197   3.035   2.222  0.9318  0.8371  0.0503
 4335SOL    HW124638   3.283   3.006   2.251 -0.0297 -1.5849  0.4495
 4335SOL    HW224639   3.159   3.069   2.303  1.1479 -0.6336  0.7688
 4336SOL     OW24640   2.516   3.603   4.599  0.0685  0.3275 -0.6720
 4336SOL    HW124641   2.451   3.613   4.669 -0.5525  0.5686 -1.2861
 4336SOL    HW224642   2.542   3.511   4.605 -2.3673 -0.1735  2.2650
 4337SOL     OW24643   2.408   1.672   4.622 -0.0332  0.1393  0.4573
 4337SOL    HW124644   2.415   1.662   4.717 -1.0334  0.3776  0.5602
 4337SOL    HW224645   2.437   1.762   4.609  0.5759 -0.5631 -2.9966
 4338SOL     OW24646   3.554   1.941  14.337 -0.0261 -0.1122  0.8176
 4338SOL    HW124647   3.527   1.894  14.258  3.2677  2.3591 -1.8062
 4338SOL    HW224648   3.465   1.957  14.368 -0.1959  0.3141  0.1179
 4339SOL     OW24649   2.488   0.133   7.763  0.1062 -0.6194  0.4176
 4339SOL    HW124650   2.515   0.220   7.792 -1.1284  0.7781 -2.6262
 4339SOL    HW224651   2.393   0.141   7.764  0.0571 -1.0769 -0.3805
 4340SOL     OW24652   4.125   3.178  15.927  0.2908 -0.1670  0.6009
 4340SOL    HW124653   4.203   3.133  15.895  0.9624  1.3106  0.1653
 4340SOL    HW224654   4.107   3.125  16.005  1.5686  1.3619  1.9346
 4341SOL     OW24655   3.900   1.399   9.567 -0.0297  0.5342  0.0987
 4341SOL    HW124656   3.993   1.416   9.554 -0.0904  2.5507  2.2726
 4341SOL    HW224657   3.887   1.322   9.512 -0.8975 -1.7368  3.4757
 4342SOL     OW24658   2.287   4.405   6.919  0.4684  0.5526  0.3135
 4342SOL    HW124659   2.250   4.334   6.970  4.8998 -2.5228 -0.6967
 4342SOL    HW224660   2.377   4.403   6.951  0.4272 -0.0752  0.3753
 4343SOL     OW24661   4.064   3.648   3.976  0.2455 -0.3874 -0.3108
 4343SOL    HW124662   4.121   3.673   4.049  0.2577 -0.3349 -0.3388
 4343SOL    HW224663   3.971   3.647   4.001  0.0542  1.9552 -0.9746
 4344SOL     OW24664   3.577   2.697   8.830 -0.3205  0.2038 -0.1817
 4344SOL    HW124665   3.632   2.717   8.905 -0.8750  0.2482  0.2149
 4344SOL    HW224666   3.592   2.779   8.783  1.1261 -0.4553 -0.8891
 4345SOL     OW24667   4.249   0.240  11.717  0.7016  0.4697  0.5350
 4345SOL    HW124668   4.319   0.221  11.780  1.0442 -0.8244 -0.2336
 4345SOL    HW224669   4.202   0.157  11.717  2.0216 -0.2759 -1.0424
 4346SOL     OW24670   1.124   3.325   5.810 -0.1288  0.6597 -0.2375
 4346SOL    HW124671   1.116   3.391   5.740  0.1333  1.0238  0.0780
 4346SOL    HW224672   1.211   3.290   5.794 -0.2294 -0.9518  2.9722
 4347SOL     OW24673   3.373   2.139   0.619  0.0001  0.2802  0.2700
 4347SOL    HW124674   3.329   2.058   0.646  0.7667  0.5729  2.3904
 4347SOL    HW224675   3.309   2.156   0.550  0.5768  1.4985  0.0475
 4348SOL     OW24676   1.236   0.955   5.691  0.1988  0.4347  0.1105
 4348SOL    HW124677   1.178   0.919   5.758  1.1500 -0.2622  0.5532
 4348SOL    HW224678   1.190   0.957   5.607 -0.4788 -2.8812  0.4266
 4349SOL     OW24679   3.968   3.713  12.350 -0.3382 -0.2703  0.1957
 4349SOL    HW124680   3.874   3.731  12.359  0.1226  2.0133  0.2726
 4349SOL    HW224681   4.007   3.800  12.353  1.4199 -1.1424  2.1095
 4350SOL     OW24682   0.598   3.829   2.606 -0.1750  0.0396 -0.3249
 4350SOL    HW124683   0.540   3.814   2.680  1.5188 -0.9439  0.8168
 4350SOL    HW224684   0.647   3.900   2.648 -1.3353 -0.6534  2.1948
 4351SOL     OW24685   4.366   4.236   4.214 -0.3395  0.3054  0.6014
 4351SOL    HW124686   4.371   4.152   4.171 -1.6096  1.1535 -1.1935
 4351SOL    HW224687   4.363   4.298   4.141 -1.0973  3.6021  3.3616
 4352SOL     OW24688   0.088   3.037  15.849  0.2813 -0.0508 -0.1114
 4352SOL    HW124689   0.062   3.086  15.927  1.0648  1.4381 -0.7674
 4352SOL    HW224690   0.114   3.102  15.783  0.2249  2.6767  2.5265
 4353SOL     OW24691   0.171   1.801   1.167 -0.6050  0.2565 -0.3809
 4353SOL    HW124692   0.122   1.735   1.217  3.9990 -1.8902  1.2600
 4353SOL    HW224693   0.145   1.778   1.078 -1.4799 -0.5375  0.0861
 4354SOL     OW24694   2.785   1.031   4.128  0.2148  0.1408 -0.2930
 4354SOL    HW124695   2.742   0.999   4.049  1.6862 -1.5046 -0.4399
 4354SOL    HW224696   2.859   0.972   4.115  0.6432  0.2806  1.5465
 4355SOL     OW24697   4.231   3.202   2.414 -0.0310 -0.0862  0.3765
 4355SOL    HW124698   4.298   3.160   2.468 -0.7168 -2.4743 -0.6553
 4355SOL    HW224699   4.194   3.126   2.371  0.6703  1.4750 -3.0098
 4356SOL     OW24700   2.703   1.576   5.281 -0.1342  0.3781  0.0436
 4356SOL    HW124701   2.747   1.615   5.356  1.1385 -0.8169 -0.0930
 4356SOL    HW224702   2.632   1.640   5.274 -0.0329  0.5299  0.4365
 4357SOL     OW24703   0.072   2.901   3.178 -0.2058  0.4329 -0.0617
 4357SOL    HW124704   0.025   2.894   3.096  1.5023 -1.4496 -0.8860
 4357SOL    HW224705   0.006   2.868   3.239 -1.8725  2.8850 -0.5304
 4358SOL     OW24706   0.520   1.979   2.874 -0.5715  0.6072 -0.6281
 4358SOL    HW124707   0.527   1.992   2.968  0.1771  1.3977 -0.7946
 4358SOL    HW224708   0.592   1.918   2.858  0.9505  2.5675 -1.2581
 4359SOL     OW24709   1.071   1.982  15.255  0.7767  0.0543 -0.7815
 4359SOL    HW124710   1.143   1.986  15.317  1.0006 -0.8833 -0.9831
 4359SOL    HW224711   1.008   1.929  15.304  0.3613  2.3842  1.2224
 4360SOL     OW24712   1.663   3.228  11.569  0.3729  0.0178 -0.8878
 4360SOL    HW124713   1.645   3.150  11.518 -0.5038 -0.5966  0.3767
 4360SOL    HW224714   1.585   3.275  11.539 -0.5340 -2.1199 -1.8091
 4361SOL     OW24715   3.985   0.849   8.396 -0.3291  0.1617 -0.4053
 4361SOL    HW124716   3.939   0.928   8.366 -1.1283 -0.1072  0.1080
 4361SOL    HW224717   4.070   0.881   8.426 -1.1454  0.1387  1.9704
 4362SOL     OW24718   3.252   1.188   4.014 -0.0786  0.0308 -0.5080
 4362SOL    HW124719   3.244   1.132   4.092 -2.3989 -0.0530 -0.8005
 4362SOL    HW224720   3.254   1.119   3.948 -0.4304 -2.0922  1.6723
 4363SOL     OW24721   3.890   4.224   6.688 -0.1029  0.2403 -0.4950
 4363SOL    HW124722   3.801   4.258   6.684 -0.7057 -1.3841 -0.8661
 4363SOL    HW224723   3.945   4.298   6.715  0.5377 -0.4459  0.0604
 4364SOL     OW24724   2.073   2.892  13.494 -0.3618 -0.0089 -0.0778
 4364SOL    HW124725   2.024   2.888  13.575  1.6790 -1.0075  1.1083
 4364SOL    HW224726   2.018   2.950  13.442 -0.8930  0.4038  0.9532
 4365SOL     OW24727   0.746   2.888  14.963  0.5946  0.1603 -0.1909
 4365SOL    HW124728   0.658   2.894  15.000  0.2510 -0.8680 -0.8610
 4365SOL    HW224729   0.785   2.974  14.980 -0.9506  0.7978  0.1803
 4366SOL     OW24730   0.343   2.891   3.287 -0.1325  0.0910 -0.3115
 4366SOL    HW124731   0.257   2.913   3.253  0.9364 -0.6964 -3.5010
 4366SOL    HW224732   0.375   2.852   3.206  1.7445 -0.6272  0.7692
 4367SOL     OW24733   0.231   3.288   7.053 -0.2584 -0.5278 -0.1642
 4367SOL    HW124734   0.232   3.244   7.139 -0.2215 -0.6220 -0.2128
 4367SOL    HW224735   0.314   3.257   7.018  1.0623  3.3281 -0.4857
 4368SOL     OW24736   2.221   1.227  12.910  0.3375  0.3949 -0.2841
 4368SOL    HW124737   2.157   1.289  12.876  0.6409  0.7837 -0.1501
 4368SOL    HW224738   2.285   1.282  12.956 -1.7646  1.5146  1.2923
 4369SOL     OW24739   2.314   0.799   1.781  0.5470 -0.5299 -0.8112
 4369SOL    HW124740   2.405   0.777   1.761  1.4035  1.4958  0.8074
 4369SOL    HW224741   2.308   0.894   1.793  1.2179 -0.9594  3.0064
 4370SOL     OW24742   3.835   2.944   7.696  0.0470  0.4871 -0.7701
 4370SOL    HW124743   3.907   2.914   7.641  1.6950  1.4348  0.8672
 4370SOL    HW224744   3.828   2.873   7.760 -1.5658 -0.4865 -2.0145
 4371SOL     OW24745   4.021   0.311   2.593 -0.1429  0.3757  0.1770
 4371SOL    HW124746   4.009   0.245   2.525 -0.9638  0.9588 -0.2438
 4371SOL    HW224747   4.041   0.256   2.669 -0.1380  0.0849 -0.0354
 4372SOL     OW24748   3.387   2.339  16.443  0.5130 -0.0298 -1.0158
 4372SOL    HW124749   3.378   2.274  16.373 -2.0152 -1.5468  0.7095
 4372SOL    HW224750   3.463   2.299  16.486 -0.1737  0.1823  0.4091
 4373SOL     OW24751   1.181   1.322   6.832  0.1940 -0.3102 -0.4126
 4373SOL    HW124752   1.107   1.381   6.850  0.5078 -0.2520  0.6517
 4373SOL    HW224753   1.212   1.360   6.749  1.5015  1.9020  1.0876
 4374SOL     OW24754   4.026   1.904  14.681  0.0561 -0.3630 -0.0234
 4374SOL    HW124755   4.111   1.901  14.636 -0.3291 -0.3491 -0.7517
 4374SOL    HW224756   3.973   1.962  14.627  1.5814 -0.6079 -1.7853
 4375SOL     OW24757   3.680   1.358   7.174 -0.1664 -0.4812  0.9891
 4375SOL    HW124758   3.619   1.311   7.231 -0.4661 -0.5630  0.5988
 4375SOL    HW224759   3.632   1.440   7.167  0.4027 -0.3701 -1.4854
 4376SOL     OW24760   1.711   0.048   4.099  0.2434  0.4720  0.4498
 4376SOL    HW124761   1.803   0.072   4.095  0.9359 -1.9297  1.9689
 4376SOL    HW224762   1.715   0.017   4.189  0.0151 -1.7844 -0.3213
 4377SOL     OW24763   2.000   1.036   6.707  0.1545 -0.2530 -0.1542
 4377SOL    HW124764   2.093   1.058   6.709  0.3827 -1.2811  1.2959
 4377SOL    HW224765   1.967   1.101   6.646 -0.4004 -1.2251 -0.8953
 4378SOL     OW24766   1.541   0.019  16.933 -0.4530 -0.2534  0.2671
 4378SOL    HW124767   1.461   0.070  16.941  0.0431  0.3113  1.4794
 4378SOL    HW224768   1.508   4.665  16.911  0.1619 -0.4345  0.0570
 4379SOL     OW24769   3.562   4.118   3.279  0.0933  0.2272 -0.2097
 4379SOL    HW124770   3.508   4.177   3.226  1.7583  0.9957 -1.0631
 4379SOL    HW224771   3.635   4.112   3.217 -0.4761  3.3531 -1.1942
 4380SOL     OW24772   0.288   1.081   5.782  0.1561  0.0991  0.1546
 4380SOL    HW124773   0.275   1.164   5.828 -0.3945 -0.7667  1.5688
 4380SOL    HW224774   0.226   1.040   5.843 -0.9300 -0.6200 -1.4452
 4381SOL     OW24775   2.133   3.646   0.352 -0.5640  0.4144  0.1764
 4381SOL    HW124776   2.214   3.597   0.365 -1.2756 -0.6814  0.4599
 4381SOL    HW224777   2.061   3.596   0.388  0.2453 -0.9255 -0.0729
 4382SOL     OW24778   1.469   0.368   5.751  0.4017  0.2979  0.0270
 4382SOL    HW124779   1.538   0.367   5.683  2.0647  1.8842  1.6930
 4382SOL    HW224780   1.522   0.342   5.827 -0.2149  0.5828  0.5473
 4383SOL     OW24781   3.763   0.825   3.445 -0.5124 -0.1029  1.2430
 4383SOL    HW124782   3.836   0.762   3.448  0.6261  1.1646  0.2514
 4383SOL    HW224783   3.817   0.904   3.438 -0.8521  0.2961  3.0291
 4384SOL     OW24784   0.643   2.276   7.190 -0.0707  0.2075  0.7236
 4384SOL    HW124785   0.614   2.202   7.138  1.1373  0.4321 -0.2772
 4384SOL    HW224786   0.651   2.346   7.125 -0.9279 -3.1115 -2.9469
 4385SOL     OW24787   2.768   1.945  17.299  0.3070 -0.4099  0.0892
 4385SOL    HW124788   2.826   1.911  17.367  0.9320  0.8604  0.1823
 4385SOL    HW224789   2.818   1.925  17.219 -1.5288 -1.7216 -0.7422
 4386SOL     OW24790   2.542   1.285   4.497  0.0102  0.1115  0.6202
 4386SOL    HW124791   2.502   1.363   4.460  0.6346  0.2119  0.1536
 4386SOL    HW224792   2.569   1.244   4.414  1.3664 -0.1057  1.1691
 4387SOL     OW24793   2.314   2.520   5.724  0.9785 -0.3028 -0.1186
 4387SOL    HW124794   2.379   2.575   5.768  0.0411  0.5177  0.2495
 4387SOL    HW224795   2.275   2.480   5.801 -0.1161 -1.0815 -1.0756
 4388SOL     OW24796   0.960   4.354   7.458 -0.1055 -0.3666 -0.3230
 4388SOL    HW124797   1.035   4.345   7.399  0.6448  2.7095  0.1798
 4388SOL    HW224798   0.934   4.439   7.423 -1.0323 -0.2063  0.7372
 4389SOL     OW24799   4.530   3.989   2.652 -0.1326 -0.1263 -0.3745
 4389SOL    HW124800   4.503   4.044   2.578  0.4561  2.1691  1.0993
 4389SOL    HW224801   4.579   3.925   2.601  0.7687  1.1761 -1.1613
 4390SOL     OW24802   3.998   2.270   1.363 -0.0199 -0.1576  1.1837
 4390SOL    HW124803   4.086   2.295   1.333 -0.1126  0.2641  1.2603
 4390SOL    HW224804   3.943   2.337   1.324  0.6946 -0.4600 -0.3484
 4391SOL     OW24805   3.817   0.767   7.818  0.1726 -0.1827 -0.0291
 4391SOL    HW124806   3.863   0.683   7.820 -0.3059 -0.4177  0.9351
 4391SOL    HW224807   3.769   0.766   7.735 -1.1373  0.2524  0.7326
 4392SOL     OW24808   4.303   1.233   9.526 -0.1900 -0.4179  0.0806
 4392SOL    HW124809   4.242   1.304   9.546  0.7642  0.3259  0.3802
 4392SOL    HW224810   4.322   1.239   9.433  2.4067  1.3368  0.7199
 4393SOL     OW24811   4.153   2.835   2.789  0.3080  0.0831  0.1601
 4393SOL    HW124812   4.238   2.800   2.762 -0.2288 -0.8284 -0.3906
 4393SOL    HW224813   4.120   2.854   2.701  0.4726 -2.5584 -0.4797
 4394SOL     OW24814   0.321   4.101   7.265  0.1503 -0.6051 -0.0028
 4394SOL    HW124815   0.394   4.049   7.231  0.6583 -1.3312  2.2143
 4394SOL    HW224816   0.278   4.126   7.183  3.3456  1.1939 -1.1390
 4395SOL     OW24817   1.141   3.545   5.617 -0.1088 -0.3234  0.2558
 4395SOL    HW124818   1.191   3.571   5.539 -2.0631  2.1563 -0.1652
 4395SOL    HW224819   1.197   3.572   5.689  0.2044 -1.4253  0.4290
 4396SOL     OW24820   3.794   3.897  17.557 -0.0681 -0.5024  0.2435
 4396SOL    HW124821   3.733   3.830  17.527 -0.1385 -0.1660 -0.3629
 4396SOL    HW224822   3.861   3.883  17.491 -1.7366 -1.4103 -1.2365
 4397SOL     OW24823   3.456   0.327   8.056 -0.3107  0.4305 -0.3471
 4397SOL    HW124824   3.406   0.339   7.975  0.2110  1.6996 -0.4909
 4397SOL    HW224825   3.397   0.272   8.107 -2.7485  2.5913 -0.8418
 4398SOL     OW24826   1.047   2.109  12.069  0.2317 -0.0654 -0.0125
 4398SOL    HW124827   1.108   2.104  11.995  0.7229  3.3648  0.1796
 4398SOL    HW224828   1.031   2.022  12.105 -0.5003  0.2826  0.4955
 4399SOL     OW24829   3.832   3.711   2.490 -0.1588  0.2964 -0.1335
 4399SOL    HW124830   3.831   3.702   2.585 -1.5730  3.0787  0.1253
 4399SOL    HW224831   3.857   3.804   2.488 -4.2424  1.4639  2.1245
 4400SOL     OW24832   0.110   4.253  12.268 -0.5423  0.3669 -0.1894
 4400SOL    HW124833   0.123   4.334  12.218  1.4537  0.8641  1.1314
 4400SOL    HW224834   0.118   4.284  12.358  3.4915 -0.3407 -0.3020
 4401SOL     OW24835   2.457   1.059   0.575  0.1956 -0.0163  0.1776
 4401SOL    HW124836   2.452   1.062   0.479  2.5356  2.4561  0.1479
 4401SOL    HW224837   2.405   0.979   0.587  0.9467 -0.7883 -1.7217
 4402SOL     OW24838   3.918   1.053   9.674 -0.1102  0.5371  0.9091
 4402SOL    HW124839   3.905   1.110   9.598 -2.0458  0.1762  0.9716
 4402SOL    HW224840   3.911   0.967   9.632 -1.8545 -0.1305  2.6286
 4403SOL     OW24841   3.927   2.385   2.282 -0.4110  0.4558  0.2940
 4403SOL    HW124842   3.931   2.384   2.378 -0.5300 -0.3065  0.2899
 4403SOL    HW224843   3.832   2.377   2.269  0.1660 -1.1175 -2.9066
 4404SOL     OW24844   3.254   2.883   2.566 -0.0899 -0.4861 -0.7028
 4404SOL    HW124845   3.170   2.858   2.527  0.1922 -2.4826 -0.0406
 4404SOL    HW224846   3.313   2.892   2.492  0.0868  1.8255 -0.2865
 4405SOL     OW24847   1.216   4.433   7.901  0.1150 -0.1097  0.0133
 4405SOL    HW124848   1.195   4.526   7.887 -0.2764 -0.5361 -2.3167
 4405SOL    HW224849   1.163   4.382   7.840 -2.0774 -0.7860  2.4736
 4406SOL     OW24850   2.802   3.972   2.516 -0.8319 -0.0535 -0.5887
 4406SOL    HW124851   2.751   4.036   2.466 -0.5845  0.1468 -0.5826
 4406SOL    HW224852   2.735   3.914   2.552 -0.0929 -1.4651 -1.4997
 4407SOL     OW24853   3.732   4.104   1.418 -0.6666  0.0660  0.2118
 4407SOL    HW124854   3.661   4.113   1.354 -0.7302 -0.3977  0.2182
 4407SOL    HW224855   3.705   4.167   1.485 -1.9778 -1.1575  0.8278
 4408SOL     OW24856   0.302   4.216   3.364 -0.1049  0.3866  0.1555
 4408SOL    HW124857   0.364   4.261   3.307  0.0652 -0.6047 -0.4325
 4408SOL    HW224858   0.361   4.165   3.419 -1.7970  0.6755  2.2736
 4409SOL     OW24859   0.320   0.632   2.259 -0.9566 -0.1271 -0.0324
 4409SOL    HW124860   0.294   0.719   2.230 -1.8236 -0.6431 -0.8203
 4409SOL    HW224861   0.316   0.640   2.354  0.4591 -0.9370  0.0844
 4410SOL     OW24862   0.341   0.596   8.605  0.5223 -0.0547 -0.0970
 4410SOL    HW124863   0.312   0.575   8.516  1.4217  2.2357 -0.9054
 4410SOL    HW224864   0.422   0.643   8.586  0.7872  0.3411  2.0159
 4411SOL     OW24865   3.585   3.894  12.643 -0.1714 -0.2361  0.3463
 4411SOL    HW124866   3.505   3.941  12.664  0.4010  0.9078 -0.0646
 4411SOL    HW224867   3.659   3.944  12.676  0.6242  0.3694 -2.3862
 4412SOL     OW24868   2.001   2.487   1.923  0.7853  0.5417  0.1549
 4412SOL    HW124869   1.920   2.440   1.939  0.9376  0.6715  1.2717
 4412SOL    HW224870   1.993   2.576   1.959  0.5815  0.8787 -0.6996
 4413SOL     OW24871   0.017   4.373   7.624 -0.3935  0.0762  0.1214
 4413SOL    HW124872   4.696   4.451   7.621  0.9502  0.9871 -1.1002
 4413SOL    HW224873   0.039   4.376   7.531 -2.9595  2.2509 -0.4129
 4414SOL     OW24874   0.025   2.892   6.025 -0.0089  0.4367 -0.0718
 4414SOL    HW124875   0.095   2.940   6.070 -0.3554  1.2948 -0.4653
 4414SOL    HW224876   4.706   2.960   5.986 -0.5432  0.9407  1.5300
 4415SOL     OW24877   0.337   4.141   3.767 -0.7015  0.0860  0.4648
 4415SOL    HW124878   0.377   4.082   3.831 -1.1240  0.5529  1.1532
 4415SOL    HW224879   0.385   4.223   3.778 -1.7234  0.6391  0.8084
 4416SOL     OW24880   2.701   1.963   1.984  0.0256 -0.0159  0.1616
 4416SOL    HW124881   2.667   2.026   1.920 -0.0021  0.7049  0.8916
 4416SOL    HW224882   2.666   1.999   2.065 -0.9919  2.1078 -1.2075
 4417SOL     OW24883   3.873   0.402   4.888  0.3999  0.0363  0.1849
 4417SOL    HW124884   3.827   0.327   4.924  1.4717 -0.4973  0.4353
 4417SOL    HW224885   3.804   0.468   4.883 -0.5060 -0.9799 -0.7733
 4418SOL     OW24886   3.715   2.471   5.597  0.0251 -0.0687 -0.1141
 4418SOL    HW124887   3.759   2.469   5.682 -0.4912 -0.9303  0.1327
 4418SOL    HW224888   3.688   2.562   5.598 -0.5827 -0.2529  0.6857
 4419SOL     OW24889   1.473   0.050  13.055  0.0315  0.0891 -0.4714
 4419SOL    HW124890   1.418   0.008  12.990  1.0392 -1.1555 -0.5257
 4419SOL    HW224891   1.416   0.053  13.132  1.1366 -1.1277  0.3963
 4420SOL     OW24892   0.872   2.707   5.373  0.3033  0.5297 -0.3476
 4420SOL    HW124893   0.902   2.796   5.392 -0.3090  1.2184 -2.6304
 4420SOL    HW224894   0.810   2.702   5.446  0.4479  2.3396 -0.1132
 4421SOL     OW24895   2.132   0.532   3.872 -0.9795 -0.2926 -0.5218
 4421SOL    HW124896   2.203   0.523   3.809 -0.1654  1.2453  0.2015
 4421SOL    HW224897   2.067   0.468   3.841 -1.9169 -0.7700  2.4556
 4422SOL     OW24898   1.376   3.059   4.000 -0.3926  0.2521  0.2633
 4422SOL    HW124899   1.358   3.031   3.910  0.0258  0.6415  0.0578
 4422SOL    HW224900   1.297   3.030   4.045 -1.8313  2.4490 -0.8555
 4423SOL     OW24901   3.171   3.459   6.374  0.5767 -0.1474 -0.1829
 4423SOL    HW124902   3.077   3.464   6.391  0.6877 -0.7984  0.6157
 4423SOL    HW224903   3.166   3.431   6.283 -1.2718  0.3485 -0.2346
 4424SOL     OW24904   3.148   1.171  10.296  0.1051  0.6345 -0.2794
 4424SOL    HW124905   3.119   1.093  10.343 -1.7160  2.5991  1.8584
 4424SOL    HW224906   3.067   1.196  10.252  1.2554  1.8625 -1.6851
 4425SOL     OW24907   0.271   1.008   3.028  0.3768 -0.4677 -0.0534
 4425SOL    HW124908   0.264   1.103   3.021  0.4363 -0.4865 -0.3688
 4425SOL    HW224909   0.339   0.997   2.961  0.3031  1.8027 -0.5051
 4426SOL     OW24910   4.162   4.053   3.162 -0.3400 -0.5834 -0.4199
 4426SOL    HW124911   4.132   3.963   3.166  2.0709 -1.3208  0.7744
 4426SOL    HW224912   4.212   4.062   3.243  0.3898  0.0552 -0.9410
 4427SOL     OW24913   0.365   2.336   4.650 -0.1755  0.5670  0.0109
 4427SOL    HW124914   0.371   2.432   4.652  0.8832  0.4822  1.2215
 4427SOL    HW224915   0.304   2.308   4.719 -0.7511  0.4411 -0.5463
 4428SOL     OW24916   1.021   1.287   2.142  0.3509 -0.4201 -0.7091
 4428SOL    HW124917   1.022   1.192   2.155 -0.5467 -0.0171  2.2027
 4428SOL    HW224918   0.930   1.309   2.164 -0.2448 -0.1098 -3.4430
 4429SOL     OW24919   1.073   1.971   5.061  0.1621 -0.5142  0.0684
 4429SOL    HW124920   1.113   1.911   5.124 -0.2293  1.0863  1.8498
 4429SOL    HW224921   0.994   1.993   5.110 -0.6032 -2.8428 -0.1048
 4430SOL     OW24922   4.539   3.110   4.472 -0.0656  0.0334  0.5419
 4430SOL    HW124923   4.444   3.117   4.461 -0.0222  1.5004  1.1134
 4430SOL    HW224924   4.547   3.062   4.554 -0.7268  0.9518  1.1299
 4431SOL     OW24925   2.205   1.026   3.040  0.3024  0.1439  0.3654
 4431SOL    HW124926   2.275   1.048   3.102  0.6165  0.4862 -0.1095
 4431SOL    HW224927   2.256   1.024   2.959 -0.3294  1.5555 -0.0762
 4432SOL     OW24928   2.580   1.113   2.352  0.0907  0.5103  0.1294
 4432SOL    HW124929   2.521   1.065   2.293 -0.5733  0.1715  1.0676
 4432SOL    HW224930   2.566   1.067   2.435 -1.6424  1.2938  0.2823
 4433SOL     OW24931   4.587   1.501   2.557  0.5852 -0.4946 -0.4395
 4433SOL    HW124932   4.577   1.407   2.540 -0.6504  0.2050 -3.5576
 4433SOL    HW224933   4.646   1.502   2.632  0.3182 -1.5470 -0.2096
 4434SOL     OW24934   4.203   3.948   8.641  0.4431  0.4268  0.1046
 4434SOL    HW124935   4.175   4.019   8.584  0.8892  2.0380  1.8989
 4434SOL    HW224936   4.298   3.961   8.634  0.0989  2.4162 -0.7816
 4435SOL     OW24937   2.041   4.718   7.455  0.2807 -0.1482 -0.1229
 4435SOL    HW124938   2.097   0.061   7.468 -0.2929 -0.2285  2.7174
 4435SOL    HW224939   2.057   4.673   7.537  1.4763  1.5276  0.5511
 4436SOL     OW24940   0.704   1.512   9.473  0.3015  0.1946  0.3736
 4436SOL    HW124941   0.707   1.606   9.492 -0.3598  0.3488 -0.2848
 4436SOL    HW224942   0.609   1.500   9.465  0.2235  0.8264  0.3744
 4437SOL     OW24943   0.249   3.407  15.407  0.0515  0.2727  0.0858
 4437SOL    HW124944   0.299   3.481  15.441 -0.2251  0.5678 -0.1474
 4437SOL    HW224945   0.268   3.330  15.461 -0.8276  0.2179  0.3264
 4438SOL     OW24946   4.198   0.038   6.864  0.5825 -0.1834 -0.5260
 4438SOL    HW124947   4.200   4.678   6.845  1.1118 -0.3828  0.4701
 4438SOL    HW224948   4.287   0.048   6.899  0.7487  1.6180 -1.4813
 4439SOL     OW24949   2.876   3.079  10.977  0.2366  0.2967 -0.8188
 4439SOL    HW124950   2.944   3.107  10.915  0.6982  0.5870 -0.1829
 4439SOL    HW224951   2.798   3.103  10.927 -0.8307 -0.4261  0.5124
 4440SOL     OW24952   3.962   1.910   4.621  0.0352 -0.0251  0.0597
 4440SOL    HW124953   3.927   1.821   4.617 -0.0867  0.1491 -2.7169
 4440SOL    HW224954   3.985   1.922   4.713  0.5036 -0.7237  0.0336
 4441SOL     OW24955   0.450   1.380   4.071  0.2710 -0.0926 -0.5368
 4441SOL    HW124956   0.409   1.349   3.990 -0.4337  0.7437 -0.5064
 4441SOL    HW224957   0.470   1.306   4.128  1.1211  1.4147  1.1078
 4442SOL     OW24958   1.568   1.372   4.438  0.2917  0.0126 -0.2847
 4442SOL    HW124959   1.654   1.337   4.413 -0.3574 -0.8276 -1.3863
 4442SOL    HW224960   1.593   1.445   4.494  2.6026 -1.0703  0.1022
 4443SOL     OW24961   4.266   0.249   2.872 -0.8899 -0.8916  0.3844
 4443SOL    HW124962   4.222   0.189   2.811 -1.6659  0.4394 -0.3884
 4443SOL    HW224963   4.344   0.199   2.895 -0.1557  0.1173  0.1212
 4444SOL     OW24964   4.624   4.358  15.672  0.9121 -0.1563  0.1140
 4444SOL    HW124965   4.551   4.407  15.710 -0.8464 -0.8106 -2.3774
 4444SOL    HW224966   4.698   4.379  15.728 -0.0616  0.1355  1.2929
 4445SOL     OW24967   1.158   1.832   7.074 -0.1700 -0.1488  0.6448
 4445SOL    HW124968   1.197   1.804   6.990 -0.2444 -0.8587  0.8434
 4445SOL    HW224969   1.104   1.759   7.104 -0.6159  0.1760  0.6230
 4446SOL     OW24970   2.131   2.494   8.619  0.1802  0.1909 -0.2197
 4446SOL    HW124971   2.153   2.480   8.527  0.9877 -0.3004  0.0434
 4446SOL    HW224972   2.189   2.432   8.663  0.3310 -0.1308 -0.8817
 4447SOL     OW24973   2.429   3.341   8.173 -0.0520  0.3414 -0.1506
 4447SOL    HW124974   2.381   3.330   8.256  0.0491  1.3072  0.0344
 4447SOL    HW224975   2.517   3.350   8.209 -0.2099 -0.8104  0.5527
 4448SOL     OW24976   3.298   4.328   3.684  0.4618 -0.6063 -0.1581
 4448SOL    HW124977   3.227   4.325   3.748  1.9852 -1.0369  1.5023
 4448SOL    HW224978   3.335   4.242   3.704  0.6151  0.1411  2.8196
 4449SOL     OW24979   1.798   2.340   7.611  0.0518 -0.5328  0.0287
 4449SOL    HW124980   1.813   2.411   7.549 -0.6243  1.7389  2.4754
 4449SOL    HW224981   1.873   2.286   7.589 -0.1124  0.3772 -2.7192
 4450SOL     OW24982   3.369   2.992   6.499  0.2982 -1.1029 -0.0208
 4450SOL    HW124983   3.410   2.906   6.485  1.4097 -0.6150  0.1852
 4450SOL    HW224984   3.317   2.972   6.577  0.1221  0.0044  0.1371
 4451SOL     OW24985   2.493   3.153   7.748 -0.1418  0.1369  0.0069
 4451SOL    HW124986   2.557   3.187   7.811 -0.6931  0.2199  0.5255
 4451SOL    HW224987   2.459   3.230   7.703  1.3003  0.2369 -0.9106
 4452SOL     OW24988   2.366   4.125  11.770  0.2105 -0.4093  0.8454
 4452SOL    HW124989   2.323   4.109  11.686 -0.4517  0.2959  1.0602
 4452SOL    HW224990   2.337   4.052  11.825  0.4230 -1.9467 -1.0624
 4453SOL     OW24991   0.170   4.589   8.064  0.0814 -0.5053  0.4899
 4453SOL    HW124992   0.210   4.631   8.141  1.8951 -2.2879  0.5405
 4453SOL    HW224993   0.104   4.552   8.122  1.7874 -4.4182 -0.0747
 4454SOL     OW24994   0.872   1.449   4.378 -0.5063 -0.4767 -0.5791
 4454SOL    HW124995   0.871   1.545   4.381 -2.8175 -0.5399  0.6489
 4454SOL    HW224996   0.857   1.413   4.466  0.5112 -0.0606 -0.2328
 4455SOL     OW24997   2.213   1.563  15.385 -0.2252  0.0506 -0.4652
 4455SOL    HW124998   2.172   1.506  15.320  0.5822  0.0947 -1.0214
 4455SOL    HW224999   2.220   1.646  15.338  2.3975  0.6181  0.9453
 4456SOL     OW25000   2.446   1.139   3.717  0.0728  0.0437 -0.2392
 4456SOL    HW125001   2.414   1.157   3.629 -0.1841  0.9490  0.0329
 4456SOL    HW225002   2.361   1.136   3.762  0.5733 -1.5086  0.5784
 4457SOL     OW25003   3.118   1.295  10.571  0.4553 -0.3280  0.5776
 4457SOL    HW125004   3.025   1.287  10.593 -0.1750  0.6350 -1.8112
 4457SOL    HW225005   3.115   1.327  10.481  0.2227 -0.9219  0.3749
 4458SOL     OW25006   1.820   1.204   4.748 -0.2114 -0.3243  0.1708
 4458SOL    HW125007   1.747   1.263   4.766  0.6916  1.2280 -1.2026
 4458SOL    HW225008   1.783   1.131   4.700 -2.1778  2.2710 -2.2189
 4459SOL     OW25009   3.781   1.374   9.221  0.6621  0.0796  0.3998
 4459SOL    HW125010   3.703   1.430   9.230  0.4166 -0.1008 -0.5297
 4459SOL    HW225011   3.836   1.433   9.169 -0.3338  0.9386  0.3225
 4460SOL     OW25012   3.227   1.081   9.420 -0.2404  0.2422  0.0298
 4460SOL    HW125013   3.133   1.082   9.436 -0.3511 -0.6693 -0.5766
 4460SOL    HW225014   3.261   1.019   9.484  0.2279 -0.4078 -0.8455
 4461SOL     OW25015   2.896   4.330  11.053 -0.1396  0.1718  0.4179
 4461SOL    HW125016   2.922   4.418  11.077  1.0080 -0.5245  1.6962
 4461SOL    HW225017   2.940   4.271  11.114  1.8202  0.8889 -0.3014
 4462SOL     OW25018   3.208   3.883   6.184 -0.3337  0.3195  0.2224
 4462SOL    HW125019   3.180   3.806   6.134  1.1416  0.5279 -0.9189
 4462SOL    HW225020   3.125   3.886   6.232 -0.1395 -3.7200  0.8044
 4463SOL     OW25021   1.109   3.642   7.063  0.1224  0.3759  0.3708
 4463SOL    HW125022   1.019   3.671   7.049 -0.1044 -1.4547 -1.7925
 4463SOL    HW225023   1.093   3.553   7.094  0.1176  0.0529 -0.5631
 4464SOL     OW25024   4.402   4.394   5.476  0.7129 -0.3348  0.1311
 4464SOL    HW125025   4.362   4.461   5.421  0.1695 -1.4101 -0.7803
 4464SOL    HW225026   4.342   4.393   5.551  0.4520  0.3112 -0.0692
 4465SOL     OW25027   2.681   2.311   2.310 -0.1603 -0.0374  0.5655
 4465SOL    HW125028   2.608   2.373   2.310 -1.8263 -2.0008  0.2866
 4465SOL    HW225029   2.757   2.355   2.348 -0.5679  0.2278  1.0721
 4466SOL     OW25030   0.804   0.983   7.278 -0.8478 -0.0259 -0.3698
 4466SOL    HW125031   0.779   1.073   7.300  0.6658 -0.2474  2.2520
 4466SOL    HW225032   0.726   0.969   7.224 -0.0873 -0.6859 -1.2853
 4467SOL     OW25033   1.474   2.323   5.925  0.0231  0.1490 -0.1277
 4467SOL    HW125034   1.468   2.280   5.839  1.4400 -2.4373  1.0751
 4467SOL    HW225035   1.447   2.244   5.973  1.8701  0.0191  0.6958
 4468SOL     OW25036   2.031   3.818   9.636  0.0624  0.5885 -0.1607
 4468SOL    HW125037   2.075   3.892   9.594 -0.0816  0.5651 -0.3517
 4468SOL    HW225038   1.947   3.820   9.591  0.9334 -1.9336 -1.9261
 4469SOL     OW25039   3.626   2.284   6.207  0.3228 -0.1784  0.1995
 4469SOL    HW125040   3.663   2.234   6.280 -0.8790  1.1632  1.7429
 4469SOL    HW225041   3.539   2.243   6.209 -0.1858  0.8056 -1.9162
 4470SOL     OW25042   0.863   1.563  13.792 -0.4466  0.2797 -0.2761
 4470SOL    HW125043   0.854   1.518  13.876 -1.2915  0.0983 -0.4619
 4470SOL    HW225044   0.796   1.631  13.798 -1.2029 -0.3812 -1.2227
 4471SOL     OW25045   2.026   0.279   6.939 -0.2632  0.6798  0.1168
 4471SOL    HW125046   2.006   0.188   6.918 -2.4928  0.7764  1.7264
 4471SOL    HW225047   2.111   0.266   6.981 -1.2868 -5.0649  0.3984
 4472SOL     OW25048   0.527   3.369   8.418 -0.0911 -0.0410  0.0382
 4472SOL    HW125049   0.471   3.338   8.490 -0.4029 -0.8786 -0.5687
 4472SOL    HW225050   0.477   3.445   8.388  0.8976 -0.1198 -1.7939
 4473SOL     OW25051   3.124   3.691   3.494  0.3033 -0.6568 -0.6928
 4473SOL    HW125052   3.083   3.693   3.408 -0.8042 -0.6604 -0.1651
 4473SOL    HW225053   3.147   3.600   3.511  0.8777 -0.6185 -1.2467
 4474SOL     OW25054   2.067   1.245  17.194 -0.0941 -0.4112 -0.3730
 4474SOL    HW125055   2.136   1.192  17.232 -0.6089  0.5924  1.9698
 4474SOL    HW225056   1.995   1.222  17.254  0.0539  0.7416  0.2518
 4475SOL     OW25057   1.401   4.371   5.253  0.3366 -0.2637 -0.2107
 4475SOL    HW125058   1.470   4.305   5.257 -0.0366 -0.4431  3.6509
 4475SOL    HW225059   1.372   4.358   5.163 -0.3605  0.8924 -0.1489
 4476SOL     OW25060   4.324   2.854   5.821 -0.0500  0.1220  0.1781
 4476SOL    HW125061   4.390   2.821   5.882  0.2836 -0.7987 -0.6843
 4476SOL    HW225062   4.304   2.938   5.862  0.1298  0.3244 -0.1514
 4477SOL     OW25063   2.748   3.105   0.674 -0.3380 -0.0167  0.4920
 4477SOL    HW125064   2.757   3.057   0.756  1.6865 -2.4031 -1.1154
 4477SOL    HW225065   2.653   3.117   0.667 -0.4374 -1.8565 -1.5382
 4478SOL     OW25066   3.343   1.371  10.715  0.4336  0.4997 -0.1168
 4478SOL    HW125067   3.390   1.381  10.632  0.0788  0.8666 -0.2758
 4478SOL    HW225068   3.256   1.352  10.680  0.5709 -0.0810 -0.1440
 4479SOL     OW25069   1.201   1.568  17.302  0.1644 -0.0119 -0.0535
 4479SOL    HW125070   1.129   1.605  17.252  0.3383 -0.9891 -1.0334
 4479SOL    HW225071   1.207   1.489  17.248 -1.0441  0.3087 -0.6389
 4480SOL     OW25072   0.594   2.846   9.737 -0.2874 -0.3365 -0.9126
 4480SOL    HW125073   0.518   2.889   9.775 -0.3155 -1.3420  0.1492
 4480SOL    HW225074   0.569   2.754   9.741  1.5384 -0.6913  1.7717
 4481SOL     OW25075   3.857   0.294   2.229 -0.1889 -0.5950 -0.2766
 4481SOL    HW125076   3.945   0.287   2.265  0.5416  2.0737 -1.5041
 4481SOL    HW225077   3.855   0.217   2.172 -1.6957 -0.8037  0.0510
 4482SOL     OW25078   0.750   1.369   6.213 -0.2048  0.2690  0.5186
 4482SOL    HW125079   0.775   1.383   6.121 -0.0744  0.0418  0.5199
 4482SOL    HW225080   0.742   1.456   6.252  0.6118  0.8611 -0.6210
 4483SOL     OW25081   4.378   1.610   9.960  0.2133 -0.1982 -0.0048
 4483SOL    HW125082   4.323   1.662   9.901  0.2566 -0.2282 -0.0710
 4483SOL    HW225083   4.406   1.538   9.904  0.6921  0.7394 -0.9739
 4484SOL     OW25084   2.995   2.680  15.272 -0.2043 -0.2506 -0.1683
 4484SOL    HW125085   3.020   2.772  15.260 -1.9236  0.3800  0.9890
 4484SOL    HW225086   3.070   2.653  15.326  1.3584  0.0090 -2.1925
 4485SOL     OW25087   3.505   1.085  13.930  0.1930  0.5363 -0.4498
 4485SOL    HW125088   3.460   1.166  13.906 -2.3073 -0.2655  1.4821
 4485SOL    HW225089   3.585   1.096  13.879 -0.7670  3.4131 -1.3110
 4486SOL     OW25090   0.401   0.372   8.786 -0.2524  0.3381  0.1297
 4486SOL    HW125091   0.379   0.409   8.872 -0.8168 -1.0588  0.5835
 4486SOL    HW225092   0.387   0.446   8.727 -0.3504  0.9702  0.9403
 4487SOL     OW25093   1.667   2.888  14.128 -0.5077 -0.1442 -0.2484
 4487SOL    HW125094   1.605   2.960  14.117  0.5962  1.1287  1.9041
 4487SOL    HW225095   1.725   2.918  14.197 -1.1699  1.3115 -0.3234
 4488SOL     OW25096   3.656   3.911   8.704 -0.6945  0.2997 -0.1448
 4488SOL    HW125097   3.650   3.893   8.610 -4.1030  1.3578 -0.1236
 4488SOL    HW225098   3.705   3.833   8.731 -0.9776  0.2673  0.2710
 4489SOL     OW25099   0.629   2.573   6.594  0.5053 -0.3819  0.5107
 4489SOL    HW125100   0.703   2.542   6.541 -0.4381 -0.6209 -0.6531
 4489SOL    HW225101   0.607   2.661   6.564 -3.4848 -1.0905  1.3109
 4490SOL     OW25102   1.624   3.484   8.195  0.3089 -0.0372  0.0985
 4490SOL    HW125103   1.616   3.480   8.290 -0.2240  1.0164  0.1018
 4490SOL    HW225104   1.706   3.535   8.196  0.0378  0.3818  0.6623
 4491SOL     OW25105   3.248   2.791   5.605  0.1110  0.5894 -0.4891
 4491SOL    HW125106   3.208   2.710   5.638 -0.4722  1.2755  0.4897
 4491SOL    HW225107   3.226   2.781   5.513  2.0493 -2.0116 -0.6536
 4492SOL     OW25108   3.261   4.474  12.204  0.2645  0.1528  0.4338
 4492SOL    HW125109   3.236   4.381  12.207  0.2656  0.2229  2.1581
 4492SOL    HW225110   3.225   4.507  12.286 -2.1684  0.1052 -0.5967
 4493SOL     OW25111   2.251   4.679  10.115 -0.1040  0.1422 -0.8696
 4493SOL    HW125112   2.243   4.707  10.206 -0.7451 -1.1531 -0.5313
 4493SOL    HW225113   2.222   4.588  10.122  0.0610  0.3173  1.8434
 4494SOL     OW25114   3.857   1.670   8.774 -0.2212  0.2609  0.1992
 4494SOL    HW125115   3.937   1.618   8.771  0.8569  1.8752  0.4307
 4494SOL    HW225116   3.836   1.690   8.683  1.9565 -0.7827 -0.5437
 4495SOL     OW25117   4.695   4.105  11.664  0.4575 -0.1519  0.4617
 4495SOL    HW125118   4.672   4.176  11.603  0.5105  0.7039  1.4398
 4495SOL    HW225119   0.010   4.158  11.727  0.3533  0.5486 -0.0353
 4496SOL     OW25120   4.654   3.748  16.415 -0.4987 -0.1806  0.3164
 4496SOL    HW125121   4.696   3.741  16.501  0.0209 -0.9425 -0.0014
 4496SOL    HW225122   4.560   3.759  16.428 -0.2868 -1.0445  2.4723
 4497SOL     OW25123   3.946   4.624   3.134  0.2732  0.0399 -0.3066
 4497SOL    HW125124   3.994   4.706   3.145 -0.9650  0.5352  1.4895
 4497SOL    HW225125   3.864   4.654   3.174  0.0087 -1.4717  0.2853
 4498SOL     OW25126   0.761   1.091   5.908 -0.8568  0.2319 -0.3493
 4498SOL    HW125127   0.797   1.014   5.863 -0.2360  0.7041 -0.6611
 4498SOL    HW225128   0.766   1.058   5.998 -0.5896 -0.0786 -0.4791
 4499SOL     OW25129   3.406   1.715   3.003 -0.4052 -0.7552  0.2657
 4499SOL    HW125130   3.493   1.697   2.967 -0.4998 -0.6383 -0.0230
 4499SOL    HW225131   3.353   1.744   2.928 -0.8166 -4.4927 -0.8899
 4500SOL     OW25132   1.384   2.556   8.753 -0.2953 -0.1768  0.4427
 4500SOL    HW125133   1.333   2.568   8.672 -0.5681  1.6127  0.8642
 4500SOL    HW225134   1.472   2.560   8.716 -1.3726  2.0328 -1.9240
 4501SOL     OW25135   1.041   0.651  10.495 -0.1399 -0.4433 -0.4364
 4501SOL    HW125136   0.980   0.588  10.533  0.5665  0.0677  1.5345
 4501SOL    HW225137   1.125   0.615  10.521 -0.0331 -0.1644 -0.3948
 4502SOL     OW25138   2.178   2.306   2.509  0.4194  0.2473 -0.0545
 4502SOL    HW125139   2.236   2.267   2.574  1.7337 -0.6289 -1.7334
 4502SOL    HW225140   2.197   2.271   2.422 -2.0855 -3.8782  1.0845
 4503SOL     OW25141   2.187   0.806   3.820 -0.0927 -0.0876 -0.2908
 4503SOL    HW125142   2.182   0.773   3.731  0.7302 -2.3357  0.4956
 4503SOL    HW225143   2.167   0.732   3.877  0.5974  0.8689  1.2155
 4504SOL     OW25144   4.429   2.289   4.871  0.1474  0.2151 -0.0598
 4504SOL    HW125145   4.439   2.341   4.951  2.4588 -2.0378  1.1042
 4504SOL    HW225146   4.465   2.346   4.803 -0.4957  1.3072  0.5038
 4505SOL     OW25147   2.849   2.968  10.077 -0.5158  0.2487  0.2000
 4505SOL    HW125148   2.912   3.039  10.063  0.0358 -0.7691 -2.4841
 4505SOL    HW225149   2.898   2.894  10.041 -0.9604 -0.6095  1.3593
 4506SOL     OW25150   0.810   0.094   8.120 -0.3114 -0.3068  0.7297
 4506SOL    HW125151   0.838   0.108   8.210  0.4513 -0.5632  0.5313
 4506SOL    HW225152   0.717   0.096   8.144 -0.5225  1.6751 -0.2786
 4507SOL     OW25153   2.348   3.066   3.738  0.2590  0.2638 -0.0720
 4507SOL    HW125154   2.421   3.056   3.798 -1.2810 -1.3937  1.5490
 4507SOL    HW225155   2.331   3.160   3.740 -0.3313  0.1868 -1.0005
 4508SOL     OW25156   1.599   3.875   7.879 -0.6478 -0.6278  0.2613
 4508SOL    HW125157   1.557   3.881   7.965 -0.1298 -0.8017  0.5329
 4508SOL    HW225158   1.568   3.788   7.854  1.5528 -1.1400 -0.6858
 4509SOL     OW25159   3.009   3.206  12.090  0.2844  0.1479 -0.3405
 4509SOL    HW125160   3.081   3.216  12.152 -1.5462 -0.2435  1.8831
 4509SOL    HW225161   2.950   3.275  12.120 -0.9460 -2.0580  2.3861
 4510SOL     OW25162   3.385   0.009   4.757 -0.2150 -0.4875  0.0893
 4510SOL    HW125163   3.376   4.709   4.845  0.0305 -1.7416 -0.3736
 4510SOL    HW225164   3.296   0.041   4.741  0.1257 -0.0282 -0.9346
 4511SOL     OW25165   1.516   4.487   4.042 -0.1434 -0.3619  0.2303
 4511SOL    HW125166   1.486   4.456   4.127  1.3380 -0.0448  0.8752
 4511SOL    HW225167   1.610   4.499   4.058 -0.6946  0.8426  2.4880
 4512SOL     OW25168   3.030   2.050  12.728  0.4206  0.4728 -0.2243
 4512SOL    HW125169   3.112   2.063  12.776  1.5075 -0.6493 -1.7778
 4512SOL    HW225170   2.966   2.043  12.799  4.0660 -1.7910  2.8115
 4513SOL     OW25171   4.650   1.968   8.675  0.6267 -0.5672 -0.1299
 4513SOL    HW125172   4.602   1.931   8.750 -0.0188 -0.2057 -0.3626
 4513SOL    HW225173   4.608   2.053   8.666  0.9945 -0.1140  2.2646
 4514SOL     OW25174   1.305   0.427   6.887  0.0300  0.1850 -0.4841
 4514SOL    HW125175   1.375   0.419   6.952 -1.4889 -1.0383  1.0070
 4514SOL    HW225176   1.331   0.369   6.816  0.8367  0.1631 -0.1709
 4515SOL     OW25177   4.719   3.372   5.873  0.5706 -0.4688  0.6493
 4515SOL    HW125178   4.641   3.421   5.847  1.6195  1.2242  0.6785
 4515SOL    HW225179   0.046   3.434   5.914 -0.3963  0.2350  1.0323
 4516SOL     OW25180   0.334   2.092   5.964  0.5654  0.2895 -0.5834
 4516SOL    HW125181   0.429   2.085   5.974  0.7458  0.7785 -1.9405
 4516SOL    HW225182   0.307   2.019   6.019  1.0789  0.8837  0.4765
 4517SOL     OW25183   0.817   1.204  13.212  0.5841  0.0296  0.5275
 4517SOL    HW125184   0.822   1.298  13.198 -1.1622 -0.1265 -1.0397
 4517SOL    HW225185   0.893   1.173  13.163  0.1394 -1.1132  0.5511
 4518SOL     OW25186   2.740   2.356   6.614 -0.0311 -0.6570  0.1230
 4518SOL    HW125187   2.832   2.380   6.602 -0.6427  0.8183 -1.5610
 4518SOL    HW225188   2.696   2.413   6.551  2.3881 -1.5319 -2.3066
 4519SOL     OW25189   1.176   3.503   3.286  0.2214  0.9680 -0.5454
 4519SOL    HW125190   1.230   3.437   3.329  0.0386  0.4839 -1.0674
 4519SOL    HW225191   1.147   3.452   3.211 -0.7468 -1.7715  1.7363
 4520SOL     OW25192   3.536   4.006   0.740 -0.2000  0.5596  0.9656
 4520SOL    HW125193   3.626   4.035   0.755  0.1843 -0.6927  1.1296
 4520SOL    HW225194   3.489   4.083   0.769 -1.1422  1.1783 -2.2337
 4521SOL     OW25195   0.920   1.939  13.148 -0.3259 -0.1036  0.1483
 4521SOL    HW125196   0.991   1.979  13.098  0.7386 -1.6315  0.4399
 4521SOL    HW225197   0.935   1.973  13.236 -1.7754  0.6455  0.1105
 4522SOL     OW25198   3.703   2.829   6.550 -0.7346  0.4324  0.3103
 4522SOL    HW125199   3.772   2.864   6.608 -0.4457 -1.6564  1.2473
 4522SOL    HW225200   3.700   2.889   6.476 -1.8910  2.9528  2.4148
 4523SOL     OW25201   0.019   3.765  11.841 -0.4346 -0.3547 -0.0959
 4523SOL    HW125202   0.079   3.692  11.852  1.4490  1.0129 -1.3564
 4523SOL    HW225203   0.058   3.832  11.896 -1.1616 -1.0604  1.2683
 4524SOL     OW25204   4.632   2.002   3.794  0.0597  0.0549  0.0405
 4524SOL    HW125205   4.550   2.049   3.809 -0.6568 -0.8192 -1.0861
 4524SOL    HW225206   4.692   2.062   3.839 -0.7053  0.9235 -0.0855
 4525SOL     OW25207   4.105   1.400   3.914 -0.0952 -0.0522 -0.8713
 4525SOL    HW125208   4.019   1.410   3.954  0.9672 -1.2015  1.7044
 4525SOL    HW225209   4.142   1.483   3.947 -1.0615 -0.0293  0.1460
 4526SOL     OW25210   0.375   1.833   0.605 -0.0923 -0.1673 -0.2518
 4526SOL    HW125211   0.307   1.894   0.577 -0.0405 -0.5893 -1.2752
 4526SOL    HW225212   0.406   1.782   0.530 -1.6799  1.1751 -1.8233
 4527SOL     OW25213   1.306   3.829   3.631 -0.2483 -0.4431 -0.3850
 4527SOL    HW125214   1.299   3.855   3.723  1.9145 -2.2465  0.2902
 4527SOL    HW225215   1.324   3.913   3.589  1.3735  0.3441  1.8627
 4528SOL     OW25216   3.245   1.318   2.580  0.0022  0.1665 -0.0795
 4528SOL    HW125217   3.209   1.386   2.523  1.8731 -1.2335 -2.9392
 4528SOL    HW225218   3.171   1.277   2.624 -0.7235  1.0041 -0.5193
 4529SOL     OW25219   2.565   2.187   1.893  0.9413  0.2634  0.3525
 4529SOL    HW125220   2.626   2.260   1.886  2.3145 -1.1898 -2.7536
 4529SOL    HW225221   2.496   2.219   1.951 -0.7219  0.4361 -1.7430
 4530SOL     OW25222   2.211   4.573   5.286 -0.0850 -0.3909  0.0609
 4530SOL    HW125223   2.283   4.579   5.223 -1.0826 -1.5530 -1.1890
 4530SOL    HW225224   2.163   4.493   5.266 -0.8063 -0.3961  1.8179
 4531SOL     OW25225   3.935   0.371   7.453  0.4954 -0.2072 -0.2365
 4531SOL    HW125226   3.891   0.431   7.392 -0.1417  0.9431  1.3399
 4531SOL    HW225227   3.945   0.285   7.413 -1.6281 -1.0443  1.0528
 4532SOL     OW25228   1.196   0.953   5.089 -0.0319  0.8486  0.4265
 4532SOL    HW125229   1.201   0.893   5.164  0.7579  1.2390  0.6874
 4532SOL    HW225230   1.107   0.937   5.060  0.8227  0.1451 -1.7857
 4533SOL     OW25231   2.973   0.554  11.271  0.1221  0.6807 -0.1521
 4533SOL    HW125232   3.040   0.511  11.218  0.3523 -1.0482  1.5891
 4533SOL    HW225233   2.965   0.642  11.234  3.3571  1.2556  0.4608
 4534SOL     OW25234   1.780   3.389   1.864 -0.3386 -0.5348 -0.7665
 4534SOL    HW125235   1.819   3.469   1.830  0.6747 -0.2296  1.1344
 4534SOL    HW225236   1.686   3.400   1.855 -0.3362 -0.3229 -0.5318
 4535SOL     OW25237   2.687   2.149   3.272 -0.0070 -0.7074  0.1693
 4535SOL    HW125238   2.758   2.144   3.336  1.0403 -0.1871 -0.9373
 4535SOL    HW225239   2.613   2.182   3.323  0.4785  0.5258  0.0799
 4536SOL     OW25240   3.008   2.879   0.310  0.5496 -0.0955 -0.0582
 4536SOL    HW125241   2.995   2.915   0.223  2.2311 -0.3952 -0.4304
 4536SOL    HW225242   2.976   2.953   0.361 -2.8014 -0.7665 -1.1598
 4537SOL     OW25243   1.297   0.486   2.857 -0.2169  0.4009 -0.3360
 4537SOL    HW125244   1.217   0.485   2.909  0.8856  0.4037  1.3564
 4537SOL    HW225245   1.354   0.530   2.921 -1.0647  0.8823  0.0813
 4538SOL     OW25246   1.847   4.007   7.294 -0.4447  0.4791  0.4250
 4538SOL    HW125247   1.836   4.028   7.387  0.1283  0.0894  0.5825
 4538SOL    HW225248   1.789   4.066   7.246  0.7124  0.0242 -1.4975
 4539SOL     OW25249   0.981   2.804   2.923  0.5658 -0.4461 -0.5206
 4539SOL    HW125250   1.034   2.865   2.973  2.0010  0.4801 -3.1374
 4539SOL    HW225251   1.021   2.720   2.944  0.2213 -1.0097 -2.0719
 4540SOL     OW25252   1.261   4.266   3.347  0.0772 -0.1638 -0.1096
 4540SOL    HW125253   1.219   4.287   3.430  0.4557  3.9541 -0.9628
 4540SOL    HW225254   1.196   4.305   3.288 -0.3138 -2.2000 -1.0217
 4541SOL     OW25255   1.843   1.616   7.684  0.7182 -0.1663  0.0414
 4541SOL    HW125256   1.833   1.580   7.773 -1.0917 -0.5527 -0.3129
 4541SOL    HW225257   1.938   1.623   7.681  0.8101 -1.3868  0.0146
 4542SOL     OW25258   0.891   1.914  15.836  0.3261  0.2555  0.2305
 4542SOL    HW125259   0.872   2.001  15.871  1.3755  0.6436 -0.1543
 4542SOL    HW225260   0.892   1.876  15.924  0.3929 -0.0010  0.1188
 4543SOL     OW25261   3.042   2.303   3.259  0.1001 -0.3008 -0.5821
 4543SOL    HW125262   2.992   2.370   3.305 -0.5110 -0.0464 -1.6399
 4543SOL    HW225263   3.033   2.215   3.298  1.4380  0.5845  1.7317
 4544SOL     OW25264   3.305   3.860   7.921 -0.3297  0.3431  0.1569
 4544SOL    HW125265   3.348   3.853   8.006 -1.5144  0.4987  0.7680
 4544SOL    HW225266   3.354   3.789   7.880 -0.9241 -0.5237  0.9460
 4545SOL     OW25267   1.887   1.660   5.706  0.1607  0.1758 -0.4524
 4545SOL    HW125268   1.847   1.691   5.625  0.1236 -0.3833 -0.6455
 4545SOL    HW225269   1.977   1.634   5.687  0.0796 -0.6537  0.2779
 4546SOL     OW25270   4.289   1.600  10.990  0.2955  0.2770  0.1204
 4546SOL    HW125271   4.375   1.564  10.970  0.4554  0.3361  0.6908
 4546SOL    HW225272   4.290   1.687  10.950  3.0181 -0.0521 -0.5235
 4547SOL     OW25273   1.174   0.923  16.602 -0.3057 -0.1365 -0.1980
 4547SOL    HW125274   1.113   0.900  16.532 -0.7840 -0.9182  0.4846
 4547SOL    HW225275   1.112   0.967  16.661 -1.8926 -2.0049 -0.4722
 4548SOL     OW25276   0.902   1.283   4.999 -0.3152 -0.0809  0.5365
 4548SOL    HW125277   0.921   1.367   5.041  0.2765 -0.1629  0.4299
 4548SOL    HW225278   0.819   1.291   4.953  1.5067  0.2548 -2.6600
 4549SOL     OW25279   1.760   4.714   7.436 -0.3221 -0.0003  0.6826
 4549SOL    HW125280   1.766   0.076   7.430 -3.4290  0.0861 -1.3926
 4549SOL    HW225281   1.850   4.682   7.436  0.3529  1.8847 -0.1423
 4550SOL     OW25282   1.231   2.359   7.838 -0.0717  0.0312  0.4534
 4550SOL    HW125283   1.226   2.344   7.743 -0.5109  0.6011  0.3883
 4550SOL    HW225284   1.319   2.393   7.851  0.4586 -0.5298 -1.6469
 4551SOL     OW25285   1.251   0.773  10.299 -0.1396  0.2881  0.0665
 4551SOL    HW125286   1.319   0.737  10.241  1.9017 -0.6432  3.0650
 4551SOL    HW225287   1.271   0.719  10.375  2.9041 -0.9695 -1.6284
 4552SOL     OW25288   4.157   3.293   7.585 -0.0464 -0.6745 -0.2750
 4552SOL    HW125289   4.062   3.301   7.587 -0.0088 -0.4685  0.5891
 4552SOL    HW225290   4.151   3.216   7.642 -0.8881 -0.3686  0.0371
 4553SOL     OW25291   0.355   1.531   6.543 -0.0708  0.0242  0.1311
 4553SOL    HW125292   0.375   1.482   6.622 -1.4923  1.2750  1.2676
 4553SOL    HW225293   0.373   1.620   6.575  1.2517  0.0295 -0.6240
 4554SOL     OW25294   0.562   1.299  13.843 -0.1670  0.2660 -0.3141
 4554SOL    HW125295   0.496   1.264  13.903 -2.3970  0.6985 -2.4778
 4554SOL    HW225296   0.639   1.295  13.899 -0.0986 -0.6795 -0.4876
 4555SOL     OW25297   0.820   2.370  10.398  0.2099 -0.4871  0.3394
 4555SOL    HW125298   0.765   2.315  10.453  1.8429 -1.9927  0.4555
 4555SOL    HW225299   0.774   2.370  10.315 -1.8809  2.3254  1.4887
 4556SOL     OW25300   3.336   0.837  17.527  0.4113 -0.3122  0.4487
 4556SOL    HW125301   3.315   0.810  17.617 -1.5977 -0.1287  0.0355
 4556SOL    HW225302   3.392   0.764  17.501  0.3734  0.0793 -0.6987
 4557SOL     OW25303   0.825   0.847  16.691 -0.1739  0.0968  0.0666
 4557SOL    HW125304   0.877   0.917  16.730 -1.0648 -0.0103  1.4555
 4557SOL    HW225305   0.881   0.773  16.718  1.3700  0.9728 -0.7122
 4558SOL     OW25306   0.982   0.816   0.956 -0.0254  0.0439 -0.0868
 4558SOL    HW125307   0.967   0.898   0.909 -1.0306  0.2453  0.5831
 4558SOL    HW225308   1.074   0.795   0.944 -0.1817 -1.0006  0.5696
 4559SOL     OW25309   1.879   3.743  14.278  0.3438 -0.3256  0.3760
 4559SOL    HW125310   1.962   3.790  14.289  0.6563 -1.3355  2.3751
 4559SOL    HW225311   1.816   3.812  14.295  0.9699  0.7406 -1.6030
 4560SOL     OW25312   0.736   2.110   4.292  0.5770  0.3514 -0.3255
 4560SOL    HW125313   0.688   2.182   4.251 -1.3748 -0.4306  0.6466
 4560SOL    HW225314   0.712   2.147   4.376  0.7996  1.9639 -0.9633
 4561SOL     OW25315   2.041   2.155   2.025 -0.0031  0.1220 -0.1024
 4561SOL    HW125316   1.967   2.110   2.064 -0.7938  1.0173 -0.5746
 4561SOL    HW225317   2.062   2.228   2.083  2.1615 -0.3371 -0.3079
 4562SOL     OW25318   3.032   4.331   6.997  0.2233 -0.1827  0.2997
 4562SOL    HW125319   2.981   4.291   7.067 -1.7599  0.5368 -0.7206
 4562SOL    HW225320   3.075   4.407   7.038 -1.1769  0.3103  0.8478
 4563SOL     OW25321   1.919   4.542  14.594  0.1929 -0.4100 -0.0109
 4563SOL    HW125322   1.893   4.513  14.681 -1.5662  0.7008 -0.1596
 4563SOL    HW225323   1.862   4.490  14.537  0.0316 -0.7116  0.4336
 4564SOL     OW25324   3.543   3.047   5.459  0.0687  0.2114  0.2267
 4564SOL    HW125325   3.454   3.078   5.476  0.1639 -0.1437  1.3830
 4564SOL    HW225326   3.566   3.035   5.551  0.5781  0.1338  0.0876
 4565SOL     OW25327   2.770   2.366   2.044 -0.0650 -0.6741 -0.1946
 4565SOL    HW125328   2.785   2.438   2.105 -0.1695  1.8397 -3.0943
 4565SOL    HW225329   2.689   2.329   2.078  0.6433 -0.1326  2.0872
 4566SOL     OW25330   3.469   1.951   9.584 -0.0321  0.3693  0.3929
 4566SOL    HW125331   3.553   1.951   9.631  2.1562 -0.2166 -3.4872
 4566SOL    HW225332   3.454   1.859   9.565  1.2299  0.5531 -1.4697
 4567SOL     OW25333   2.653   4.501   3.578 -0.2206 -0.3158 -0.6375
 4567SOL    HW125334   2.669   4.590   3.609  0.3228 -1.4656  2.3954
 4567SOL    HW225335   2.571   4.467   3.614  0.2136 -0.0420  0.6193
 4568SOL     OW25336   4.495   3.305   5.442 -0.0176 -0.0331 -0.2387
 4568SOL    HW125337   4.528   3.244   5.508 -0.0843  1.8122  1.5160
 4568SOL    HW225338   4.408   3.311   5.482 -0.3032 -0.1967 -0.8421
 4569SOL     OW25339   2.938   1.825  17.506  0.4516  0.2192  0.1993
 4569SOL    HW125340   2.936   1.871  17.590  2.7638  1.1073 -0.2183
 4569SOL    HW225341   2.987   1.746  17.529  0.7156  0.1470 -0.5943
 4570SOL     OW25342   1.316   2.804   5.248 -0.2541 -0.2778 -0.3312
 4570SOL    HW125343   1.272   2.729   5.288 -1.3253  0.4938 -0.0905
 4570SOL    HW225344   1.247   2.869   5.247  0.2484  0.2471 -1.1607
 4571SOL     OW25345   0.228   4.009   7.545 -0.3630 -0.4297 -0.1850
 4571SOL    HW125346   0.321   4.031   7.539 -0.2429 -1.0609 -0.5767
 4571SOL    HW225347   0.235   3.924   7.588  2.0141 -0.0206  0.2557
 4572SOL     OW25348   3.669   4.118  13.495 -0.3708 -0.2524 -0.2018
 4572SOL    HW125349   3.611   4.194  13.497 -0.0618 -0.0636  1.7494
 4572SOL    HW225350   3.738   4.155  13.440 -2.8898  0.7779 -2.6161
 4573SOL     OW25351   4.207   2.695   1.019 -0.2022  0.4241  0.3839
 4573SOL    HW125352   4.207   2.639   0.941 -2.7294  0.6111  0.2713
 4573SOL    HW225353   4.141   2.761   0.999  0.0584  0.4203 -0.4777
 4574SOL     OW25354   1.057   0.761  13.492 -0.8555  0.5316 -0.0445
 4574SOL    HW125355   1.095   0.708  13.562 -0.7088  2.0005  0.9679
 4574SOL    HW225356   1.096   0.845  13.517  0.8267 -0.3578  0.3626
 4575SOL     OW25357   2.424   2.503   9.212  0.2337 -0.5779 -0.5961
 4575SOL    HW125358   2.355   2.548   9.261  0.7614 -0.9402  0.4873
 4575SOL    HW225359   2.403   2.534   9.124  1.2596  0.3299 -0.5301
 4576SOL     OW25360   2.901   4.305   4.276 -0.4706  0.3653 -0.1289
 4576SOL    HW125361   2.809   4.295   4.301  0.0271  0.0964  1.6361
 4576SOL    HW225362   2.891   4.295   4.182  0.2049 -0.8309 -0.0671
 4577SOL     OW25363   0.649   1.008   1.384 -0.4232  0.3174 -0.7673
 4577SOL    HW125364   0.684   0.948   1.450 -0.6488  0.6199 -0.3725
 4577SOL    HW225365   0.612   1.085   1.427  0.8976  0.6155 -0.1470
 4578SOL     OW25366   2.896   2.040   6.432  0.3178 -0.2242  0.0545
 4578SOL    HW125367   2.950   2.048   6.510  1.6184 -0.5122 -0.8140
 4578SOL    HW225368   2.916   1.952   6.399 -2.3828 -0.6908 -0.2921
 4579SOL     OW25369   2.860   0.696   5.369 -0.4732 -0.1343  0.2458
 4579SOL    HW125370   2.806   0.772   5.389 -1.3607 -0.3321 -1.3881
 4579SOL    HW225371   2.906   0.686   5.453 -2.3503 -0.4818  1.2202
 4580SOL     OW25372   1.578   0.849   6.949  0.0819  0.2491  0.0313
 4580SOL    HW125373   1.645   0.916   6.936  1.7144 -1.4327 -0.0800
 4580SOL    HW225374   1.557   0.856   6.856 -0.9927  2.0087  0.3918
 4581SOL     OW25375   1.242   1.686  14.894 -0.2743 -0.4721 -0.0901
 4581SOL    HW125376   1.261   1.661  14.804 -1.8867 -3.1527  0.3155
 4581SOL    HW225377   1.294   1.764  14.914  1.6791 -1.9878  0.6900
 4582SOL     OW25378   3.471   3.892   8.136 -0.0150 -0.4853 -0.4752
 4582SOL    HW125379   3.522   3.855   8.209 -1.3929 -0.1355  0.6516
 4582SOL    HW225380   3.488   3.986   8.135  1.2298 -0.7041 -0.4143
 4583SOL     OW25381   3.647   3.204  17.652  0.7207  0.1662 -0.2540
 4583SOL    HW125382   3.612   3.241  17.571  2.7107  2.6982  0.0545
 4583SOL    HW225383   3.737   3.215  17.621  1.0380 -0.6238  0.3743
 4584SOL     OW25384   3.794   3.265  10.636  0.3837 -0.0268 -0.2505
 4584SOL    HW125385   3.799   3.178  10.677  0.9751  0.8422  1.5525
 4584SOL    HW225386   3.737   3.313  10.697 -0.1502  0.6252 -1.2783
 4585SOL     OW25387   0.666   0.638   3.369  0.2737 -0.6293 -0.2615
 4585SOL    HW125388   0.609   0.663   3.442 -0.5568 -0.8193 -0.8388
 4585SOL    HW225389   0.633   0.685   3.292 -1.4880  0.5156  1.1945
 4586SOL     OW25390   3.320   4.018   8.487  0.0093 -0.2119 -0.6157
 4586SOL    HW125391   3.290   4.079   8.554 -0.4964 -2.4803  1.2106
 4586SOL    HW225392   3.239   3.999   8.440  1.2628 -2.6297 -1.8055
 4587SOL     OW25393   2.901   3.358   7.938 -0.0931  0.6399  0.0440
 4587SOL    HW125394   2.967   3.367   8.006  1.7157 -0.2526 -1.5990
 4587SOL    HW225395   2.954   3.361   7.858  1.0673 -0.2681  0.7880
 4588SOL     OW25396   1.710   0.945   6.089  0.5700  0.6214 -0.0512
 4588SOL    HW125397   1.774   0.990   6.143  0.3010 -0.8278  1.4686
 4588SOL    HW225398   1.635   0.933   6.147  1.4173 -3.2892  0.2521
 4589SOL     OW25399   3.294   0.538   9.430  0.2362 -0.2762 -0.2081
 4589SOL    HW125400   3.318   0.497   9.346  0.7992  1.7356 -1.0333
 4589SOL    HW225401   3.320   0.475   9.497  0.0205  1.8911  1.9004
 4590SOL     OW25402   1.765   3.401   2.458  0.1533  0.1040 -0.1686
 4590SOL    HW125403   1.761   3.306   2.446 -2.0375  0.3511 -1.3432
 4590SOL    HW225404   1.749   3.441   2.372  1.1878 -0.2975 -0.5583
 4591SOL     OW25405   2.386   0.817  11.114  0.1989  0.0749  0.9868
 4591SOL    HW125406   2.386   0.912  11.111  0.3373  0.0830  1.2612
 4591SOL    HW225407   2.468   0.809  11.164 -0.1681 -0.4442  1.5093
 4592SOL     OW25408   3.514   4.669   0.897 -0.7654  0.5039 -0.2618
 4592SOL    HW125409   3.499   0.008   0.837  3.2829  1.2152 -0.3888
 4592SOL    HW225410   3.524   4.725   0.974 -0.3445  0.4974 -0.3118
 4593SOL     OW25411   3.028   4.124   4.708  0.3795  0.4919  0.7698
 4593SOL    HW125412   3.098   4.060   4.712 -0.2456 -0.1715  1.1332
 4593SOL    HW225413   3.064   4.199   4.756  0.4186  1.0534 -0.1382
 4594SOL     OW25414   2.604   0.386   1.461  0.0894  0.9478  0.0327
 4594SOL    HW125415   2.574   0.476   1.474 -1.2023  0.3318  1.3574
 4594SOL    HW225416   2.529   0.352   1.412 -0.7913  1.6266  0.9059
 4595SOL     OW25417   3.992   3.165   3.436  0.6869 -0.5580  0.7209
 4595SOL    HW125418   3.969   3.106   3.364  1.2824 -0.3469  0.3510
 4595SOL    HW225419   3.921   3.145   3.497  2.8635 -2.6540  2.5848
 4596SOL     OW25420   2.463   1.996   6.205  0.4941  0.4300  0.2807
 4596SOL    HW125421   2.456   1.949   6.288  1.5175  0.3061  0.3028
 4596SOL    HW225422   2.545   2.044   6.220  0.4035  0.7080 -0.0973
 4597SOL     OW25423   3.688   2.313   2.211  0.3418 -0.3191  0.3058
 4597SOL    HW125424   3.613   2.372   2.211  3.8381  4.1837  0.3197
 4597SOL    HW225425   3.637   2.235   2.232 -1.1850  1.0524  1.6353
 4598SOL     OW25426   2.425   4.410   9.318  0.0074  0.3329  0.6431
 4598SOL    HW125427   2.350   4.461   9.349  0.4897 -0.9956  3.9353
 4598SOL    HW225428   2.493   4.458   9.364  1.3756 -0.0221 -1.0032
 4599SOL     OW25429   2.617   0.001   9.942 -0.2846 -0.1972  0.0067
 4599SOL    HW125430   2.617   4.682  10.021 -1.6760 -1.1730 -0.6525
 4599SOL    HW225431   2.565   0.080   9.960  1.3856  0.7492  0.7176
 4600SOL     OW25432   2.568   1.581   5.625 -0.6206 -0.1837 -0.1686
 4600SOL    HW125433   2.537   1.495   5.595  0.6653 -0.8445  0.3850
 4600SOL    HW225434   2.662   1.568   5.613 -0.8970 -2.8929  0.5057
 4601SOL     OW25435   2.401   2.289  11.759 -0.2724 -0.1434 -0.1092
 4601SOL    HW125436   2.314   2.302  11.721 -0.5679  2.2087  1.4378
 4601SOL    HW225437   2.432   2.379  11.759 -1.4043  0.2510  0.9935
 4602SOL     OW25438   0.623   1.728   7.998 -0.5095  0.0553 -0.5381
 4602SOL    HW125439   0.544   1.720   8.052 -1.8761 -0.1678 -2.5755
 4602SOL    HW225440   0.673   1.789   8.052 -1.8221  1.6387 -1.1270
 4603SOL     OW25441   3.937   1.621  10.941 -0.3905  0.5646 -0.4350
 4603SOL    HW125442   4.023   1.646  10.906 -1.2958  0.5219 -2.6688
 4603SOL    HW225443   3.905   1.581  10.861 -0.2225 -0.3348 -0.0531
 4604SOL     OW25444   1.033   0.449   5.436  0.3514 -0.2156 -0.3317
 4604SOL    HW125445   0.980   0.380   5.396  0.1884  1.0477 -2.2776
 4604SOL    HW225446   0.994   0.467   5.522  0.0769  2.4684 -1.0128
 4605SOL     OW25447   2.999   3.580   9.866 -0.0236 -0.2683  0.5351
 4605SOL    HW125448   3.028   3.669   9.848  0.3823 -0.9524 -2.2563
 4605SOL    HW225449   3.055   3.557   9.940 -1.0413  0.1939  1.4344
 4606SOL     OW25450   0.163   3.307   3.658  0.0691 -0.4248  0.4983
 4606SOL    HW125451   0.172   3.314   3.753  1.6727 -2.6590  0.5179
 4606SOL    HW225452   0.126   3.386   3.618 -2.7659 -0.8612  2.2457
 4607SOL     OW25453   1.270   1.145   7.932 -0.0146 -0.0503 -0.3879
 4607SOL    HW125454   1.185   1.138   7.975  0.9228 -1.5002  1.2248
 4607SOL    HW225455   1.321   1.125   8.011 -2.3048 -2.0524  0.5461
 4608SOL     OW25456   0.963   2.539   6.132 -0.1067 -0.1671  0.1249
 4608SOL    HW125457   1.019   2.467   6.158  0.3483  0.0853 -0.1657
 4608SOL    HW225458   1.022   2.601   6.090 -1.7360  0.8645 -0.6673
 4609SOL     OW25459   3.052   0.325  14.256  0.2555  0.8683  0.0060
 4609SOL    HW125460   3.053   0.404  14.202  1.3164  1.2927  0.6361
 4609SOL    HW225461   2.962   0.294  14.251  1.3796 -2.2371 -0.9565
 4610SOL     OW25462   2.816   3.580  14.203 -0.2668 -0.6680  0.0822
 4610SOL    HW125463   2.774   3.497  14.224 -0.0756 -0.7745  0.0396
 4610SOL    HW225464   2.754   3.649  14.229 -2.0104 -2.3522  0.3754
 4611SOL     OW25465   3.252   0.788   5.246 -0.2680  0.2624 -0.5086
 4611SOL    HW125466   3.228   0.701   5.278  0.1555  0.8662  1.4324
 4611SOL    HW225467   3.241   0.766   5.153  0.8714  1.1009 -0.8346
 4612SOL     OW25468   0.028   1.620   1.347  0.2654  0.9268  0.5644
 4612SOL    HW125469   4.727   1.537   1.378 -1.1859  0.9475 -1.0381
 4612SOL    HW225470   4.696   1.642   1.281  0.8289  3.0434  0.6945
 4613SOL     OW25471   0.251   3.960   6.750 -0.6817 -0.2339  0.2671
 4613SOL    HW125472   0.280   3.950   6.659  0.0411  0.2228  0.4405
 4613SOL    HW225473   0.335   3.937   6.790  0.9335  0.9661 -2.4710
 4614SOL     OW25474   1.780   2.390  17.556  0.0368 -0.0992  0.0238
 4614SOL    HW125475   1.817   2.375  17.643  1.0223 -2.3972 -0.7657
 4614SOL    HW225476   1.861   2.402  17.507  1.5711  1.1875  2.8718
 4615SOL     OW25477   4.237   1.448   2.084  0.0972 -0.0883  0.4421
 4615SOL    HW125478   4.165   1.401   2.041 -0.8092  0.7792  1.0118
 4615SOL    HW225479   4.189   1.502   2.146 -0.9618  0.6914 -1.0584
 4616SOL     OW25480   4.581   1.128   3.083 -0.5291  0.2946  0.8030
 4616SOL    HW125481   4.626   1.047   3.107  0.7867  1.0243  0.7952
 4616SOL    HW225482   4.628   1.193   3.136 -0.4896 -0.6278  1.8944
 4617SOL     OW25483   0.208   3.806   2.438 -0.5950 -0.1932  0.0222
 4617SOL    HW125484   0.190   3.758   2.358  0.5834 -0.3186 -0.1625
 4617SOL    HW225485   0.182   3.893   2.407 -4.1146 -0.8395  1.1474
 4618SOL     OW25486   0.249   0.716   1.874  0.1854  0.0078  0.8393
 4618SOL    HW125487   0.309   0.778   1.832 -1.6406  0.4838 -1.0654
 4618SOL    HW225488   0.158   0.740   1.855  0.1614  0.5821  1.6745
 4619SOL     OW25489   0.389   1.909   4.540  0.2171  0.5195  0.0044
 4619SOL    HW125490   0.353   1.937   4.623 -0.8924  0.4530 -0.4586
 4619SOL    HW225491   0.310   1.915   4.486  0.9298  0.6345 -1.0400
 4620SOL     OW25492   2.321   2.972  13.530 -0.2677 -0.5094 -0.3652
 4620SOL    HW125493   2.364   2.894  13.565 -0.6034 -0.6663 -0.3022
 4620SOL    HW225494   2.227   2.953  13.523 -0.0245 -1.9660  0.2884
 4621SOL     OW25495   0.290   2.328   9.959 -0.1439  0.2331 -0.0409
 4621SOL    HW125496   0.267   2.329   9.866 -3.5829 -0.2452  0.7986
 4621SOL    HW225497   0.224   2.262   9.984 -0.8644  0.2837 -1.7715
 4622SOL     OW25498   0.162   0.671   8.815  0.2791 -0.1901 -0.6074
 4622SOL    HW125499   0.226   0.621   8.765  0.8004 -0.0274 -0.1104
 4622SOL    HW225500   0.098   0.605   8.839  0.8072 -0.6607 -0.4830
 4623SOL     OW25501   0.345   3.906  16.298 -0.3421  0.0048 -0.2013
 4623SOL    HW125502   0.265   3.858  16.275 -0.1838  0.1329 -1.0047
 4623SOL    HW225503   0.337   3.915  16.393  0.5517  1.7403 -0.2877
 4624SOL     OW25504   2.124   3.476   7.583 -0.1763  0.3727  0.1214
 4624SOL    HW125505   2.060   3.458   7.514 -0.1903  0.8294  0.0141
 4624SOL    HW225506   2.093   3.559   7.617  1.2240  1.4060 -1.1133
 4625SOL     OW25507   4.663   1.207   9.636  0.2788  0.1059 -0.2859
 4625SOL    HW125508   4.711   1.129   9.611  0.6641  1.1024 -2.6789
 4625SOL    HW225509   4.610   1.174   9.708  2.0264 -0.4777  0.7259
 4626SOL     OW25510   4.510   4.367   4.994  0.2241  0.1206 -0.3505
 4626SOL    HW125511   4.451   4.303   5.033 -1.6608  1.4464 -1.0420
 4626SOL    HW225512   4.588   4.312   4.988  1.1739  1.8281 -3.8612
 4627SOL     OW25513   3.346   3.736   9.790 -0.4972 -0.0757 -0.2330
 4627SOL    HW125514   3.284   3.806   9.812  2.0645  1.4989  1.9952
 4627SOL    HW225515   3.317   3.672   9.854 -0.6229  2.7776  2.5526
 4628SOL     OW25516   1.794   2.769   4.369 -0.0719 -0.3715 -0.4997
 4628SOL    HW125517   1.734   2.775   4.444 -0.3312 -3.3204 -0.4584
 4628SOL    HW225518   1.745   2.809   4.298  0.0881  0.5622 -0.0793
 4629SOL     OW25519   2.089   0.492   0.986  0.4715 -0.1717 -0.4575
 4629SOL    HW125520   2.082   0.578   1.028 -1.2939  0.5233 -2.1817
 4629SOL    HW225521   2.049   0.517   0.902  2.0648  0.0324 -1.1637
 4630SOL     OW25522   1.578   3.998   8.511  0.0295  0.2946  0.3471
 4630SOL    HW125523   1.661   4.025   8.550  0.1069  0.2628  0.2025
 4630SOL    HW225524   1.551   4.086   8.484 -2.2306 -0.6449 -0.4401
 4631SOL     OW25525   0.364   3.846   6.117 -0.2172 -0.1004 -0.0105
 4631SOL    HW125526   0.303   3.783   6.156  1.3432 -0.6429  1.5682
 4631SOL    HW225527   0.405   3.791   6.050 -0.9482 -0.2510 -0.3348
 4632SOL     OW25528   3.752   1.685   7.814 -0.0437  0.1842 -0.0777
 4632SOL    HW125529   3.825   1.625   7.830  1.2060  2.5494  3.1025
 4632SOL    HW225530   3.729   1.702   7.905  0.0916  0.7726 -0.1543
 4633SOL     OW25531   3.122   0.855   5.000  0.2026  0.1103  0.1959
 4633SOL    HW125532   3.058   0.800   4.954  0.3288  1.5662 -1.6968
 4633SOL    HW225533   3.072   0.931   5.029 -0.8411 -0.0972 -1.0550
 4634SOL     OW25534   1.473   1.257   5.265  0.0578  0.2260 -0.2715
 4634SOL    HW125535   1.496   1.336   5.215  0.4518 -0.3454 -0.9909
 4634SOL    HW225536   1.548   1.261   5.325 -0.4495  0.7288  0.3224
 4635SOL     OW25537   1.952   3.015   6.889 -0.0615 -0.4769 -0.2177
 4635SOL    HW125538   1.950   3.103   6.850  1.6126 -0.8876 -1.2506
 4635SOL    HW225539   1.966   3.036   6.981 -1.7388  1.7337 -0.4689
 4636SOL     OW25540   1.874   4.527  12.087 -0.6371 -0.5170  0.9557
 4636SOL    HW125541   1.821   4.451  12.111  0.3430 -1.9545 -1.4691
 4636SOL    HW225542   1.817   4.577  12.029 -0.3962 -0.0974  1.0838
 4637SOL     OW25543   1.209   4.436  17.369 -0.3588 -0.3400 -0.3025
 4637SOL    HW125544   1.293   4.482  17.373  0.0480 -1.1716  0.8474
 4637SOL    HW225545   1.242   4.347  17.352 -0.1886 -0.5231  0.9583
 4638SOL     OW25546   1.810   0.352   1.325 -0.0195 -0.1736  0.1573
 4638SOL    HW125547   1.731   0.385   1.368  0.3895  2.4623 -1.0879
 4638SOL    HW225548   1.850   0.434   1.297  2.1066 -1.1940  0.2386
 4639SOL     OW25549   0.128   0.700   6.803 -0.7494 -0.5655  0.2525
 4639SOL    HW125550   0.054   0.728   6.750 -1.2357 -1.7428  0.3259
 4639SOL    HW225551   0.099   0.732   6.888  1.9920 -1.0534  1.3931
 4640SOL     OW25552   3.948   1.232   2.347 -0.0640  0.1903 -0.5412
 4640SOL    HW125553   3.860   1.208   2.321 -0.2891  0.1436  0.2536
 4640SOL    HW225554   3.956   1.323   2.318  1.8550  0.3201  0.3439
 4641SOL     OW25555   1.416   1.756   5.650 -0.6118 -0.3566 -0.4048
 4641SOL    HW125556   1.359   1.810   5.594  0.9491  3.2995  1.5071
 4641SOL    HW225557   1.362   1.678   5.664  2.5316 -2.0396  2.2579
 4642SOL     OW25558   1.213   3.757  17.394  0.2145 -0.4056 -0.3693
 4642SOL    HW125559   1.136   3.733  17.344 -1.0745 -1.7684  2.2713
 4642SOL    HW225560   1.247   3.670  17.417  0.0804 -0.0037  1.4098
 4643SOL     OW25561   3.363   4.014   7.170  1.0885  0.5650  0.1775
 4643SOL    HW125562   3.373   4.098   7.214  1.9736  0.4905  0.1088
 4643SOL    HW225563   3.375   3.953   7.243  2.9563 -1.3605 -1.7357
 4644SOL     OW25564   3.705   0.517   2.185  0.0827  0.0616  0.6131
 4644SOL    HW125565   3.777   0.573   2.215  1.5133 -0.7608 -1.2820
 4644SOL    HW225566   3.745   0.431   2.194  0.7026  0.4560  1.7357
 4645SOL     OW25567   1.837   0.188   3.496 -0.3257  0.5480  0.0722
 4645SOL    HW125568   1.850   0.239   3.417  2.3723 -1.9417 -1.0770
 4645SOL    HW225569   1.755   0.223   3.532  0.0529 -0.4871  1.9817
 4646SOL     OW25570   3.629   2.737   1.481  0.1841 -0.5436 -0.0747
 4646SOL    HW125571   3.718   2.763   1.458 -0.0411 -0.6730 -1.0982
 4646SOL    HW225572   3.656   2.681   1.555  1.4843 -0.3979 -0.4351
 4647SOL     OW25573   2.852   1.843  15.034 -0.2328 -0.4920  0.4440
 4647SOL    HW125574   2.891   1.812  14.952  1.0208 -2.2184  1.7077
 4647SOL    HW225575   2.906   1.800  15.100 -0.0023 -1.5131 -0.3985
 4648SOL     OW25576   4.245   1.683   8.650  0.7698  0.3925 -0.5516
 4648SOL    HW125577   4.165   1.632   8.664  0.9443  0.3290  0.2177
 4648SOL    HW225578   4.218   1.766   8.611 -1.5353  0.5038  1.3150
 4649SOL     OW25579   2.916   3.106  17.306 -0.5951  0.5286  0.4741
 4649SOL    HW125580   2.824   3.094  17.281 -0.3213 -2.3111  0.7668
 4649SOL    HW225581   2.909   3.156  17.387 -3.2922 -0.3591  0.7813
 4650SOL     OW25582   1.337   2.772   0.518 -0.2650 -0.4213  0.0782
 4650SOL    HW125583   1.323   2.715   0.593 -0.1645 -1.0325 -0.3646
 4650SOL    HW225584   1.246   2.796   0.501  0.5074  0.5409 -2.8293
 4651SOL     OW25585   2.947   3.506   3.693 -0.2942 -0.0247 -0.2687
 4651SOL    HW125586   3.013   3.574   3.686 -2.1963  1.5515 -3.0913
 4651SOL    HW225587   2.907   3.529   3.777 -0.6421 -1.0795 -0.1391
 4652SOL     OW25588   1.924   1.139   3.050  0.7313 -0.4976  0.4545
 4652SOL    HW125589   1.905   1.093   3.132 -1.2940  1.2674  0.9920
 4652SOL    HW225590   2.012   1.106   3.034  0.7686  0.1226 -0.5995
 4653SOL     OW25591   0.492   0.677   3.593 -0.4901 -0.4627  0.3051
 4653SOL    HW125592   0.559   0.682   3.661 -1.6217  1.1898  1.2891
 4653SOL    HW225593   0.435   0.752   3.607 -1.7062 -1.0813 -1.3878
 4654SOL     OW25594   2.638   2.869   6.941 -0.7096 -0.6994 -0.4878
 4654SOL    HW125595   2.731   2.883   6.961 -1.0183  1.3175 -0.4531
 4654SOL    HW225596   2.613   2.927   6.869  1.2156 -1.5222 -1.8411
 4655SOL     OW25597   3.879   1.652   3.767 -0.0966 -0.2632 -0.3440
 4655SOL    HW125598   3.803   1.709   3.781  0.8502  1.1680 -1.0485
 4655SOL    HW225599   3.844   1.568   3.737 -2.2756  0.4379  0.1929
 4656SOL     OW25600   3.313   0.859   0.515  0.5297 -0.3026  0.0999
 4656SOL    HW125601   3.368   0.937   0.503 -2.1671  1.3345 -1.5720
 4656SOL    HW225602   3.373   0.784   0.515  0.5853 -0.2749  3.7209
 4657SOL     OW25603   1.437   1.088  12.453 -0.0999 -0.8815 -0.3253
 4657SOL    HW125604   1.498   1.105  12.382  1.0929 -1.5300  0.5490
 4657SOL    HW225605   1.445   0.993  12.465 -1.9830 -0.8022  1.7487
 4658SOL     OW25606   3.871   1.454   7.484  0.1019 -0.0459  0.7778
 4658SOL    HW125607   3.951   1.410   7.456 -0.4035  0.0777 -0.8271
 4658SOL    HW225608   3.819   1.427   7.409  0.0176 -2.9123  1.8413
 4659SOL     OW25609   4.393   0.435   5.996  0.0128 -0.5177  0.3725
 4659SOL    HW125610   4.330   0.396   6.057 -1.2912  0.0047 -0.6694
 4659SOL    HW225611   4.427   0.350   5.968 -0.7627  0.1411 -2.5583
 4660SOL     OW25612   1.174   3.606  10.452  0.1031  0.0981  0.1289
 4660SOL    HW125613   1.097   3.571  10.496  0.3154 -1.6735 -0.9009
 4660SOL    HW225614   1.145   3.608  10.361  1.6278 -1.4680 -0.4001
 4661SOL     OW25615   1.660   4.635   2.526 -0.2564  0.5972  0.3029
 4661SOL    HW125616   1.612   4.685   2.592 -1.1600 -1.1291  0.9406
 4661SOL    HW225617   1.580   4.595   2.490 -0.0073  0.3780 -0.0116
 4662SOL     OW25618   0.713   2.050   8.686  0.5347 -0.2466  0.1232
 4662SOL    HW125619   0.682   2.103   8.759  3.9677  1.2140  0.5295
 4662SOL    HW225620   0.634   2.003   8.657  1.7947 -1.8567 -0.7345
 4663SOL     OW25621   0.606   0.243   6.661 -0.1361  0.4864  0.5032
 4663SOL    HW125622   0.620   0.204   6.574 -0.8969  0.8361  0.2258
 4663SOL    HW225623   0.581   0.331   6.633  2.4308  0.2434 -2.5357
 4664SOL     OW25624   0.247   1.935   0.914 -0.0828  0.1130  0.0457
 4664SOL    HW125625   0.173   1.957   0.971 -0.4447  0.1988 -0.4643
 4664SOL    HW225626   0.225   1.990   0.839 -0.1127 -0.7287 -0.5613
 4665SOL     OW25627   0.520   3.567   4.300 -0.2525 -0.1955 -0.5113
 4665SOL    HW125628   0.506   3.580   4.394 -2.4808 -0.2030 -0.8345
 4665SOL    HW225629   0.578   3.491   4.303 -0.1016 -0.0627  0.0096
 4666SOL     OW25630   0.110   1.770  14.187 -0.0891 -0.2728  0.6540
 4666SOL    HW125631   0.102   1.700  14.122  0.1550  1.7539 -1.5633
 4666SOL    HW225632   0.076   1.720  14.262 -0.2489 -1.7061 -0.3649
 4667SOL     OW25633   3.561   4.588   6.785 -0.0505  0.1769 -0.7301
 4667SOL    HW125634   3.591   4.621   6.701  2.4953 -3.0280 -1.0227
 4667SOL    HW225635   3.508   4.512   6.764  0.3363 -0.0440 -0.8920
 4668SOL     OW25636   3.948   3.091   1.981  0.2796  0.0394 -0.1839
 4668SOL    HW125637   4.008   3.033   1.933 -0.4182 -0.5651 -0.3250
 4668SOL    HW225638   3.890   3.025   2.018  0.9989  1.2436  3.0912
 4669SOL     OW25639   1.229   3.868   8.570 -0.2941  0.0247  0.3301
 4669SOL    HW125640   1.303   3.885   8.627 -0.6982 -0.7564  1.0966
 4669SOL    HW225641   1.189   3.790   8.610  0.9751 -1.7767 -1.8757
 4670SOL     OW25642   3.853   0.568   9.201 -0.2270  0.0683  0.3470
 4670SOL    HW125643   3.808   0.652   9.202 -0.5803 -0.1093 -0.2642
 4670SOL    HW225644   3.807   0.527   9.127 -4.1000  2.0446  1.6432
 4671SOL     OW25645   2.464   4.042   7.359  0.1974 -0.5926 -0.1710
 4671SOL    HW125646   2.428   3.955   7.377  2.7611 -1.7848 -0.8550
 4671SOL    HW225647   2.462   4.042   7.263  0.3554  1.3882 -0.1789
 4672SOL     OW25648   1.951   1.077   8.998 -0.6574  0.0140  0.3464
 4672SOL    HW125649   1.856   1.085   8.992 -0.4646 -0.2314 -3.0143
 4672SOL    HW225650   1.957   1.093   9.093  3.0820  0.0495  0.1197
 4673SOL     OW25651   2.607   3.169  13.026 -0.1766  0.6695 -0.3633
 4673SOL    HW125652   2.577   3.235  12.964 -0.6417 -0.3283 -1.2073
 4673SOL    HW225653   2.683   3.216  13.059 -0.8647  1.5850 -0.0888
 4674SOL     OW25654   1.758   1.059   8.541  0.4068 -0.1029  0.0928
 4674SOL    HW125655   1.692   1.126   8.525  1.3275  1.0332  1.0757
 4674SOL    HW225656   1.838   1.109   8.555 -0.0314  0.0450  2.0201
 4675SOL     OW25657   0.990   2.353   1.541 -0.5466 -0.2063 -0.6547
 4675SOL    HW125658   1.005   2.261   1.565 -0.5677 -0.4909 -1.7393
 4675SOL    HW225659   0.995   2.388   1.630  2.0051 -0.0073 -0.8677
 4676SOL     OW25660   3.795   4.467   2.217 -0.3703 -0.1396 -0.2586
 4676SOL    HW125661   3.720   4.408   2.219  0.4932 -1.2171  0.4975
 4676SOL    HW225662   3.757   4.548   2.250 -0.6429 -0.0083 -0.8968
 4677SOL     OW25663   1.144   0.859   1.224 -0.2841 -0.0027  0.0043
 4677SOL    HW125664   1.054   0.882   1.201  0.0626 -0.0229 -1.3759
 4677SOL    HW225665   1.191   0.932   1.185  0.6283  0.0269  1.1533
 4678SOL     OW25666   2.329   3.863   4.889  0.0128 -0.8605  0.4515
 4678SOL    HW125667   2.400   3.925   4.870  0.2098 -1.9867 -2.4625
 4678SOL    HW225668   2.268   3.875   4.816  0.4865 -1.1799 -0.0020
 4679SOL     OW25669   3.135   4.577   2.944  0.5053 -0.4034 -0.0812
 4679SOL    HW125670   3.129   4.567   3.039 -1.3917 -1.6633 -0.3254
 4679SOL    HW225671   3.083   4.504   2.909 -0.4163 -0.9286  2.3687
 4680SOL     OW25672   3.234   4.136   8.708 -0.2221 -0.1003  0.1749
 4680SOL    HW125673   3.252   4.127   8.802  0.6387  0.3446  0.0597
 4680SOL    HW225674   3.140   4.149   8.714 -0.1953  0.4071 -0.5376
 4681SOL     OW25675   3.980   0.774   1.829 -0.4923 -0.9698  0.0765
 4681SOL    HW125676   4.013   0.723   1.903  0.2525 -2.3529 -1.2127
 4681SOL    HW225677   3.888   0.790   1.853 -0.7167 -0.0058 -1.4154
 4682SOL     OW25678   3.659   2.054   5.565 -0.1555  0.3804 -1.0241
 4682SOL    HW125679   3.601   2.121   5.529  2.6292  3.0471 -0.5769
 4682SOL    HW225680   3.600   1.979   5.569 -1.1370  1.2685  1.2046
 4683SOL     OW25681   4.359   1.103   2.571  0.3884  0.2357  0.5022
 4683SOL    HW125682   4.266   1.105   2.551  0.1652  1.1950  1.6323
 4683SOL    HW225683   4.361   1.010   2.591 -1.0974  0.3300  1.1022
 4684SOL     OW25684   1.490   1.722   1.679  0.1845 -0.0391  0.5536
 4684SOL    HW125685   1.439   1.800   1.702 -0.9838 -0.1600 -1.6931
 4684SOL    HW225686   1.429   1.649   1.691 -0.0002  0.0530  0.1777
 4685SOL     OW25687   4.156   1.765  14.874 -0.3983  0.2716 -0.2023
 4685SOL    HW125688   4.082   1.794  14.821 -0.3514  0.3890 -0.2026
 4685SOL    HW225689   4.142   1.811  14.957 -0.0886 -3.4723  1.9555
 4686SOL     OW25690   4.606   2.010   5.048 -0.2509  0.1700 -0.0480
 4686SOL    HW125691   4.689   2.057   5.040  0.3506 -1.0860 -1.0779
 4686SOL    HW225692   4.634   1.932   5.095  1.4602  1.2990  0.8100
 4687SOL     OW25693   2.479   2.229  11.399  0.5792 -0.5041 -0.0531
 4687SOL    HW125694   2.471   2.321  11.376  1.1520 -0.1212  1.3250
 4687SOL    HW225695   2.471   2.185  11.314  1.9186  1.5093 -1.2170
 4688SOL     OW25696   4.599   0.703   4.634 -0.4464 -0.1047  0.5177
 4688SOL    HW125697   4.588   0.773   4.571  2.2106  2.1155  2.4901
 4688SOL    HW225698   4.683   0.727   4.674  1.1331 -1.5329 -1.9374
 4689SOL     OW25699   0.526   2.582  10.195  0.4738 -0.4257  0.3971
 4689SOL    HW125700   0.547   2.492  10.220  2.7635 -0.2289 -0.7688
 4689SOL    HW225701   0.452   2.609  10.249  0.4779  0.9050 -0.2505
 4690SOL     OW25702   1.428   0.565   0.511  1.2120 -0.1175  0.0705
 4690SOL    HW125703   1.483   0.572   0.589 -0.1741  0.2684  1.0081
 4690SOL    HW225704   1.481   0.598   0.438  0.9861  3.9556  1.7315
 4691SOL     OW25705   3.165   3.385   6.106  0.2909  0.2838  0.7473
 4691SOL    HW125706   3.118   3.417   6.029 -1.1441 -1.7867  0.7713
 4691SOL    HW225707   3.253   3.420   6.092  0.4440 -0.4790 -0.1738
 4692SOL     OW25708   3.379   3.886   3.537 -0.1542  0.4395 -0.2716
 4692SOL    HW125709   3.313   3.816   3.542 -2.1756  2.5182  2.1588
 4692SOL    HW225710   3.459   3.842   3.565 -1.2360 -0.0773  1.9919
 4693SOL     OW25711   3.001   2.166   0.212  0.4645  0.3104  0.2903
 4693SOL    HW125712   2.969   2.231   0.275  0.3413 -2.0207  2.5959
 4693SOL    HW225713   3.013   2.218   0.132 -0.6246 -1.3249 -0.9285
 4694SOL     OW25714   3.110   0.832   2.613  0.1570 -0.2222  0.1227
 4694SOL    HW125715   3.179   0.765   2.610  0.3495 -0.1564  3.1821
 4694SOL    HW225716   3.151   0.900   2.561  0.4100 -0.4229  0.0609
 4695SOL     OW25717   3.484   0.189   9.028  0.0648 -0.3503  0.3277
 4695SOL    HW125718   3.531   0.202   8.945 -0.1478  0.1410  0.2878
 4695SOL    HW225719   3.490   0.098   9.059 -0.3126 -0.8544 -1.0484
 4696SOL     OW25720   4.249   0.262   3.253 -0.2363  0.5980 -0.0192
 4696SOL    HW125721   4.297   0.181   3.239 -0.0125  0.5919  0.7711
 4696SOL    HW225722   4.289   0.302   3.330  0.0110 -2.5292  1.4883
 4697SOL     OW25723   3.295   3.225  15.455 -0.3703 -0.0141 -0.2796
 4697SOL    HW125724   3.324   3.316  15.445 -0.4771 -0.1573 -1.8380
 4697SOL    HW225725   3.233   3.227  15.528  0.5595  1.4054  0.4620
 4698SOL     OW25726   4.489   4.607   8.022 -0.2097 -0.0297  0.2773
 4698SOL    HW125727   4.530   4.551   8.088  0.4676 -2.1287 -1.8832
 4698SOL    HW225728   4.429   4.553   7.970  1.0922 -0.8930 -0.3347
 4699SOL     OW25729   2.007   0.033   2.352 -0.5951 -0.3423 -0.1712
 4699SOL    HW125730   1.917   0.019   2.381 -1.2928 -0.5884 -2.4389
 4699SOL    HW225731   2.007   0.128   2.362  0.8028 -0.4504  0.7880
 4700SOL     OW25732   2.128   1.800  15.246  0.5364 -0.8741  0.2678
 4700SOL    HW125733   2.082   1.845  15.317 -1.3731  0.0205 -1.5298
 4700SOL    HW225734   2.077   1.820  15.167  2.2708  3.1419  0.1916
 4701SOL     OW25735   1.082   4.265   7.739  0.6218 -0.4825 -0.0973
 4701SOL    HW125736   1.085   4.172   7.762  0.5805 -0.3908  0.2768
 4701SOL    HW225737   0.989   4.274   7.719  0.8294 -0.3599 -1.0035
 4702SOL     OW25738   4.459   0.327   7.733  0.6366 -0.1124  0.1348
 4702SOL    HW125739   4.492   0.289   7.652 -1.1848  0.8902 -1.0756
 4702SOL    HW225740   4.366   0.314   7.716  0.2424 -0.3205  2.4135
 4703SOL     OW25741   4.454   3.074   0.894  0.4115  0.7188  0.3109
 4703SOL    HW125742   4.453   3.021   0.814  3.0589  3.9247 -1.7954
 4703SOL    HW225743   4.448   3.009   0.965 -2.8223 -0.8459 -1.3964
 4704SOL     OW25744   1.257   3.261  13.387 -0.0027 -0.3498 -0.2520
 4704SOL    HW125745   1.282   3.191  13.327 -0.4695 -0.7459  0.0256
 4704SOL    HW225746   1.188   3.220  13.439 -0.8959  0.1966 -1.0090
 4705SOL     OW25747   4.709   0.910   9.542  0.0732 -0.0351  0.2702
 4705SOL    HW125748   4.640   0.955   9.493  1.1062  0.5970 -0.5859
 4705SOL    HW225749   4.665   0.825   9.542  0.3351 -0.1552 -1.8788
 4706SOL     OW25750   2.628   3.883   6.160  0.1757 -0.3292 -0.3524
 4706SOL    HW125751   2.643   3.799   6.116 -1.2227 -0.2168 -1.0654
 4706SOL    HW225752   2.696   3.938   6.121  1.7045 -0.8665  1.5876
 4707SOL     OW25753   0.439   1.494   9.469  0.1489 -0.1024 -0.3237
 4707SOL    HW125754   0.407   1.405   9.484 -0.0941  0.1341  0.5506
 4707SOL    HW225755   0.368   1.546   9.508  0.4302  0.0345  0.0061
 4708SOL     OW25756   2.657   3.188   9.899 -0.1077 -0.0866  0.0579
 4708SOL    HW125757   2.607   3.263   9.868 -3.6925 -0.9388  3.8878
 4708SOL    HW225758   2.732   3.237   9.934  1.4566 -1.3268 -1.5057
 4709SOL     OW25759   0.484   2.230   2.196 -0.1739  0.1965  0.2326
 4709SOL    HW125760   0.399   2.272   2.186  0.0383  0.5863  0.0993
 4709SOL    HW225761   0.464   2.143   2.232 -0.7751  0.2477  0.0106
 4710SOL     OW25762   1.824   4.215   8.031 -0.3351  0.7943 -0.4831
 4710SOL    HW125763   1.771   4.233   8.109  1.7755  0.6567  0.9620
 4710SOL    HW225764   1.905   4.263   8.045 -0.5180  1.0631 -0.3473
 4711SOL     OW25765   1.729   0.886   9.883 -0.0014 -0.3253 -0.5087
 4711SOL    HW125766   1.718   0.802   9.928 -0.7689 -0.6132 -1.2478
 4711SOL    HW225767   1.654   0.884   9.824  0.8205  2.4665 -1.6051
 4712SOL     OW25768   1.226   4.196   9.183 -0.0111  0.4444  0.0605
 4712SOL    HW125769   1.206   4.162   9.096  0.0124  0.3401  0.0960
 4712SOL    HW225770   1.164   4.268   9.192  0.0206  0.5685 -0.6933
 4713SOL     OW25771   0.185   1.323   8.484  0.0830 -0.2614 -0.4379
 4713SOL    HW125772   0.247   1.253   8.503 -1.3302 -1.1343  0.9650
 4713SOL    HW225773   0.105   1.280   8.454 -2.0275  1.6561  2.3775
 4714SOL     OW25774   0.362   4.220  14.710  0.3510 -0.3562  0.0068
 4714SOL    HW125775   0.396   4.183  14.629  1.0262  1.0024 -0.3208
 4714SOL    HW225776   0.425   4.285  14.742 -1.9181  2.3743 -1.1412
 4715SOL     OW25777   1.847   3.069   8.854  0.4251  0.1044 -0.0244
 4715SOL    HW125778   1.829   3.007   8.925 -0.5856  0.6167  0.1667
 4715SOL    HW225779   1.784   3.138   8.876 -1.7398 -1.5009 -1.2045
 4716SOL     OW25780   1.059   1.834   2.848 -0.2311  0.3625 -0.5961
 4716SOL    HW125781   1.064   1.743   2.877 -0.0192  0.8635  0.9725
 4716SOL    HW225782   1.051   1.830   2.753 -1.2501 -0.1691 -0.4846
 4717SOL     OW25783   3.482   3.376   0.337 -0.2493  0.0718  0.4018
 4717SOL    HW125784   3.492   3.409   0.426  2.2416  0.7790 -0.1594
 4717SOL    HW225785   3.390   3.397   0.319  0.3587  1.4498 -1.1971
 4718SOL     OW25786   2.038   3.720   8.826  0.5118 -0.1483  0.0472
 4718SOL    HW125787   1.947   3.706   8.851  0.2597 -0.0313 -0.7953
 4718SOL    HW225788   2.083   3.637   8.842 -0.0180 -0.7031 -1.2375
 4719SOL     OW25789   0.472   4.475   8.005 -0.2238 -0.0538  0.3019
 4719SOL    HW125790   0.393   4.496   8.054 -0.6329  2.2777 -1.3270
 4719SOL    HW225791   0.435   4.449   7.921  2.7937 -1.0174 -0.7245
 4720SOL     OW25792   2.114   3.470   8.879  0.6655  0.4039 -0.0560
 4720SOL    HW125793   2.104   3.417   8.959  1.3127  0.5816  0.1441
 4720SOL    HW225794   2.207   3.453   8.864  1.0639  1.0123  1.6700
 4721SOL     OW25795   1.080   2.505   3.664 -0.1789  0.3625  0.2131
 4721SOL    HW125796   1.173   2.488   3.652 -0.4720 -0.2796 -1.2054
 4721SOL    HW225797   1.064   2.586   3.614 -2.1623 -1.1239 -1.5574
 4722SOL     OW25798   2.015   2.214   8.914  0.2402 -0.0483 -0.3892
 4722SOL    HW125799   2.087   2.253   8.964 -1.0802  2.2967 -0.2850
 4722SOL    HW225800   2.034   2.123   8.938 -1.0558 -0.1633  0.1684
 4723SOL     OW25801   2.581   0.834  15.401 -0.3628  0.2146 -0.3783
 4723SOL    HW125802   2.501   0.856  15.353  0.2710  3.0115 -0.1345
 4723SOL    HW225803   2.552   0.773  15.469 -0.1303  2.0288  1.3388
 4724SOL     OW25804   1.059   2.587   8.168  0.0408  0.0306  0.1150
 4724SOL    HW125805   0.998   2.548   8.231 -0.4144 -1.1225 -1.0386
 4724SOL    HW225806   1.110   2.648   8.221  1.2497  0.1495 -1.1824
 4725SOL     OW25807   3.265   4.169  15.938  0.5505  0.4627 -0.0013
 4725SOL    HW125808   3.347   4.188  15.983  1.2136  2.6205 -2.1590
 4725SOL    HW225809   3.283   4.202  15.851 -2.6318  3.4224  0.4820
 4726SOL     OW25810   1.824   3.333  13.611 -0.7536 -0.2395 -0.1803
 4726SOL    HW125811   1.852   3.381  13.688  0.4893  0.5201 -1.1101
 4726SOL    HW225812   1.857   3.385  13.538  1.9825  1.0494  2.0092
 4727SOL     OW25813   1.040   0.618  10.224 -0.0928  0.5098 -0.2038
 4727SOL    HW125814   1.115   0.677  10.220 -0.7763  1.4204  0.6089
 4727SOL    HW225815   1.020   0.626  10.318 -1.0555 -0.5228 -0.3125
 4728SOL     OW25816   2.997   2.793   6.416 -0.6799 -0.3162 -0.6722
 4728SOL    HW125817   2.996   2.888   6.404 -0.1995 -0.1704  0.4298
 4728SOL    HW225818   2.960   2.788   6.504  0.7668  0.8050  0.0158
 4729SOL     OW25819   0.832   2.053   5.173  0.5451  0.1762  0.7885
 4729SOL    HW125820   0.739   2.068   5.153  1.0993 -0.5558 -2.3420
 4729SOL    HW225821   0.826   2.060   5.268 -1.5929 -0.4697  0.7030
 4730SOL     OW25822   0.235   2.222   4.863 -0.2464 -0.3618 -0.1433
 4730SOL    HW125823   0.172   2.180   4.921 -1.8145  0.2186 -1.4290
 4730SOL    HW225824   0.274   2.138   4.840  3.5515  1.0152  1.1103
 4731SOL     OW25825   2.949   4.614   5.288  0.2174  0.0169 -0.0377
 4731SOL    HW125826   2.898   4.665   5.225  0.8918 -0.3354 -0.8616
 4731SOL    HW225827   2.987   4.552   5.226 -1.1444 -1.2465  0.3670
 4732SOL     OW25828   1.166   3.788   5.387 -0.4249 -0.1323  0.2933
 4732SOL    HW125829   1.185   3.881   5.404  1.7416 -0.5371  0.1595
 4732SOL    HW225830   1.106   3.791   5.313  1.4656 -1.2130 -1.2880
 4733SOL     OW25831   1.865   0.664   5.898 -0.3667  0.2246  0.0930
 4733SOL    HW125832   1.814   0.706   5.828  1.4927 -0.2562 -1.5386
 4733SOL    HW225833   1.815   0.697   5.973  1.0063  2.4115  0.0316
 4734SOL     OW25834   2.077   4.318   8.047 -0.0267  0.1453  0.0207
 4734SOL    HW125835   2.142   4.362   7.993  1.0540 -1.2295  0.1970
 4734SOL    HW225836   2.125   4.303   8.129 -1.1124  3.4087  1.2577
 4735SOL     OW25837   0.551   0.861  14.541 -0.6690 -0.2869 -0.5921
 4735SOL    HW125838   0.490   0.810  14.487 -0.6455 -2.6819  1.6309
 4735SOL    HW225839   0.549   0.802  14.616 -1.8316 -0.3387 -0.6684
 4736SOL     OW25840   2.354   2.875   1.989  0.2395 -0.3495  0.6410
 4736SOL    HW125841   2.285   2.839   1.933  2.1489 -2.7354 -0.1856
 4736SOL    HW225842   2.316   2.952   2.032  0.7999 -0.3714  1.1686
 4737SOL     OW25843   0.943   3.013  13.785  0.5121 -0.2301  0.1423
 4737SOL    HW125844   0.899   2.995  13.868  0.5087  0.5615  0.3133
 4737SOL    HW225845   0.896   3.087  13.747 -1.8850 -0.1103  3.3848
 4738SOL     OW25846   3.889   1.060   8.276 -0.3504 -0.0541 -0.7541
 4738SOL    HW125847   3.910   1.076   8.185 -0.1922  0.5024 -0.6221
 4738SOL    HW225848   3.809   1.007   8.272  1.1529 -2.3726 -0.2922
 4739SOL     OW25849   2.031   3.180   3.668  0.3052  0.2061  0.3537
 4739SOL    HW125850   2.062   3.119   3.601 -3.2396 -1.0361 -0.1666
 4739SOL    HW225851   2.039   3.123   3.744  0.0650 -0.3527 -0.0429
 4740SOL     OW25852   3.096   2.472   1.066  0.1588 -0.2998  0.0363
 4740SOL    HW125853   3.130   2.403   1.009  2.4248  1.9202 -1.2854
 4740SOL    HW225854   3.008   2.444   1.088  0.1936  1.3107  2.2927
 4741SOL     OW25855   3.269   2.233   8.129  0.0810  0.3686 -0.3247
 4741SOL    HW125856   3.299   2.181   8.204  1.0061 -0.0703 -0.9929
 4741SOL    HW225857   3.250   2.313   8.178 -1.0415 -0.9625  1.4133
 4742SOL     OW25858   2.769   4.498   7.352  0.7053  0.1523  0.1202
 4742SOL    HW125859   2.720   4.428   7.394  0.0039  1.3392  1.3061
 4742SOL    HW225860   2.846   4.495   7.409 -0.0073  1.4981  1.1824
 4743SOL     OW25861   0.345   2.676  16.968  0.2674 -0.0879 -0.1043
 4743SOL    HW125862   0.306   2.758  16.999  0.5426 -0.1139  0.3098
 4743SOL    HW225863   0.260   2.641  16.941 -1.0288  1.5680  1.7426
 4744SOL     OW25864   4.231   3.897   2.533 -0.1131 -0.0217  0.0235
 4744SOL    HW125865   4.206   3.812   2.569  1.2591 -0.3924  0.1361
 4744SOL    HW225866   4.278   3.872   2.453 -0.2942  0.0159 -0.0937
 4745SOL     OW25867   4.650   1.367  13.268 -0.6449 -0.4551  0.4227
 4745SOL    HW125868   4.679   1.410  13.349 -0.5568  0.1181  0.0834
 4745SOL    HW225869   0.002   1.350  13.228  0.1005  0.1954  1.7185
 4746SOL     OW25870   1.379   2.235   4.051 -0.2606 -0.1455 -0.1329
 4746SOL    HW125871   1.290   2.211   4.078  0.3694 -2.1816  0.1381
 4746SOL    HW225872   1.380   2.330   4.053 -3.6157 -0.1244  0.8428
 4747SOL     OW25873   0.237   0.288  11.637  0.4156  0.6728  0.4031
 4747SOL    HW125874   0.253   0.373  11.678 -2.6213  1.1143  0.6484
 4747SOL    HW225875   0.169   0.322  11.580  2.9255  0.2027 -2.9080
 4748SOL     OW25876   1.763   3.438   2.724 -0.5619 -0.1669  0.4300
 4748SOL    HW125877   1.774   3.425   2.630 -2.8474 -0.7782  0.2329
 4748SOL    HW225878   1.795   3.361   2.771  0.0425 -0.2480 -0.1114
 4749SOL     OW25879   0.446   2.430   3.906  0.5693  0.0698  0.3359
 4749SOL    HW125880   0.422   2.512   3.951 -2.1440  0.0917 -1.1125
 4749SOL    HW225881   0.402   2.358   3.951  0.9717  0.5503  1.4971
 4750SOL     OW25882   2.998   3.629   2.087  0.8957 -0.1749 -0.3666
 4750SOL    HW125883   2.995   3.648   1.993 -0.1935 -0.2910 -0.3646
 4750SOL    HW225884   2.938   3.555   2.099  2.8967 -1.2783  2.6604
 4751SOL     OW25885   2.830   0.660   1.657  0.5801 -0.3065  0.0198
 4751SOL    HW125886   2.883   0.610   1.595  1.6802  2.1327 -1.0025
 4751SOL    HW225887   2.902   0.678   1.716 -0.4234  0.1655  1.0955
 4752SOL     OW25888   1.854   2.633  12.662 -0.1414 -0.2931 -0.3706
 4752SOL    HW125889   1.941   2.664  12.634 -0.5654  0.7703 -0.4910
 4752SOL    HW225890   1.810   2.647  12.578 -0.3549  0.8553 -0.0710
 4753SOL     OW25891   4.101   2.969  11.395  0.2000 -0.9034 -0.2590
 4753SOL    HW125892   4.041   2.895  11.405 -1.5551  0.5008 -0.3975
 4753SOL    HW225893   4.092   2.974  11.300 -3.2956 -0.1993  0.0988
 4754SOL     OW25894   1.207   2.051   0.868  0.4558 -0.0850  0.1843
 4754SOL    HW125895   1.289   2.050   0.819  0.2036 -1.8540 -0.2093
 4754SOL    HW225896   1.144   2.071   0.799 -1.7727 -1.6088  1.7449
 4755SOL     OW25897   1.485   3.136   8.253  0.2907 -0.1864  0.4921
 4755SOL    HW125898   1.454   3.178   8.333 -2.1700 -1.6770  0.3070
 4755SOL    HW225899   1.414   3.079   8.224  1.2046 -1.1209  0.0989
 4756SOL     OW25900   1.014   3.984   2.204 -0.4705  0.2912  0.0973
 4756SOL    HW125901   1.084   4.020   2.259 -0.4966 -1.0720  1.0189
 4756SOL    HW225902   1.067   3.945   2.134 -1.1303 -0.5566  0.0721
 4757SOL     OW25903   4.582   4.601  12.822  0.3766 -0.1666  0.0595
 4757SOL    HW125904   4.569   4.595  12.728  2.2063 -0.1759 -0.1893
 4757SOL    HW225905   4.507   4.553  12.857  0.3150  0.5539  0.9190
 4758SOL     OW25906   1.786   2.418   9.306 -0.1074  0.2913 -0.6563
 4758SOL    HW125907   1.865   2.472   9.308  0.7191 -1.0085  1.6098
 4758SOL    HW225908   1.832   2.338   9.329  1.5383  0.6174 -2.8451
 4759SOL     OW25909   2.894   4.583   9.851 -0.6316  0.2672 -0.4182
 4759SOL    HW125910   2.837   4.623   9.917 -0.6168 -1.0140  0.3679
 4759SOL    HW225911   2.958   4.652   9.838 -2.2190  1.9577  0.6823
 4760SOL     OW25912   1.295   1.266  11.900  0.5501  0.3927 -0.6070
 4760SOL    HW125913   1.354   1.292  11.829  2.1420  2.3614  1.4289
 4760SOL    HW225914   1.346   1.233  11.974 -0.1074 -0.3517 -0.4886
 4761SOL     OW25915   2.194   1.453   6.998 -0.3636  0.3647 -0.3109
 4761SOL    HW125916   2.167   1.449   7.090  1.0975  1.0561  0.1491
 4761SOL    HW225917   2.264   1.518   6.999 -0.1796  0.1687 -0.4955
 4762SOL     OW25918   1.400   2.253   2.769 -0.2220  0.1294 -0.0732
 4762SOL    HW125919   1.445   2.235   2.851 -0.3374 -2.8519 -0.6701
 4762SOL    HW225920   1.307   2.262   2.790 -0.2591 -1.0387  0.2785
 4763SOL     OW25921   1.493   2.000   1.402  0.0577 -0.0002  0.0578
 4763SOL    HW125922   1.454   1.963   1.322  2.3968 -0.9237 -0.6454
 4763SOL    HW225923   1.419   1.995   1.463 -0.3677 -1.8562 -0.6082
 4764SOL     OW25924   2.568   3.261   8.873  0.0864 -0.4470  0.1773
 4764SOL    HW125925   2.642   3.303   8.915  0.1173 -0.0282 -0.3059
 4764SOL    HW225926   2.525   3.228   8.952  1.8607 -1.6245  0.6405
 4765SOL     OW25927   3.611   4.260   6.652  0.5064 -0.0263  0.0010
 4765SOL    HW125928   3.590   4.168   6.639 -0.6110  0.2206  0.0539
 4765SOL    HW225929   3.547   4.284   6.719 -0.8525  2.3228 -2.1428
 4766SOL     OW25930   4.205   2.515   1.354 -0.0271  0.4505  0.2219
 4766SOL    HW125931   4.252   2.439   1.389  1.1395  1.3325  0.5745
 4766SOL    HW225932   4.145   2.479   1.289  0.1146  0.6393 -0.0149
 4767SOL     OW25933   0.496   2.439  14.369  0.5043  0.1687  0.1467
 4767SOL    HW125934   0.450   2.436  14.285 -0.6873  0.2592  0.7944
 4767SOL    HW225935   0.452   2.507  14.420  2.8665  1.0771  0.9707
 4768SOL     OW25936   1.967   1.494  17.136 -0.5917 -0.6619 -0.4238
 4768SOL    HW125937   1.901   1.509  17.204 -0.4976  0.8533 -0.6621
 4768SOL    HW225938   1.991   1.405  17.160  0.7648  0.1226  1.0933
 4769SOL     OW25939   2.306   1.592   3.968  0.5359  0.2660 -0.0852
 4769SOL    HW125940   2.285   1.599   4.061 -1.0613 -1.2276 -0.3265
 4769SOL    HW225941   2.243   1.523   3.946  1.3276 -1.3724  2.7864
 4770SOL     OW25942   1.291   0.142   2.080  0.5840 -0.4350 -0.3768
 4770SOL    HW125943   1.338   0.199   2.141 -0.0514  0.7391 -0.9861
 4770SOL    HW225944   1.222   0.200   2.048  1.9051  0.6707 -1.2361
 4771SOL     OW25945   2.649   2.841  15.293 -0.1984 -0.0468  0.7925
 4771SOL    HW125946   2.735   2.825  15.254 -0.0739 -0.9503  1.4160
 4771SOL    HW225947   2.644   2.773  15.361  2.0696 -0.3739  0.6301
 4772SOL     OW25948   1.586   0.185   7.860 -0.1021 -0.1939 -0.0654
 4772SOL    HW125949   1.619   0.119   7.922  0.5534 -0.5907 -0.8461
 4772SOL    HW225950   1.492   0.165   7.864  0.2713 -1.6719  1.1796
 4773SOL     OW25951   1.401   1.794   8.830 -0.5980  0.2818 -0.1391
 4773SOL    HW125952   1.336   1.809   8.762 -0.5918  3.9955  0.6902
 4773SOL    HW225953   1.484   1.818   8.788 -0.3555 -0.1042  0.1127
 4774SOL     OW25954   3.255   0.117  12.381 -0.0482 -0.6448 -0.1013
 4774SOL    HW125955   3.348   0.123  12.357 -0.4390  3.1627 -0.6868
 4774SOL    HW225956   3.212   0.122  12.296  0.7023 -0.6801 -0.4850
 4775SOL     OW25957   3.066   2.374   6.471  0.3551 -0.2738 -0.0693
 4775SOL    HW125958   3.119   2.414   6.540  0.7513  0.4112 -0.7618
 4775SOL    HW225959   3.139   2.372   6.408 -0.3882  1.6078 -1.0170
 4776SOL     OW25960   1.221   2.234   5.591 -0.2769  0.1490 -0.3331
 4776SOL    HW125961   1.169   2.190   5.524  0.3395  0.8207 -1.2535
 4776SOL    HW225962   1.165   2.218   5.667 -0.4585 -1.4599 -0.8180
 4777SOL     OW25963   1.693   1.198   7.371 -0.0205 -0.2323  0.2842
 4777SOL    HW125964   1.702   1.265   7.438 -2.6868 -0.6612  1.0713
 4777SOL    HW225965   1.780   1.166   7.348  0.7415  0.8335  1.7553
 4778SOL     OW25966   2.670   1.159  14.620 -0.8684 -0.1428  1.0073
 4778SOL    HW125967   2.574   1.162  14.623 -0.9821 -2.0420 -0.7309
 4778SOL    HW225968   2.692   1.093  14.685 -2.3471 -1.5651  0.0715
 4779SOL     OW25969   0.351   1.223   7.851  0.2971  0.2707 -0.0795
 4779SOL    HW125970   0.394   1.139   7.837  0.3102  0.7013 -2.5960
 4779SOL    HW225971   0.313   1.215   7.938 -0.7885 -1.1663 -0.6804
 4780SOL     OW25972   1.702   1.869   9.443  0.0358 -0.0762  0.2142
 4780SOL    HW125973   1.727   1.789   9.396 -0.7719 -1.0204  1.3924
 4780SOL    HW225974   1.668   1.921   9.370  0.8442  0.7958  0.4535
 4781SOL     OW25975   1.155   1.344   6.313 -0.5574 -0.1805 -0.4234
 4781SOL    HW125976   1.170   1.261   6.268  0.1962  0.0816 -0.6663
 4781SOL    HW225977   1.079   1.325   6.367 -0.2002  0.5494  0.3325
 4782SOL     OW25978   0.260   2.371   7.825  0.0895  0.0589  0.3593
 4782SOL    HW125979   0.292   2.415   7.747  0.0267  0.7295  0.7141
 4782SOL    HW225980   0.230   2.288   7.787  0.3702  0.1982 -0.1662
 4783SOL     OW25981   1.557   2.575   7.952  0.4267  0.0125 -0.4129
 4783SOL    HW125982   1.585   2.665   7.944 -0.6489  0.4349  0.4961
 4783SOL    HW225983   1.541   2.549   7.861 -2.9516 -0.7113  0.3749
 4784SOL     OW25984   3.107   0.546   5.324 -0.2902 -0.6042 -0.3537
 4784SOL    HW125985   3.129   0.571   5.414 -0.3616 -0.5583 -0.3492
 4784SOL    HW225986   3.036   0.607   5.307  0.6416  1.0153  1.5566
 4785SOL     OW25987   4.458   2.289  12.849  0.0492  0.4385  0.1221
 4785SOL    HW125988   4.457   2.271  12.942 -0.2777  2.3857  0.5081
 4785SOL    HW225989   4.547   2.323  12.855  0.1768  0.0576  0.3225
 4786SOL     OW25990   1.448   0.792   5.615 -0.1489  0.0980 -0.4633
 4786SOL    HW125991   1.379   0.854   5.642  2.3582  2.8674 -0.3906
 4786SOL    HW225992   1.400   0.711   5.629 -0.7854  0.2686 -1.5506
 4787SOL     OW25993   3.076   2.683   5.039 -0.4800 -0.5272 -0.3760
 4787SOL    HW125994   3.074   2.752   4.973  1.3928 -1.4743 -1.4068
 4787SOL    HW225995   3.160   2.643   5.016 -0.8034 -1.7335  0.5230
 4788SOL     OW25996   4.018   4.132   6.954 -0.7572  0.0224  0.0376
 4788SOL    HW125997   3.944   4.079   6.983  1.1052 -2.2027  0.7217
 4788SOL    HW225998   3.984   4.160   6.869 -1.8509  3.1209  1.4952
 4789SOL     OW25999   1.960   1.802  10.662  0.6875  0.5243 -0.5086
 4789SOL    HW126000   1.884   1.861  10.669 -0.4317 -0.6309 -2.8270
 4789SOL    HW226001   1.927   1.716  10.636  0.7543  0.1678  0.5903
 4790SOL     OW26002   2.908   2.004  10.521  0.1656  0.2051 -0.0557
 4790SOL    HW126003   2.997   1.989  10.488  0.5542  0.1672  0.9935
 4790SOL    HW226004   2.883   2.069  10.455 -0.2603  0.3339  0.2361
 4791SOL     OW26005   0.960   2.633   8.649  0.3103  0.2019  0.0147
 4791SOL    HW126006   0.893   2.591   8.702 -0.9479  2.5896  0.3067
 4791SOL    HW226007   0.906   2.672   8.580  0.9043  0.9297 -0.0425
 4792SOL     OW26008   2.290   2.516   6.314 -0.2364 -0.1924 -0.2690
 4792SOL    HW126009   2.293   2.432   6.268 -1.3524 -1.0906  1.3228
 4792SOL    HW226010   2.250   2.481   6.393  0.4525  0.4146  0.3434
 4793SOL     OW26011   3.032   1.042   3.348  0.0163  0.1634  0.9235
 4793SOL    HW126012   3.037   1.103   3.422 -1.3758  0.2248  0.9688
 4793SOL    HW226013   3.125   1.024   3.332 -0.5492 -1.7914 -0.0519
 4794SOL     OW26014   0.541   1.006   9.559  0.4920 -0.1520  0.0010
 4794SOL    HW126015   0.519   0.971   9.645  1.0377 -1.9676 -0.5953
 4794SOL    HW226016   0.467   0.975   9.507 -0.1745 -0.4302  1.1211
 4795SOL     OW26017   3.177   0.104  13.368  0.0763  0.8075  0.7946
 4795SOL    HW126018   3.263   0.124  13.330 -0.1733  1.1197  0.3908
 4795SOL    HW226019   3.155   0.021  13.327  3.9135 -1.0144  2.4220
 4796SOL     OW26020   2.800   3.023   5.142  0.0475  0.0576 -0.3115
 4796SOL    HW126021   2.812   2.938   5.100  0.8899 -0.2625  0.5709
 4796SOL    HW226022   2.760   2.976   5.215 -0.6114  0.9731 -0.0893
 4797SOL     OW26023   0.709   1.565   4.846 -0.3536 -0.3814  0.2693
 4797SOL    HW126024   0.721   1.474   4.818  2.0455 -0.5965  1.9365
 4797SOL    HW226025   0.704   1.551   4.941 -1.2904  0.4454  0.3469
 4798SOL     OW26026   0.313   1.713  13.554 -0.2362  0.0174  0.2089
 4798SOL    HW126027   0.267   1.687  13.634  0.4428 -2.8510 -0.3089
 4798SOL    HW226028   0.299   1.807  13.545  0.8425  0.1521 -0.0318
 4799SOL     OW26029   4.584   1.175  14.960 -0.4012 -0.1295  0.0791
 4799SOL    HW126030   4.637   1.149  14.885  0.5795  0.7297  0.4775
 4799SOL    HW226031   4.576   1.270  14.956  2.0172  0.0930  0.6858
 4800SOL     OW26032   3.551   1.510   9.356 -0.2576  0.0596  0.0760
 4800SOL    HW126033   3.552   1.426   9.401 -0.5741 -0.2747 -0.5284
 4800SOL    HW226034   3.499   1.499   9.276 -1.4757 -1.3939  1.0543
 4801SOL     OW26035   1.259   3.057  12.410 -0.1675  0.1211 -0.2658
 4801SOL    HW126036   1.246   2.969  12.373  0.5015  1.1202 -2.8351
 4801SOL    HW226037   1.207   3.047  12.491 -1.1044  1.6783 -0.6783
 4802SOL     OW26038   1.377   0.745   9.863 -0.3750 -0.0105  0.2041
 4802SOL    HW126039   1.298   0.799   9.860 -0.5184 -0.2948 -0.8851
 4802SOL    HW226040   1.354   0.697   9.943 -0.7196 -1.9487 -1.0470
 4803SOL     OW26041   3.666   3.087  10.117  0.0710 -0.5987 -0.1411
 4803SOL    HW126042   3.596   3.033  10.080 -2.4653  2.5574 -0.0012
 4803SOL    HW226043   3.643   3.112  10.207  0.9464 -1.3276  0.2818
 4804SOL     OW26044   2.097   0.602   2.461  0.3091  0.2084 -0.2373
 4804SOL    HW126045   2.173   0.659   2.470  0.2108  0.2340  0.4131
 4804SOL    HW226046   2.028   0.666   2.445 -0.9088 -0.8804  0.6786
 4805SOL     OW26047   4.474   1.404  14.700  0.3845  0.1373  0.3010
 4805SOL    HW126048   4.436   1.316  14.699 -1.4065  0.9336 -0.4945
 4805SOL    HW226049   4.406   1.445  14.754  0.4809  1.3812 -0.5373
 4806SOL     OW26050   3.900   3.277  15.301 -0.6658  0.8102 -0.3951
 4806SOL    HW126051   3.810   3.253  15.278 -1.4797  2.9567  0.5249
 4806SOL    HW226052   3.904   3.370  15.281 -0.1032  0.5329 -1.5589
 4807SOL     OW26053   4.285   3.948   0.438  0.3888  0.2962  0.1282
 4807SOL    HW126054   4.325   3.971   0.522 -0.9599  2.9260  0.0455
 4807SOL    HW226055   4.191   3.954   0.454  0.1729 -1.2860 -0.5739
 4808SOL     OW26056   1.279   0.887   3.660  0.2160  0.0209 -0.4020
 4808SOL    HW126057   1.215   0.956   3.643  0.7879  1.0348  1.6278
 4808SOL    HW226058   1.342   0.896   3.588 -0.3818  2.2146 -0.6327
 4809SOL     OW26059   3.143   3.173   6.453  0.1161  0.2247  0.0295
 4809SOL    HW126060   3.216   3.110   6.457  2.3010  2.5643 -2.5696
 4809SOL    HW226061   3.185   3.258   6.463 -0.0627  0.4109 -0.7785
 4810SOL     OW26062   2.931   2.850   5.741 -0.4230 -0.5611 -0.3384
 4810SOL    HW126063   3.000   2.794   5.707 -1.0452  0.0230 -2.5130
 4810SOL    HW226064   2.908   2.807   5.823  1.0905 -0.1391  0.3081
 4811SOL     OW26065   0.232   0.940   9.517 -0.1359  0.2173 -0.0699
 4811SOL    HW126066   0.137   0.944   9.531 -0.2422 -2.2424 -0.1885
 4811SOL    HW226067   0.234   0.920   9.424  1.2855  1.2994 -0.2742
 4812SOL     OW26068   2.499   4.721  17.059  0.8540  0.1387  0.3267
 4812SOL    HW126069   2.471   4.698  16.970  1.4705 -1.1295  0.4515
 4812SOL    HW226070   2.490   0.081  17.049  2.0158  0.1740 -0.4683
 4813SOL     OW26071   1.540   0.768   4.461  0.3708  0.4039  0.7571
 4813SOL    HW126072   1.590   0.699   4.418 -2.5081 -0.9067 -0.4478
 4813SOL    HW226073   1.529   0.833   4.392 -0.2396  0.7422  1.1649
 4814SOL     OW26074   2.586   1.882   7.916  0.2063 -0.6055  0.8881
 4814SOL    HW126075   2.561   1.965   7.877  0.6004 -0.6030  0.6383
 4814SOL    HW226076   2.598   1.914   8.006 -0.1773 -5.1464  2.5652
 4815SOL     OW26077   0.492   4.348   3.782 -0.0565 -0.3481 -0.1397
 4815SOL    HW126078   0.458   4.426   3.739  3.1278 -0.5867 -3.1134
 4815SOL    HW226079   0.573   4.332   3.734 -0.0860 -0.1209 -0.2679
 4816SOL     OW26080   1.031   0.285  15.970  0.6696  0.0911 -0.7557
 4816SOL    HW126081   1.058   0.274  16.061  0.8593  2.5816 -0.5181
 4816SOL    HW226082   1.077   0.212  15.929 -0.9725 -0.6994 -1.2161
 4817SOL     OW26083   2.998   0.033   0.825 -0.0411  0.5494  0.0688
 4817SOL    HW126084   3.002   0.010   0.732  2.3955  1.0520  0.0628
 4817SOL    HW226085   3.089   0.027   0.852  0.0410 -1.4686 -0.6569
 4818SOL     OW26086   3.377   1.362   9.011  1.0801  0.2818  0.0592
 4818SOL    HW126087   3.444   1.425   8.986  1.1987  0.2014  0.1739
 4818SOL    HW226088   3.353   1.383   9.101 -1.7091 -1.2033 -0.3088
 4819SOL     OW26089   3.766   1.599   8.344  0.7666 -0.7325  0.0808
 4819SOL    HW126090   3.779   1.506   8.363 -2.6475 -1.2255  0.0505
 4819SOL    HW226091   3.675   1.606   8.372  0.1017 -0.7232 -2.0873
 4820SOL     OW26092   3.913   1.361   4.905  0.4169 -0.2414  0.1146
 4820SOL    HW126093   3.851   1.316   4.847 -1.7874  2.2393  0.5377
 4820SOL    HW226094   3.939   1.285   4.957  1.2903 -0.9078 -1.3237
 4821SOL     OW26095   3.336   4.392   7.640  0.1417 -0.4181 -0.4783
 4821SOL    HW126096   3.265   4.392   7.704  0.6363 -3.1457  0.0467
 4821SOL    HW226097   3.367   4.302   7.650 -3.2662 -1.6683 -1.3608
 4822SOL     OW26098   1.000   3.339   7.041 -0.5210 -0.2703  0.6363
 4822SOL    HW126099   1.016   3.251   7.075  1.4223 -0.1424  0.0534
 4822SOL    HW226100   0.904   3.331   7.041 -0.7373  2.3878  1.7352
 4823SOL     OW26101   2.353   1.773   4.906  0.2617 -1.5660 -0.1927
 4823SOL    HW126102   2.409   1.846   4.929 -0.9939 -0.1872 -1.5358
 4823SOL    HW226103   2.283   1.817   4.858  1.2790  2.1096  1.7192
 4824SOL     OW26104   3.024   1.000   6.293  0.6091 -0.4300  0.5019
 4824SOL    HW126105   3.036   0.926   6.234  0.7655 -1.3054  1.6280
 4824SOL    HW226106   2.961   0.965   6.356  0.5020 -1.8137 -0.3820
 4825SOL     OW26107   2.258   4.341  16.899 -0.5275 -0.1736 -0.3208
 4825SOL    HW126108   2.249   4.391  16.980 -1.4423  0.2096 -0.6708
 4825SOL    HW226109   2.165   4.336  16.881 -0.4849  0.9766 -0.8222
 4826SOL     OW26110   2.516   2.207   6.523 -0.2458  0.2728 -0.7189
 4826SOL    HW126111   2.550   2.166   6.444  3.3682  1.7577  0.0463
 4826SOL    HW226112   2.599   2.238   6.561 -0.6085  0.1416  0.1864
 4827SOL     OW26113   4.631   0.820   6.684 -0.2842 -0.3004  0.4594
 4827SOL    HW126114   4.627   0.885   6.754  1.9963 -0.6261  0.8890
 4827SOL    HW226115   4.543   0.783   6.680 -0.1807 -0.5198  0.2029
 4828SOL     OW26116   1.213   4.165   9.941  0.2939  0.2170 -0.4416
 4828SOL    HW126117   1.282   4.217   9.900 -1.4720  1.8014 -1.3617
 4828SOL    HW226118   1.237   4.171  10.034 -2.9634  0.1771  0.4121
 4829SOL     OW26119   4.650   3.654   2.352 -0.4090 -0.6170 -0.1674
 4829SOL    HW126120   4.691   3.686   2.433 -0.7725 -3.7346  1.2762
 4829SOL    HW226121   4.726   3.656   2.295 -0.6554  0.7099 -0.4285
 4830SOL     OW26122   2.275   3.843   8.820 -0.2579  0.1902  0.1683
 4830SOL    HW126123   2.195   3.796   8.842  0.0531 -0.2442  0.3562
 4830SOL    HW226124   2.270   3.843   8.724 -0.0273  0.0068  0.1587
 4831SOL     OW26125   3.082   4.364  15.145  0.1582  0.7114  0.4393
 4831SOL    HW126126   3.130   4.386  15.225  1.8966 -0.2804 -0.3100
 4831SOL    HW226127   3.131   4.399  15.070 -1.8541  1.5190 -0.4999
 4832SOL     OW26128   3.121   4.171   7.545  0.6417  0.5319  0.0745
 4832SOL    HW126129   3.063   4.125   7.606  1.7967 -0.8600  0.1360
 4832SOL    HW226130   3.209   4.141   7.568  0.4404 -0.9008 -1.0402
 4833SOL     OW26131   4.054   1.419   4.701 -0.3081 -0.3037  0.3760
 4833SOL    HW126132   4.015   1.490   4.650  1.7637 -0.3603 -1.2811
 4833SOL    HW226133   3.990   1.410   4.772  0.5740 -2.2633  0.9132
 4834SOL     OW26134   3.013   3.014   4.287 -0.4098  0.7451 -0.0916
 4834SOL    HW126135   3.008   3.093   4.341  2.2376  0.7210  0.1756
 4834SOL    HW226136   2.938   3.031   4.229 -0.3393 -2.0190 -1.0262
 4835SOL     OW26137   4.441   1.363   2.877  0.0015 -0.0396 -0.0754
 4835SOL    HW126138   4.399   1.311   2.945  1.1100 -0.3710  0.3442
 4835SOL    HW226139   4.374   1.430   2.866 -0.2360 -0.2501  0.0871
 4836SOL     OW26140   4.511   0.889   0.359  0.0762 -0.0653 -0.0517
 4836SOL    HW126141   4.443   0.879   0.292 -0.4305 -1.2075  0.6339
 4836SOL    HW226142   4.585   0.846   0.316  0.1354 -1.6213  1.5855
 4837SOL     OW26143   0.294   4.598   1.891 -0.7964 -0.1795  0.0043
 4837SOL    HW126144   0.368   4.610   1.831 -0.1401 -1.3707  0.5550
 4837SOL    HW226145   0.230   4.664   1.865  0.9399  1.0092 -1.2744
 4838SOL     OW26146   1.925   1.959   3.084 -0.4471 -0.0478  0.1450
 4838SOL    HW126147   1.906   1.866   3.068 -1.0513  0.0058  0.5442
 4838SOL    HW226148   1.844   1.992   3.045 -0.2998 -0.3025 -0.3768
 4839SOL     OW26149   0.568   2.932   2.244 -0.2857 -0.1057  0.4288
 4839SOL    HW126150   0.568   3.026   2.264 -0.5563 -0.1064  0.4258
 4839SOL    HW226151   0.562   2.887   2.328 -1.4831 -1.0883 -0.1819
 4840SOL     OW26152   3.204   2.368   2.581  0.5196  0.3649  0.4943
 4840SOL    HW126153   3.179   2.284   2.620  0.3746  0.9297  1.6184
 4840SOL    HW226154   3.205   2.341   2.489  3.5946 -0.8079  0.8866
 4841SOL     OW26155   0.477   1.655   3.862  0.0078 -0.3200 -0.1113
 4841SOL    HW126156   0.445   1.607   3.939 -0.6089  0.3446  0.0529
 4841SOL    HW226157   0.564   1.682   3.889 -0.6618  1.2951  0.4278
 4842SOL     OW26158   1.721   4.502   8.663 -0.3448  0.0263 -0.2142
 4842SOL    HW126159   1.793   4.553   8.700  0.0991 -0.2553 -0.6810
 4842SOL    HW226160   1.658   4.574   8.665  0.1815  0.5246 -1.9125
 4843SOL     OW26161   3.078   0.365   3.693  0.0274  0.1725 -0.0413
 4843SOL    HW126162   3.084   0.296   3.627  0.1883  0.8164 -0.6932
 4843SOL    HW226163   3.049   0.438   3.639  0.0277  0.7894  0.7912
 4844SOL     OW26164   3.626   1.622   0.783 -0.2298 -0.0621 -0.0588
 4844SOL    HW126165   3.654   1.675   0.708 -3.2250  2.0223  0.2973
 4844SOL    HW226166   3.554   1.572   0.745  0.9682 -1.9362  0.1118
 4845SOL     OW26167   0.088   4.229   3.064  0.1960  0.4660 -0.6686
 4845SOL    HW126168   0.182   4.250   3.060 -0.1069  1.7196 -1.3560
 4845SOL    HW226169   0.064   4.271   3.147 -0.9210 -1.3191 -0.0846
 4846SOL     OW26170   1.630   4.233   6.252 -0.0487 -0.1187  0.0962
 4846SOL    HW126171   1.674   4.317   6.244 -0.0854 -0.2009 -0.9732
 4846SOL    HW226172   1.689   4.176   6.202 -0.5200 -0.6745  0.1740
 4847SOL     OW26173   2.624   1.366   0.856  0.0550 -0.5072 -0.3486
 4847SOL    HW126174   2.531   1.360   0.878  0.3532  0.7387  1.3116
 4847SOL    HW226175   2.627   1.461   0.843 -0.2664  0.1213  3.9427
 4848SOL     OW26176   2.829   0.137   6.750 -0.7758  0.3009 -0.2765
 4848SOL    HW126177   2.844   0.228   6.723  0.1966  0.0177 -0.6631
 4848SOL    HW226178   2.917   0.104   6.762 -1.6886 -0.9797  2.8309
 4849SOL     OW26179   3.855   2.088   1.168 -0.0267  0.5127  0.1702
 4849SOL    HW126180   3.931   2.142   1.193  0.0357 -0.2521  1.6509
 4849SOL    HW226181   3.862   2.023   1.238  1.2936 -0.4108 -0.8066
 4850SOL     OW26182   0.652   3.672   1.422 -0.0426  0.1214  0.4273
 4850SOL    HW126183   0.740   3.680   1.459  0.6949 -2.0261 -0.9025
 4850SOL    HW226184   0.596   3.693   1.497  1.0783 -3.0922  2.1687
 4851SOL     OW26185   1.981   2.938   3.135  0.7119 -0.4242  0.4835
 4851SOL    HW126186   1.990   3.005   3.202  2.0262 -1.2914  1.1848
 4851SOL    HW226187   1.937   2.875   3.193 -3.6553  2.3547  0.1761
 4852SOL     OW26188   3.945   1.019   6.495  0.7392 -0.6161 -0.5304
 4852SOL    HW126189   3.919   1.033   6.586 -0.7738  0.7213 -1.1725
 4852SOL    HW226190   3.942   1.110   6.463  1.2579 -0.1685  0.6925
 4853SOL     OW26191   0.936   2.769  10.970 -0.2578 -0.1758  0.5287
 4853SOL    HW126192   1.017   2.775  11.020 -0.5631 -1.0100  1.1249
 4853SOL    HW226193   0.939   2.841  10.907 -2.7657 -1.1944 -0.7692
 4854SOL     OW26194   4.718   2.418  11.135 -0.0372 -0.4826  0.1617
 4854SOL    HW126195   4.688   2.402  11.225 -0.2554 -2.0886 -0.2023
 4854SOL    HW226196   0.063   2.472  11.140  0.2575 -0.9131  0.1521
 4855SOL     OW26197   2.069   3.486   2.779  0.0910 -0.2499 -0.1914
 4855SOL    HW126198   1.980   3.454   2.790  0.0485  0.4293  1.4941
 4855SOL    HW226199   2.072   3.540   2.859  0.3187 -2.4446  1.2877
 4856SOL     OW26200   3.851   4.534   8.637 -0.0852  0.8006 -0.1765
 4856SOL    HW126201   3.844   4.563   8.546  0.5262 -0.1450 -0.5263
 4856SOL    HW226202   3.787   4.463   8.640  0.8909 -0.1243 -1.2292
 4857SOL     OW26203   4.077   0.247   3.926 -0.0994 -0.6057 -0.2187
 4857SOL    HW126204   4.018   0.184   3.968  0.3494  0.2090  1.6208
 4857SOL    HW226205   4.140   0.285   3.987  0.6594  0.9546 -1.9744
 4858SOL     OW26206   1.913   3.794   2.549 -0.1161 -0.4828 -1.2662
 4858SOL    HW126207   1.985   3.731   2.549 -1.2931 -1.8118  1.6908
 4858SOL    HW226208   1.934   3.842   2.469 -2.5493  1.7153 -0.5811
 4859SOL     OW26209   3.912   0.181  11.844 -0.1608  0.0841 -0.5756
 4859SOL    HW126210   3.899   0.155  11.753 -1.1409  0.8774 -0.6598
 4859SOL    HW226211   3.820   0.179  11.867 -0.7640 -1.5427 -3.1304
 4860SOL     OW26212   1.422   2.936   5.561  0.4744  0.0956 -0.1178
 4860SOL    HW126213   1.384   2.848   5.567  2.4804 -0.7866 -0.5784
 4860SOL    HW226214   1.400   2.964   5.472  0.2532 -3.2976 -1.1289
 4861SOL     OW26215   2.049   3.168  17.719 -0.3873 -0.0721  0.5458
 4861SOL    HW126216   2.017   3.197  17.634  1.3570  0.7527  0.1614
 4861SOL    HW226217   2.044   3.246   0.040  0.8695  0.1926  0.2875
 4862SOL     OW26218   0.080   0.124   2.616  0.2512  0.0260 -0.9752
 4862SOL    HW126219   0.004   0.155   2.566 -0.6306  1.1788  1.0899
 4862SOL    HW226220   0.040   0.056   2.670  1.3628  0.9619  1.0341
 4863SOL     OW26221   1.267   1.271  13.638 -0.1535  0.2129 -0.0352
 4863SOL    HW126222   1.185   1.316  13.656  0.4845  0.9643  0.9836
 4863SOL    HW226223   1.327   1.311  13.701 -1.2702  3.0025 -0.7336
 4864SOL     OW26224   0.943   4.667  13.049 -0.1325 -0.1561 -0.1674
 4864SOL    HW126225   0.853   4.698  13.044 -0.1656 -0.0657  0.8488
 4864SOL    HW226226   0.952   4.661  13.144  0.0477 -0.2954 -0.1931
 4865SOL     OW26227   3.452   2.373   4.524 -0.0604 -0.4537  0.7526
 4865SOL    HW126228   3.508   2.330   4.459  1.1800  3.2181 -0.5747
 4865SOL    HW226229   3.518   2.390   4.591  1.4536 -0.8960 -0.6416
 4866SOL     OW26230   2.682   2.018  14.918 -0.2870  0.1965 -0.9364
 4866SOL    HW126231   2.675   2.086  14.985  0.0478 -1.0916  0.4216
 4866SOL    HW226232   2.748   1.964  14.963 -0.0905  1.1629 -0.0650
 4867SOL     OW26233   4.399   2.766   8.334 -0.0404 -0.2610 -0.2671
 4867SOL    HW126234   4.403   2.832   8.403  1.2310 -1.4623  0.8123
 4867SOL    HW226235   4.363   2.689   8.377 -0.3902 -0.7146 -1.3777
 4868SOL     OW26236   4.709   1.359   5.292 -0.1160  0.4920 -0.0034
 4868SOL    HW126237   4.726   1.424   5.224  1.2145 -0.7359 -0.8444
 4868SOL    HW226238   0.052   1.362   5.349  0.4806 -1.4706 -0.7125
 4869SOL     OW26239   0.753   1.281   2.082  0.3533  0.2017  0.4910
 4869SOL    HW126240   0.712   1.198   2.059  0.4115  0.0975  0.7535
 4869SOL    HW226241   0.685   1.346   2.065 -0.9827 -0.1079  4.6452
 4870SOL     OW26242   2.446   2.885   2.307  0.4747 -0.1482 -0.1855
 4870SOL    HW126243   2.490   2.835   2.238  0.8650 -0.5038  0.3232
 4870SOL    HW226244   2.371   2.930   2.267  2.6520  2.4106 -1.4111
 4871SOL     OW26245   1.324   3.964   5.803  0.7493  0.5589  0.1186
 4871SOL    HW126246   1.363   4.036   5.753  0.8702  1.2559  1.2142
 4871SOL    HW226247   1.340   3.992   5.893 -1.6692  0.0136  0.7107
 4872SOL     OW26248   2.842   2.177   7.653 -0.0449  0.0433 -0.1608
 4872SOL    HW126249   2.777   2.108   7.636  2.0121 -1.7991 -0.4946
 4872SOL    HW226250   2.807   2.217   7.732  0.9018  0.6466 -0.0563
 4873SOL     OW26251   3.064   0.254   5.641  0.3358  0.1642  0.0770
 4873SOL    HW126252   3.003   0.225   5.709 -0.5435  0.0326 -0.7800
 4873SOL    HW226253   3.021   0.209   5.569  1.3733 -2.5854  1.1824
 4874SOL     OW26254   0.429   1.239   3.531  0.1288  0.2073 -0.1389
 4874SOL    HW126255   0.408   1.158   3.484  0.6800  0.4275 -0.7514
 4874SOL    HW226256   0.386   1.304   3.476  0.2366  1.1082  0.8442
 4875SOL     OW26257   4.543   0.758   3.005 -0.0250 -0.3143  0.1087
 4875SOL    HW126258   4.635   0.786   3.001 -0.2556  0.2406 -1.4175
 4875SOL    HW226259   4.527   0.797   2.919 -2.3902 -0.1008  0.6486
 4876SOL     OW26260   3.316   0.287   8.290 -0.6596  0.5288  0.7291
 4876SOL    HW126261   3.280   0.198   8.282 -0.1237  0.4145 -0.4360
 4876SOL    HW226262   3.241   0.341   8.313 -1.3042  0.1004 -0.3916
 4877SOL     OW26263   3.244   1.822   6.611 -0.2255 -0.4857 -0.3376
 4877SOL    HW126264   3.283   1.780   6.687 -0.9570 -1.5404 -0.5424
 4877SOL    HW226265   3.153   1.791   6.613 -0.7760  0.9966 -2.6364
 4878SOL     OW26266   4.504   0.178  16.486 -0.2946  0.1746  0.6499
 4878SOL    HW126267   4.582   0.163  16.433  0.7567  1.7841  1.7699
 4878SOL    HW226268   4.541   0.232  16.555  1.1956 -0.6518  0.5049
 4879SOL     OW26269   0.828   3.087   3.099 -0.3554  0.2700 -0.4273
 4879SOL    HW126270   0.766   3.014   3.095 -3.0793  2.4230  2.0994
 4879SOL    HW226271   0.761   3.155   3.109 -1.0031 -0.2725 -1.1439
 4880SOL     OW26272   1.962   3.873   4.967 -0.1206  0.0584  0.0805
 4880SOL    HW126273   1.991   3.963   4.982  0.6165 -0.0796 -0.5283
 4880SOL    HW226274   2.033   3.824   5.008 -0.2968  0.8951  1.4042
 4881SOL     OW26275   0.337   4.534   3.660 -0.3314 -0.7073  0.0142
 4881SOL    HW126276   0.275   4.546   3.731 -0.1482 -1.6969  0.3518
 4881SOL    HW226277   0.272   4.512   3.593  0.6702  0.0568 -1.2243
 4882SOL     OW26278   2.733   0.052   7.638 -0.2408  0.3690  0.4005
 4882SOL    HW126279   2.688   0.012   7.564  2.4854 -1.0348 -0.4854
 4882SOL    HW226280   2.665   0.114   7.665  0.4427  0.9095  0.8971
 4883SOL     OW26281   4.516   2.813   1.266  0.3399 -0.0210  0.3030
 4883SOL    HW126282   4.428   2.834   1.299  0.1402 -0.2035 -0.1127
 4883SOL    HW226283   4.499   2.817   1.172  0.7166 -0.3359  0.2231
 4884SOL     OW26284   2.727   0.483  12.479 -0.1993 -0.0785 -0.2363
 4884SOL    HW126285   2.768   0.398  12.460 -0.2060 -0.6751  2.4724
 4884SOL    HW226286   2.722   0.468  12.573  1.1511  0.2036 -0.1150
 4885SOL     OW26287   1.671   0.939   0.806  0.2900 -0.3149  0.0527
 4885SOL    HW126288   1.617   0.965   0.881 -1.1104  0.3469 -1.1856
 4885SOL    HW226289   1.746   0.994   0.829 -0.4382  0.6725  0.0280
 4886SOL     OW26290   1.365   3.513   6.221  0.0844 -0.2534  0.1206
 4886SOL    HW126291   1.370   3.528   6.126 -1.3419  1.2012  0.2888
 4886SOL    HW226292   1.435   3.575   6.242 -0.6982  0.4774  0.5117
 4887SOL     OW26293   3.130   2.700  11.533 -0.1633  0.6433 -0.2044
 4887SOL    HW126294   3.094   2.632  11.590  0.3732  1.6655  1.3475
 4887SOL    HW226295   3.167   2.756  11.601  0.7374  0.5615 -0.6292
 4888SOL     OW26296   3.299   0.387   7.609 -0.0832 -0.0939  0.3932
 4888SOL    HW126297   3.271   0.436   7.532  1.2251  1.1579  0.7207
 4888SOL    HW226298   3.336   0.307   7.570 -1.6157 -1.1081  1.0152
 4889SOL     OW26299   1.790   3.533   8.637 -0.3188 -0.1045  0.4462
 4889SOL    HW126300   1.845   3.569   8.567  0.5939 -0.4631  0.9761
 4889SOL    HW226301   1.711   3.508   8.589  0.4836 -2.5289  0.3851
 4890SOL     OW26302   3.232   1.789   4.118 -0.2079 -0.2049  0.1276
 4890SOL    HW126303   3.146   1.764   4.152 -1.0593  2.0877 -0.3609
 4890SOL    HW226304   3.234   1.878   4.151  1.2656 -0.4795  0.7974
 4891SOL     OW26305   0.697   3.262  14.410  0.4635  0.2567  0.6445
 4891SOL    HW126306   0.633   3.286  14.343  2.5980  0.2670 -1.3885
 4891SOL    HW226307   0.703   3.169  14.389 -1.4984  0.4627 -0.8185
 4892SOL     OW26308   1.109   2.982   3.106  0.0240  0.8661  0.2125
 4892SOL    HW126309   1.023   3.023   3.115  0.1597  0.7714  2.0494
 4892SOL    HW226310   1.159   3.059   3.080 -1.6491  1.8626 -0.0971
 4893SOL     OW26311   2.595   3.430   5.897 -0.3448  0.1392 -0.3451
 4893SOL    HW126312   2.554   3.365   5.842 -0.4288 -0.4766  0.4412
 4893SOL    HW226313   2.537   3.436   5.973 -1.4446 -0.7106 -1.1232
 4894SOL     OW26314   3.322   4.203   5.675  0.1347  0.1342 -0.2130
 4894SOL    HW126315   3.228   4.201   5.696 -0.1506  2.2124 -1.2993
 4894SOL    HW226316   3.339   4.296   5.684  0.9843 -0.1095  0.7734
 4895SOL     OW26317   3.475   3.016   7.448 -0.0788 -0.2570 -0.2656
 4895SOL    HW126318   3.551   2.960   7.469  0.2941 -0.7212 -2.9143
 4895SOL    HW226319   3.455   2.984   7.360 -2.0286  0.6826 -0.1536
 4896SOL     OW26320   0.833   0.299   2.181 -0.4723 -0.5886 -0.2898
 4896SOL    HW126321   0.864   0.258   2.262 -1.2919 -1.4728 -0.4207
 4896SOL    HW226322   0.743   0.270   2.194 -0.4365 -2.1048 -3.3225
 4897SOL     OW26323   1.281   3.211   3.646 -0.8170 -0.0912  0.7767
 4897SOL    HW126324   1.192   3.238   3.671 -1.2468 -2.6559  1.9794
 4897SOL    HW226325   1.299   3.254   3.562 -2.5904 -1.6883 -0.4178
 4898SOL     OW26326   2.307   4.166   5.635 -0.0722 -0.1970  0.3240
 4898SOL    HW126327   2.399   4.145   5.649  0.7166  2.7257 -0.5613
 4898SOL    HW226328   2.311   4.171   5.540 -1.3326  2.7484  0.4268
 4899SOL     OW26329   4.720   3.479  16.061  0.1920  0.0842 -0.1507
 4899SOL    HW126330   0.011   3.564  16.025 -0.9741  1.1672  1.6279
 4899SOL    HW226331   4.725   3.489  16.156 -1.0850 -1.2266  0.0468
 4900SOL     OW26332   2.472   0.548  11.070  0.1006 -0.5987 -0.3926
 4900SOL    HW126333   2.410   0.603  11.118  1.5828  0.4397  0.3286
 4900SOL    HW226334   2.485   0.595  10.987 -1.2464 -2.6256 -1.7450
 4901SOL     OW26335   1.974   3.109   6.574 -0.2868 -0.6243  0.9139
 4901SOL    HW126336   1.918   3.034   6.555  0.7378 -1.1254 -0.0789
 4901SOL    HW226337   1.914   3.149   6.638  0.2012 -1.0018  1.6027
 4902SOL     OW26338   0.503   3.867   1.054 -0.5600 -0.1158  0.0151
 4902SOL    HW126339   0.444   3.846   0.981  0.5904 -0.0035 -0.9596
 4902SOL    HW226340   0.517   3.779   1.087  0.2834  0.0658  0.1342
 4903SOL     OW26341   1.155   3.648   9.430  0.1062 -0.0536  0.2582
 4903SOL    HW126342   1.125   3.565   9.392  0.7132 -0.0985 -0.1359
 4903SOL    HW226343   1.235   3.616   9.473 -0.1483  2.2910  2.4349
 4904SOL     OW26344   0.098   3.757   6.851  0.5411  0.7108  0.3838
 4904SOL    HW126345   0.164   3.710   6.902 -1.3469 -1.1397  1.1411
 4904SOL    HW226346   0.136   3.843   6.834 -0.2932  1.3646  1.8168
 4905SOL     OW26347   1.618   4.578   4.566 -0.1135 -0.6738  0.0998
 4905SOL    HW126348   1.533   4.547   4.597  0.8748 -2.6333  0.8311
 4905SOL    HW226349   1.670   4.612   4.639 -2.0610  0.8237  0.7745
 4906SOL     OW26350   0.514   1.176  17.024 -0.0820 -0.5266 -0.1946
 4906SOL    HW126351   0.535   1.238  17.095  0.9152 -0.1362 -0.8261
 4906SOL    HW226352   0.463   1.116  17.079  0.7982  0.4320  1.7049
 4907SOL     OW26353   3.234   3.312   8.086  0.0820  0.0270  0.5762
 4907SOL    HW126354   3.248   3.378   8.018 -1.4647 -0.0153  0.2057
 4907SOL    HW226355   3.221   3.235   8.031 -2.2862  0.0428  1.0970
 4908SOL     OW26356   3.318   2.087   8.728 -0.1100 -0.1745  0.2902
 4908SOL    HW126357   3.338   2.175   8.762  1.4814  0.5463 -2.5086
 4908SOL    HW226358   3.230   2.067   8.759 -0.1255  0.8032  0.8893
 4909SOL     OW26359   3.258   2.776   7.466  0.3955  0.1746  0.3069
 4909SOL    HW126360   3.264   2.684   7.494 -5.2486 -0.9618 -2.1584
 4909SOL    HW226361   3.345   2.792   7.431 -0.7586 -0.1190 -2.7455
 4910SOL     OW26362   1.339   0.142  16.148  0.0099 -0.1571  0.0903
 4910SOL    HW126363   1.351   0.234  16.124  1.0921 -0.7526 -1.6855
 4910SOL    HW226364   1.346   0.101  16.062  0.4524  0.8384 -0.3441
 4911SOL     OW26365   1.207   4.602   9.256  0.1040  0.0808  0.0146
 4911SOL    HW126366   1.133   4.638   9.306  1.9078  0.3720  2.4189
 4911SOL    HW226367   1.268   4.565   9.319 -0.6469 -0.4287  0.4398
 4912SOL     OW26368   2.172   0.482   7.648 -0.2154 -0.0080  0.4047
 4912SOL    HW126369   2.138   0.546   7.711  1.4358  3.1073 -1.8812
 4912SOL    HW226370   2.147   0.528   7.569  1.3803 -1.3284 -0.8650
 4913SOL     OW26371   3.405   1.204  11.216  0.5327 -0.3540 -0.0924
 4913SOL    HW126372   3.340   1.139  11.244  1.2847  0.1453  2.9191
 4913SOL    HW226373   3.389   1.289  11.256  1.2505 -1.6698  3.0426
 4914SOL     OW26374   2.117   3.592   2.539 -0.1416  0.0780 -0.0615
 4914SOL    HW126375   2.201   3.548   2.524 -0.8821 -1.9639  1.7813
 4914SOL    HW226376   2.103   3.554   2.626 -0.7208  0.5642  0.0609
 4915SOL     OW26377   3.296   3.513   9.976 -0.7024  0.7553 -0.4234
 4915SOL    HW126378   3.309   3.431  10.023  2.0872  0.9511 -0.8573
 4915SOL    HW226379   3.223   3.543  10.030 -0.3847 -2.2144  1.6237
 4916SOL     OW26380   1.650   3.682   5.959  0.7559 -0.4185 -0.5195
 4916SOL    HW126381   1.657   3.745   6.031  1.0695 -0.1409 -0.7894
 4916SOL    HW226382   1.726   3.623   5.966 -0.6240 -1.7476  3.1061
 4917SOL     OW26383   1.102   4.265   6.977 -0.0036 -0.0067  0.0307
 4917SOL    HW126384   1.091   4.265   6.882  0.7414 -0.1441 -0.0567
 4917SOL    HW226385   1.040   4.206   7.020 -1.6782  1.2087 -0.7295
 4918SOL     OW26386   3.589   2.699   6.788  0.1589 -0.0738  0.2297
 4918SOL    HW126387   3.648   2.650   6.844  0.7975  2.2362  1.5999
 4918SOL    HW226388   3.655   2.744   6.735 -1.3048  1.5415 -0.2143
 4919SOL     OW26389   1.067   1.498   6.011 -0.3254  0.0266 -0.2078
 4919SOL    HW126390   1.137   1.516   6.073 -0.2862 -0.6263 -0.0575
 4919SOL    HW226391   1.050   1.405   6.030 -1.9937  0.3991  0.0779
 4920SOL     OW26392   3.798   3.183   6.822  0.1870 -0.0636 -0.4808
 4920SOL    HW126393   3.767   3.156   6.736  1.5046  1.6207 -1.4904
 4920SOL    HW226394   3.744   3.142   6.889 -0.4599  1.1526 -0.2630
 4921SOL     OW26395   2.667   3.008  10.283 -0.6311  0.6545 -0.3854
 4921SOL    HW126396   2.711   2.990  10.200  0.5379  0.2798  0.3106
 4921SOL    HW226397   2.736   2.995  10.348 -0.4978 -1.7332 -1.0324
 4922SOL     OW26398   2.830   4.405  15.100  0.8397  0.6028  0.4273
 4922SOL    HW126399   2.917   4.393  15.139 -0.3839 -2.0429  2.3998
 4922SOL    HW226400   2.844   4.376  15.010  2.2558  1.5711  0.3352
 4923SOL     OW26401   4.008   3.666   7.158 -0.2355 -0.4009  0.2282
 4923SOL    HW126402   4.083   3.722   7.142  0.1375 -0.1089  3.0168
 4923SOL    HW226403   4.052   3.597   7.208 -0.9239 -1.7848 -1.0815
 4924SOL     OW26404   1.254   0.039   3.195  0.2455 -0.3281  0.2404
 4924SOL    HW126405   1.252   0.057   3.101  0.0815  0.1445  0.3356
 4924SOL    HW226406   1.346   0.019   3.212  0.2328 -1.1326 -0.6651
 4925SOL     OW26407   0.284   3.565   3.347  0.5268 -0.5178  0.4912
 4925SOL    HW126408   0.304   3.557   3.253  0.1235 -1.4600  0.4903
 4925SOL    HW226409   0.193   3.540   3.359 -0.1514  1.1373 -1.1524
 4926SOL     OW26410   1.209   0.484   8.926  0.2322  0.4226  0.0251
 4926SOL    HW126411   1.220   0.521   8.838 -1.0671  0.1777 -0.2407
 4926SOL    HW226412   1.149   0.536   8.978 -0.0605 -1.2668  1.3663
 4927SOL     OW26413   4.380   0.626   8.756  0.0589 -0.1828  0.0117
 4927SOL    HW126414   4.302   0.677   8.778  0.0863 -0.7670  1.4810
 4927SOL    HW226415   4.351   0.542   8.793 -0.8108  0.1824  0.1658
 4928SOL     OW26416   0.853   1.856  12.068  0.0469 -0.2450 -0.4416
 4928SOL    HW126417   0.775   1.903  12.038 -1.0766 -1.2689  0.8400
 4928SOL    HW226418   0.836   1.766  12.040  0.3860  0.7379 -3.8210
 4929SOL     OW26419   3.332   2.596  10.027  0.5151 -0.0522  0.3867
 4929SOL    HW126420   3.385   2.603  10.106  0.3390 -0.1154  0.5100
 4929SOL    HW226421   3.247   2.611  10.069 -0.1669 -1.6082 -0.4717
 4930SOL     OW26422   4.653   2.732   7.194 -0.1825 -0.4234 -0.0833
 4930SOL    HW126423   4.682   2.734   7.103 -1.6513 -1.8304 -0.5873
 4930SOL    HW226424   4.630   2.639   7.204 -1.6252  0.0900  1.5936
 4931SOL     OW26425   4.250   3.672   4.174 -0.7359 -0.4530  0.4941
 4931SOL    HW126426   4.342   3.651   4.155 -0.6008  2.5333 -2.1164
 4931SOL    HW226427   4.254   3.759   4.213 -1.2718 -0.8011  1.3292
 4932SOL     OW26428   4.652   0.333   4.812  0.7674  0.5285 -0.4284
 4932SOL    HW126429   4.574   0.378   4.845  0.3322 -0.9585  0.5691
 4932SOL    HW226430   4.692   0.309   4.896  2.3106 -0.4857 -1.4593
 4933SOL     OW26431   2.774   1.184   4.926  0.5392  0.1397  0.5294
 4933SOL    HW126432   2.740   1.253   4.983 -0.0596  1.3826 -1.3239
 4933SOL    HW226433   2.744   1.211   4.839 -0.0018 -2.4065 -0.0927
 4934SOL     OW26434   2.228   3.459   6.430 -0.3937 -0.1623  0.4238
 4934SOL    HW126435   2.141   3.425   6.412  0.1586 -0.6147 -1.4788
 4934SOL    HW226436   2.203   3.540   6.474  1.6853 -0.0555  1.4140
 4935SOL     OW26437   2.954   2.765   7.910 -0.0580  0.1780  0.5378
 4935SOL    HW126438   2.942   2.841   7.853 -1.5954 -1.1835 -0.9424
 4935SOL    HW226439   3.015   2.707   7.865 -0.7230  0.1293 -0.2873
 4936SOL     OW26440   0.465   3.163   3.717  0.3688 -0.2465 -0.0747
 4936SOL    HW126441   0.520   3.123   3.649 -2.1048 -2.4710 -0.7942
 4936SOL    HW226442   0.389   3.104   3.719  0.1593  0.0430  0.5879
 4937SOL     OW26443   1.369   0.612   1.905  0.7324  0.0347  0.2693
 4937SOL    HW126444   1.405   0.553   1.839  1.9097 -0.3351  1.2392
 4937SOL    HW226445   1.327   0.675   1.845 -1.6775 -0.3522  1.5388
 4938SOL     OW26446   4.443   4.506  11.828  0.4917  0.3444 -0.0589
 4938SOL    HW126447   4.410   4.466  11.909 -0.4779  0.9558 -0.1423
 4938SOL    HW226448   4.450   4.601  11.840  1.1588  0.4496 -1.3550
 4939SOL     OW26449   3.046   0.063   3.780  0.0702 -0.0335 -0.2025
 4939SOL    HW126450   3.138   0.037   3.777  1.1080  3.6580 -1.2193
 4939SOL    HW226451   3.040   0.098   3.869  0.7449  1.2321 -0.6465
 4940SOL     OW26452   3.502   2.862  16.203 -0.3563 -0.1065  0.0090
 4940SOL    HW126453   3.588   2.824  16.216  0.1985  0.7546 -1.1764
 4940SOL    HW226454   3.507   2.888  16.111  1.1970 -1.0601 -0.1697
 4941SOL     OW26455   0.496   0.733   8.858  0.6367  0.2640  0.5807
 4941SOL    HW126456   0.557   0.751   8.787  0.6132 -1.8127  0.0387
 4941SOL    HW226457   0.485   0.638   8.867  1.1136  0.0651 -0.9750
 4942SOL     OW26458   1.632   2.967   4.237  0.7791 -0.0070  0.3907
 4942SOL    HW126459   1.603   2.991   4.149  2.9637 -0.2739 -0.3982
 4942SOL    HW226460   1.549   2.971   4.285  0.7904 -0.5454  0.4613
 4943SOL     OW26461   2.803   0.044   5.140  0.0596 -0.1776  0.4670
 4943SOL    HW126462   2.848   0.122   5.173  0.5590 -0.4351  0.3962
 4943SOL    HW226463   2.711   0.072   5.140  0.9571  2.7901  0.9117
 4944SOL     OW26464   0.595   1.555   2.118  0.0032 -0.2684 -0.1435
 4944SOL    HW126465   0.540   1.485   2.085 -1.5197  1.0147 -0.3467
 4944SOL    HW226466   0.546   1.637   2.110 -1.8466 -1.1928  1.9424
 4945SOL     OW26467   0.671   3.644  12.558  0.1370  0.3129  0.2619
 4945SOL    HW126468   0.661   3.689  12.474 -3.0967  2.4386  1.8084
 4945SOL    HW226469   0.597   3.582  12.553  1.1094 -0.6354 -2.3822
 4946SOL     OW26470   3.686   1.076   4.238 -0.5402  0.4749 -0.7139
 4946SOL    HW126471   3.605   1.034   4.265  0.6828 -0.2296  1.8119
 4946SOL    HW226472   3.754   1.026   4.283 -0.4848  0.8494 -0.3840
 4947SOL     OW26473   4.024   3.883   4.812  0.0434  0.2262 -0.3336
 4947SOL    HW126474   4.115   3.852   4.813  0.6039  1.8330 -0.7328
 4947SOL    HW226475   4.035   3.963   4.760 -0.2501  0.6008  0.1808
 4948SOL     OW26476   3.114   2.092  10.836 -0.0922  0.1538 -0.1366
 4948SOL    HW126477   3.075   2.159  10.779 -0.6971  0.8793  1.1426
 4948SOL    HW226478   3.101   2.016  10.779  0.0424  0.6283 -0.8125
 4949SOL     OW26479   3.915   4.011   3.889  0.1505  0.2263  0.4708
 4949SOL    HW126480   3.859   4.078   3.929 -0.4574 -0.7311  1.2072
 4949SOL    HW226481   3.952   4.063   3.817  1.0992  3.5663  3.3444
 4950SOL     OW26482   3.734   1.621  11.103 -0.0405 -0.0588  0.1520
 4950SOL    HW126483   3.788   1.633  11.025  0.8960 -0.8656  0.6842
 4950SOL    HW226484   3.714   1.528  11.091 -0.9463  0.1808 -0.2362
 4951SOL     OW26485   2.106   2.451  12.438  0.0341  0.1944 -0.7732
 4951SOL    HW126486   2.019   2.468  12.403  1.0207  2.6927 -2.0265
 4951SOL    HW226487   2.131   2.538  12.471 -0.1387  0.4951 -1.4339
 4952SOL     OW26488   3.875   3.290   4.286  0.1966 -0.3184 -0.0508
 4952SOL    HW126489   3.950   3.345   4.309  1.7162 -2.1498 -0.7087
 4952SOL    HW226490   3.809   3.357   4.269 -0.6556 -1.2845 -0.5091
 4953SOL     OW26491   3.893   1.180   9.389 -0.4170  0.0294 -0.6979
 4953SOL    HW126492   3.946   1.138   9.322  1.8108  0.2936  0.9259
 4953SOL    HW226493   3.859   1.248   9.331 -1.8158  0.1798  0.2753
 4954SOL     OW26494   3.677   2.017   4.559  0.6369 -0.4222  0.0079
 4954SOL    HW126495   3.680   2.111   4.540  1.1817 -0.4985 -0.3084
 4954SOL    HW226496   3.750   1.996   4.500  0.9587 -0.7447  0.5160
 4955SOL     OW26497   1.932   0.108   3.738 -0.5669 -0.9505 -0.1090
 4955SOL    HW126498   1.910   0.193   3.778  2.3349 -0.8465  1.2747
 4955SOL    HW226499   1.913   0.130   3.647  0.9133  1.9305  0.2587
 4956SOL     OW26500   1.889   2.501  16.690 -0.4009  0.0634  0.1084
 4956SOL    HW126501   1.797   2.506  16.715 -0.0760 -0.3669  1.4269
 4956SOL    HW226502   1.884   2.486  16.596  1.6348 -2.0721  0.3180
 4957SOL     OW26503   0.822   2.129  12.438  0.2852  0.1223 -0.0728
 4957SOL    HW126504   0.846   2.039  12.414  0.6904 -0.5270  2.7659
 4957SOL    HW226505   0.878   2.180  12.379  2.0561  0.7610  2.1598
 4958SOL     OW26506   1.503   4.584   7.041 -0.1020 -0.1845 -0.5812
 4958SOL    HW126507   1.530   4.519   7.106 -1.0420  1.8465  1.8164
 4958SOL    HW226508   1.549   4.662   7.070  1.2291 -0.8440 -0.9199
 4959SOL     OW26509   0.260   0.158   1.647  0.2616 -0.2765 -0.0339
 4959SOL    HW126510   0.194   0.133   1.711  1.6831 -2.2700  0.6328
 4959SOL    HW226511   0.323   0.086   1.653  0.8421  0.1878 -0.4542
 4960SOL     OW26512   2.621   3.019  11.159 -0.0407  0.0990 -0.1887
 4960SOL    HW126513   2.679   3.052  11.089  0.2048  0.3636  0.1397
 4960SOL    HW226514   2.650   3.066  11.237 -0.8618  0.7440 -0.2717
 4961SOL     OW26515   0.184   2.711   1.650 -0.2516 -0.5084  0.6705
 4961SOL    HW126516   0.242   2.773   1.694  0.9035  0.0716 -1.6813
 4961SOL    HW226517   0.101   2.760   1.651 -0.8133 -1.4528 -1.2207
 4962SOL     OW26518   2.820   0.017   3.650 -0.3013  0.0043  0.9847
 4962SOL    HW126519   2.911   0.028   3.678  0.5876 -1.4507 -1.3378
 4962SOL    HW226520   2.837   0.008   3.556  0.1866  0.3202  1.0415
 4963SOL     OW26521   1.537   3.013   6.377 -0.1124 -0.4381 -0.6255
 4963SOL    HW126522   1.627   3.015   6.344  0.2663  1.0221  0.5162
 4963SOL    HW226523   1.500   3.089   6.333 -0.7075 -1.1835 -1.4216
 4964SOL     OW26524   0.854   0.680  10.724 -0.3392 -0.7160 -0.1446
 4964SOL    HW126525   0.882   0.620  10.794  0.3260  1.2652  1.2815
 4964SOL    HW226526   0.762   0.653  10.721 -0.6712  0.3190  0.7173
 4965SOL     OW26527   0.704   0.796   9.072  0.2850 -0.7282  0.1152
 4965SOL    HW126528   0.772   0.768   9.010 -0.0198 -2.0202  0.3568
 4965SOL    HW226529   0.624   0.760   9.033  0.2789  0.9090 -1.3974
 4966SOL     OW26530   4.586   0.388  16.630 -0.5375 -0.1107  0.2956
 4966SOL    HW126531   4.547   0.474  16.617 -0.0786  0.3223  1.7289
 4966SOL    HW226532   4.679   0.409  16.618 -0.0064 -3.3412 -1.4050
 4967SOL     OW26533   0.995   4.572  10.509 -0.6338  0.2594 -0.3052
 4967SOL    HW126534   0.970   4.548  10.598  0.6137  1.8184  0.4531
 4967SOL    HW226535   0.906   4.564  10.473 -0.6380  1.0148 -0.4745
 4968SOL     OW26536   4.217   1.189   8.403 -0.1403 -0.7696 -0.3410
 4968SOL    HW126537   4.211   1.134   8.325 -2.2639  1.3548 -1.6507
 4968SOL    HW226538   4.153   1.138   8.453 -0.8011  0.8047  0.4184
 4969SOL     OW26539   0.219   3.519   2.386  0.1777  0.7243 -0.5314
 4969SOL    HW126540   0.287   3.455   2.408 -1.8042 -1.1954 -0.0109
 4969SOL    HW226541   0.201   3.560   2.470  0.1038  1.8809 -1.1143
 4970SOL     OW26542   3.259   0.250   3.207  0.5549 -0.1898  0.0219
 4970SOL    HW126543   3.340   0.292   3.179 -0.2877  1.3540 -0.1168
 4970SOL    HW226544   3.276   0.160   3.179  0.2333  0.4375 -2.2099
 4971SOL     OW26545   3.904   2.777  11.377  0.5998 -0.2950 -0.2115
 4971SOL    HW126546   3.839   2.724  11.330  1.1901 -0.4255 -0.8760
 4971SOL    HW226547   3.847   2.846  11.411  0.3690 -0.3895 -0.4018
 4972SOL     OW26548   0.059   1.343   3.644 -0.0110 -0.1984  0.1216
 4972SOL    HW126549   0.032   1.266   3.693 -0.5393 -1.2073 -1.7501
 4972SOL    HW226550   0.064   1.414   3.708 -2.2045 -0.7012  0.8308
 4973SOL     OW26551   4.148   2.550   4.291 -0.2787  0.0146  0.6408
 4973SOL    HW126552   4.211   2.540   4.363  1.0364  1.9526 -0.2379
 4973SOL    HW226553   4.150   2.463   4.251  1.2900 -0.1675  1.0964
 4974SOL     OW26554   1.223   1.041   8.425 -0.0647  0.2564 -0.0307
 4974SOL    HW126555   1.197   1.131   8.442  0.0716  0.5393 -1.3438
 4974SOL    HW226556   1.312   1.054   8.458  0.1332 -1.1481 -0.0108
 4975SOL     OW26557   0.849   1.260   3.355 -0.1085 -0.2358  0.1303
 4975SOL    HW126558   0.799   1.301   3.285  0.3995  0.2228  0.0351
 4975SOL    HW226559   0.810   1.304   3.430 -1.3254 -0.4372 -0.3871
 4976SOL     OW26560   4.089   2.228  14.223 -0.1554  0.3186  0.0352
 4976SOL    HW126561   4.019   2.184  14.270 -0.0725  0.4577  0.2888
 4976SOL    HW226562   4.043   2.291  14.167 -1.0600 -2.4379 -2.3011
 4977SOL     OW26563   3.242   1.370   0.797  0.3284  0.5228  0.1839
 4977SOL    HW126564   3.221   1.426   0.871 -1.2388  0.1710  0.0009
 4977SOL    HW226565   3.181   1.381   0.724  2.3557  0.9031 -1.4527
 4978SOL     OW26566   2.521   0.099   5.112  0.1633 -0.0543  0.5014
 4978SOL    HW126567   2.440   0.139   5.143  0.8612  0.3494  1.7926
 4978SOL    HW226568   2.492   0.007   5.114 -1.0930  0.3144 -0.1383
 4979SOL     OW26569   3.004   0.373  12.771  0.1955  0.0763 -0.4204
 4979SOL    HW126570   3.032   0.320  12.697  0.8807 -0.6862  0.3844
 4979SOL    HW226571   3.041   0.318  12.840 -1.0670  3.5575  3.0957
 4980SOL     OW26572   1.489   3.778  10.858  0.0540  0.3494  0.0489
 4980SOL    HW126573   1.540   3.732  10.924 -0.4628 -0.9523 -0.4457
 4980SOL    HW226574   1.399   3.748  10.875 -0.9165  1.0419 -3.7654
 4981SOL     OW26575   1.347   2.132   6.042 -0.7697 -0.4305  0.2999
 4981SOL    HW126576   1.274   2.103   6.095 -0.0915 -1.8570  0.4416
 4981SOL    HW226577   1.312   2.109   5.956  2.8322 -0.4984 -1.1846
 4982SOL     OW26578   2.237   0.976   5.490  0.4545  0.2040 -0.4601
 4982SOL    HW126579   2.223   0.924   5.569  1.8199  1.8935  0.9071
 4982SOL    HW226580   2.159   1.030   5.481  1.1470  1.2477 -0.1919
 4983SOL     OW26581   1.474   0.656   4.985  0.4346  0.3582 -0.0299
 4983SOL    HW126582   1.460   0.562   4.985  2.3827  0.0549 -0.8246
 4983SOL    HW226583   1.496   0.673   5.077  0.8971  1.3170 -0.3120
 4984SOL     OW26584   0.194   2.546   9.658  0.1154  0.2726 -0.8097
 4984SOL    HW126585   0.243   2.559   9.739 -0.2429 -0.9384 -0.4059
 4984SOL    HW226586   0.182   2.451   9.660 -0.0202  0.3494  2.1059
 4985SOL     OW26587   4.643   1.425   8.107 -0.2624 -0.7103  0.6078
 4985SOL    HW126588   4.553   1.401   8.088 -0.2055 -1.0489  0.7779
 4985SOL    HW226589   4.680   1.452   8.023 -0.4921 -1.3888  0.2886
 4986SOL     OW26590   1.773   3.885   6.396 -0.2574 -0.2014 -0.2623
 4986SOL    HW126591   1.814   3.957   6.445 -0.8795 -0.0191 -0.0165
 4986SOL    HW226592   1.733   3.923   6.318  3.4207  1.9882 -1.1175
 4987SOL     OW26593   2.878   1.203   8.101  0.0180 -0.4531  0.5007
 4987SOL    HW126594   2.836   1.287   8.085 -0.3697 -0.5584  0.9557
 4987SOL    HW226595   2.804   1.142   8.105  0.6619 -1.4942 -4.1112
 4988SOL     OW26596   2.701   1.365   9.370 -0.0325  0.1623  0.6454
 4988SOL    HW126597   2.633   1.406   9.425  0.0636  1.7591 -0.4250
 4988SOL    HW226598   2.696   1.274   9.400  1.5581 -0.4286 -0.9168
 4989SOL     OW26599   4.088   0.791   6.395 -0.7807  0.0295  0.2127
 4989SOL    HW126600   4.053   0.868   6.441 -0.5930  0.3785 -0.2319
 4989SOL    HW226601   4.091   0.810   6.301  1.0253  0.4815  0.3618
 4990SOL     OW26602   2.466   3.348  11.300 -0.6090  0.2309  0.3415
 4990SOL    HW126603   2.379   3.363  11.337  0.1622  1.3515  1.7079
 4990SOL    HW226604   2.464   3.396  11.217 -1.5516 -1.8025 -0.8009
 4991SOL     OW26605   1.054   1.408   8.118 -0.3755  0.1303 -0.2075
 4991SOL    HW126606   1.125   1.407   8.053 -0.2617  1.6764 -0.1170
 4991SOL    HW226607   1.008   1.325   8.104 -0.0336  0.0666 -0.9992
 4992SOL     OW26608   3.885   0.043   5.807  0.2230  0.0661 -0.6356
 4992SOL    HW126609   3.800   0.000   5.818 -0.0802  1.0492  0.7979
 4992SOL    HW226610   3.946   4.717   5.850  1.2769  1.0721 -0.7107
 4993SOL     OW26611   1.549   3.731   5.536 -0.1668  0.0036  0.3319
 4993SOL    HW126612   1.585   3.807   5.490  0.8461 -0.1373  0.9014
 4993SOL    HW226613   1.617   3.668   5.513 -0.3719 -0.2056  0.2978
 4994SOL     OW26614   2.271   1.910   8.623 -0.2288  0.4170 -0.4250
 4994SOL    HW126615   2.238   1.920   8.713  2.5839 -0.8491  0.7577
 4994SOL    HW226616   2.196   1.907   8.564 -0.3924  0.7483 -0.2327
 4995SOL     OW26617   0.126   1.425   7.537 -0.5293  0.1365 -0.2498
 4995SOL    HW126618   0.119   1.335   7.505 -1.1568  0.1133 -0.0606
 4995SOL    HW226619   0.215   1.423   7.571 -0.3461  0.8981 -0.6698
 4996SOL     OW26620   2.914   1.291   3.209 -0.0806  0.0152  0.7040
 4996SOL    HW126621   2.943   1.201   3.224  2.1368  0.8163  1.2058
 4996SOL    HW226622   2.996   1.339   3.218 -1.1571  1.8834  0.6008
 4997SOL     OW26623   0.267   3.698   8.805  0.1033 -0.1828 -0.1946
 4997SOL    HW126624   0.270   3.761   8.877  2.5645 -0.8864  0.3104
 4997SOL    HW226625   0.313   3.743   8.734  2.2957 -0.2418  1.2107
 4998SOL     OW26626   2.517   0.815   8.407  0.4198 -0.1577  0.2749
 4998SOL    HW126627   2.519   0.907   8.383  3.1203 -0.2459  0.0670
 4998SOL    HW226628   2.509   0.834   8.501  0.5822  0.4664  0.1631
 4999SOL     OW26629   3.806   0.265   3.100  0.2590  0.7562 -0.1585
 4999SOL    HW126630   3.893   0.228   3.079 -0.2423 -0.1239 -0.6938
 4999SOL    HW226631   3.807   0.332   3.031 -1.0123 -1.7070 -2.5741
 5000SOL     OW26632   2.225   3.823   2.318 -0.8241  0.6718 -0.4117
 5000SOL    HW126633   2.235   3.901   2.263 -0.9671 -0.6803 -2.3601
 5000SOL    HW226634   2.131   3.805   2.310 -0.3952 -1.3088 -1.0523
 5001SOL     OW26635   3.129   3.707   4.439 -0.9856 -0.5646 -0.0280
 5001SOL    HW126636   3.148   3.801   4.436  1.0188 -0.9649  0.3790
 5001SOL    HW226637   3.209   3.670   4.404 -1.3870 -0.4183 -1.1033
 5002SOL     OW26638   0.965   2.267  11.352  0.6935  0.4322  0.3091
 5002SOL    HW126639   0.955   2.360  11.331 -0.2063  0.0571 -0.9943
 5002SOL    HW226640   0.995   2.258  11.261 -1.3499  0.6488 -0.3891
 5003SOL     OW26641   4.303   4.422   5.736  0.2517  0.0233  0.0367
 5003SOL    HW126642   4.236   4.355   5.744 -0.3490  0.3625 -2.2942
 5003SOL    HW226643   4.359   4.402   5.811 -1.1832 -0.7037  0.9158
 5004SOL     OW26644   1.470   4.251   7.948 -0.0134  0.9821  0.2402
 5004SOL    HW126645   1.456   4.327   7.892 -2.2353 -1.9227 -3.1010
 5004SOL    HW226646   1.535   4.204   7.897  0.9660  1.3168  1.1741
 5005SOL     OW26647   1.445   2.159   3.259 -0.1258  0.1153  0.0107
 5005SOL    HW126648   1.357   2.176   3.295  0.5714 -0.9677  2.2301
 5005SOL    HW226649   1.443   2.064   3.254  2.5016  0.0186  0.8394
 5006SOL     OW26650   3.981   0.380  11.519  0.2009  0.4089 -0.0703
 5006SOL    HW126651   3.981   0.286  11.505  1.5930  0.8373 -2.8269
 5006SOL    HW226652   3.893   0.400  11.552  1.0032  2.2285  0.9897
 5007SOL     OW26653   0.732   3.703   6.845  0.2242  0.2416  0.2370
 5007SOL    HW126654   0.824   3.710   6.819 -0.0253  0.8815 -0.4748
 5007SOL    HW226655   0.735   3.668   6.934  2.0699 -0.1685  0.0174
 5008SOL     OW26656   1.011   3.531   3.491 -0.5375  0.3469 -0.2001
 5008SOL    HW126657   1.074   3.527   3.419 -1.4378  1.9935 -1.0960
 5008SOL    HW226658   0.982   3.623   3.485 -1.4345  0.0220 -0.9631
 5009SOL     OW26659   4.287   0.021  15.225 -0.6378 -0.8079  0.0033
 5009SOL    HW126660   4.374   4.717  15.235 -0.1636  0.2625 -0.0061
 5009SOL    HW226661   4.269   0.035  15.132  0.2238 -1.4751 -0.2615
 5010SOL     OW26662   1.581   0.762  15.071  0.1920  0.2821  0.4988
 5010SOL    HW126663   1.602   0.669  15.065 -1.2565 -0.0310  0.2977
 5010SOL    HW226664   1.500   0.752  15.122 -1.1589  1.6863 -1.3652
 5011SOL     OW26665   4.090   4.131   7.670  0.1244 -0.0548  0.6182
 5011SOL    HW126666   4.074   4.155   7.761 -2.7432 -0.8653  0.3308
 5011SOL    HW226667   4.155   4.061   7.678  1.7198  1.4966  1.1394
 5012SOL     OW26668   1.014   0.833   4.061 -0.6071 -0.2534  0.2586
 5012SOL    HW126669   1.042   0.791   3.980  0.8734 -0.8812  1.0750
 5012SOL    HW226670   1.067   0.777   4.119  0.7503 -0.0692 -0.8054
 5013SOL     OW26671   3.573   2.610   5.934  0.1904  0.0039  0.2998
 5013SOL    HW126672   3.506   2.679   5.935  0.4970  0.3186 -1.2053
 5013SOL    HW226673   3.519   2.555   5.877  0.0713 -0.5885  0.9818
 5014SOL     OW26674   2.510   0.536   8.408 -0.1636 -0.3153  0.5496
 5014SOL    HW126675   2.582   0.555   8.468 -0.1118  2.3638 -0.3466
 5014SOL    HW226676   2.464   0.619   8.397 -0.5192 -0.7109 -0.9991
 5015SOL     OW26677   2.665   1.367   3.311 -0.4157 -0.1948 -0.2903
 5015SOL    HW126678   2.658   1.296   3.375  0.6996 -1.2611 -1.3589
 5015SOL    HW226679   2.740   1.338   3.259  1.1074 -0.6219  2.1369
 5016SOL     OW26680   0.949   1.698   6.346 -0.1132 -0.0861 -0.1031
 5016SOL    HW126681   0.893   1.767   6.383 -0.2151 -0.4716  0.4687
 5016SOL    HW226682   0.906   1.620   6.381 -0.5920  0.6517  0.9546
 5017SOL     OW26683   2.475   1.486   9.181 -0.1274  0.2779 -0.6733
 5017SOL    HW126684   2.453   1.561   9.237  0.2618  0.2456 -0.4748
 5017SOL    HW226685   2.569   1.495   9.166  0.1592 -1.4166  0.0503
 5018SOL     OW26686   1.894   0.651  10.925 -0.0459 -1.0167  0.2988
 5018SOL    HW126687   1.868   0.616  11.010 -0.9946 -1.0893 -0.0189
 5018SOL    HW226688   1.975   0.698  10.942 -0.1237 -1.1905  1.1400
 5019SOL     OW26689   2.181   1.608   5.580 -0.1729  0.8963 -0.7079
 5019SOL    HW126690   2.206   1.611   5.672  1.8757  1.0421 -1.2515
 5019SOL    HW226691   2.193   1.524   5.536 -0.0250  0.1828  0.7013
 5020SOL     OW26692   2.899   4.322   6.197 -0.0972  0.0820 -0.1201
 5020SOL    HW126693   2.989   4.299   6.174  0.1637 -1.0735  2.0298
 5020SOL    HW226694   2.895   4.299   6.290 -0.0619  1.1009  0.1350
 5021SOL     OW26695   1.307   1.261   8.611 -0.1197 -0.3055 -0.3994
 5021SOL    HW126696   1.274   1.187   8.661  2.6452 -1.9093 -0.9235
 5021SOL    HW226697   1.298   1.336   8.669  0.2150 -0.6816  0.1348
 5022SOL     OW26698   0.357   3.418   2.619  0.3457  0.2889 -0.0066
 5022SOL    HW126699   0.448   3.409   2.591  1.2411 -1.7113  3.5922
 5022SOL    HW226700   0.371   3.448   2.709 -2.4813 -1.1640  0.9206
 5023SOL     OW26701   4.731   4.223   5.080  0.3482  0.2975 -0.2509
 5023SOL    HW126702   0.014   4.137   5.120  3.3804  0.7467 -0.5784
 5023SOL    HW226703   4.719   4.276   5.160  1.4390  1.7129 -1.0352
 5024SOL     OW26704   3.605   0.099   9.896 -0.5303  0.1659 -0.1322
 5024SOL    HW126705   3.565   0.036   9.836  1.6333 -0.7994 -0.5754
 5024SOL    HW226706   3.699   0.092   9.875 -0.8250  0.3564 -1.5198
 5025SOL     OW26707   3.984   3.664   1.797 -0.3538 -0.1752  0.2307
 5025SOL    HW126708   4.026   3.600   1.855  0.4796 -1.0108 -1.3072
 5025SOL    HW226709   4.054   3.723   1.772  0.1344 -1.7545 -2.1268
 5026SOL     OW26710   0.765   1.598   7.792 -0.4867 -0.2346 -0.5387
 5026SOL    HW126711   0.707   1.641   7.855 -0.2314 -0.5056 -0.1207
 5026SOL    HW226712   0.810   1.681   7.773 -0.5139 -0.3138 -0.9581
 5027SOL     OW26713   0.508   1.559   5.728  0.4388  0.0434  0.4089
 5027SOL    HW126714   0.450   1.553   5.653  0.7957  2.4304 -0.0891
 5027SOL    HW226715   0.499   1.473   5.769  0.0879 -0.1418 -0.0587
 5028SOL     OW26716   3.730   0.750   7.554  0.3452 -0.0213  0.3262
 5028SOL    HW126717   3.642   0.787   7.553  0.2565 -0.2612 -1.4532
 5028SOL    HW226718   3.722   0.678   7.491  3.0431  0.0930 -0.1691
 5029SOL     OW26719   0.026   1.608  10.191  0.1449  0.0609 -0.3923
 5029SOL    HW126720   4.708   1.667  10.137 -0.6273 -1.0929 -0.9221
 5029SOL    HW226721   0.099   1.601  10.130  1.4368  0.0230  1.1395
 5030SOL     OW26722   1.373   1.659   6.993  0.0318  0.2637  0.3449
 5030SOL    HW126723   1.313   1.632   6.923 -0.3212  0.2380  0.6627
 5030SOL    HW226724   1.376   1.579   7.046 -0.7267 -0.0817 -0.1355
 5031SOL     OW26725   0.863   3.265   8.099 -0.0979 -0.1585  0.3596
 5031SOL    HW126726   0.789   3.318   8.068  1.2287  0.9299 -0.9020
 5031SOL    HW226727   0.831   3.209   8.170  0.1681  0.7041  1.1593
 5032SOL     OW26728   1.638   2.438   8.729  0.1974  0.0220 -0.3331
 5032SOL    HW126729   1.678   2.359   8.692  2.1033  0.4945  0.6910
 5032SOL    HW226730   1.710   2.480   8.777 -1.7207  2.1998  0.6376
 5033SOL     OW26731   1.684   1.922  11.013 -0.4830 -0.1167  0.1542
 5033SOL    HW126732   1.690   1.917  10.918 -1.9373 -0.2835  0.0723
 5033SOL    HW226733   1.646   2.008  11.033  0.9935 -0.1913  3.3721
 5034SOL     OW26734   4.498   1.693   7.449 -0.1410 -0.4165 -0.5397
 5034SOL    HW126735   4.562   1.712   7.381 -1.9932  3.1007 -1.3074
 5034SOL    HW226736   4.555   1.655   7.515  0.2169 -0.0471 -0.6393
 5035SOL     OW26737   2.728   1.902  13.676 -0.4951 -0.0621  0.1502
 5035SOL    HW126738   2.661   1.953  13.723  1.1792  1.9673  0.3374
 5035SOL    HW226739   2.685   1.898  13.590 -2.4827  1.2207  1.0812
 5036SOL     OW26740   3.599   1.897  15.546 -0.1958 -0.3824  0.0969
 5036SOL    HW126741   3.590   1.992  15.553  1.5504 -0.1360 -1.0570
 5036SOL    HW226742   3.531   1.859  15.602  1.5713 -2.8189  0.5871
 5037SOL     OW26743   1.237   3.821   7.751  0.6299 -0.0967 -0.2813
 5037SOL    HW126744   1.267   3.845   7.663  0.0741  1.3988 -0.0460
 5037SOL    HW226745   1.248   3.904   7.797 -0.1539 -0.5629  0.7363
 5038SOL     OW26746   3.742   2.703   7.847  0.3476 -0.1873 -0.0377
 5038SOL    HW126747   3.673   2.636   7.851 -0.8826  1.1354  0.8982
 5038SOL    HW226748   3.814   2.679   7.905  1.5877 -0.8212 -1.8405
 5039SOL     OW26749   1.667   3.099   3.694 -0.0963  0.1918  0.4313
 5039SOL    HW126750   1.653   3.017   3.647 -0.0503  0.0980  0.5803
 5039SOL    HW226751   1.732   3.068   3.758  0.6266  0.5402 -0.1226
 5040SOL     OW26752   2.764   4.297   8.550  0.1139 -0.6101  0.4110
 5040SOL    HW126753   2.697   4.249   8.499  0.5197  0.6984 -1.3366
 5040SOL    HW226754   2.830   4.304   8.481 -0.5588  0.6673 -0.1029
 5041SOL     OW26755   2.561   2.282   6.059 -0.5881 -0.3182  0.2660
 5041SOL    HW126756   2.495   2.253   6.122 -0.4883 -0.8166  0.1438
 5041SOL    HW226757   2.568   2.201   6.008 -2.9224 -0.3524 -0.0093
 5042SOL     OW26758   0.380   0.060   3.413 -0.1956  0.3199 -0.1369
 5042SOL    HW126759   0.333   4.714   3.438  0.8977 -0.2625  0.0490
 5042SOL    HW226760   0.384   0.116   3.490 -0.6752 -1.0914  0.9123
 5043SOL     OW26761   1.957   0.540   8.552  0.5238 -0.5540  0.2335
 5043SOL    HW126762   1.908   0.609   8.507 -0.0693 -0.8082  0.4963
 5043SOL    HW226763   2.032   0.586   8.589  0.2628  0.1862 -0.1560
 5044SOL     OW26764   4.304   0.825   2.581 -0.1206 -0.2171 -0.4257
 5044SOL    HW126765   4.295   0.787   2.668 -0.6395 -0.3634 -0.5423
 5044SOL    HW226766   4.329   0.755   2.520 -0.7317 -2.1202  1.4746
 5045SOL     OW26767   3.695   2.519   4.125 -0.1232 -0.7034  0.2290
 5045SOL    HW126768   3.787   2.540   4.140  0.2418 -0.5587 -2.2078
 5045SOL    HW226769   3.668   2.575   4.052 -0.0153  0.0538  0.7747
 5046SOL     OW26770   3.032   0.113   3.054  0.3796 -0.2017  0.4299
 5046SOL    HW126771   3.102   0.086   2.994  0.4985 -0.2304  0.5805
 5046SOL    HW226772   3.028   0.029   3.098  0.4236 -0.7059 -0.5335
 5047SOL     OW26773   0.754   2.113   7.761 -0.5874 -0.0887 -0.1859
 5047SOL    HW126774   0.804   2.189   7.791  0.0842 -0.5583 -0.1176
 5047SOL    HW226775   0.801   2.037   7.796 -3.2483 -1.6738 -0.1082
 5048SOL     OW26776   4.289   3.687   5.179 -0.1271  0.1325 -0.3095
 5048SOL    HW126777   4.357   3.664   5.243 -0.4410 -1.6169 -0.6230
 5048SOL    HW226778   4.312   3.632   5.105 -0.7322  0.9696 -1.1249
 5049SOL     OW26779   1.299   0.285   6.167 -0.3987  0.0753 -0.0197
 5049SOL    HW126780   1.391   0.262   6.174 -0.0123  1.7255  0.4726
 5049SOL    HW226781   1.303   0.334   6.085  0.7044  1.0902  0.6383
 5050SOL     OW26782   3.645   1.221   5.533 -0.3914  0.1109  0.2019
 5050SOL    HW126783   3.565   1.177   5.505 -0.5863  0.1077  0.7463
 5050SOL    HW226784   3.704   1.153   5.502 -0.4706  0.1750 -0.0867
 5051SOL     OW26785   2.607   3.140   7.170  0.0658  0.3935  0.4246
 5051SOL    HW126786   2.652   3.153   7.086 -0.2631  1.1796  0.3675
 5051SOL    HW226787   2.553   3.218   7.177 -0.0450  0.1411  2.3265
 5052SOL     OW26788   3.667   4.249   7.058  0.1275  0.1571  0.2049
 5052SOL    HW126789   3.710   4.327   7.023 -1.3168  0.0922 -1.6967
 5052SOL    HW226790   3.591   4.293   7.095 -0.3029 -1.0062  0.6836
 5053SOL     OW26791   1.466   3.331   8.059  0.2435  0.6177  0.2972
 5053SOL    HW126792   1.538   3.380   8.099 -1.0663  3.2215 -0.5345
 5053SOL    HW226793   1.462   3.254   8.116  2.0866 -0.9641 -1.7153
 5054SOL     OW26794   3.357   0.178  16.628 -0.0974 -0.2278  0.0007
 5054SOL    HW126795   3.261   0.185  16.632  0.0074  1.8636 -0.8863
 5054SOL    HW226796   3.365   0.236  16.553  1.9208 -1.4461 -0.7068
 5055SOL     OW26797   0.184   0.032   2.937 -0.7320  0.3362  0.2363
 5055SOL    HW126798   0.228   0.095   2.994  3.0080  0.0330 -2.2556
 5055SOL    HW226799   0.099   0.073   2.922 -0.0981  1.0426 -1.4389
 5056SOL     OW26800   0.527   1.434   8.797 -0.6157 -0.4835  0.2754
 5056SOL    HW126801   0.565   1.413   8.882  0.7453  3.3276  0.6294
 5056SOL    HW226802   0.599   1.480   8.753 -1.6007 -0.2063 -1.0446
 5057SOL     OW26803   3.454   3.166  15.168  0.1220 -0.3692 -0.5051
 5057SOL    HW126804   3.499   3.225  15.229  0.8791 -0.7151 -0.7294
 5057SOL    HW226805   3.499   3.196  15.089 -0.9980 -2.3343 -1.8962
 5058SOL     OW26806   4.340   4.592   5.314  0.1786 -0.0034 -0.2602
 5058SOL    HW126807   4.253   4.556   5.326  0.2959 -1.0777 -2.6155
 5058SOL    HW226808   4.339   4.640   5.231  0.6174  0.8568  0.2257
 5059SOL     OW26809   4.367   1.070  16.332  0.4455 -0.2715  0.0248
 5059SOL    HW126810   4.282   1.112  16.346  0.8742 -0.1824  2.4016
 5059SOL    HW226811   4.381   1.106  16.244 -0.0199 -0.0628  0.0379
 5060SOL     OW26812   3.516   0.295  13.925  0.1026 -0.6489 -0.0516
 5060SOL    HW126813   3.521   0.234  13.999  3.3847  2.4184  2.2630
 5060SOL    HW226814   3.429   0.284  13.887 -0.3017  3.0706 -0.1872
 5061SOL     OW26815   1.874   0.649   8.225  0.1511 -0.1282 -0.3212
 5061SOL    HW126816   1.925   0.569   8.213 -0.3299 -0.6687  1.2557
 5061SOL    HW226817   1.899   0.705   8.151  0.8702  0.1879  0.1656
 5062SOL     OW26818   2.207   2.435   5.942 -0.8436  0.1104 -0.5112
 5062SOL    HW126819   2.112   2.435   5.958 -0.9146  0.7235 -0.9363
 5062SOL    HW226820   2.223   2.378   6.017  0.3916  0.8007 -0.2646
 5063SOL     OW26821   2.325   4.560   0.585  0.1749 -0.0906  0.1979
 5063SOL    HW126822   2.271   4.605   0.521 -0.3960  2.2822  2.3474
 5063SOL    HW226823   2.357   4.482   0.539  1.6762  1.4147 -1.2977
 5064SOL     OW26824   3.980   3.232   1.231  0.9217 -0.2088 -0.0643
 5064SOL    HW126825   4.027   3.267   1.156 -1.0311 -1.4664 -1.8852
 5064SOL    HW226826   4.042   3.170   1.269  0.1733 -1.0235 -0.1678
 5065SOL     OW26827   1.549   3.795   4.537 -0.2236  0.1850 -0.2990
 5065SOL    HW126828   1.643   3.809   4.545  0.3543 -3.6492 -0.1476
 5065SOL    HW226829   1.529   3.822   4.448 -2.6940  1.9205  0.7917
 5066SOL     OW26830   3.687   4.091   1.936 -0.3826 -0.7285 -0.2049
 5066SOL    HW126831   3.671   4.031   1.863  0.7674 -1.8153  0.4451
 5066SOL    HW226832   3.600   4.087   1.977 -1.0329  0.3563 -1.4839
 5067SOL     OW26833   4.381   0.119  12.777  0.0382 -0.0080  0.0660
 5067SOL    HW126834   4.352   0.073  12.855 -0.5111  2.2277  1.1748
 5067SOL    HW226835   4.464   0.151  12.812 -0.0374  1.2190 -0.8645
 5068SOL     OW26836   2.738   4.628   4.900  0.2405 -0.9856  0.1004
 5068SOL    HW126837   2.723   4.534   4.903 -2.3122 -0.6356 -1.2153
 5068SOL    HW226838   2.753   4.652   4.991 -0.5188 -1.1292  0.2643
 5069SOL     OW26839   1.810   0.557   2.210  0.3285 -0.4929 -0.2880
 5069SOL    HW126840   1.868   0.632   2.196  1.2439 -0.7649  1.9818
 5069SOL    HW226841   1.732   0.603   2.179  1.5130  3.4202  2.4494
 5070SOL     OW26842   4.509   3.377  15.449 -0.5986  0.0198  0.0672
 5070SOL    HW126843   4.433   3.368  15.507  0.2986 -1.0618  1.0573
 5070SOL    HW226844   4.504   3.466  15.414  0.1142 -0.4679 -1.2543
 5071SOL     OW26845   3.832   4.194   4.918  0.1478  0.5627  0.3026
 5071SOL    HW126846   3.914   4.203   4.870 -1.7287  1.9702 -2.6651
 5071SOL    HW226847   3.791   4.281   4.917 -0.5791  0.1983 -0.7438
 5072SOL     OW26848   1.714   4.184   4.624 -0.4769  0.6265  0.2866
 5072SOL    HW126849   1.805   4.156   4.630 -0.3599  0.8063 -0.6214
 5072SOL    HW226850   1.677   4.124   4.689  0.2511  1.6847  1.6741
 5073SOL     OW26851   1.672   1.939   2.262  0.5987  0.3373 -0.1025
 5073SOL    HW126852   1.642   1.901   2.179 -0.2882 -0.1988  0.4722
 5073SOL    HW226853   1.768   1.935   2.261  0.5530 -0.5952 -0.8802
 5074SOL     OW26854   4.010   0.449   5.362  0.2420 -0.5207 -0.4176
 5074SOL    HW126855   3.982   0.401   5.440  3.0278 -1.0202  0.2906
 5074SOL    HW226856   4.077   0.389   5.331  1.2028 -0.4108  1.4561
 5075SOL     OW26857   0.656   4.070   6.951  0.0431  0.7598  0.1602
 5075SOL    HW126858   0.624   4.037   7.035 -0.6923  0.7586 -0.1237
 5075SOL    HW226859   0.740   4.104   6.982  0.2772  1.0105 -0.7372
 5076SOL     OW26860   3.047   4.048  10.849  0.4250 -0.3144  1.2300
 5076SOL    HW126861   3.096   4.100  10.913 -0.9063  2.4058  0.0279
 5076SOL    HW226862   2.976   4.029  10.910 -0.4512 -1.1253 -0.0570
 5077SOL     OW26863   2.062   0.481   4.710  0.5171  0.1441 -0.1276
 5077SOL    HW126864   2.038   0.574   4.713  2.5872  0.6913 -0.4903
 5077SOL    HW226865   2.151   0.482   4.746  0.4014 -0.5217  0.1612
 5078SOL     OW26866   4.184   2.078  13.995 -0.0315 -0.8826  0.0497
 5078SOL    HW126867   4.152   2.127  13.919 -2.0465 -0.3547  1.2206
 5078SOL    HW226868   4.149   2.127  14.069 -2.0094 -0.3798 -1.2227
 5079SOL     OW26869   1.766   3.783   4.812 -0.0146  0.0219  0.6163
 5079SOL    HW126870   1.845   3.816   4.855  1.2716 -0.8722 -1.0620
 5079SOL    HW226871   1.786   3.736   4.731  0.5096 -0.9976  1.3471
 5080SOL     OW26872   2.526   4.064   3.403  0.4896  0.6385  0.3712
 5080SOL    HW126873   2.573   3.982   3.387  0.6174  0.5757  1.0440
 5080SOL    HW226874   2.597   4.127   3.388  2.3351 -1.6465 -0.6069
 5081SOL     OW26875   4.515   0.348   3.090 -0.3353 -0.4684 -0.5296
 5081SOL    HW126876   4.478   0.425   3.135 -1.7050 -0.9066 -0.9141
 5081SOL    HW226877   4.442   0.290   3.070  1.1596 -3.0662  1.6771
 5082SOL     OW26878   2.323   2.619  14.914  0.5211  0.1458  0.4038
 5082SOL    HW126879   2.375   2.686  14.959  3.0920 -0.7819 -1.1832
 5082SOL    HW226880   2.377   2.581  14.844 -0.3111 -0.6575  0.2112
 5083SOL     OW26881   2.945   1.396   1.263  0.1293  0.2546 -0.0841
 5083SOL    HW126882   2.918   1.321   1.316 -2.7559  1.3035 -0.0938
 5083SOL    HW226883   2.919   1.377   1.173  0.4435  0.5692 -0.2415
 5084SOL     OW26884   1.742   4.408  14.461 -0.4346  0.5015  0.3747
 5084SOL    HW126885   1.678   4.454  14.406  0.9471 -0.5107 -2.0492
 5084SOL    HW226886   1.701   4.323  14.472 -1.4105  0.9055 -0.1150
 5085SOL     OW26887   3.986   0.942   6.012 -0.0697  0.1306  0.2416
 5085SOL    HW126888   4.015   0.935   5.921  0.2898  0.2374  0.3482
 5085SOL    HW226889   3.929   0.864   6.017  1.7144 -1.2595 -1.2255
 5086SOL     OW26890   1.488   2.160   2.209 -0.6916  0.4178 -0.4465
 5086SOL    HW126891   1.567   2.105   2.206 -0.0177  1.3853 -0.3118
 5086SOL    HW226892   1.495   2.202   2.294 -0.3498  0.6878 -0.6073
 5087SOL     OW26893   0.989   0.052   1.405 -0.3996  0.1113  0.0054
 5087SOL    HW126894   0.905   0.090   1.432 -0.1997  0.5112  0.0595
 5087SOL    HW226895   0.967   4.716   1.343 -0.9229  1.8414 -1.7618
 5088SOL     OW26896   2.407   0.778  11.949 -0.0120 -0.0024 -0.4306
 5088SOL    HW126897   2.468   0.834  11.996 -0.1852 -0.3436  0.2030
 5088SOL    HW226898   2.461   0.748  11.877 -1.4081  0.2506 -1.5818
 5089SOL     OW26899   3.143   2.579   3.238 -0.5076 -0.2406  0.2844
 5089SOL    HW126900   3.145   2.611   3.148  0.1073 -1.4072 -0.1157
 5089SOL    HW226901   3.151   2.486   3.217 -0.7964  0.1713 -1.6857
 5090SOL     OW26902   2.632   0.483   6.442  0.0463  0.6332 -0.2100
 5090SOL    HW126903   2.651   0.393   6.414  0.1773  0.9193 -1.0284
 5090SOL    HW226904   2.615   0.526   6.358 -0.5023  1.4823  0.3408
 5091SOL     OW26905   0.290   2.336   6.498 -0.0154 -0.5911  0.3244
 5091SOL    HW126906   0.207   2.293   6.521 -0.6966  0.4021 -0.2436
 5091SOL    HW226907   0.324   2.279   6.429 -0.8613 -1.1528  0.3607
 5092SOL     OW26908   1.811   3.126   2.472  0.0990  0.3225  0.0521
 5092SOL    HW126909   1.825   3.173   2.554 -1.1071 -3.1307  2.2289
 5092SOL    HW226910   1.816   3.032   2.491 -1.2179  0.4868  1.2183
 5093SOL     OW26911   3.863   3.208   3.020 -0.4808  0.1413  0.5065
 5093SOL    HW126912   3.929   3.246   3.077 -0.8236  0.4119  0.7277
 5093SOL    HW226913   3.903   3.123   3.001  1.8763  0.9711  1.8347
 5094SOL     OW26914   2.402   1.739   5.454  0.1302 -0.2829 -0.0987
 5094SOL    HW126915   2.314   1.714   5.483 -0.6380  0.0140 -2.1638
 5094SOL    HW226916   2.456   1.688   5.514 -1.6361 -0.0241  1.7164
 5095SOL     OW26917   2.466   0.825   8.124 -0.5477  0.0524 -0.3512
 5095SOL    HW126918   2.494   0.823   8.215 -1.8804 -0.3957  0.0486
 5095SOL    HW226919   2.378   0.862   8.130 -0.8929 -0.7072 -0.6850
 5096SOL     OW26920   1.815   4.488   5.056 -0.1415  0.1432 -0.1172
 5096SOL    HW126921   1.870   4.463   4.981  0.7009 -1.7548  1.1386
 5096SOL    HW226922   1.770   4.406   5.074 -0.2984  0.1345 -0.5509
 5097SOL     OW26923   2.670   0.219   6.386 -0.0902 -0.0616  0.0571
 5097SOL    HW126924   2.734   0.212   6.316  1.6539 -0.9278  1.7149
 5097SOL    HW226925   2.681   0.134   6.429 -2.5024 -0.0185  0.7685
 5098SOL     OW26926   0.152   0.934   8.267 -0.4179 -0.0877  0.0323
 5098SOL    HW126927   0.218   0.930   8.337 -0.6686 -1.4836  0.1955
 5098SOL    HW226928   0.198   0.989   8.204  1.0081 -1.3287  0.0148
 5099SOL     OW26929   2.860   3.441   5.109  0.1375  0.0903 -0.7891
 5099SOL    HW126930   2.852   3.513   5.048  0.3526 -0.1861 -1.1414
 5099SOL    HW226931   2.947   3.405   5.089  0.2697 -0.8153  1.3824
 5100SOL     OW26932   0.955   2.322   5.454  0.0458 -0.1529  0.4651
 5100SOL    HW126933   0.881   2.368   5.493 -0.6696 -1.9240  1.2035
 5100SOL    HW226934   0.922   2.232   5.449  0.0021 -0.2101  1.7739
 5101SOL     OW26935   4.495   3.118   3.222 -0.7808  0.4081 -0.1300
 5101SOL    HW126936   4.434   3.171   3.274 -1.0258 -1.1653  1.1723
 5101SOL    HW226937   4.476   3.031   3.256 -3.1994  0.5212 -1.1921
 5102SOL     OW26938   1.090   1.924   9.654 -0.1154  0.5139  0.4388
 5102SOL    HW126939   1.081   2.019   9.667 -0.7204  0.3699  1.0484
 5102SOL    HW226940   1.063   1.888   9.738  0.3360 -1.2557 -0.1688
 5103SOL     OW26941   1.502   4.722   9.015 -0.1650  0.2385  0.2426
 5103SOL    HW126942   1.407   0.000   9.009  0.1617  2.2599 -0.9110
 5103SOL    HW226943   1.525   0.055   9.079 -1.4133  1.9386 -1.0860
 5104SOL     OW26944   0.104   0.819   1.390  0.3457  0.3227 -0.1023
 5104SOL    HW126945   0.151   0.760   1.332 -0.2970 -0.4099  0.1254
 5104SOL    HW226946   0.168   0.836   1.459 -0.9980  0.9392  0.9951
 5105SOL     OW26947   2.754   0.474  15.394  0.3005 -0.0843 -0.3131
 5105SOL    HW126948   2.825   0.417  15.363  0.4922  0.1008 -0.2126
 5105SOL    HW226949   2.691   0.413  15.432 -1.0808  1.0200 -0.8777
 5106SOL     OW26950   0.691   2.158   1.516  0.4924 -0.3478  0.3196
 5106SOL    HW126951   0.620   2.214   1.483  2.3135  2.8348  1.7187
 5106SOL    HW226952   0.719   2.216   1.587  1.5330  1.9088 -1.9105
 5107SOL     OW26953   3.987   0.745   0.722 -0.0465 -0.3149 -0.6606
 5107SOL    HW126954   4.071   0.763   0.680 -0.7404 -0.2412 -2.0303
 5107SOL    HW226955   3.942   0.830   0.717  2.7721  1.1754 -1.2692
 5108SOL     OW26956   0.788   4.408  11.574  0.8835 -0.1864  0.4503
 5108SOL    HW126957   0.864   4.394  11.517  0.3436 -0.6686 -0.1576
 5108SOL    HW226958   0.823   4.435  11.658  0.0424 -1.0379  1.0766
 5109SOL     OW26959   1.861   2.546   6.853 -0.4882 -0.5543 -0.4280
 5109SOL    HW126960   1.868   2.604   6.928 -2.3338  0.8484 -1.3310
 5109SOL    HW226961   1.945   2.503   6.866  0.2212  0.5412 -1.4005
 5110SOL     OW26962   2.559   4.403   7.000 -0.4640 -0.4518  0.2385
 5110SOL    HW126963   2.620   4.333   6.975 -3.0339 -2.9785  1.0547
 5110SOL    HW226964   2.610   4.484   7.003  0.0219 -0.7286 -0.5604
 5111SOL     OW26965   4.347   2.169   7.555  0.2163  0.1010 -0.6770
 5111SOL    HW126966   4.347   2.097   7.618  2.4976  0.7437  0.0250
 5111SOL    HW226967   4.367   2.112   7.481  0.3444 -2.1330  1.0697
 5112SOL     OW26968   3.524   3.123   9.794 -0.1082 -0.0543 -0.4772
 5112SOL    HW126969   3.583   3.063   9.840  1.2696  0.3590 -1.6923
 5112SOL    HW226970   3.515   3.083   9.708 -1.6195 -0.7862  0.0322
 5113SOL     OW26971   3.954   2.907   5.493  0.1275 -0.2441  0.6580
 5113SOL    HW126972   3.939   2.917   5.399 -2.2507  0.6663  1.1461
 5113SOL    HW226973   3.975   2.814   5.505  1.7160  0.0630  0.2430
 5114SOL     OW26974   4.050   4.489   0.608 -0.4453  0.7948 -0.2624
 5114SOL    HW126975   3.973   4.543   0.624 -0.1619  1.2749 -0.5343
 5114SOL    HW226976   4.123   4.548   0.626 -0.7075  1.0181  0.0901
 5115SOL     OW26977   1.604   4.633   1.003 -0.0753 -0.6063 -0.3648
 5115SOL    HW126978   1.698   4.623   0.986 -0.1385 -0.4944 -0.7649
 5115SOL    HW226979   1.604   4.729   1.006  0.6340 -0.7069  2.4940
 5116SOL     OW26980   0.340   2.345  14.142 -0.0953 -0.1793  0.5496
 5116SOL    HW126981   0.260   2.385  14.106 -0.4053  0.1434  1.5836
 5116SOL    HW226982   0.350   2.278  14.075 -1.0242  1.3394 -1.1197
 5117SOL     OW26983   2.422   2.774   5.755  0.4162  0.6223 -0.0194
 5117SOL    HW126984   2.512   2.787   5.725  0.9202 -0.0965  1.2054
 5117SOL    HW226985   2.386   2.845   5.701 -2.1358 -1.9895 -1.7682
 5118SOL     OW26986   1.628   4.152   7.208  0.0202  0.8400 -0.4515
 5118SOL    HW126987   1.575   4.220   7.250 -0.1038 -0.3119  1.2878
 5118SOL    HW226988   1.655   4.187   7.123  0.4563 -0.1897 -0.7440
 5119SOL     OW26989   3.438   0.066  13.266  0.0745  0.2763  0.3033
 5119SOL    HW126990   3.488   0.035  13.341  0.7719  0.3651 -0.1284
 5119SOL    HW226991   3.503   0.068  13.196  0.5473  2.2748  0.8227
 5120SOL     OW26992   4.655   4.502   2.963 -0.0175 -0.4952  0.2035
 5120SOL    HW126993   4.689   4.434   3.021 -1.1996 -1.1816  0.0865
 5120SOL    HW226994   4.667   4.578   3.019 -0.2898  0.6483 -1.2911
 5121SOL     OW26995   1.024   4.517   9.834 -0.1654 -0.2931 -0.1609
 5121SOL    HW126996   1.073   4.553   9.908 -1.5715 -0.3067  0.7855
 5121SOL    HW226997   1.025   4.593   9.776  1.2006  1.0161  1.5761
 5122SOL     OW26998   1.260   2.309  11.388 -0.0483  0.3231  0.3136
 5122SOL    HW126999   1.283   2.222  11.356  0.2149  0.1416  0.9963
 5122SOL    HW227000   1.196   2.276  11.451  1.1044 -2.3383  0.1106
 5123SOL     OW27001   3.105   1.144   0.901  0.0383  0.0579  0.0327
 5123SOL    HW127002   3.026   1.170   0.854 -1.0947 -1.2585  1.2089
 5123SOL    HW227003   3.161   1.220   0.887  0.1770  0.0702  0.6739
 5124SOL     OW27004   3.422   0.739   1.299 -0.0563  0.2719 -0.0025
 5124SOL    HW127005   3.490   0.806   1.289 -0.9226  1.2946  0.9534
 5124SOL    HW227006   3.341   0.790   1.297 -0.2624 -0.0790 -0.5820
 5125SOL     OW27007   0.416   1.727  10.378  0.0483 -0.6459  0.5736
 5125SOL    HW127008   0.383   1.708  10.465 -1.2926 -1.0501 -0.0374
 5125SOL    HW227009   0.470   1.650  10.362 -1.0890 -1.2980 -0.0265
 5126SOL     OW27010   1.569   4.232   4.406  0.3435 -0.1028 -0.4844
 5126SOL    HW127011   1.499   4.181   4.446  0.8550 -1.5204 -1.4215
 5126SOL    HW227012   1.636   4.234   4.474 -1.6519  1.5151  1.4575
 5127SOL     OW27013   0.610   1.056   2.032 -0.3479 -0.1103 -0.4114
 5127SOL    HW127014   0.546   1.041   2.102 -0.1133 -0.1246 -0.1986
 5127SOL    HW227015   0.643   0.970   2.004  2.7391  1.0160 -0.2156
 5128SOL     OW27016   0.030   4.151   7.181  0.1560 -0.6326  0.1839
 5128SOL    HW127017   0.053   4.133   7.090 -1.0048 -2.8037  0.3298
 5128SOL    HW227018   0.023   4.061   7.214 -0.1845 -0.0312  1.7708
 5129SOL     OW27019   4.232   3.086   7.785 -0.2840 -0.4713  0.0740
 5129SOL    HW127020   4.313   3.035   7.785 -1.4663 -2.3414 -0.1496
 5129SOL    HW227021   4.169   3.021   7.816 -1.2122  0.7323  0.6841
 5130SOL     OW27022   0.254   4.619   8.532 -0.0085 -0.2573 -0.2022
 5130SOL    HW127023   0.172   4.571   8.534  0.4918 -1.0632  0.9130
 5130SOL    HW227024   0.216   4.704   8.554  1.8758  0.6380 -0.4227
 5131SOL     OW27025   2.700   4.260   2.714  0.0487  0.3055 -0.0696
 5131SOL    HW127026   2.662   4.185   2.758 -0.3929  0.8419  0.4647
 5131SOL    HW227027   2.753   4.211   2.651  2.6873  1.5484  1.1927
 5132SOL     OW27028   2.823   1.838   2.835 -0.0624  0.5480 -0.1166
 5132SOL    HW127029   2.755   1.906   2.841  0.6770  0.9588  3.7619
 5132SOL    HW227030   2.843   1.839   2.742 -1.2115 -2.5441 -0.4009
 5133SOL     OW27031   0.304   2.603   9.923  0.5926  0.1701 -0.1888
 5133SOL    HW127032   0.314   2.511   9.948  1.9594  0.2472 -0.4488
 5133SOL    HW227033   0.389   2.623   9.884  0.5033 -3.1011 -2.0137
 5134SOL     OW27034   0.688   0.661   7.318  0.4958  0.7109 -0.5372
 5134SOL    HW127035   0.670   0.704   7.235  0.5061 -0.4050 -1.1038
 5134SOL    HW227036   0.784   0.660   7.321  0.4792  1.7279  0.6476
 5135SOL     OW27037   4.627   2.097   9.291  0.2106  0.2030  0.4135
 5135SOL    HW127038   4.703   2.148   9.319 -0.7251 -0.1027  3.5666
 5135SOL    HW227039   4.650   2.064   9.204 -0.3969 -0.0817  0.3586
 5136SOL     OW27040   1.954   3.252   0.357 -0.1622  0.5391 -0.9327
 5136SOL    HW127041   2.042   3.258   0.319 -1.2076 -0.4083 -3.4803
 5136SOL    HW227042   1.956   3.328   0.415  2.3752  0.0288 -0.3450
 5137SOL     OW27043   1.849   2.397   6.336 -0.4602  0.3171  0.4832
 5137SOL    HW127044   1.885   2.428   6.419 -0.9163 -1.7854  1.4645
 5137SOL    HW227045   1.756   2.413   6.354 -0.8501 -1.1366 -0.2726
 5138SOL     OW27046   1.350   3.573   1.726 -0.1417 -0.0649  0.1288
 5138SOL    HW127047   1.416   3.590   1.659 -0.2919 -1.6342 -0.4114
 5138SOL    HW227048   1.346   3.662   1.761 -1.5270  0.3563 -1.1121
 5139SOL     OW27049   4.195   4.517   3.671 -0.4804 -0.0270 -0.0686
 5139SOL    HW127050   4.148   4.559   3.743 -1.0942 -2.3760  0.8956
 5139SOL    HW227051   4.156   4.551   3.590 -1.7392 -1.5605 -0.1076
 5140SOL     OW27052   3.435   1.056   1.766 -0.8645 -0.4252  0.2550
 5140SOL    HW127053   3.411   1.042   1.858 -0.0736 -0.5759  0.4365
 5140SOL    HW227054   3.504   0.995   1.740  0.3320  0.5884  1.0602
 5141SOL     OW27055   3.851   4.640   5.521  0.0860  0.3059 -0.7543
 5141SOL    HW127056   3.764   4.675   5.501  1.0833  3.0425 -0.3391
 5141SOL    HW227057   3.880   4.699   5.591  0.0556  0.5599 -0.9523
 5142SOL     OW27058   0.552   2.932  13.976  0.2499 -0.1167  0.0605
 5142SOL    HW127059   0.564   2.878  13.897 -1.4238  0.7530 -0.7922
 5142SOL    HW227060   0.641   2.962  13.994 -0.7050  1.4583  2.0781
 5143SOL     OW27061   4.172   1.088   1.347 -0.1742 -0.4126 -0.2435
 5143SOL    HW127062   4.140   0.998   1.346 -1.7693  0.1304  0.7076
 5143SOL    HW227063   4.239   1.078   1.414  1.0324  1.0547 -1.2567
 5144SOL     OW27064   4.291   0.119  10.981  0.1251 -0.2019  0.5053
 5144SOL    HW127065   4.229   0.092  10.914  1.0545  1.4283 -1.0252
 5144SOL    HW227066   4.252   0.201  11.012  2.2509  0.4389  1.5097
 5145SOL     OW27067   1.442   0.505  14.611  0.0162 -0.2168  0.2285
 5145SOL    HW127068   1.385   0.576  14.582  1.4570  1.1198  0.7030
 5145SOL    HW227069   1.501   0.560  14.662 -0.0717 -0.3073  0.4289
 5146SOL     OW27070   3.450   0.832   2.734  0.2575  0.4316 -0.3110
 5146SOL    HW127071   3.386   0.802   2.798  2.1105 -1.4879  0.6358
 5146SOL    HW227072   3.449   0.928   2.726 -0.7861  0.7297  3.7100
 5147SOL     OW27073   2.436   1.001   4.678 -0.4227  0.2294  0.0416
 5147SOL    HW127074   2.467   0.976   4.590 -3.8117 -0.0566 -1.0555
 5147SOL    HW227075   2.427   0.917   4.722 -2.8460  0.3041 -0.3212
 5148SOL     OW27076   2.106   3.283   4.339 -0.2850 -0.1244 -0.1497
 5148SOL    HW127077   2.015   3.275   4.368 -0.0407  0.2911  0.7587
 5148SOL    HW227078   2.095   3.269   4.245  0.7330 -1.7495 -0.0107
 5149SOL     OW27079   2.972   0.573  17.620  0.5220  0.0536 -0.2657
 5149SOL    HW127080   3.038   0.612  17.679 -0.1126  0.3741  0.2285
 5149SOL    HW227081   3.028   0.529  17.556 -0.9547  0.5330 -1.8662
 5150SOL     OW27082   4.411   0.880  13.652  0.0195 -0.3772 -0.2908
 5150SOL    HW127083   4.386   0.868  13.744 -0.9938 -0.6572 -0.6013
 5150SOL    HW227084   4.412   0.975  13.650 -2.6835 -0.3066  1.1276
 5151SOL     OW27085   0.427   2.131  10.388  1.0683  0.3314 -0.2596
 5151SOL    HW127086   0.449   2.196  10.321  2.1852 -0.1820 -0.3874
 5151SOL    HW227087   0.372   2.184  10.446  0.6763  0.0408 -0.3605
 5152SOL     OW27088   3.905   3.252   1.658  0.4044  0.1105  0.0682
 5152SOL    HW127089   3.973   3.220   1.717 -0.3057  0.1602  0.9148
 5152SOL    HW227090   3.830   3.268   1.715  0.5073 -1.2864  0.5931
 5153SOL     OW27091   0.312   1.944   2.692  0.0641  0.3674  0.2007
 5153SOL    HW127092   0.252   2.017   2.706 -2.4360 -1.6827  0.2366
 5153SOL    HW227093   0.372   1.945   2.767  0.8338 -2.4178 -0.3546
 5154SOL     OW27094   1.795   0.944  12.380 -0.3335  0.2738 -0.1107
 5154SOL    HW127095   1.891   0.951  12.381 -0.2129 -1.1637 -1.5373
 5154SOL    HW227096   1.779   0.874  12.443 -3.5182 -0.4393 -1.7144
 5155SOL     OW27097   2.635   3.308   7.959  0.3695 -0.1020  0.6961
 5155SOL    HW127098   2.636   3.285   8.052  1.2324  0.3678  0.7967
 5155SOL    HW227099   2.725   3.339   7.951 -0.1712  1.3253  0.1733
 5156SOL     OW27100   2.413   4.654  17.313  0.0257 -0.3561 -0.0943
 5156SOL    HW127101   2.447   4.692  17.232  0.9369 -0.2291  0.3506
 5156SOL    HW227102   2.431   4.723  17.376  0.6558  0.7034 -1.4446
 5157SOL     OW27103   1.547   3.131  17.649 -0.2384 -0.2114 -0.8752
 5157SOL    HW127104   1.460   3.100  17.675  0.3290  0.1993  1.5340
 5157SOL    HW227105   1.567   3.197  17.715  0.3570 -0.0707 -1.2029
 5158SOL     OW27106   4.210   0.236  15.425 -0.0494 -0.0619 -0.3556
 5158SOL    HW127107   4.128   0.193  15.401  0.7619  0.3600 -3.8593
 5158SOL    HW227108   4.277   0.183  15.381  1.0996  0.6007  0.5659
 5159SOL     OW27109   2.641   3.603   8.732 -0.5368  0.4658 -0.3355
 5159SOL    HW127110   2.628   3.519   8.687 -0.3681  0.2350  0.0401
 5159SOL    HW227111   2.735   3.612   8.717 -0.4376  0.1982  0.1186
 5160SOL     OW27112   1.063   4.213   6.254 -0.7467  0.0606 -0.1399
 5160SOL    HW127113   1.079   4.303   6.224  2.0484 -0.6950 -0.8929
 5160SOL    HW227114   0.978   4.229   6.295  0.1850  2.4940  0.8415
 5161SOL     OW27115   2.766   2.945  12.957 -0.4716 -0.5557 -0.1821
 5161SOL    HW127116   2.732   3.018  13.009  2.2461 -1.3049  2.6556
 5161SOL    HW227117   2.734   2.983  12.876  2.9593  3.2881  0.2272
 5162SOL     OW27118   2.311   1.310   9.410 -0.2987  0.9948  0.5404
 5162SOL    HW127119   2.346   1.262   9.485  3.9678 -0.1259 -2.1774
 5162SOL    HW227120   2.385   1.360   9.376  0.2253  2.0504  3.2786
 5163SOL     OW27121   0.439   2.283  17.035  0.2598  0.1076 -0.0813
 5163SOL    HW127122   0.355   2.274  16.990  0.5560 -0.7878 -0.4645
 5163SOL    HW227123   0.432   2.341  17.110  1.0749 -2.4378  1.9408
 5164SOL     OW27124   2.686   2.855  10.767 -0.0061  0.4837  0.0650
 5164SOL    HW127125   2.639   2.929  10.730 -2.0331  0.6540  2.9620
 5164SOL    HW227126   2.627   2.811  10.828 -0.6585  0.8524 -0.3131
 5165SOL     OW27127   2.010   0.795   8.041 -0.1161  0.1612 -0.2460
 5165SOL    HW127128   2.023   0.827   7.952 -0.7571  0.3944 -0.2559
 5165SOL    HW227129   2.069   0.721   8.030  1.5697  1.6929 -1.5707
 5166SOL     OW27130   1.523   0.625   2.132 -0.1611 -0.0228 -0.8542
 5166SOL    HW127131   1.467   0.602   2.058  1.0420  1.5520 -2.2668
 5166SOL    HW227132   1.555   0.711   2.103  1.6082 -0.2966  0.3035
 5167SOL     OW27133   4.472   2.081  14.009 -0.3716  0.7877  0.3589
 5167SOL    HW127134   4.462   2.091  13.914 -0.3321 -0.6516  0.2002
 5167SOL    HW227135   4.383   2.088  14.043 -0.4251  1.0774  0.1592
 5168SOL     OW27136   0.723   0.906   2.875  0.1341  0.0278 -0.1473
 5168SOL    HW127137   0.741   0.887   2.783 -0.0681  0.2147 -0.2247
 5168SOL    HW227138   0.643   0.959   2.870  1.0110  1.4419  0.7114
 5169SOL     OW27139   2.721   2.754   3.431 -0.5252  0.1741  0.3789
 5169SOL    HW127140   2.774   2.832   3.450  2.2491 -0.6075 -4.0650
 5169SOL    HW227141   2.788   2.695   3.396 -1.8787 -0.9378 -0.3184
 5170SOL     OW27142   3.231   1.550   1.463 -0.6612 -0.2025 -0.1427
 5170SOL    HW127143   3.256   1.574   1.553  0.4939 -0.0864 -0.4976
 5170SOL    HW227144   3.316   1.561   1.420  0.4254 -0.4642  1.8855
 5171SOL     OW27145   3.289   0.824   8.938  0.0000 -0.2908 -0.1485
 5171SOL    HW127146   3.341   0.880   8.996 -1.1252 -0.1250  0.6859
 5171SOL    HW227147   3.233   0.886   8.891  0.4011  0.3807  0.2463
 5172SOL     OW27148   1.299   0.185  12.582  0.5428  0.0001 -0.1453
 5172SOL    HW127149   1.215   0.198  12.538 -1.0052  0.5416  2.9772
 5172SOL    HW227150   1.357   0.238  12.528  0.6925 -1.7109 -1.6764
 5173SOL     OW27151   1.931   1.809   2.592 -0.2023 -0.1573 -0.2652
 5173SOL    HW127152   1.849   1.767   2.618 -1.3907  1.8559 -0.7943
 5173SOL    HW227153   1.995   1.738   2.587  0.5009  0.2345  3.5514
 5174SOL     OW27154   2.205   3.202  11.652  0.3258 -0.7379 -0.5375
 5174SOL    HW127155   2.294   3.223  11.622 -0.4300 -0.4200 -2.5994
 5174SOL    HW227156   2.213   3.157  11.736 -0.2414 -1.2174 -0.7436
 5175SOL     OW27157   0.480   1.255  12.671 -0.3004  0.6969  0.2125
 5175SOL    HW127158   0.453   1.200  12.597 -2.6358  1.6135  0.4004
 5175SOL    HW227159   0.394   1.280  12.704 -0.2693  0.6561  0.3260
 5176SOL     OW27160   0.306   2.505   8.439 -0.2720 -0.4613 -0.7967
 5176SOL    HW127161   0.273   2.507   8.349  1.6675 -1.2615 -1.5256
 5176SOL    HW227162   0.225   2.463   8.469 -0.8221  0.0775 -1.5055
 5177SOL     OW27163   3.364   4.513  11.409 -0.2559 -0.3842  0.1855
 5177SOL    HW127164   3.457   4.497  11.391  0.3463 -0.2979  3.1650
 5177SOL    HW227165   3.357   4.511  11.504  1.9783 -0.7727  0.3538
 5178SOL     OW27166   3.306   0.668   4.294 -0.7069 -0.4393 -0.1761
 5178SOL    HW127167   3.283   0.584   4.253 -1.2822 -0.2141 -0.3093
 5178SOL    HW227168   3.300   0.722   4.215 -1.9038  0.6266  0.6500
 5179SOL     OW27169   2.396   2.025   4.357  0.1384  0.0244  0.3744
 5179SOL    HW127170   2.464   1.990   4.414  1.2540  1.6001  0.0403
 5179SOL    HW227171   2.377   2.109   4.399  0.3006  0.4905 -0.4622
 5180SOL     OW27172   1.475   3.426   0.740 -0.5253 -0.1631  0.2255
 5180SOL    HW127173   1.495   3.419   0.833 -0.6307 -2.7171  0.0632
 5180SOL    HW227174   1.447   3.336   0.719  1.7996 -1.0181  0.8649
 5181SOL     OW27175   1.271   0.701   0.889 -0.3737 -0.3431  0.6655
 5181SOL    HW127176   1.361   0.692   0.922 -0.8912 -1.5350  1.7541
 5181SOL    HW227177   1.256   0.611   0.862 -2.4006  0.4666 -0.8937
 5182SOL     OW27178   3.246   1.260   5.984  0.0870  0.3230  0.3459
 5182SOL    HW127179   3.272   1.351   5.975 -0.2485  0.5471  1.6128
 5182SOL    HW227180   3.320   1.225   6.034 -0.1851  0.9174  1.1565
 5183SOL     OW27181   3.182   0.208  15.546 -0.2031  0.1999 -0.6838
 5183SOL    HW127182   3.259   0.261  15.526 -0.3320  1.1016  1.1797
 5183SOL    HW227183   3.176   0.209  15.642  0.9238 -1.3335 -0.6026
 5184SOL     OW27184   3.063   3.336   2.231  0.4457  0.6649  0.0032
 5184SOL    HW127185   3.132   3.329   2.297 -1.1291  0.5765  1.6220
 5184SOL    HW227186   3.107   3.297   2.155 -1.9600 -1.5182 -0.2342
 5185SOL     OW27187   2.296   4.529   4.702  0.1737  0.0209  0.2731
 5185SOL    HW127188   2.307   4.572   4.618  0.5358 -0.2476  0.1862
 5185SOL    HW227189   2.226   4.584   4.738 -0.2002  0.1966 -0.7368
 5186SOL     OW27190   1.703   0.623   1.151  0.0854 -0.5951 -0.0617
 5186SOL    HW127191   1.740   0.702   1.189  0.1335 -0.3396 -0.6455
 5186SOL    HW227192   1.627   0.603   1.206 -0.9491  0.0957 -1.2354
 5187SOL     OW27193   2.059   3.007  14.095 -0.6133 -0.0910 -0.1664
 5187SOL    HW127194   2.095   3.057  14.168  3.0656 -0.1734 -1.8915
 5187SOL    HW227195   2.016   2.937  14.144 -0.1194  0.0474  0.4582
 5188SOL     OW27196   3.135   4.137   5.013  0.1769 -0.2952 -0.4321
 5188SOL    HW127197   3.145   4.095   4.928  2.9418 -0.3795 -0.0515
 5188SOL    HW227198   3.201   4.093   5.067 -1.9080 -1.6071  1.0269
 5189SOL     OW27199   3.451   4.476  14.730  0.4701 -0.7211 -0.5562
 5189SOL    HW127200   3.357   4.467  14.749  1.1840 -0.4149  3.0277
 5189SOL    HW227201   3.498   4.456  14.811 -0.9737  2.2943  1.0615
 5190SOL     OW27202   2.677   0.985   8.051 -0.3268  0.0824 -0.0596
 5190SOL    HW127203   2.652   0.994   7.959 -0.7041 -1.3064 -0.0936
 5190SOL    HW227204   2.602   0.933   8.081 -0.2224 -0.7430 -1.2118
 5191SOL     OW27205   3.526   1.625   7.134 -0.1752  0.1066 -0.1084
 5191SOL    HW127206   3.456   1.690   7.132  0.4750  0.7706 -1.3129
 5191SOL    HW227207   3.576   1.646   7.213 -0.5953 -0.2243  0.2441
 5192SOL     OW27208   2.490   0.868   3.413 -0.2488 -0.2392 -0.0417
 5192SOL    HW127209   2.501   0.777   3.384  2.3364 -0.0901  0.4603
 5192SOL    HW227210   2.395   0.872   3.412 -0.3102 -1.7127 -1.1494
 5193SOL     OW27211   1.738   3.845   2.146 -0.1100  0.1233 -0.0240
 5193SOL    HW127212   1.655   3.882   2.115 -0.0450  0.2209 -0.0810
 5193SOL    HW227213   1.766   3.794   2.070  0.8853  3.5278 -1.9539
 5194SOL     OW27214   3.953   2.376   2.001 -0.2592  0.0727  0.1196
 5194SOL    HW127215   3.861   2.402   1.996 -0.8285 -2.1199 -0.8338
 5194SOL    HW227216   3.965   2.381   2.096 -3.1988 -3.4925  0.7048
 5195SOL     OW27217   0.341   3.731   6.468  0.1353 -0.2024 -0.2869
 5195SOL    HW127218   0.320   3.824   6.459  0.4786 -0.0821  0.1815
 5195SOL    HW227219   0.433   3.728   6.442  0.6684  1.5983  1.3884
 5196SOL     OW27220   0.881   1.576  16.236 -0.0151  0.1688 -0.4369
 5196SOL    HW127221   0.834   1.593  16.317  0.6918 -0.3395  0.0857
 5196SOL    HW227222   0.964   1.550  16.277  1.7783 -0.2782 -4.3161
 5197SOL     OW27223   1.339   2.499   3.525 -0.3464  0.0981 -0.0439
 5197SOL    HW127224   1.357   2.484   3.432 -0.1038  2.1966 -0.3505
 5197SOL    HW227225   1.369   2.414   3.555 -0.0330  0.8507  1.7756
 5198SOL     OW27226   3.683   1.099   9.145 -0.3541 -0.3207 -0.1108
 5198SOL    HW127227   3.671   1.121   9.238  1.5114 -2.0722  0.5400
 5198SOL    HW227228   3.763   1.146   9.122  0.0019 -0.9900 -0.2301
 5199SOL     OW27229   0.816   4.439   8.113  0.5309 -0.1478 -0.1493
 5199SOL    HW127230   0.866   4.520   8.121 -0.1397  0.4101 -1.5555
 5199SOL    HW227231   0.756   4.472   8.047  1.1422 -1.4980 -1.3931
 5200SOL     OW27232   4.674   2.789   2.904 -0.1258  0.0626 -0.5024
 5200SOL    HW127233   4.712   2.864   2.858 -0.1095  1.0885  1.2055
 5200SOL    HW227234   4.580   2.808   2.901  0.3965  2.5323 -2.1640
 5201SOL     OW27235   0.337   3.103  15.208 -0.6351  0.0612  0.2039
 5201SOL    HW127236   0.325   3.187  15.253  0.9289 -0.2679  1.2172
 5201SOL    HW227237   0.246   3.074  15.203 -0.5944 -0.1660  0.7850
 5202SOL     OW27238   3.481   2.897  10.041 -0.5685 -0.7546 -0.5822
 5202SOL    HW127239   3.385   2.900  10.034 -0.6292  0.1358  0.6457
 5202SOL    HW227240   3.492   2.812  10.084 -0.5154  0.7504  2.3677
 5203SOL     OW27241   1.763   4.614  16.303  0.0287  0.1458  0.2018
 5203SOL    HW127242   1.694   4.548  16.319  1.5940 -2.8987 -5.4150
 5203SOL    HW227243   1.722   4.666  16.234  0.3398  1.9233  1.3851
 5204SOL     OW27244   3.124   2.794   3.569 -0.2217  0.0045 -0.1323
 5204SOL    HW127245   3.188   2.784   3.640  0.1908  1.8155 -0.2423
 5204SOL    HW227246   3.118   2.702   3.544 -3.3490 -0.8233  3.6931
 5205SOL     OW27247   1.028   2.175   6.616  0.6068  0.0459  0.3757
 5205SOL    HW127248   1.097   2.217   6.667  1.5279  0.4548 -1.2096
 5205SOL    HW227249   0.953   2.232   6.636  1.7211  0.4012  3.4287
 5206SOL     OW27250   3.082   0.394   2.558 -0.2096  0.2869  0.0903
 5206SOL    HW127251   2.997   0.433   2.579  0.3838  1.4821  0.2479
 5206SOL    HW227252   3.119   0.466   2.507  0.6433 -0.4207 -0.3000
 5207SOL     OW27253   1.705   3.811   8.785  0.3805 -0.0028  0.2273
 5207SOL    HW127254   1.685   3.759   8.707 -1.2666 -0.2606  0.8226
 5207SOL    HW227255   1.738   3.738   8.838 -0.2389  0.2880  0.9983
 5208SOL     OW27256   0.586   4.120   3.000 -0.4267 -0.6021  0.0084
 5208SOL    HW127257   0.587   4.054   2.931 -0.1553 -0.2765 -0.2978
 5208SOL    HW227258   0.527   4.192   2.977 -1.6641 -1.1703  1.3978
 5209SOL     OW27259   0.036   2.654  11.817  0.1445  0.2621 -1.0507
 5209SOL    HW127260   0.082   2.668  11.900 -0.3020 -0.6256 -0.6554
 5209SOL    HW227261   0.110   2.629  11.762  0.0761  2.0900 -1.9784
 5210SOL     OW27262   3.367   1.863   0.639  0.3290  0.0555 -0.2957
 5210SOL    HW127263   3.413   1.832   0.562 -2.8183 -0.7230 -1.8867
 5210SOL    HW227264   3.377   1.796   0.706 -2.3346  0.4822  0.5575
 5211SOL     OW27265   2.160   0.211   4.274 -0.2166 -0.6199 -0.2577
 5211SOL    HW127266   2.194   0.300   4.262  1.9782 -1.3821  0.3300
 5211SOL    HW227267   2.148   0.193   4.367  1.8286  1.3172  0.3576
 5212SOL     OW27268   3.306   0.619   9.877 -0.4951  0.1577 -0.6425
 5212SOL    HW127269   3.398   0.641   9.891 -0.2501  0.3803 -2.6560
 5212SOL    HW227270   3.262   0.702   9.863 -0.0527  0.7971  1.8836
 5213SOL     OW27271   2.679   3.427  10.985 -0.1153  0.0456 -0.8337
 5213SOL    HW127272   2.703   3.512  10.948 -1.8571  0.8735 -0.0504
 5213SOL    HW227273   2.593   3.448  11.021  0.4887  1.2962 -0.1127
 5214SOL     OW27274   3.737   4.161   3.058  0.0899  0.2982  0.0216
 5214SOL    HW127275   3.780   4.231   3.108  1.2022  0.2959 -0.9314
 5214SOL    HW227276   3.723   4.213   2.979  0.1821 -0.4710 -0.5032
 5215SOL     OW27277   4.032   2.893   0.989  0.1392  0.4346 -0.3315
 5215SOL    HW127278   3.948   2.915   1.029  1.6511  1.0318  2.6000
 5215SOL    HW227279   4.013   2.913   0.898 -1.4006  0.6016  0.0359
 5216SOL     OW27280   1.803   3.583   8.927  0.2772  0.2432 -0.5268
 5216SOL    HW127281   1.807   3.520   8.999  0.6483 -1.5177 -2.0843
 5216SOL    HW227282   1.770   3.526   8.858  0.2911 -0.9672  0.4535
 5217SOL     OW27283   3.917   3.966   9.662 -0.2750  0.4912 -0.2529
 5217SOL    HW127284   4.011   3.951   9.674 -0.0945  0.4275 -1.7058
 5217SOL    HW227285   3.905   4.057   9.635  2.2750  0.8540 -0.1875
 5218SOL     OW27286   2.078   2.176   5.554  0.1105  0.1478  0.1068
 5218SOL    HW127287   2.088   2.107   5.620  0.6672  0.6659  0.5646
 5218SOL    HW227288   2.002   2.156   5.499  0.4449 -1.3311  0.1630
 5219SOL     OW27289   1.265   3.790   6.435  0.0351  0.2141  0.0191
 5219SOL    HW127290   1.323   3.732   6.386  1.6506  1.6264  0.2627
 5219SOL    HW227291   1.261   3.863   6.374 -0.5569 -0.5799 -0.8910
 5220SOL     OW27292   3.723   1.805   0.608  0.2228  0.5406 -0.5332
 5220SOL    HW127293   3.684   1.813   0.522 -0.8267 -1.1493 -0.2176
 5220SOL    HW227294   3.816   1.786   0.590  0.0422 -0.9418  0.0191
 5221SOL     OW27295   0.158   0.650  10.570 -0.2187 -0.4982  0.2977
 5221SOL    HW127296   0.126   0.671  10.658  0.4134  1.1779  0.1249
 5221SOL    HW227297   0.089   0.689  10.517 -0.5044 -0.5683  0.6209
 5222SOL     OW27298   0.356   2.959   8.738 -0.1440 -0.2528 -0.3830
 5222SOL    HW127299   0.277   3.012   8.746  1.2306  1.5806  1.0132
 5222SOL    HW227300   0.324   2.874   8.709  0.0417 -0.5805  0.3756
 5223SOL     OW27301   2.567   2.060   9.674 -0.2188  0.5399  0.4494
 5223SOL    HW127302   2.574   2.082   9.581 -0.3486  0.4216  0.4121
 5223SOL    HW227303   2.660   2.073   9.695 -0.0961 -1.4556  1.1392
 5224SOL     OW27304   3.119   2.155  10.387  0.1044 -0.0457  0.1602
 5224SOL    HW127305   3.185   2.106  10.437 -1.1342 -0.3905  1.4660
 5224SOL    HW227306   3.114   2.096  10.312 -1.0736  0.4341 -0.1308
 5225SOL     OW27307   1.623   1.759   7.745  0.1805 -0.8159 -0.5349
 5225SOL    HW127308   1.622   1.834   7.685 -0.7722  0.4230  1.0079
 5225SOL    HW227309   1.703   1.715   7.717  0.4411  1.4028 -3.2248
 5226SOL     OW27310   0.740   2.252  11.561 -0.4598 -0.1907  0.0323
 5226SOL    HW127311   0.716   2.314  11.492 -1.2039 -0.8748 -0.3158
 5226SOL    HW227312   0.764   2.311  11.633  0.6666  2.3508 -2.4561
 5227SOL     OW27313   2.246   2.127   4.956 -0.2796  0.4040 -0.2399
 5227SOL    HW127314   2.179   2.164   5.013  0.6176 -1.3516  1.9118
 5227SOL    HW227315   2.236   2.191   4.885  0.0846  1.3661  0.5711
 5228SOL     OW27316   0.886   0.111   7.870  0.3199 -0.5462  0.6389
 5228SOL    HW127317   0.885   0.107   7.965  0.9583 -1.2610  0.6158
 5228SOL    HW227318   0.791   0.119   7.864  0.3029 -0.4615  1.0305
 5229SOL     OW27319   4.054   3.027   6.859 -0.0489 -0.3903  0.2357
 5229SOL    HW127320   4.061   3.090   6.931 -0.7594 -1.5094  1.2941
 5229SOL    HW227321   4.145   3.035   6.831  0.4306  0.2279  1.9373
 5230SOL     OW27322   2.900   3.229  10.283 -0.1867 -0.6785 -0.0504
 5230SOL    HW127323   2.853   3.156  10.243  0.8202 -1.3751  0.0198
 5230SOL    HW227324   2.898   3.284  10.205 -0.6011 -1.0027 -0.2711
 5231SOL     OW27325   4.067   2.078   5.499 -0.0431 -0.0318  0.5343
 5231SOL    HW127326   4.051   1.987   5.523 -1.9027  0.7262  2.1514
 5231SOL    HW227327   4.108   2.116   5.576  0.8293 -1.1161  0.6127
 5232SOL     OW27328   1.885   2.086  15.290 -0.5847  0.0054  0.3477
 5232SOL    HW127329   1.838   2.008  15.260  1.0609 -0.1372 -1.8904
 5232SOL    HW227330   1.835   2.106  15.369 -2.5551  1.5203 -1.2920
 5233SOL     OW27331   0.690   3.554  10.929 -0.1987  0.2696  0.1616
 5233SOL    HW127332   0.749   3.586  10.997 -1.1083  1.2342  0.4871
 5233SOL    HW227333   0.719   3.597  10.848  1.9201 -1.1810  0.1423
 5234SOL     OW27334   3.098   4.057   4.402  0.2203  0.7756 -0.1887
 5234SOL    HW127335   3.088   4.043   4.496 -1.0950  0.5800 -0.3629
 5234SOL    HW227336   3.009   4.083   4.379  0.4563  0.0900 -1.8899
 5235SOL     OW27337   0.718   0.478   4.556 -0.5162 -0.1689 -0.3510
 5235SOL    HW127338   0.716   0.428   4.474 -1.4739  0.6828 -0.8386
 5235SOL    HW227339   0.801   0.517   4.528 -0.2954 -0.5639 -0.2443
 5236SOL     OW27340   4.616   2.238  15.280  0.2407  0.1928 -0.1853
 5236SOL    HW127341   4.573   2.248  15.196  1.1385  1.6155 -0.4735
 5236SOL    HW227342   4.600   2.323  15.322 -0.5091  0.1463 -0.3810
 5237SOL     OW27343   0.572   4.200   8.539 -0.1261  0.1022 -0.0838
 5237SOL    HW127344   0.564   4.291   8.567 -0.2588 -0.2696  1.1076
 5237SOL    HW227345   0.492   4.196   8.487 -0.6117 -1.7760  0.7825
 5238SOL     OW27346   1.039   0.184   5.802 -0.4391 -0.3693 -0.1436
 5238SOL    HW127347   1.123   0.185   5.757  0.0732 -0.3505  0.8189
 5238SOL    HW227348   1.043   0.095   5.839  2.8361 -0.0870  0.1862
 5239SOL     OW27349   0.279   1.314   4.391 -0.2942  0.1410 -0.5903
 5239SOL    HW127350   0.363   1.271   4.407 -1.7487 -2.1703  0.7383
 5239SOL    HW227351   0.303   1.401   4.423  0.2349 -0.7359  1.3826
 5240SOL     OW27352   4.469   4.327  13.752 -0.2277  0.2263 -0.0599
 5240SOL    HW127353   4.539   4.350  13.691 -0.4172  0.6869 -0.1025
 5240SOL    HW227354   4.515   4.262  13.805 -0.5449 -0.4957 -0.6835
 5241SOL     OW27355   4.689   3.233   7.579  0.1707 -0.7887  0.5483
 5241SOL    HW127356   4.705   3.229   7.485  1.2038  0.1332  0.6816
 5241SOL    HW227357   0.047   3.222   7.602  0.6645 -0.4232 -1.2516
 5242SOL     OW27358   4.661   0.972  15.166 -0.1384  0.1597 -0.3631
 5242SOL    HW127359   4.629   1.039  15.105 -0.6420  0.3471  0.1080
 5242SOL    HW227360   0.022   0.970  15.152  0.3495  0.8730  2.8798
 5243SOL     OW27361   3.918   1.906   1.862 -0.2185  0.0705  0.2464
 5243SOL    HW127362   3.950   1.903   1.952 -1.0063  0.3213  0.5324
 5243SOL    HW227363   3.955   1.824   1.829  0.0349 -0.2740  1.4001
 5244SOL     OW27364   0.706   4.693   4.601 -0.3273 -0.2058  0.1319
 5244SOL    HW127365   0.757   0.030   4.640 -2.3059  1.6695 -0.7242
 5244SOL    HW227366   0.658   4.663   4.679 -1.6791  1.6389 -0.0045
 5245SOL     OW27367   2.442   4.563   8.646 -0.0523 -0.3428  0.1204
 5245SOL    HW127368   2.432   4.469   8.637 -0.0099 -0.2411 -1.0627
 5245SOL    HW227369   2.528   4.557   8.688 -0.1962  2.3728  0.8223
 5246SOL     OW27370   2.234   2.329   9.047 -0.0116  0.2800 -0.1375
 5246SOL    HW127371   2.260   2.417   9.020  0.8502  0.8563  2.6886
 5246SOL    HW227372   2.235   2.332   9.142 -1.5488 -0.6351 -0.0950
 5247SOL     OW27373   0.298   0.248   4.395  0.0458  0.4278 -0.6127
 5247SOL    HW127374   0.332   0.174   4.445 -1.4994 -0.0253 -0.2373
 5247SOL    HW227375   0.353   0.323   4.417 -2.5334  0.9168  4.0387
 5248SOL     OW27376   0.498   1.674   3.414  0.7071 -0.1623  0.1405
 5248SOL    HW127377   0.442   1.604   3.448 -1.7417  1.0005 -1.5401
 5248SOL    HW227378   0.585   1.656   3.450  0.0341 -1.4940  1.1064
 5249SOL     OW27379   1.083   2.969   5.254  0.2898 -0.6459 -0.2783
 5249SOL    HW127380   1.037   3.002   5.331  1.0006  1.2216 -0.6560
 5249SOL    HW227381   1.046   3.021   5.182  0.3514  1.2256  1.0303
 5250SOL     OW27382   3.038   1.736   8.761  0.0933 -0.0180  0.7670
 5250SOL    HW127383   3.023   1.644   8.737  0.4960  0.9171 -3.1594
 5250SOL    HW227384   3.122   1.722   8.804  0.1951  1.4175  1.0379
 5251SOL     OW27385   0.723   1.364   3.881  0.0231 -0.6695  0.0040
 5251SOL    HW127386   0.722   1.414   3.962 -0.6499  3.2344 -2.4013
 5251SOL    HW227387   0.640   1.316   3.876 -1.1500  1.1274  2.5956
 5252SOL     OW27388   2.055   1.794   1.718  0.6008 -0.1559 -0.0603
 5252SOL    HW127389   2.022   1.723   1.772  0.9144  0.5074  0.9958
 5252SOL    HW227390   2.125   1.736   1.690  0.5058 -1.1146  1.7379
 5253SOL     OW27391   4.114   4.135   4.657  0.5039  0.5406  0.0933
 5253SOL    HW127392   4.046   4.202   4.652  2.3288  2.3806 -0.2265
 5253SOL    HW227393   4.160   4.132   4.573  0.8510 -0.3459  0.3215
 5254SOL     OW27394   0.675   3.466   8.928  0.4803  0.2321  0.6059
 5254SOL    HW127395   0.716   3.421   9.002  0.4155 -0.0810  0.4479
 5254SOL    HW227396   0.660   3.397   8.864  1.7695 -0.1254  0.6951
 5255SOL     OW27397   4.384   3.878   2.865 -0.1078 -0.1232 -0.5533
 5255SOL    HW127398   4.305   3.931   2.855 -0.0583 -0.3155 -1.9155
 5255SOL    HW227399   4.441   3.917   2.799 -1.1454 -1.3749 -2.1622
 5256SOL     OW27400   0.563   0.359   5.505 -0.0138  0.0392  0.2676
 5256SOL    HW127401   0.474   0.365   5.471 -0.1432  1.7570  0.9069
 5256SOL    HW227402   0.603   0.310   5.433  1.5398  0.6514  0.7213
 5257SOL     OW27403   3.616   3.632   2.358  0.0779 -0.4600 -0.1146
 5257SOL    HW127404   3.695   3.662   2.403  0.1610 -0.0055 -0.5621
 5257SOL    HW227405   3.650   3.573   2.291  1.2218  1.2146 -1.0103
 5258SOL     OW27406   3.314   1.946   5.145  0.2865  0.4177  0.1626
 5258SOL    HW127407   3.237   1.963   5.090  2.4002  1.7097 -2.3676
 5258SOL    HW227408   3.387   1.959   5.086  0.1279  0.1509 -0.0888
 5259SOL     OW27409   4.663   0.042   4.797  0.4110 -0.0688 -0.3041
 5259SOL    HW127410   4.636   0.042   4.889 -0.3809  1.2862 -0.5388
 5259SOL    HW227411   4.656   0.137   4.785  0.5244  0.3821  3.1551
 5260SOL     OW27412   2.181   0.959   9.827 -0.1997 -0.9385  0.1077
 5260SOL    HW127413   2.140   0.935   9.744  1.5853  0.8037 -1.2807
 5260SOL    HW227414   2.096   0.975   9.867  0.2684  2.0620 -0.0954
 5261SOL     OW27415   0.614   3.478  14.536  0.5471  0.0489 -0.0664
 5261SOL    HW127416   0.660   3.399  14.507 -0.1159 -0.4973  0.3653
 5261SOL    HW227417   0.687   3.523  14.578  0.4694  0.4607 -0.3678
 5262SOL     OW27418   4.465   1.703   5.656 -0.2085  0.0252 -0.1160
 5262SOL    HW127419   4.414   1.732   5.731 -3.0119 -1.4716 -1.4790
 5262SOL    HW227420   4.434   1.758   5.585  1.2904 -0.8497 -1.4649
 5263SOL     OW27421   2.045   2.618  15.833  0.4514 -0.0720 -0.3480
 5263SOL    HW127422   2.139   2.602  15.842  0.4699  0.2524  0.0055
 5263SOL    HW227423   2.035   2.697  15.885  0.3438 -1.2117  1.3703
 5264SOL     OW27424   2.787   0.323   0.664 -0.3384 -0.3893 -0.3110
 5264SOL    HW127425   2.751   0.241   0.633 -0.9514  0.0262 -0.6893
 5264SOL    HW227426   2.856   0.321   0.598 -0.4071  1.6041 -0.4652
 5265SOL     OW27427   3.047   3.282   4.001 -0.4556  0.0576 -0.6219
 5265SOL    HW127428   2.995   3.202   4.004  2.3354 -1.7439 -0.7532
 5265SOL    HW227429   3.000   3.346   4.056  0.4066 -0.0988  0.3085
 5266SOL     OW27430   4.332   1.770   3.310 -0.4086  0.4590 -0.0908
 5266SOL    HW127431   4.361   1.751   3.399 -2.5968 -1.3125  0.2301
 5266SOL    HW227432   4.252   1.819   3.329  0.6457  1.7903  0.8824
 5267SOL     OW27433   3.747   4.107   4.180 -0.5709  0.0347 -0.0989
 5267SOL    HW127434   3.717   4.184   4.131 -0.0091  0.1891 -0.2055
 5267SOL    HW227435   3.701   4.037   4.133 -2.1310  0.9061  0.1312
 5268SOL     OW27436   2.980   3.740  10.697  0.0345  0.0895 -0.3493
 5268SOL    HW127437   3.004   3.680  10.767  1.2626 -1.5053 -2.1284
 5268SOL    HW227438   2.912   3.693  10.648 -2.1447  0.1027  2.6650
 5269SOL     OW27439   2.386   4.680   6.958 -0.1530 -0.4646  0.2275
 5269SOL    HW127440   2.320   4.622   6.921  0.1366  0.3306 -1.5788
 5269SOL    HW227441   2.442   4.700   6.882 -0.1727 -0.5675  0.1861
 5270SOL     OW27442   4.635   1.828   7.981  0.5356 -0.4936  0.4492
 5270SOL    HW127443   4.561   1.857   8.033  0.2148  1.9454 -1.3398
 5270SOL    HW227444   4.588   1.757   7.937 -0.7196 -0.5744  1.9424
 5271SOL     OW27445   1.957   2.604  16.213  0.0422  0.4032 -1.2162
 5271SOL    HW127446   1.967   2.694  16.182  0.4107  0.0506 -2.1459
 5271SOL    HW227447   2.019   2.554  16.158  0.7746  0.0748 -0.0916
 5272SOL     OW27448   4.082   3.011   2.265 -1.0985  0.2049  0.5554
 5272SOL    HW127449   4.088   3.057   2.181  0.7234  1.3325  1.3164
 5272SOL    HW227450   4.029   2.933   2.246  0.4524 -0.0610 -2.6539
 5273SOL     OW27451   3.072   2.379   4.412  0.6962 -0.6618  0.0774
 5273SOL    HW127452   3.001   2.330   4.454  0.4957  0.3257  0.8856
 5273SOL    HW227453   3.034   2.405   4.328 -0.3820 -0.6034  0.5739
 5274SOL     OW27454   4.652   0.997   1.460  0.4003  0.1988  0.5696
 5274SOL    HW127455   4.567   0.959   1.483 -0.8044  1.2504 -2.1791
 5274SOL    HW227456   4.713   0.927   1.435  0.0397 -0.5320  1.7185
 5275SOL     OW27457   0.207   1.371  14.017  0.2789  0.3276 -0.4472
 5275SOL    HW127458   0.272   1.429  14.057 -1.1834  2.5789 -1.3535
 5275SOL    HW227459   0.242   1.287  14.047 -0.8795  0.0380  0.1150
 5276SOL     OW27460   4.102   4.169  14.789  0.3556  0.4155 -0.2233
 5276SOL    HW127461   4.015   4.204  14.769  0.7544  0.6921 -1.5056
 5276SOL    HW227462   4.095   4.136  14.878 -0.1258  1.2044  0.0364
 5277SOL     OW27463   0.778   1.903   2.084  0.1823  0.1615  0.3065
 5277SOL    HW127464   0.765   1.998   2.090  3.6822  0.7247 -0.6531
 5277SOL    HW227465   0.758   1.892   1.991 -0.1588  0.4836  0.3414
 5278SOL     OW27466   1.889   3.220   2.855  0.7400  0.3028  0.2972
 5278SOL    HW127467   1.958   3.236   2.920  0.2059  0.9936  0.6969
 5278SOL    HW227468   1.871   3.128   2.874 -0.2081  0.2942 -0.6613
 5279SOL     OW27469   2.301   3.244  17.411  0.8030 -0.1189 -0.2647
 5279SOL    HW127470   2.289   3.260  17.505 -0.8958  2.1268 -0.8792
 5279SOL    HW227471   2.394   3.223  17.425  0.1170 -0.3153  4.0612
 5280SOL     OW27472   4.167   1.820   3.793 -0.4709  0.3966 -0.0114
 5280SOL    HW127473   4.094   1.877   3.770 -0.1031  0.0515 -2.0759
 5280SOL    HW227474   4.123   1.774   3.865  0.5380  0.9908  0.9868
 5281SOL     OW27475   3.245   2.590   1.486 -0.1369  0.0364  0.7750
 5281SOL    HW127476   3.305   2.654   1.524  1.4618  0.8268 -3.1558
 5281SOL    HW227477   3.182   2.586   1.559 -0.9961 -0.1012  0.0330
 5282SOL     OW27478   0.655   1.097  14.450 -0.0145  0.0209  0.3056
 5282SOL    HW127479   0.628   1.012  14.483 -0.2603  0.6124  1.6212
 5282SOL    HW227480   0.664   1.148  14.530  1.1510  0.5327 -0.1391
 5283SOL     OW27481   0.290   4.021  13.592  0.2945  0.6120  0.5302
 5283SOL    HW127482   0.269   4.013  13.499  2.0179 -0.8477  0.2649
 5283SOL    HW227483   0.378   3.983  13.593  0.6725  1.4804 -0.3949
 5284SOL     OW27484   0.897   0.410   7.133  0.3750  0.0385 -0.2915
 5284SOL    HW127485   0.937   0.408   7.046  0.7033 -2.0104 -0.0766
 5284SOL    HW227486   0.946   0.489   7.156 -0.6760  0.7867 -0.6088
 5285SOL     OW27487   1.015   0.514   0.425  0.0166  0.2499 -0.2767
 5285SOL    HW127488   1.057   0.561   0.496 -0.4729  0.5070 -0.1566
 5285SOL    HW227489   0.930   0.513   0.470 -0.0474  0.1859 -0.3982
 5286SOL     OW27490   1.921   1.098   9.269  0.1526  0.2731 -0.1767
 5286SOL    HW127491   1.835   1.136   9.290  0.1199  0.6616 -0.9994
 5286SOL    HW227492   1.979   1.153   9.321  0.2849 -0.9113  0.9097
 5287SOL     OW27493   4.533   1.292   4.110  0.2482 -0.3113  0.2239
 5287SOL    HW127494   4.579   1.343   4.043 -1.4869  0.5281 -0.3407
 5287SOL    HW227495   4.450   1.276   4.066  1.6493 -1.1398 -2.1358
 5288SOL     OW27496   2.059   3.019   2.055  0.5981  0.0251  0.0362
 5288SOL    HW127497   2.042   3.094   1.997  1.7830  1.4835  1.5813
 5288SOL    HW227498   2.073   3.060   2.141  1.2787 -0.7257  0.2780
 5289SOL     OW27499   3.799   2.819  11.082  0.1663  0.1752 -0.3797
 5289SOL    HW127500   3.706   2.841  11.088  0.3983  1.4276 -1.3061
 5289SOL    HW227501   3.798   2.746  11.144  1.5623  0.2539 -0.2665
 5290SOL     OW27502   1.189   4.087   6.549  0.2542  0.6956 -0.0719
 5290SOL    HW127503   1.229   4.096   6.463  0.7100  0.4146  0.1082
 5290SOL    HW227504   1.123   4.020   6.528 -0.2238  0.6802  1.4495
 5291SOL     OW27505   2.149   1.840   6.358 -0.0668 -0.3016  0.4100
 5291SOL    HW127506   2.072   1.800   6.399 -0.5140 -2.1026 -2.2319
 5291SOL    HW227507   2.114   1.858   6.271 -1.6706  0.9112  1.3084
 5292SOL     OW27508   2.333   4.733   8.902 -0.0276  0.4133 -0.4265
 5292SOL    HW127509   2.284   0.042   8.832 -1.2089  1.5512  1.1055
 5292SOL    HW227510   2.269   4.665   8.921 -0.4641  1.0429  0.3502
 5293SOL     OW27511   1.320   2.503   5.124 -0.1603  0.0403 -0.1631
 5293SOL    HW127512   1.290   2.485   5.214 -1.8445  1.1137 -0.5179
 5293SOL    HW227513   1.375   2.580   5.139 -3.4034  2.0631  1.3293
 5294SOL     OW27514   4.536   0.558   9.249  0.0551 -0.0463  0.1349
 5294SOL    HW127515   4.479   0.531   9.321 -1.5224  0.4280 -0.9247
 5294SOL    HW227516   4.620   0.548   9.295  0.0495  1.6102  0.5051
 5295SOL     OW27517   2.323   2.970   3.256  0.3074  0.0460  0.3182
 5295SOL    HW127518   2.284   2.901   3.203 -2.7618  0.0410  2.5311
 5295SOL    HW227519   2.325   3.041   3.191  2.1243 -0.5457 -0.2497
 5296SOL     OW27520   3.635   0.471  16.992  0.0596 -0.1873  0.7663
 5296SOL    HW127521   3.724   0.474  17.028  0.1091 -1.3110  0.7488
 5296SOL    HW227522   3.587   0.405  17.042  0.5943 -0.2458  1.2072
 5297SOL     OW27523   0.021   2.426   2.512  0.3828 -0.2909 -0.2930
 5297SOL    HW127524   4.710   2.422   2.597 -1.5684  0.7212 -1.2809
 5297SOL    HW227525   0.092   2.365   2.532  1.4196  0.9262 -0.2557
 5298SOL     OW27526   1.578   2.564  15.561 -0.1347 -0.0638  0.4098
 5298SOL    HW127527   1.536   2.650  15.557 -0.0029 -0.0839 -1.4009
 5298SOL    HW227528   1.668   2.596  15.567 -0.6862  2.1392 -3.0804
 5299SOL     OW27529   0.258   4.052   7.906 -0.1204  0.2128 -0.0707
 5299SOL    HW127530   0.176   4.101   7.916 -0.8618 -0.8823 -0.7107
 5299SOL    HW227531   0.258   3.976   7.964  2.6412 -0.2130 -0.6157
 5300SOL     OW27532   1.102   3.049  13.471 -0.3115 -0.5739  0.4341
 5300SOL    HW127533   1.099   3.009  13.558 -2.4040 -0.1577  0.5525
 5300SOL    HW227534   1.178   2.998  13.443 -1.2261 -1.5863 -0.1781
 5301SOL     OW27535   1.323   1.500   8.336 -0.3499 -0.2119  0.2201
 5301SOL    HW127536   1.361   1.534   8.418  2.5921 -0.5377 -1.0310
 5301SOL    HW227537   1.327   1.580   8.283 -2.1055 -2.3595 -3.1112
 5302SOL     OW27538   2.654   0.181   2.490 -0.2769 -0.6945 -0.4236
 5302SOL    HW127539   2.626   0.240   2.420 -1.8341 -0.5724  0.2901
 5302SOL    HW227540   2.664   0.097   2.445  2.1482 -1.7759  2.1443
 5303SOL     OW27541   0.214   4.667   5.628 -0.0965  0.4352 -0.4650
 5303SOL    HW127542   0.302   4.689   5.600 -0.6422  1.3756 -1.4474
 5303SOL    HW227543   0.156   0.008   5.617 -0.5062  0.3473  0.9795
 5304SOL     OW27544   2.677   2.151   6.320 -0.4596 -0.1520  0.3206
 5304SOL    HW127545   2.760   2.108   6.343 -0.2316 -0.8338 -1.8060
 5304SOL    HW227546   2.716   2.226   6.275 -1.0304 -0.0367  0.0306
 5305SOL     OW27547   1.996   2.007   2.751 -0.5165 -0.1342 -0.1972
 5305SOL    HW127548   1.966   1.949   2.680  0.1218 -0.2667 -0.3516
 5305SOL    HW227549   1.968   1.969   2.834  0.0397 -0.3059 -0.0913
 5306SOL     OW27550   1.261   1.453   7.900 -0.2265  0.7264  0.0234
 5306SOL    HW127551   1.265   1.548   7.889 -2.2400  0.7183 -0.7127
 5306SOL    HW227552   1.337   1.437   7.955  1.3407 -1.5490 -2.7840
 5307SOL     OW27553   3.381   2.310   1.081 -0.6263  0.3738 -1.2428
 5307SOL    HW127554   3.455   2.368   1.062  1.0781 -1.7375 -1.0788
 5307SOL    HW227555   3.329   2.321   1.001 -0.7076  1.1760 -1.0736
 5308SOL     OW27556   1.463   4.351   8.685  0.0264 -0.6163  0.6027
 5308SOL    HW127557   1.421   4.290   8.746 -2.4136 -0.1571 -0.6298
 5308SOL    HW227558   1.525   4.387   8.749  0.1898 -0.1242  0.1635
 5309SOL     OW27559   4.344   0.781   7.693  0.1615 -0.6579  0.1363
 5309SOL    HW127560   4.351   0.729   7.773  0.3711 -2.4207 -1.0237
 5309SOL    HW227561   4.435   0.811   7.691 -0.3942  0.8685 -2.4365
 5310SOL     OW27562   3.762   3.227  16.631  0.0560  0.0824 -0.2577
 5310SOL    HW127563   3.774   3.199  16.722 -3.4330 -3.5441 -0.8863
 5310SOL    HW227564   3.667   3.211  16.626  0.3317 -0.9581 -1.9269
 5311SOL     OW27565   3.024   2.295   1.992  0.1038  0.0994  0.1074
 5311SOL    HW127566   3.025   2.210   1.947  0.1911 -0.1114  0.5070
 5311SOL    HW227567   2.937   2.302   2.032  0.0186  0.2808 -0.1097
 5312SOL     OW27568   2.272   4.519   3.456  0.5525  0.0734 -0.3580
 5312SOL    HW127569   2.287   4.431   3.422 -0.6150  0.1489 -1.0710
 5312SOL    HW227570   2.183   4.538   3.426  1.3125  1.1720 -1.9332
 5313SOL     OW27571   3.963   0.049   9.605 -0.0953 -0.0812 -0.4738
 5313SOL    HW127572   3.951   0.136   9.644 -0.5830  0.2367 -1.3149
 5313SOL    HW227573   4.055   0.027   9.620 -0.7347 -1.0859  1.8245
 5314SOL     OW27574   1.566   1.691   3.936 -0.4165 -0.3137 -0.0750
 5314SOL    HW127575   1.533   1.748   3.867 -1.2524 -0.2160  0.4142
 5314SOL    HW227576   1.491   1.662   3.988 -2.0236  0.7806 -1.8159
 5315SOL     OW27577   4.395   1.046  16.612 -0.2150  0.3060  0.0299
 5315SOL    HW127578   4.365   1.056  16.522  0.2760  1.1890 -0.0286
 5315SOL    HW227579   4.465   1.111  16.619  0.2463 -0.2344  0.5217
 5316SOL     OW27580   1.683   2.924   5.536  0.6530 -0.6146 -0.4476
 5316SOL    HW127581   1.591   2.919   5.561  0.5372 -1.3490 -1.0485
 5316SOL    HW227582   1.713   2.989   5.600 -2.2970 -1.5379  1.8366
 5317SOL     OW27583   2.017   1.159   8.214  0.0747  0.4946 -0.5120
 5317SOL    HW127584   2.111   1.142   8.202 -0.0373  0.7570 -1.8109
 5317SOL    HW227585   1.978   1.166   8.127 -0.0849 -1.7575 -0.6253
 5318SOL     OW27586   2.269   3.615   6.220 -0.6028  0.0433 -0.2501
 5318SOL    HW127587   2.186   3.654   6.191 -1.4086 -2.0391 -0.8326
 5318SOL    HW227588   2.247   3.562   6.297  0.9698  0.2607  0.3388
 5319SOL     OW27589   4.306   1.993   1.794 -0.2225  0.0623 -0.1859
 5319SOL    HW127590   4.245   1.923   1.771  1.6171 -1.2113 -1.1025
 5319SOL    HW227591   4.259   2.073   1.772  0.2131  0.1237 -0.8811
 5320SOL     OW27592   0.768   2.909   8.209  0.0275 -0.5063  0.1491
 5320SOL    HW127593   0.840   2.933   8.150 -0.6214  0.7311 -0.1515
 5320SOL    HW227594   0.684   2.919   8.164 -0.4137 -2.1002  0.6337
 5321SOL     OW27595   0.860   2.931   8.791  0.0533  0.6609  0.2769
 5321SOL    HW127596   0.833   2.955   8.880  1.0240 -0.1230  0.7813
 5321SOL    HW227597   0.779   2.893   8.757 -0.3174  1.3580  0.3755
 5322SOL     OW27598   2.235   3.306   2.363  0.1811  1.0182  0.1441
 5322SOL    HW127599   2.295   3.378   2.343  0.6941  0.7479  0.6797
 5322SOL    HW227600   2.258   3.290   2.455  1.2211  1.5668 -0.0184
 5323SOL     OW27601   3.261   4.623   3.834 -0.1072 -0.2086  0.5502
 5323SOL    HW127602   3.232   4.595   3.920 -0.3121 -1.2904  0.1281
 5323SOL    HW227603   3.351   4.590   3.834 -0.2115 -0.5000  0.3403
 5324SOL     OW27604   0.763   0.154   2.673 -0.3961 -0.0501  0.8447
 5324SOL    HW127605   0.748   0.062   2.692 -1.8187  0.1979  0.8869
 5324SOL    HW227606   0.672   0.182   2.666  0.1788  1.1881 -1.9291
 5325SOL     OW27607   0.126   1.711   8.248 -0.3619  0.0656 -0.2961
 5325SOL    HW127608   0.122   1.623   8.210  1.7577  0.0145 -0.4023
 5325SOL    HW227609   0.045   1.707   8.300 -0.5832  0.7351 -0.5879
 5326SOL     OW27610   0.900   0.172   8.373  0.0050  0.6709  0.6201
 5326SOL    HW127611   0.985   0.214   8.355 -0.2130 -1.0769 -4.1826
 5326SOL    HW227612   0.924   0.096   8.426 -0.4279 -0.9299 -1.5030
 5327SOL     OW27613   3.904   1.861  15.397 -0.6701 -0.0903  0.6394
 5327SOL    HW127614   3.829   1.809  15.427 -1.3463  1.0239  0.8704
 5327SOL    HW227615   3.968   1.826  15.459 -0.4067  1.9731  1.5358
 5328SOL     OW27616   0.594   1.200   9.233  0.2959 -0.0593 -0.0215
 5328SOL    HW127617   0.573   1.275   9.178 -1.7870 -0.9605 -0.4263
 5328SOL    HW227618   0.517   1.187   9.288 -0.3520 -1.7351 -1.3161
 5329SOL     OW27619   3.044   2.244   8.914 -0.5053  0.2369  0.0294
 5329SOL    HW127620   3.094   2.162   8.914  0.0542  0.5734  1.0116
 5329SOL    HW227621   3.017   2.263   9.004  0.8117  1.3400  0.2029
 5330SOL     OW27622   0.134   3.262   2.598 -0.3160 -0.2945  0.0146
 5330SOL    HW127623   0.086   3.271   2.680  0.5900  0.6249  0.4362
 5330SOL    HW227624   0.210   3.316   2.618 -0.8493 -0.2972  1.9984
 5331SOL     OW27625   3.034   3.675   1.807 -0.5691 -0.1241  0.3637
 5331SOL    HW127626   3.112   3.621   1.808 -0.5161 -0.0521  0.0326
 5331SOL    HW227627   3.073   3.753   1.768  1.3129 -1.3770 -0.2077
 5332SOL     OW27628   3.120   4.172  14.608 -0.1273  0.5561  0.1375
 5332SOL    HW127629   3.148   4.240  14.669  1.7386 -0.4301  0.3686
 5332SOL    HW227630   3.183   4.187  14.538  1.5392  1.6679  1.8980
 5333SOL     OW27631   3.549   2.274   4.985  0.3064 -0.0621  0.1655
 5333SOL    HW127632   3.561   2.179   4.990  0.1843  0.0105  1.8384
 5333SOL    HW227633   3.615   2.293   5.051  0.9192 -0.8360 -0.2282
 5334SOL     OW27634   1.694   1.404  13.660 -0.9426 -0.3021 -0.3222
 5334SOL    HW127635   1.782   1.384  13.693 -0.8975  0.5760  0.0962
 5334SOL    HW227636   1.637   1.389  13.735  1.3669  0.5248  1.6054
 5335SOL     OW27637   2.885   1.683   7.600  0.6301 -0.2271 -0.1524
 5335SOL    HW127638   2.962   1.636   7.633  1.8863  2.1183  0.1878
 5335SOL    HW227639   2.837   1.601   7.585 -3.0286  1.5500  1.7784
 5336SOL     OW27640   0.497   1.757   4.835  0.5143 -0.1161  0.1576
 5336SOL    HW127641   0.552   1.690   4.794  1.2674  2.5385 -3.1504
 5336SOL    HW227642   0.429   1.697   4.864 -0.6155  0.4883 -1.2665
 5337SOL     OW27643   1.546   3.614   7.822 -0.5897 -0.0660  0.7091
 5337SOL    HW127644   1.590   3.532   7.840  0.5579  0.2618 -0.6151
 5337SOL    HW227645   1.557   3.625   7.727 -0.3446 -0.6755  0.6686
 5338SOL     OW27646   1.486   0.618   1.335 -0.4694  0.5778 -0.0119
 5338SOL    HW127647   1.395   0.618   1.307  0.1575  0.6881 -2.0350
 5338SOL    HW227648   1.481   0.553   1.405  1.9820  0.0440 -0.3332
 5339SOL     OW27649   1.358   0.171   1.656  0.0988 -0.3760  0.4810
 5339SOL    HW127650   1.275   0.157   1.702 -1.4268 -0.6319 -2.3262
 5339SOL    HW227651   1.414   0.211   1.723 -0.6885  0.6355  0.5315
 5340SOL     OW27652   4.624   0.509   6.165 -0.5815  0.0391 -0.1194
 5340SOL    HW127653   4.707   0.525   6.121  0.1199 -2.2545  0.4125
 5340SOL    HW227654   4.573   0.484   6.088 -0.1537 -0.7514 -0.1354
 5341SOL     OW27655   1.446   1.493   3.402  0.5881  0.4970  0.3346
 5341SOL    HW127656   1.353   1.475   3.393  1.0441 -0.5885 -2.1840
 5341SOL    HW227657   1.496   1.425   3.356 -0.9928 -0.7472  0.4631
 5342SOL     OW27658   1.038   0.484  11.474  0.1277  0.5360  0.0395
 5342SOL    HW127659   1.028   0.448  11.386 -0.2170 -0.7618  0.6081
 5342SOL    HW227660   1.068   0.571  11.447  1.0669  0.2224  0.0836
 5343SOL     OW27661   4.630   1.694   1.128  0.1455 -0.2082  0.1951
 5343SOL    HW127662   4.655   1.621   1.072 -1.4391 -0.0812 -0.6663
 5343SOL    HW227663   4.617   1.762   1.062  0.2696 -0.1842  0.1946
 5344SOL     OW27664   0.083   2.708   9.442  0.3407  0.8653 -0.2454
 5344SOL    HW127665   0.009   2.656   9.410 -0.7335  0.8639  2.2355
 5344SOL    HW227666   0.104   2.652   9.516 -1.9909 -0.0162 -0.2568
 5345SOL     OW27667   1.250   0.268   5.417 -0.1537 -0.1682 -0.2276
 5345SOL    HW127668   1.264   0.222   5.500 -0.0619 -1.2431 -0.8355
 5345SOL    HW227669   1.185   0.333   5.444  0.1018  0.4488 -1.0790
 5346SOL     OW27670   3.550   3.119   3.270  0.3988 -0.0682  0.8665
 5346SOL    HW127671   3.605   3.057   3.221  0.9958  1.2110 -0.0587
 5346SOL    HW227672   3.611   3.141   3.341 -1.7715  0.1480  2.6758
 5347SOL     OW27673   3.588   1.993   7.072 -0.1530 -0.1658  0.1795
 5347SOL    HW127674   3.593   1.935   7.149  1.2412 -1.1643 -0.6725
 5347SOL    HW227675   3.583   1.939   6.994 -0.2918  0.3143 -0.1426
 5348SOL     OW27676   3.997   2.623   1.883  0.0406  0.2521 -0.4315
 5348SOL    HW127677   4.038   2.616   1.797 -0.6812 -0.2507 -0.7387
 5348SOL    HW227678   3.961   2.534   1.877  1.0332 -0.0320 -2.2268
 5349SOL     OW27679   4.123   1.871   3.444 -0.1820 -0.0399  0.2254
 5349SOL    HW127680   4.107   1.779   3.464 -0.4657  0.0246  0.2936
 5349SOL    HW227681   4.040   1.916   3.461 -1.0424 -1.5142 -0.0730
 5350SOL     OW27682   2.053   1.642   8.869  0.1699 -0.4097  0.1253
 5350SOL    HW127683   2.005   1.572   8.913 -1.1099 -0.1894 -0.9610
 5350SOL    HW227684   2.112   1.666   8.941 -0.4866 -1.2853  0.9617
 5351SOL     OW27685   4.555   0.434   8.600 -0.1271  0.1155 -0.3347
 5351SOL    HW127686   4.540   0.514   8.650 -0.0194 -0.7699  1.1343
 5351SOL    HW227687   4.463   0.408   8.597 -0.1779  0.2642 -0.0591
 5352SOL     OW27688   3.517   2.633  10.831 -0.1217  0.1507 -0.2317
 5352SOL    HW127689   3.576   2.565  10.863 -1.1594 -0.3265  0.6478
 5352SOL    HW227690   3.447   2.624  10.895  1.3267 -0.1318  1.2988
 5353SOL     OW27691   1.673   2.640  16.163  0.1479  0.0521 -0.7798
 5353SOL    HW127692   1.645   2.729  16.143  3.4698  1.3219  0.2966
 5353SOL    HW227693   1.740   2.641  16.231  0.6723  1.6555 -1.3251
 5354SOL     OW27694   2.476   0.580   7.114  0.4146 -0.3747 -0.2709
 5354SOL    HW127695   2.419   0.639   7.064 -0.6142 -0.6710  0.5401
 5354SOL    HW227696   2.514   0.532   7.041  2.7366  1.3858 -0.2095
 5355SOL     OW27697   3.504   0.533   6.423  0.0015 -0.6671 -0.0755
 5355SOL    HW127698   3.420   0.574   6.443 -0.6674 -0.7813 -2.6525
 5355SOL    HW227699   3.532   0.496   6.507 -2.2838 -2.3541 -0.0597
 5356SOL     OW27700   0.501   2.462   1.103  0.4049  0.1663 -0.2350
 5356SOL    HW127701   0.411   2.446   1.075 -0.3983 -1.9391  3.5656
 5356SOL    HW227702   0.540   2.383   1.064 -1.7913 -0.0467 -2.0193
 5357SOL     OW27703   3.988   0.108   3.593 -0.1571  0.8184  0.2595
 5357SOL    HW127704   4.026   0.070   3.513  2.3683 -0.1511  1.9425
 5357SOL    HW227705   3.961   0.033   3.646 -0.8344  0.5099 -0.5127
 5358SOL     OW27706   3.050   2.579   1.714  0.2310 -0.5290  0.1003
 5358SOL    HW127707   3.040   2.484   1.711  0.6463 -0.6151  1.3481
 5358SOL    HW227708   2.974   2.603   1.766  1.7772  0.2572  2.0250
 5359SOL     OW27709   1.552   0.929   2.886 -0.2334  0.1883  0.2110
 5359SOL    HW127710   1.461   0.936   2.856 -0.3101 -0.1521  0.3611
 5359SOL    HW227711   1.558   0.991   2.959  2.5532 -1.1817  1.1302
 5360SOL     OW27712   2.152   2.093   6.447  0.3350  0.1592 -0.1255
 5360SOL    HW127713   2.120   2.062   6.532  0.2360  0.9406  0.1198
 5360SOL    HW227714   2.157   2.009   6.402 -1.0300  0.7770 -1.4479
 5361SOL     OW27715   1.248   0.029   9.025 -0.1581 -0.0841  0.4301
 5361SOL    HW127716   1.247   0.111   9.075  0.2471 -0.1401  0.5274
 5361SOL    HW227717   1.217   4.700   9.091 -0.4605  2.5428  2.7877
 5362SOL     OW27718   2.778   2.539   5.486  0.3971  0.1695 -0.1986
 5362SOL    HW127719   2.853   2.558   5.431 -0.1055  2.3272 -0.1480
 5362SOL    HW227720   2.732   2.476   5.430  1.9155 -0.0961 -1.1162
 5363SOL     OW27721   4.536   1.414   1.919  0.9626  0.3697  0.6279
 5363SOL    HW127722   4.467   1.392   1.856 -0.1943  0.1611  1.9683
 5363SOL    HW227723   4.534   1.341   1.980  0.9831 -0.0255  0.1586
 5364SOL     OW27724   4.436   3.264   8.679  0.4244  0.0167  0.2592
 5364SOL    HW127725   4.503   3.332   8.680 -1.3251  1.7336 -1.1456
 5364SOL    HW227726   4.468   3.208   8.750  3.2383  0.5588 -0.5484
 5365SOL     OW27727   1.952   0.811   7.226 -0.0987 -0.0822  0.4224
 5365SOL    HW127728   1.867   0.792   7.186 -0.4228 -1.9314  1.9701
 5365SOL    HW227729   2.013   0.754   7.180  1.6923  1.2605  1.1402
 5366SOL     OW27730   0.818   4.047   4.623 -0.0997 -0.0923 -0.5014
 5366SOL    HW127731   0.785   3.962   4.593  1.0927 -0.4019 -0.9328
 5366SOL    HW227732   0.750   4.071   4.687 -2.6634  0.2952 -3.4056
 5367SOL     OW27733   1.208   0.724   8.078  0.3614  0.3541 -0.1979
 5367SOL    HW127734   1.265   0.655   8.113  2.8892  1.8998 -1.2483
 5367SOL    HW227735   1.130   0.699   8.128 -0.9609  4.2095 -0.3459
 5368SOL     OW27736   0.435   2.142   3.831  0.0280  0.1244  0.3225
 5368SOL    HW127737   0.467   2.217   3.781  0.9083  0.8446  1.9553
 5368SOL    HW227738   0.493   2.066   3.820  0.7850  0.7395  0.1125
 5369SOL     OW27739   2.197   4.462   0.802  0.0594 -0.2327  0.2135
 5369SOL    HW127740   2.132   4.422   0.744  0.7144 -3.0749  1.4057
 5369SOL    HW227741   2.233   4.523   0.738  1.1715 -0.2903  0.7801
 5370SOL     OW27742   1.701   3.883   3.708 -0.2154  0.3358  0.0160
 5370SOL    HW127743   1.654   3.915   3.631  1.3988  0.1934 -1.0266
 5370SOL    HW227744   1.635   3.823   3.742 -0.4200 -0.2867 -1.5085
 5371SOL     OW27745   1.051   4.461   5.630 -0.3495 -0.1079  0.2673
 5371SOL    HW127746   1.008   4.394   5.682 -1.2493 -0.1503 -0.5288
 5371SOL    HW227747   1.111   4.402   5.584  1.1950 -0.7549  3.1526
 5372SOL     OW27748   0.242   3.235   6.149 -1.0359  0.1104  0.4542
 5372SOL    HW127749   0.241   3.144   6.178  1.3182  0.2643  0.9921
 5372SOL    HW227750   0.156   3.272   6.171 -0.7878  0.3133  1.0886
 5373SOL     OW27751   0.103   0.211   3.344  0.2151  0.2407  0.0823
 5373SOL    HW127752   0.172   0.191   3.281  2.0520 -0.3653  2.2744
 5373SOL    HW227753   0.112   0.141   3.409 -1.7390 -1.2898 -1.2829
 5374SOL     OW27754   1.935   2.407   5.318 -0.4468  0.3769 -0.3007
 5374SOL    HW127755   2.026   2.420   5.292  0.2384  0.1219  2.0212
 5374SOL    HW227756   1.892   2.489   5.291  0.1461  1.2982  1.5684
 5375SOL     OW27757   4.602   2.186   7.922 -0.5086 -0.6412 -0.2544
 5375SOL    HW127758   4.516   2.225   7.909  0.5228  1.1809 -1.7204
 5375SOL    HW227759   4.584   2.123   7.992 -0.5683  0.7148  0.9453
 5376SOL     OW27760   2.704   3.286   5.235 -0.5474  0.3120  0.3469
 5376SOL    HW127761   2.758   3.354   5.196 -0.2988  0.9819  1.8418
 5376SOL    HW227762   2.751   3.209   5.203  1.4628  1.2239  1.0789
 5377SOL     OW27763   1.745   0.132  17.095 -0.7774 -0.1318  0.2914
 5377SOL    HW127764   1.672   0.097  17.043  2.0286 -2.9934 -1.7467
 5377SOL    HW227765   1.817   0.140  17.033  0.3204  1.4008  1.7958
 5378SOL     OW27766   3.755   1.302   4.685 -0.1172 -0.4693 -0.2765
 5378SOL    HW127767   3.813   1.250   4.630  0.4937 -0.3167  0.2304
 5378SOL    HW227768   3.711   1.356   4.618 -1.9121  2.4998  3.3101
 5379SOL     OW27769   4.577   0.869  16.110 -0.2933 -0.0839  0.5519
 5379SOL    HW127770   4.588   0.824  16.026 -3.9283  2.1313 -1.0835
 5379SOL    HW227771   4.599   0.960  16.090 -0.2833  0.1398  1.6143
 5380SOL     OW27772   1.548   1.541   1.113 -0.1866  0.3190  0.2878
 5380SOL    HW127773   1.588   1.478   1.053  1.0453 -0.3128  1.7730
 5380SOL    HW227774   1.603   1.615   1.086  0.3449  0.9972  3.1969
 5381SOL     OW27775   2.639   4.041  11.798 -0.6090  0.0631  0.1218
 5381SOL    HW127776   2.561   4.074  11.753 -0.2381 -0.6241 -1.0143
 5381SOL    HW227777   2.687   4.124  11.805  0.9437 -0.9759  1.7551
 5382SOL     OW27778   4.152   3.505   7.318  0.3921 -0.0622 -0.1812
 5382SOL    HW127779   4.217   3.435   7.315 -0.5905 -0.9966  0.2234
 5382SOL    HW227780   4.169   3.548   7.402  0.7147 -1.9109  0.7006
 5383SOL     OW27781   0.020   1.291   2.885  0.6237 -0.4543 -0.3468
 5383SOL    HW127782   4.714   1.261   2.804 -0.3176 -0.8399  0.2667
 5383SOL    HW227783   4.687   1.273   2.951 -0.4350  0.6578 -1.1074
 5384SOL     OW27784   1.944   4.413   3.760 -0.1935  0.2446 -0.4835
 5384SOL    HW127785   1.867   4.452   3.801 -0.8292 -1.3906 -0.1129
 5384SOL    HW227786   2.014   4.461   3.805 -0.4861 -1.1459  1.4994
 5385SOL     OW27787   2.378   2.697   8.578 -0.2533 -0.1280 -0.7208
 5385SOL    HW127788   2.397   2.625   8.638 -0.3229  2.4394  2.3082
 5385SOL    HW227789   2.455   2.750   8.596  0.0781 -1.3315  1.3153
 5386SOL     OW27790   3.787   0.092   7.702 -0.0528 -0.5556  0.4221
 5386SOL    HW127791   3.801   0.011   7.753 -1.8239 -0.6027  0.8540
 5386SOL    HW227792   3.776   0.154   7.774  0.7320 -0.2262  0.2569
 5387SOL     OW27793   3.035   1.554  16.719  0.0470  0.7750 -0.1679
 5387SOL    HW127794   3.094   1.494  16.764  0.7907  1.2407 -0.5232
 5387SOL    HW227795   3.014   1.513  16.635  0.7644  2.7251 -1.2933
 5388SOL     OW27796   4.711   0.187  15.078 -0.1521 -0.1144  0.6360
 5388SOL    HW127797   4.729   0.279  15.056  0.1398  0.0042  1.3657
 5388SOL    HW227798   0.042   0.142  15.024 -2.3668  0.2258 -2.3559
 5389SOL     OW27799   3.806   1.536   5.919  0.2286  0.4490  0.1008
 5389SOL    HW127800   3.842   1.451   5.892 -1.0660 -0.4193  1.0876
 5389SOL    HW227801   3.799   1.529   6.014 -2.0917  0.3842 -0.0659
 5390SOL     OW27802   2.790   0.331   6.950  0.0304 -0.0693 -0.4479
 5390SOL    HW127803   2.735   0.252   6.950  0.3620 -0.2966 -1.1499
 5390SOL    HW227804   2.733   0.405   6.931 -1.0435 -0.4008  1.4554
 5391SOL     OW27805   3.527   1.996   4.990  0.2206 -0.3465  1.0444
 5391SOL    HW127806   3.530   1.937   4.915  1.2643  1.5391 -0.3890
 5391SOL    HW227807   3.611   1.972   5.029 -0.5407 -1.2501  2.1231
 5392SOL     OW27808   3.446   4.436   4.971 -0.1499  0.1082 -0.2220
 5392SOL    HW127809   3.426   4.418   5.063 -0.4187 -0.4299 -0.3845
 5392SOL    HW227810   3.414   4.525   4.980 -0.7246 -0.3425  2.1597
 5393SOL     OW27811   2.597   0.598   2.486 -0.3018  0.0901  0.3247
 5393SOL    HW127812   2.535   0.648   2.539  0.5718 -0.2520  1.6606
 5393SOL    HW227813   2.528   0.584   2.422 -0.9612 -0.9136  1.2578
 5394SOL     OW27814   4.223   4.332   7.996  0.2487  0.1407  0.2353
 5394SOL    HW127815   4.149   4.279   7.969  2.4169 -1.7581 -2.0550
 5394SOL    HW227816   4.300   4.294   7.953 -1.2356 -0.7202 -1.6627
 5395SOL     OW27817   2.493   3.682  13.023 -0.5407 -0.2020  0.2866
 5395SOL    HW127818   2.513   3.632  12.944 -0.4125 -0.9788  0.8074
 5395SOL    HW227819   2.455   3.765  12.995 -2.7263 -0.7741  1.5781
 5396SOL     OW27820   3.864   2.055   5.319 -0.2492  0.3262  0.0135
 5396SOL    HW127821   3.783   2.028   5.361 -0.6115  0.8897 -0.3203
 5396SOL    HW227822   3.913   2.075   5.399 -0.3184 -2.3843  0.7238
 5397SOL     OW27823   3.417   0.152   7.540  0.1492 -0.0278  0.5297
 5397SOL    HW127824   3.434   0.061   7.516  2.6843 -0.1739  2.9237
 5397SOL    HW227825   3.502   0.185   7.513  0.3878 -0.1992  1.0839
 5398SOL     OW27826   0.287   1.263   8.819  0.2615 -0.0699  0.2031
 5398SOL    HW127827   0.344   1.340   8.824 -0.0545  0.1543  0.3865
 5398SOL    HW227828   0.358   1.200   8.815 -0.5630 -0.9964  0.1829
 5399SOL     OW27829   3.836   3.669  16.566 -0.3212 -0.1443  0.0125
 5399SOL    HW127830   3.869   3.580  16.555 -0.7884 -0.0837 -1.7963
 5399SOL    HW227831   3.838   3.675  16.662 -0.1712  0.4734 -0.0334
 5400SOL     OW27832   0.645   4.409   1.005 -0.7447  0.3094 -0.8944
 5400SOL    HW127833   0.736   4.406   0.974 -0.6907 -1.6716 -0.5699
 5400SOL    HW227834   0.605   4.487   0.968  0.7307  1.1495 -0.7042
 5401SOL     OW27835   4.023   4.078  17.359  0.5733 -0.1078  0.2348
 5401SOL    HW127836   3.952   4.073  17.295  0.0011 -0.9882  0.9290
 5401SOL    HW227837   4.094   4.128  17.320  0.2142  0.2338  0.0206
 5402SOL     OW27838   1.940   3.268   5.553 -1.1103  0.3694 -0.6343
 5402SOL    HW127839   1.925   3.178   5.580 -0.3720  0.9177  1.5925
 5402SOL    HW227840   1.854   3.279   5.513 -0.5485 -0.2152 -2.0344
 5403SOL     OW27841   0.189   1.403   2.624 -0.4626 -0.8769 -0.4299
 5403SOL    HW127842   0.193   1.490   2.585  2.1587 -0.4317  0.8571
 5403SOL    HW227843   0.134   1.427   2.698  1.0436  1.5128 -0.1067
 5404SOL     OW27844   3.089   0.341   7.326 -0.1650 -0.3019 -0.0220
 5404SOL    HW127845   3.031   0.359   7.252 -0.4525 -2.4634 -0.3446
 5404SOL    HW227846   3.142   0.418   7.344  2.2613 -2.1417  0.6171
 5405SOL     OW27847   2.106   3.042   1.083  0.0489  0.4333 -0.0668
 5405SOL    HW127848   2.015   3.058   1.108  0.7103  2.6123  0.9467
 5405SOL    HW227849   2.096   3.024   0.990  1.7337 -1.0297  0.0457
 5406SOL     OW27850   2.682   2.771   5.633  0.1413 -0.5569 -0.1066
 5406SOL    HW127851   2.743   2.708   5.595 -1.4052 -1.6010 -0.8819
 5406SOL    HW227852   2.735   2.826   5.690  2.0312 -2.7065  0.2269
 5407SOL     OW27853   3.698   0.686  16.837 -0.2013 -0.0177  0.0954
 5407SOL    HW127854   3.674   0.617  16.899  0.0798  0.8032  1.1365
 5407SOL    HW227855   3.792   0.670  16.843 -0.4846 -1.8552 -0.3083
 5408SOL     OW27856   2.896   2.218   7.163 -0.6478  0.4137  0.0140
 5408SOL    HW127857   2.844   2.213   7.242 -1.7551  2.9816 -0.5642
 5408SOL    HW227858   2.952   2.141   7.178 -2.4308 -1.3345 -2.2616
 5409SOL     OW27859   4.598   1.278   6.088 -0.7154  0.3218 -0.1940
 5409SOL    HW127860   4.651   1.306   6.013  0.5656 -2.1697 -0.2235
 5409SOL    HW227861   4.515   1.255   6.047 -0.2006 -1.4799 -0.2511
 5410SOL     OW27862   3.793   0.350   6.860  0.7832 -0.2880 -0.1915
 5410SOL    HW127863   3.862   0.289   6.837 -0.4726 -1.7165 -0.1842
 5410SOL    HW227864   3.730   0.281   6.882  0.4319 -0.3361 -1.3174
 5411SOL     OW27865   4.206   4.604   7.130  0.4100 -0.4840 -0.1459
 5411SOL    HW127866   4.118   4.641   7.126 -0.5445 -2.6770  0.2040
 5411SOL    HW227867   4.199   4.514   7.096 -0.1958 -0.5251  0.0851
 5412SOL     OW27868   1.237   0.220   7.179 -0.1260 -0.2898  0.1924
 5412SOL    HW127869   1.183   0.299   7.177 -0.4713 -0.5864 -2.1336
 5412SOL    HW227870   1.300   0.218   7.107  0.0349 -1.3817  0.3655
 5413SOL     OW27871   4.368   0.498  10.206  0.3077 -0.1028  0.1700
 5413SOL    HW127872   4.456   0.508  10.169 -0.6342 -1.5088 -2.4830
 5413SOL    HW227873   4.314   0.555  10.152  0.3852 -0.0996  0.0947
 5414SOL     OW27874   1.433   0.436   8.664 -0.0465  0.2308  0.3700
 5414SOL    HW127875   1.473   0.497   8.726  0.6177  0.7448 -0.5555
 5414SOL    HW227876   1.509   0.383   8.641 -0.9409 -0.2860 -1.4024
 5415SOL     OW27877   3.817   4.486  13.372 -0.2531  0.3330 -0.3856
 5415SOL    HW127878   3.832   4.547  13.444  0.5737 -0.9392  0.5474
 5415SOL    HW227879   3.845   4.399  13.402 -1.4698  0.6722  1.7342
 5416SOL     OW27880   3.611   2.000   3.194  0.7757 -0.5373 -0.2062
 5416SOL    HW127881   3.589   1.983   3.286 -0.5396 -0.0531 -0.4339
 5416SOL    HW227882   3.679   1.934   3.181 -0.1402 -1.6888  0.7943
 5417SOL     OW27883   1.901   1.179   5.260  0.4266 -0.2637  0.3059
 5417SOL    HW127884   1.930   1.269   5.248  1.0509 -1.1544 -5.2779
 5417SOL    HW227885   1.844   1.190   5.336 -0.8170  1.5359 -0.8723
 5418SOL     OW27886   4.626   2.425   2.758  0.4768  0.8389 -0.0056
 5418SOL    HW127887   4.689   2.447   2.827 -0.0566  2.4448 -0.0113
 5418SOL    HW227888   4.547   2.467   2.793  0.4901 -0.7236  1.9022
 5419SOL     OW27889   3.858   0.763  15.963 -0.4589 -0.1188  0.4736
 5419SOL    HW127890   3.927   0.796  16.020 -1.8978  0.2625  2.0018
 5419SOL    HW227891   3.862   0.821  15.887 -0.8714  1.2600  1.5092
 5420SOL     OW27892   4.377   1.436  14.350  0.2741  0.1840 -0.0373
 5420SOL    HW127893   4.362   1.378  14.275 -2.9703  0.4245  0.3954
 5420SOL    HW227894   4.439   1.506  14.330 -1.4061  0.9579 -2.5344
 5421SOL     OW27895   3.938   4.101   3.376  0.0082 -0.2624  0.6154
 5421SOL    HW127896   3.968   4.028   3.320 -0.3314  1.5792 -1.9710
 5421SOL    HW227897   3.897   4.152   3.306 -0.4582 -1.5717 -0.0661
 5422SOL     OW27898   1.064   3.575   6.517 -0.3975  0.8539  0.1803
 5422SOL    HW127899   1.149   3.558   6.557  1.0449 -0.5719 -3.5724
 5422SOL    HW227900   1.053   3.496   6.464 -2.6120  2.0617 -1.1671
 5423SOL     OW27901   0.638   0.865   5.206  0.1651 -0.6238 -0.3973
 5423SOL    HW127902   0.548   0.898   5.209 -0.2057 -1.5333 -1.6289
 5423SOL    HW227903   0.682   0.941   5.244  1.3040 -0.7157 -1.5400
 5424SOL     OW27904   0.417   1.688   8.871 -0.3108  0.1918  0.1816
 5424SOL    HW127905   0.425   1.596   8.848 -0.1879  0.1325  0.4546
 5424SOL    HW227906   0.459   1.690   8.957  0.0169 -0.3389  0.0275
 5425SOL     OW27907   2.531   4.350  11.887  0.6194  0.8296  0.1265
 5425SOL    HW127908   2.478   4.271  11.881  0.1096  1.1382  0.6637
 5425SOL    HW227909   2.493   4.390  11.965  0.3517  0.8876 -0.0326
 5426SOL     OW27910   2.840   4.262   5.226 -0.6195  0.5317  0.4703
 5426SOL    HW127911   2.774   4.204   5.188 -0.5730 -1.0086  2.7261
 5426SOL    HW227912   2.886   4.300   5.152 -1.3976 -0.1092 -0.3418
 5427SOL     OW27913   2.204   2.395   5.248 -0.3077 -0.6691 -0.0354
 5427SOL    HW127914   2.218   2.478   5.204  0.6707 -1.0170 -0.3854
 5427SOL    HW227915   2.231   2.405   5.340 -1.5176 -1.8288  0.4366
 5428SOL     OW27916   2.382   2.330   7.310  0.1056  0.3110 -0.2373
 5428SOL    HW127917   2.438   2.344   7.234  1.9288  2.8832  1.5721
 5428SOL    HW227918   2.430   2.364   7.386 -0.2374  3.3386 -1.4023
 5429SOL     OW27919   2.934   4.422   8.109 -0.2367 -0.3750 -0.4245
 5429SOL    HW127920   2.842   4.446   8.099  0.2715  0.9716 -1.7748
 5429SOL    HW227921   2.965   4.506   8.141 -1.0471  0.0633 -0.7926
 5430SOL     OW27922   4.729   0.661  10.791 -0.5460 -0.4812 -0.1786
 5430SOL    HW127923   0.002   0.620  10.878  2.0671 -1.4247 -0.8327
 5430SOL    HW227924   4.715   0.587  10.733  0.7529 -2.9633  2.6694
 5431SOL     OW27925   1.756   0.058   5.990 -0.1587 -0.4107  0.1386
 5431SOL    HW127926   1.834   0.017   6.028  1.3986  2.1043 -0.3579
 5431SOL    HW227927   1.794   0.101   5.914 -0.7223  0.2715  0.2395
 5432SOL     OW27928   2.496   4.123   8.905  0.1932  0.1386  0.2849
 5432SOL    HW127929   2.568   4.166   8.951  0.1844 -1.6772  2.0042
 5432SOL    HW227930   2.535   4.036   8.890 -0.6774 -0.5144  1.8590
 5433SOL     OW27931   2.610   3.122   4.944  0.2722  0.8070 -0.0308
 5433SOL    HW127932   2.658   3.090   5.021  1.1845  0.8081 -0.5993
 5433SOL    HW227933   2.536   3.063   4.955  0.0678  0.8592 -1.2157
 5434SOL     OW27934   1.662   1.987   3.046  0.6404  1.0150  1.0981
 5434SOL    HW127935   1.616   1.929   2.985  0.9599 -1.0998  2.8784
 5434SOL    HW227936   1.616   2.069   3.026  0.9403  0.8966 -0.0693
 5435SOL     OW27937   0.955   2.221   2.219 -0.0575 -0.5129 -0.1509
 5435SOL    HW127938   0.990   2.293   2.167  1.9785 -0.2149  1.6284
 5435SOL    HW227939   1.021   2.195   2.284 -0.3803 -0.5162  0.1719
 5436SOL     OW27940   3.421   4.097   3.759 -0.0537 -0.1167  0.0427
 5436SOL    HW127941   3.513   4.075   3.745 -0.2649 -0.8162 -0.2774
 5436SOL    HW227942   3.423   4.121   3.851 -1.0503  0.8020 -0.1701
 5437SOL     OW27943   2.572   1.148   9.406 -0.1961 -0.3208  0.0579
 5437SOL    HW127944   2.546   1.169   9.316  0.1532  0.5924  0.1676
 5437SOL    HW227945   2.535   1.061   9.419 -1.0883 -0.2998 -2.3467
 5438SOL     OW27946   1.510   1.931   2.816  0.1314 -0.4398  0.6407
 5438SOL    HW127947   1.551   1.997   2.760  1.0834 -1.6036 -0.0324
 5438SOL    HW227948   1.495   1.858   2.757 -2.4068 -0.4476  1.2750
 5439SOL     OW27949   2.654   3.164  10.865 -0.1108  0.2640 -0.0837
 5439SOL    HW127950   2.667   3.254  10.895 -0.6132  0.6545 -1.0325
 5439SOL    HW227951   2.588   3.170  10.796 -0.3941 -0.0572  0.1617
 5440SOL     OW27952   4.213   1.027   9.726  0.4856  0.2689 -0.0289
 5440SOL    HW127953   4.216   1.094   9.658 -1.2128 -1.6324 -1.9749
 5440SOL    HW227954   4.119   1.010   9.728  0.6514 -0.7329 -0.2734
 5441SOL     OW27955   0.378   1.468   4.572  0.2848 -0.3065  1.0914
 5441SOL    HW127956   0.348   1.553   4.604  0.4715  0.6581 -1.3067
 5441SOL    HW227957   0.473   1.477   4.566  0.2126 -0.7939 -0.7582
 5442SOL     OW27958   1.347   0.103   4.663  0.1148 -0.3208  0.3472
 5442SOL    HW127959   1.417   0.079   4.722 -0.4892  2.6532  2.2754
 5442SOL    HW227960   1.311   0.019   4.634 -0.4365 -1.0719  3.3103
 5443SOL     OW27961   1.754   4.058   8.731  0.2760 -0.2254  0.3042
 5443SOL    HW127962   1.756   3.973   8.773  4.7076 -0.1584  0.2528
 5443SOL    HW227963   1.742   4.119   8.804  1.3381  1.5933 -1.0360
 5444SOL     OW27964   4.392   2.461   3.308 -0.2495 -0.9223 -0.2804
 5444SOL    HW127965   4.300   2.465   3.284 -0.1992 -3.7026 -0.9455
 5444SOL    HW227966   4.426   2.412   3.233  0.6961 -3.0971  1.5652
 5445SOL     OW27967   4.461   2.823   3.674  0.4864 -0.9306 -0.5518
 5445SOL    HW127968   4.432   2.802   3.762  2.8273  0.1091  0.4662
 5445SOL    HW227969   4.486   2.914   3.693  1.0887 -1.2895  0.3386
 5446SOL     OW27970   3.867   1.985   3.472 -0.5882 -0.6472  0.4035
 5446SOL    HW127971   3.781   1.987   3.514 -1.0983  2.4218 -0.7734
 5446SOL    HW227972   3.839   1.966   3.383  2.6059 -1.5159 -0.4100
 5447SOL     OW27973   1.498   2.547   4.501 -0.2089  0.7567 -0.0120
 5447SOL    HW127974   1.413   2.513   4.529 -0.5855  0.5885 -1.3734
 5447SOL    HW227975   1.543   2.535   4.585 -0.9552 -0.7080  0.1774
 5448SOL     OW27976   1.504   0.643   2.960 -0.0038 -0.3024 -0.0037
 5448SOL    HW127977   1.503   0.738   2.957  0.7319 -0.2857  0.3436
 5448SOL    HW227978   1.584   0.625   3.008 -0.5011  1.2236  1.3760
 5449SOL     OW27979   1.991   0.222   0.102  0.0242  0.1196 -0.2794
 5449SOL    HW127980   1.984   0.265   0.188 -0.2135  0.5590 -0.5159
 5449SOL    HW227981   1.905   0.253   0.071  0.2192  0.6581 -0.2888
 5450SOL     OW27982   4.421   3.474   2.397 -0.6327  0.2640  0.3319
 5450SOL    HW127983   4.444   3.393   2.442 -1.1115 -1.0069 -1.7524
 5450SOL    HW227984   4.507   3.503   2.365 -1.8672  3.2089 -0.3217
 5451SOL     OW27985   2.621   4.726   7.386  0.0038 -0.2991 -0.4120
 5451SOL    HW127986   2.529   4.709   7.365 -0.2622 -0.6694  1.0241
 5451SOL    HW227987   2.649   4.635   7.379 -1.0136 -0.5933 -0.5913
 5452SOL     OW27988   3.133   1.115   8.038 -0.2725  0.6229 -0.4589
 5452SOL    HW127989   3.045   1.134   8.070  0.2574 -1.2488  2.1555
 5452SOL    HW227990   3.116   1.035   7.987 -0.0790  0.0122  0.4271
 5453SOL     OW27991   4.429   1.860   5.411  0.0183 -0.4084  0.2942
 5453SOL    HW127992   4.367   1.800   5.370 -0.0482 -0.2217  0.1212
 5453SOL    HW227993   4.417   1.930   5.347  0.2069  0.6650  1.4403
 5454SOL     OW27994   4.327   1.334   3.421 -0.6543  0.7202  0.3825
 5454SOL    HW127995   4.252   1.326   3.480  0.0520  0.1050  1.2039
 5454SOL    HW227996   4.295   1.400   3.359  1.1370  0.9684 -0.2867
 5455SOL     OW27997   4.349   2.781  15.505  0.0682 -0.2024 -0.0817
 5455SOL    HW127998   4.310   2.844  15.565 -2.3801 -0.4528 -1.4137
 5455SOL    HW227999   4.275   2.726  15.480 -1.4633  0.6267  2.6317
 5456SOL     OW28000   0.922   1.972   7.529 -0.5171 -0.3012 -0.1608
 5456SOL    HW128001   0.881   2.057   7.544 -2.3109 -1.7300  2.9749
 5456SOL    HW228002   0.885   1.962   7.441  1.0865  1.4501 -1.0420
 5457SOL     OW28003   3.085   0.565  15.402  0.0734 -0.0479  0.4521
 5457SOL    HW128004   3.013   0.627  15.388 -2.4614 -2.4564  2.7987
 5457SOL    HW228005   3.067   0.530  15.489  0.4737 -0.7373  0.2540
 5458SOL     OW28006   2.165   1.651   5.846 -0.0935  0.0610 -0.1019
 5458SOL    HW128007   2.113   1.595   5.904  1.2407 -0.3947  0.6614
 5458SOL    HW228008   2.202   1.709   5.913  1.6211 -0.0546 -0.9385
 5459SOL     OW28009   0.640   3.021   9.540 -0.0946 -0.1911 -0.6493
 5459SOL    HW128010   0.722   3.061   9.570  0.2308 -1.3352 -0.0141
 5459SOL    HW228011   0.640   2.942   9.594  2.1287  0.2599 -0.0125
 5460SOL     OW28012   3.565   2.729   4.394 -0.6422  0.2962  0.0855
 5460SOL    HW128013   3.624   2.705   4.465  1.5413 -0.5208 -2.0200
 5460SOL    HW228014   3.547   2.645   4.352  3.0624 -0.3400 -0.2011
 5461SOL     OW28015   2.917   2.562  11.347 -0.0900 -0.2714 -0.2330
 5461SOL    HW128016   2.948   2.522  11.265  1.2129  1.5928 -0.6632
 5461SOL    HW228017   2.880   2.482  11.384  1.0014 -0.5681  0.2100
 5462SOL     OW28018   0.433   1.209  14.068 -0.1435  0.0591 -0.0219
 5462SOL    HW128019   0.420   1.135  14.128  1.3532 -1.5011 -1.6442
 5462SOL    HW228020   0.504   1.249  14.117 -0.5522  2.0938 -1.0995
 5463SOL     OW28021   0.295   1.545   1.110  0.6473 -0.0977  0.2605
 5463SOL    HW128022   0.216   1.506   1.146 -0.3337  2.1335  0.5653
 5463SOL    HW228023   0.262   1.600   1.038  0.0996 -1.6521 -0.6651
 5464SOL     OW28024   4.144   1.404   5.811 -0.7214 -0.4840 -0.1623
 5464SOL    HW128025   4.110   1.383   5.724  0.9904 -0.6133 -0.8033
 5464SOL    HW228026   4.107   1.492   5.817  1.4894  0.4262  0.3594
 5465SOL     OW28027   0.176   1.213   0.105  0.3212  0.5058  0.4027
 5465SOL    HW128028   0.121   1.202   0.183 -2.5521  0.9119 -1.5922
 5465SOL    HW228029   0.129   1.268   0.044 -0.2291 -0.0540  0.3216
 5466SOL     OW28030   3.386   1.384  14.055  0.5858 -0.2660  0.5230
 5466SOL    HW128031   3.323   1.330  14.103  1.2765 -1.9433 -0.4989
 5466SOL    HW228032   3.374   1.472  14.091  2.1996  0.2752 -0.2884
 5467SOL     OW28033   0.925   3.245   5.423  0.2375  0.5888 -0.2671
 5467SOL    HW128034   1.005   3.284   5.387  0.1251  0.1869 -0.9504
 5467SOL    HW228035   0.868   3.322   5.417 -1.5381 -0.8943 -2.3360
 5468SOL     OW28036   0.465   4.366   5.202  0.0908 -0.1922 -0.7340
 5468SOL    HW128037   0.522   4.421   5.257  0.6438 -1.1002 -0.4080
 5468SOL    HW228038   0.396   4.344   5.264 -0.4117 -0.1815 -1.2921
 5469SOL     OW28039   4.496   2.210   5.258 -0.3064  0.6883  0.1064
 5469SOL    HW128040   4.402   2.226   5.247 -0.1923  0.4937 -1.0877
 5469SOL    HW228041   4.519   2.152   5.186 -0.9910  0.2673  0.2334
 5470SOL     OW28042   3.563   0.138   5.143 -0.0169 -0.3488  0.3121
 5470SOL    HW128043   3.609   0.151   5.226  2.2420  0.0984 -1.0362
 5470SOL    HW228044   3.533   0.229   5.135  0.2500 -0.2496  0.4351
 5471SOL     OW28045   1.022   0.417  11.201 -0.1940 -0.3614  0.4755
 5471SOL    HW128046   1.101   0.377  11.167 -0.5607  1.6451 -2.7720
 5471SOL    HW228047   1.009   0.472  11.124 -0.2733 -0.3063  0.5271
 5472SOL     OW28048   0.494   3.152   9.172 -0.3420 -0.5423 -0.2922
 5472SOL    HW128049   0.583   3.121   9.185 -0.7206 -1.2638  0.6177
 5472SOL    HW228050   0.460   3.151   9.262 -1.4521 -1.2721 -0.7195
 5473SOL     OW28051   0.567   1.216   3.064  0.4428 -0.3026  0.4626
 5473SOL    HW128052   0.476   1.220   3.032  0.7247  0.1028 -0.2978
 5473SOL    HW228053   0.555   1.159   3.139 -1.1717  0.2466  0.6242
 5474SOL     OW28054   0.117   1.187   2.468 -0.0039  0.6865 -0.0760
 5474SOL    HW128055   0.042   1.184   2.526  0.4068 -1.0700  0.3644
 5474SOL    HW228056   0.176   1.255   2.501  0.3390  0.5327 -0.3621
 5475SOL     OW28057   0.363   2.630   4.100 -0.1866 -0.0658 -0.0237
 5475SOL    HW128058   0.293   2.688   4.132 -1.4043 -0.9384 -1.0946
 5475SOL    HW228059   0.322   2.547   4.127 -1.3746 -0.0120 -1.6727
 5476SOL     OW28060   4.011   0.191  13.866  0.2771  0.2283 -0.2872
 5476SOL    HW128061   4.002   0.211  13.959  0.6675  1.3822 -0.5085
 5476SOL    HW228062   3.928   0.215  13.825 -0.0100  0.4495  0.4275
 5477SOL     OW28063   1.208   2.839  14.926  0.1644 -0.2604  0.4135
 5477SOL    HW128064   1.205   2.743  14.915  1.6033 -0.4076  1.3319
 5477SOL    HW228065   1.126   2.864  14.883  0.2070 -1.6863 -0.5161
 5478SOL     OW28066   3.311   1.153   1.392 -0.5103 -0.1055  0.3164
 5478SOL    HW128067   3.388   1.096   1.394 -0.1450  0.2797 -2.4194
 5478SOL    HW228068   3.319   1.182   1.301 -0.5641 -0.5305  0.1763
 5479SOL     OW28069   1.754   0.493   7.291  0.2321 -0.3622  0.1090
 5479SOL    HW128070   1.735   0.572   7.241  0.7657 -0.1699  0.2110
 5479SOL    HW228071   1.775   0.531   7.376  0.6646  1.6498 -0.9018
 5480SOL     OW28072   3.521   2.733   7.404  0.2694  0.1184 -0.3693
 5480SOL    HW128073   3.613   2.761   7.407 -0.5235  2.4238  1.7278
 5480SOL    HW228074   3.525   2.642   7.433  3.7383  0.0842 -0.9374
 5481SOL     OW28075   0.132   2.365   7.151  0.0535  0.6224 -0.0438
 5481SOL    HW128076   0.147   2.439   7.092  0.5697 -0.0736 -0.7765
 5481SOL    HW228077   0.215   2.317   7.154  0.5981  1.6374  1.0470
 5482SOL     OW28078   2.754   3.898  14.757  0.0824  0.1574 -0.0296
 5482SOL    HW128079   2.786   3.859  14.676  0.2770  0.0781  0.0841
 5482SOL    HW228080   2.828   3.954  14.780  0.0909  0.1024  0.0805
 5483SOL     OW28081   3.165   2.615   9.482  0.2839  0.8726 -0.0688
 5483SOL    HW128082   3.238   2.668   9.450 -0.2761  0.9175 -1.2408
 5483SOL    HW228083   3.157   2.542   9.420  0.9896  1.5839 -0.9907
 5484SOL     OW28084   0.979   2.640   1.049 -0.0259  0.7043 -0.2774
 5484SOL    HW128085   0.903   2.593   1.015 -0.1975 -0.0612  1.1418
 5484SOL    HW228086   0.970   2.620   1.142 -1.4314  0.9608 -0.3614
 5485SOL     OW28087   3.714   1.630  12.159  0.4571 -0.2956 -0.4276
 5485SOL    HW128088   3.650   1.661  12.096  1.2326 -0.9017 -1.5173
 5485SOL    HW228089   3.791   1.665  12.113  0.0256  0.6328 -0.4497
 5486SOL     OW28090   0.702   2.962   4.472 -0.2711  0.0542 -0.4014
 5486SOL    HW128091   0.626   2.914   4.505  1.2864 -3.0190 -1.2127
 5486SOL    HW228092   0.679   3.042   4.520 -0.1576 -0.2440  0.1545
 5487SOL     OW28093   2.291   0.411   8.308 -0.3593 -0.1036  0.2291
 5487SOL    HW128094   2.330   0.339   8.258 -1.0925 -1.8047  2.0755
 5487SOL    HW228095   2.361   0.445   8.364  0.0501 -2.4943  1.1753
 5488SOL     OW28096   2.936   4.155   8.054  0.2472  0.0241 -0.0009
 5488SOL    HW128097   2.848   4.144   8.090 -0.2860  1.6459 -0.8101
 5488SOL    HW228098   2.945   4.249   8.069 -3.0086  0.2377  0.5887
 5489SOL     OW28099   4.692   2.162   7.092 -0.1152  0.1996 -0.0471
 5489SOL    HW128100   4.717   2.221   7.163 -0.9198 -0.3431  0.6685
 5489SOL    HW228101   4.733   2.211   7.020  1.0959 -0.2291  0.3446
 5490SOL     OW28102   2.459   1.529  12.368  0.6266  0.3396  0.2014
 5490SOL    HW128103   2.375   1.496  12.400 -0.4803  0.8101 -2.1695
 5490SOL    HW228104   2.442   1.615  12.330  0.6158  1.2670  2.3045
 5491SOL     OW28105   2.037   4.004   7.734  0.3511  0.5525  0.2101
 5491SOL    HW128106   2.024   3.944   7.807  0.4093  2.7196  1.9882
 5491SOL    HW228107   2.132   4.012   7.730  0.4602 -0.2958  1.1583
 5492SOL     OW28108   2.158   1.235   3.484 -0.0072 -0.1915 -0.1592
 5492SOL    HW128109   2.079   1.264   3.530  0.2193  2.1887 -1.3182
 5492SOL    HW228110   2.150   1.139   3.484 -0.8522 -0.1267 -0.0913
 5493SOL     OW28111   2.907   3.993   3.906  1.0769 -0.4057 -0.7238
 5493SOL    HW128112   2.940   3.946   3.829 -1.0194 -2.9175 -0.0700
 5493SOL    HW228113   2.820   3.955   3.903  0.2200  1.2227  5.0259
 5494SOL     OW28114   0.893   0.683   9.678  0.1112 -0.2747  0.2265
 5494SOL    HW128115   0.863   0.748   9.614  0.3363 -2.0131 -1.6425
 5494SOL    HW228116   0.824   0.617   9.682 -0.6072  0.2787 -3.3258
 5495SOL     OW28117   2.967   1.701   4.186  0.8324 -0.4371  0.1796
 5495SOL    HW128118   2.978   1.609   4.211  1.8610 -0.6409 -1.0363
 5495SOL    HW228119   2.913   1.679   4.111  1.0801  1.2953 -0.4965
 5496SOL     OW28120   2.904   3.014  12.291  0.0426 -0.1893 -0.1679
 5496SOL    HW128121   2.995   2.999  12.317 -0.4773 -0.6089  1.3817
 5496SOL    HW228122   2.922   3.022  12.197  0.6491  0.2632 -0.0218
 5497SOL     OW28123   0.331   1.242  16.584  0.4755 -0.1890 -0.0823
 5497SOL    HW128124   0.387   1.310  16.622 -1.6758 -0.3362  3.3997
 5497SOL    HW228125   0.342   1.172  16.648  1.2556 -0.0036 -0.0185
 5498SOL     OW28126   1.348   0.686  12.275 -0.7200 -0.6031  0.9540
 5498SOL    HW128127   1.322   0.596  12.293 -0.3094 -0.6699  1.2012
 5498SOL    HW228128   1.285   0.738  12.324  1.4017  1.2963  1.6487
 5499SOL     OW28129   1.944   3.736   1.575  0.1661 -0.1639  0.5137
 5499SOL    HW128130   1.954   3.819   1.621  1.5018  0.3692 -0.7375
 5499SOL    HW228131   2.011   3.677   1.611  1.4635  1.1837  0.3243
 5500SOL     OW28132   3.028   4.450   7.470  0.0099 -0.3242 -0.3784
 5500SOL    HW128133   2.985   4.468   7.554 -2.2155 -1.0240 -1.3570
 5500SOL    HW228134   3.054   4.359   7.487 -1.0059 -1.2318 -3.6592
 5501SOL     OW28135   3.558   3.462   3.008  0.1731  0.2488 -0.0695
 5501SOL    HW128136   3.502   3.492   3.079  0.5721  1.5201 -0.2960
 5501SOL    HW228137   3.514   3.379   2.989  0.3522  0.2210 -0.3797
 5502SOL     OW28138   4.612   2.608   8.226  0.1023  0.0545  0.0132
 5502SOL    HW128139   4.623   2.622   8.132  2.5630  1.3089  0.4987
 5502SOL    HW228140   4.551   2.680   8.240  0.8982  0.3381  2.0712
 5503SOL     OW28141   3.249   2.969  12.087  0.3454  0.4988  0.3108
 5503SOL    HW128142   3.322   2.927  12.131 -0.8072  0.1580  1.9204
 5503SOL    HW228143   3.204   3.010  12.161 -1.2703 -3.8177  1.7015
 5504SOL     OW28144   0.446   1.684  11.240 -0.1391 -0.2923  0.2870
 5504SOL    HW128145   0.526   1.632  11.230  0.0788  0.1007 -0.0221
 5504SOL    HW228146   0.438   1.722  11.152  0.2734 -0.6424  0.0927
 5505SOL     OW28147   4.411   0.073   3.054  0.4618  0.0973  0.0706
 5505SOL    HW128148   4.501   0.045   3.038  0.1002 -1.1428  0.1763
 5505SOL    HW228149   4.369   4.730   3.091 -2.4866  0.9608 -1.4796
 5506SOL     OW28150   3.820   2.820   3.533 -0.0381 -0.1049 -0.4778
 5506SOL    HW128151   3.770   2.757   3.584  2.0372 -0.7627  0.7298
 5506SOL    HW228152   3.871   2.751   3.490 -0.5596 -2.1233  2.1526
 5507SOL     OW28153   4.698   3.132   3.545 -0.2195 -0.1287 -0.1329
 5507SOL    HW128154   0.038   3.177   3.586  1.4472 -1.5068 -1.6413
 5507SOL    HW228155   4.727   3.111   3.456  1.1290 -0.9886  0.5096
 5508SOL     OW28156   4.271   3.279   5.569 -0.2766  0.1422 -0.3978
 5508SOL    HW128157   4.179   3.303   5.579 -0.3798  0.1388 -1.3785
 5508SOL    HW228158   4.284   3.268   5.663  0.1113 -0.3626 -0.5102
 5509SOL     OW28159   3.594   3.149   6.577  0.0235  0.1887  0.4510
 5509SOL    HW128160   3.594   3.210   6.504  0.9908  2.2468  2.1941
 5509SOL    HW228161   3.529   3.083   6.550 -0.7368  1.4362 -0.7324
 5510SOL     OW28162   4.629   0.969   7.684 -0.0041  0.1272 -0.2985
 5510SOL    HW128163   4.641   1.044   7.742  0.9282 -0.9543  0.8884
 5510SOL    HW228164   4.719   0.937   7.679 -0.7814 -2.3079  1.6184
 5511SOL     OW28165   3.352   2.327  11.113 -0.3365  0.8746  0.4138
 5511SOL    HW128166   3.344   2.305  11.020  3.1965  2.8472 -0.3454
 5511SOL    HW228167   3.268   2.291  11.142 -0.6601  0.3940 -1.1337
 5512SOL     OW28168   2.611   3.405   5.472  0.0488 -0.2354  0.5273
 5512SOL    HW128169   2.576   3.480   5.424 -1.1171 -0.4876  0.9745
 5512SOL    HW228170   2.660   3.365   5.400 -1.7207 -1.9963  0.3099
 5513SOL     OW28171   0.666   2.460   1.617  0.3651 -0.3056  0.0945
 5513SOL    HW128172   0.584   2.455   1.666  2.0223 -1.2541  2.7726
 5513SOL    HW228173   0.645   2.472   1.524  0.7041 -0.6290 -0.0236
 5514SOL     OW28174   1.681   1.994   2.609 -0.1858  0.4673  0.1712
 5514SOL    HW128175   1.749   2.045   2.564  0.3189 -0.3209  0.0524
 5514SOL    HW228176   1.693   1.908   2.568 -1.1235  1.2763 -1.8116
 5515SOL     OW28177   2.937   3.628   4.609 -0.9144  0.5351 -0.2557
 5515SOL    HW128178   2.991   3.594   4.680 -1.2932 -1.5976 -0.9781
 5515SOL    HW228179   3.000   3.635   4.537 -1.3000  2.8260 -0.3603
 5516SOL     OW28180   4.187   2.981   1.888 -0.4185 -0.0364 -0.2171
 5516SOL    HW128181   4.216   2.892   1.904 -1.2986 -0.6889 -2.2909
 5516SOL    HW228182   4.235   3.026   1.958  2.5032 -3.2109 -0.2001
 5517SOL     OW28183   3.035   4.572  14.540 -0.3249  0.0291  0.2222
 5517SOL    HW128184   3.047   4.532  14.454  0.1342 -0.1289  0.3605
 5517SOL    HW228185   2.963   4.632  14.517 -0.5313 -0.5090 -0.5386
 5518SOL     OW28186   0.128   3.420   5.197 -0.1617  0.2923  0.0892
 5518SOL    HW128187   0.189   3.437   5.268  1.0480 -1.1850 -0.5878
 5518SOL    HW228188   0.089   3.341   5.233  4.2230 -0.5489  2.9368
 5519SOL     OW28189   1.542   0.879  13.811  0.1954  0.1739 -0.5226
 5519SOL    HW128190   1.495   0.843  13.886  0.0558 -1.8829 -1.5687
 5519SOL    HW228191   1.479   0.874  13.740  0.5542  0.5603 -0.8723
 5520SOL     OW28192   3.901   3.178   7.860 -0.0221  0.3655 -0.5079
 5520SOL    HW128193   3.808   3.156   7.867  0.0743  1.2396  3.4382
 5520SOL    HW228194   3.932   3.087   7.855 -0.3106  0.2906 -0.9675
 5521SOL     OW28195   4.612   3.146   2.121 -0.0438 -0.1791  0.2075
 5521SOL    HW128196   4.640   3.180   2.207  0.1851 -1.0458  0.4778
 5521SOL    HW228197   4.687   3.104   2.079 -1.6642 -2.5029 -0.3556
 5522SOL     OW28198   2.721   2.808   7.611  0.2539  0.1625 -0.4770
 5522SOL    HW128199   2.814   2.806   7.586  0.5092  0.6391  0.4479
 5522SOL    HW228200   2.681   2.850   7.535  0.1303  0.9008  0.0066
 5523SOL     OW28201   2.575   0.650   3.272 -0.0942 -0.8694 -0.4535
 5523SOL    HW128202   2.614   0.565   3.290  0.6032 -0.3003  0.7454
 5523SOL    HW228203   2.648   0.703   3.242 -0.6758 -0.4324 -1.1026
 5524SOL     OW28204   3.611   1.437   4.495 -0.6893  0.2085 -0.6323
 5524SOL    HW128205   3.578   1.526   4.507 -0.7735 -0.1141  1.5132
 5524SOL    HW228206   3.527   1.395   4.479 -1.0760  2.2796 -3.9908
 5525SOL     OW28207   0.824   1.719   4.346  0.0563  0.6205 -0.2247
 5525SOL    HW128208   0.895   1.773   4.381 -1.3481  2.0734  0.4157
 5525SOL    HW228209   0.755   1.785   4.354  0.6335  0.8689  2.6055
 5526SOL     OW28210   4.315   3.800   9.143 -0.1693  0.2354  0.1159
 5526SOL    HW128211   4.297   3.714   9.183  1.7267 -0.7756 -1.1989
 5526SOL    HW228212   4.411   3.794   9.145 -0.1957 -0.0203  0.6485
 5527SOL     OW28213   0.838   3.591   9.430 -0.2301  0.3631 -0.0191
 5527SOL    HW128214   0.782   3.668   9.433 -2.4355 -1.2334 -0.3122
 5527SOL    HW228215   0.869   3.601   9.520  1.2549 -1.7229 -0.3049
 5528SOL     OW28216   0.697   2.136   6.560 -0.1670 -0.1338  0.7671
 5528SOL    HW128217   0.624   2.198   6.565 -0.6742 -0.5199 -1.6350
 5528SOL    HW228218   0.766   2.202   6.547 -0.4639  0.3674  1.7383
 5529SOL     OW28219   3.337   2.817   4.040  0.3247  0.1503  0.0269
 5529SOL    HW128220   3.244   2.827   4.017  0.4538  0.1379 -0.4942
 5529SOL    HW228221   3.340   2.869   4.120  0.4130  0.3285 -0.0934
 5530SOL     OW28222   2.668   1.564   7.333 -0.0211  0.2159 -0.0165
 5530SOL    HW128223   2.685   1.487   7.279 -0.2438  0.2482 -0.1321
 5530SOL    HW228224   2.713   1.534   7.413 -0.1474 -0.1910 -0.0988
 5531SOL     OW28225   4.667   3.414   8.694 -0.0483  0.3153 -0.4018
 5531SOL    HW128226   4.644   3.490   8.642  1.5574  0.0454 -1.5237
 5531SOL    HW228227   0.016   3.434   8.738  0.0444 -0.8286 -0.0561
 5532SOL     OW28228   2.958   1.075  12.203 -0.4159  0.3203 -0.0714
 5532SOL    HW128229   2.903   1.047  12.276  0.3894  3.1747  1.6148
 5532SOL    HW228230   3.034   1.016  12.200  0.5030  1.5503 -0.7292
 5533SOL     OW28231   0.680   1.006   8.721  0.0820 -0.1359 -0.0513
 5533SOL    HW128232   0.737   1.058   8.777  1.0824 -0.2963 -0.9357
 5533SOL    HW228233   0.628   1.073   8.675 -0.8558  0.0160  1.2134
 5534SOL     OW28234   4.296   3.666   5.937 -0.4227 -0.1713 -0.5244
 5534SOL    HW128235   4.391   3.662   5.947 -0.3225  1.7108 -0.7724
 5534SOL    HW228236   4.281   3.689   6.029 -1.0968  0.5385 -0.8198
 5535SOL     OW28237   1.795   3.088  15.577  0.5794  1.5199 -0.2076
 5535SOL    HW128238   1.883   3.106  15.609 -0.0628 -0.4635  2.6811
 5535SOL    HW228239   1.766   3.175  15.550 -0.7754  0.7703 -1.1541
 5536SOL     OW28240   1.965   0.072  13.342 -0.4418  0.0927  0.2517
 5536SOL    HW128241   1.985   0.163  13.318  4.5269 -1.4128 -1.2693
 5536SOL    HW228242   1.875   0.064  13.309 -0.2862  2.4849 -0.7634
 5537SOL     OW28243   0.708   1.360   1.698 -0.3471  0.3510 -0.0227
 5537SOL    HW128244   0.657   1.315   1.631 -1.6372  2.1324 -0.2299
 5537SOL    HW228245   0.674   1.450   1.700  0.6365  0.6835  2.4552
 5538SOL     OW28246   2.244   3.256   7.942 -0.5260  0.5352  0.3304
 5538SOL    HW128247   2.292   3.228   8.019 -5.4121  0.9392  3.5301
 5538SOL    HW228248   2.320   3.278   7.888 -0.5548  1.1450  0.5443
 5539SOL     OW28249   3.940   2.336   8.566  0.4480  0.4963  1.2587
 5539SOL    HW128250   3.927   2.417   8.616  0.6251  1.7303 -0.6975
 5539SOL    HW228251   3.884   2.352   8.490  1.3943 -1.2064  0.2046
 5540SOL     OW28252   0.364   0.548   8.037 -0.0602  0.3531  0.1159
 5540SOL    HW128253   0.291   0.604   8.012 -1.4542 -0.4658  2.4042
 5540SOL    HW228254   0.343   0.524   8.128 -0.3813  1.1266  0.2410
 5541SOL     OW28255   4.175   3.298  11.350  0.0763  0.4312  0.1307
 5541SOL    HW128256   4.085   3.295  11.316  0.2735  0.0868 -0.3694
 5541SOL    HW228257   4.172   3.213  11.395 -0.3011  1.0655  1.2815
 5542SOL     OW28258   2.878   2.098   4.279  0.1659 -0.5024  0.1274
 5542SOL    HW128259   2.972   2.106   4.261 -0.0176  1.5568  0.0232
 5542SOL    HW228260   2.881   2.021   4.335 -1.7331  0.2931  1.3372
 5543SOL     OW28261   4.342   3.077   5.989 -0.4143  0.0736 -1.2108
 5543SOL    HW128262   4.299   3.075   6.075  0.9340  0.7114 -0.5112
 5543SOL    HW228263   4.328   3.168   5.962 -0.1557 -0.3595 -2.7916
 5544SOL     OW28264   2.852   4.541   8.670 -0.1240  0.4746  0.0119
 5544SOL    HW128265   2.805   4.465   8.635  0.0356  0.1624  0.4765
 5544SOL    HW228266   2.850   4.593   8.590 -1.8458  0.8330  0.2752
 5545SOL     OW28267   3.906   0.259   5.563 -0.2043 -0.3222 -0.1727
 5545SOL    HW128268   3.823   0.220   5.535 -1.0781  0.4076  1.3593
 5545SOL    HW228269   3.905   0.240   5.657 -0.9273 -2.2754 -0.5771
 5546SOL     OW28270   2.944   4.180   8.715 -0.4248  0.2193 -0.5789
 5546SOL    HW128271   2.888   4.227   8.654 -2.3559 -0.1021  0.9439
 5546SOL    HW228272   2.905   4.210   8.797  1.0781 -0.4503  0.3862
 5547SOL     OW28273   2.184   1.534   4.545  0.2214 -0.3647 -0.1525
 5547SOL    HW128274   2.262   1.589   4.554  1.2385 -2.2527  2.5396
 5547SOL    HW228275   2.224   1.448   4.556 -0.3207 -0.8634 -2.0998
 5548SOL     OW28276   3.810   2.511  13.815 -0.2741  0.4398 -0.1006
 5548SOL    HW128277   3.719   2.491  13.837 -0.8695  1.0942 -1.9066
 5548SOL    HW228278   3.801   2.477  13.725  2.1468 -1.7513  0.4852
 5549SOL     OW28279   3.490   1.894  17.372 -0.1234  0.8673 -0.6276
 5549SOL    HW128280   3.505   1.956  17.300  1.7607  1.3229  0.1649
 5549SOL    HW228281   3.500   1.815  17.319  2.1003  0.3232  0.6508
 5550SOL     OW28282   2.685   4.362   4.874  0.0145 -0.2405  0.1134
 5550SOL    HW128283   2.673   4.274   4.908  2.3471 -0.9389 -0.8455
 5550SOL    HW228284   2.603   4.376   4.827 -0.3333 -0.1143  0.7646
 5551SOL     OW28285   1.825   2.874   6.535 -0.3115  0.5646  0.1452
 5551SOL    HW128286   1.741   2.867   6.490 -0.3944  0.9003  0.2438
 5551SOL    HW228287   1.878   2.820   6.477 -0.3155  0.2112  0.4691
 5552SOL     OW28288   1.064   3.574   4.777 -0.1026 -0.1363 -0.5101
 5552SOL    HW128289   1.009   3.532   4.844  1.0062  1.7090  1.5572
 5552SOL    HW228290   1.119   3.503   4.744  0.2036 -0.6671  1.1455
 5553SOL     OW28291   4.283   2.746   6.688 -0.0267 -0.0582 -0.0998
 5553SOL    HW128292   4.305   2.653   6.690 -1.7635 -0.4985 -1.1421
 5553SOL    HW228293   4.196   2.737   6.727  0.0602  1.1840  0.3603
 5554SOL     OW28294   0.614   1.897   4.412  0.0423 -0.6611  0.1557
 5554SOL    HW128295   0.652   1.970   4.365 -1.0952 -0.7561 -0.9178
 5554SOL    HW228296   0.547   1.934   4.470 -0.7415 -0.8583 -0.6166
 5555SOL     OW28297   3.621   0.589   3.624 -0.0906  0.4889 -0.3224
 5555SOL    HW128298   3.560   0.521   3.596 -0.4617  1.0760 -0.9554
 5555SOL    HW228299   3.702   0.574   3.576  1.5516  1.0421  2.2830
 5556SOL     OW28300   0.564   3.063   3.214  0.1631 -0.3075  0.1751
 5556SOL    HW128301   0.478   3.033   3.246  0.7918 -2.0360  0.2489
 5556SOL    HW228302   0.539   3.112   3.136 -1.3101  0.1351  0.9162
 5557SOL     OW28303   0.701   1.401  15.769 -0.7542 -0.3607 -0.1571
 5557SOL    HW128304   0.769   1.426  15.707  0.5760 -1.7306  0.7506
 5557SOL    HW228305   0.735   1.415  15.857  0.1126 -0.8547 -0.4176
 5558SOL     OW28306   1.301   2.574   0.703  0.7099 -0.4885 -0.3376
 5558SOL    HW128307   1.224   2.532   0.741  1.4168 -0.4721  1.1299
 5558SOL    HW228308   1.346   2.593   0.786 -0.1763 -1.6871  0.4069
 5559SOL     OW28309   3.047   1.078   1.741 -0.0408  0.3571 -0.3251
 5559SOL    HW128310   3.004   1.055   1.658  0.4603 -0.7333 -0.2885
 5559SOL    HW228311   3.123   1.130   1.715 -0.9110  1.8233  0.0793
 5560SOL     OW28312   3.618   2.577   3.356 -0.3115 -0.1342  0.2811
 5560SOL    HW128313   3.544   2.637   3.367 -0.6641 -1.0970  3.1102
 5560SOL    HW228314   3.668   2.621   3.425  2.5309 -2.9433  0.0065
 5561SOL     OW28315   0.143   0.399  13.079  0.3223 -0.3744  1.0804
 5561SOL    HW128316   0.062   0.354  13.103 -1.1609  3.0126  2.5138
 5561SOL    HW228317   0.109   0.488  13.071  0.2142 -0.5203 -0.0227
 5562SOL     OW28318   0.285   2.898  15.947 -0.1346  0.1122  0.3895
 5562SOL    HW128319   0.199   2.928  15.918  0.2059 -0.3449 -1.1126
 5562SOL    HW228320   0.341   2.974  15.936  0.2611 -0.0188  1.4762
 5563SOL     OW28321   2.514   3.441   4.045 -0.3918  0.0733  0.0205
 5563SOL    HW128322   2.480   3.522   4.082  0.7769 -0.5567  2.4240
 5563SOL    HW228323   2.547   3.400   4.124  0.7547  1.3880  0.2220
 5564SOL     OW28324   3.743   0.888  16.310  0.0378  0.3905  0.8329
 5564SOL    HW128325   3.713   0.835  16.384 -0.2166  0.1666  0.5734
 5564SOL    HW228326   3.828   0.901  16.352  1.3883 -0.7733 -1.5803
 5565SOL     OW28327   4.149   1.227   2.833  0.0064  0.3690  0.3426
 5565SOL    HW128328   4.220   1.179   2.875  0.2342 -0.3571 -0.8722
 5565SOL    HW228329   4.176   1.213   2.742 -0.7873  1.4480 -0.0668
 5566SOL     OW28330   2.578   3.951   4.822  0.2953  0.1199 -0.1610
 5566SOL    HW128331   2.643   3.896   4.866  0.4231  0.0275 -0.4609
 5566SOL    HW228332   2.581   3.911   4.734 -6.0726  1.5528 -0.9919
 5567SOL     OW28333   3.984   1.068   1.853 -0.4759  0.3124  0.2660
 5567SOL    HW128334   3.994   0.973   1.841  0.0157  0.2161  1.4028
 5567SOL    HW228335   3.920   1.090   1.785  0.8845  0.2393 -1.0389
 5568SOL     OW28336   3.374   1.581   4.914  0.0684  0.0414 -0.2312
 5568SOL    HW128337   3.317   1.505   4.922  1.0135 -0.9345 -2.6798
 5568SOL    HW228338   3.307   1.649   4.909 -1.8879 -1.9537 -1.2600
 5569SOL     OW28339   4.252   1.700   2.245  0.2703  0.5514  0.6051
 5569SOL    HW128340   4.261   1.795   2.239  1.6357  0.3729 -0.1875
 5569SOL    HW228341   4.288   1.689   2.334 -0.9035 -0.1042  0.9949
 5570SOL     OW28342   2.318   0.434   2.449  0.3314  0.1531  0.0574
 5570SOL    HW128343   2.340   0.421   2.542  1.1477 -0.6941 -0.2478
 5570SOL    HW228344   2.236   0.482   2.448 -0.3742 -1.0397  0.6180
 5571SOL     OW28345   0.030   2.607   5.979  0.3004 -0.5838 -0.4316
 5571SOL    HW128346   0.006   2.699   5.963 -0.6171 -0.3556  2.1812
 5571SOL    HW228347   0.032   2.568   5.892 -1.9500  0.0444 -0.7905
 5572SOL     OW28348   3.167   4.369   7.848  0.0810 -0.0741 -0.0965
 5572SOL    HW128349   3.079   4.365   7.809 -0.2534  0.6882  0.5860
 5572SOL    HW228350   3.175   4.276   7.871  1.5199  0.1473  0.2567
 5573SOL     OW28351   1.717   4.452  15.312 -0.0969  0.2982  0.2092
 5573SOL    HW128352   1.683   4.404  15.387  1.5551  0.6997  1.2123
 5573SOL    HW228353   1.801   4.472  15.353 -0.5081 -0.4454  1.4121
 5574SOL     OW28354   0.502   1.442  16.681 -0.6642  0.2499 -0.1095
 5574SOL    HW128355   0.577   1.387  16.701 -0.8344  0.1336  0.2104
 5574SOL    HW228356   0.491   1.487  16.764 -1.0030 -2.5357  1.3657
 5575SOL     OW28357   0.162   1.303  14.763 -0.1527 -0.1650  0.5176
 5575SOL    HW128358   0.168   1.287  14.669  2.4755 -2.0063  1.0155
 5575SOL    HW228359   0.214   1.231  14.798  0.1240 -0.0131  0.4165
 5576SOL     OW28360   0.038   3.007   2.762  0.0346 -0.3340 -0.0021
 5576SOL    HW128361   4.716   3.041   2.692 -0.6276 -0.3010  0.5374
 5576SOL    HW228362   0.085   3.086   2.787  0.1392 -0.8108  1.3277
 5577SOL     OW28363   0.626   2.705   3.279  0.7015  0.6068 -0.1778
 5577SOL    HW128364   0.545   2.703   3.227 -0.3073  1.3816  1.3870
 5577SOL    HW228365   0.682   2.748   3.214 -1.2679  0.7635 -1.7623
 5578SOL     OW28366   2.728   4.215   6.922  0.1975 -0.3726 -0.3425
 5578SOL    HW128367   2.738   4.221   6.827  2.9557 -1.3132 -0.1108
 5578SOL    HW228368   2.760   4.126   6.939 -1.2906 -0.5373  1.5521
 5579SOL     OW28369   4.452   1.996  15.538 -0.8008 -0.5605 -0.3993
 5579SOL    HW128370   4.535   1.965  15.500  0.2280 -0.3549  1.6806
 5579SOL    HW228371   4.393   1.981  15.464 -1.4693  0.8964 -0.1519
 5580SOL     OW28372   1.487   3.446   2.346  0.1421  0.0439 -0.1208
 5580SOL    HW128373   1.452   3.508   2.409  0.0663 -1.6890  1.5165
 5580SOL    HW228374   1.561   3.500   2.316  0.4730 -0.3768 -0.0549
 5581SOL     OW28375   1.842   4.084   5.852  0.5933  0.5617 -0.3040
 5581SOL    HW128376   1.901   4.046   5.787  0.2308 -1.1264  0.3580
 5581SOL    HW228377   1.765   4.035   5.823  0.3564  1.8361 -1.8232
 5582SOL     OW28378   1.259   0.982   6.977 -0.9142 -0.3760  0.3323
 5582SOL    HW128379   1.257   0.981   7.073 -1.0303  0.3659  0.3357
 5582SOL    HW228380   1.166   0.963   6.963 -0.7356  1.2199 -2.8238
 5583SOL     OW28381   3.456   1.681   0.440 -0.3412  0.5784  0.0833
 5583SOL    HW128382   3.491   1.716   0.358 -0.4825 -0.6752 -0.5215
 5583SOL    HW228383   3.536   1.638   0.474  0.1579 -0.1690 -2.0635
 5584SOL     OW28384   2.869   3.314   6.628  0.4877  0.2648 -0.4839
 5584SOL    HW128385   2.927   3.238   6.622  1.5270  0.8509  2.1313
 5584SOL    HW228386   2.894   3.369   6.554 -2.5678  1.7422 -0.4361
 5585SOL     OW28387   0.496   3.982  16.055 -0.5642 -0.5236 -0.6815
 5585SOL    HW128388   0.459   3.989  16.143  0.7794  0.9948 -0.2536
 5585SOL    HW228389   0.427   3.929  16.014 -2.7323  2.0491 -0.3737
 5586SOL     OW28390   2.714   4.044   7.628  0.2582 -0.5331 -0.2706
 5586SOL    HW128391   2.795   4.082   7.662 -0.7152  0.8061  0.5447
 5586SOL    HW228392   2.707   4.084   7.541 -2.4561  1.3758  0.8432
 5587SOL     OW28393   0.579   4.592   4.809  0.0411 -0.0993 -0.5833
 5587SOL    HW128394   0.533   4.511   4.829  0.7849  0.1686  2.2146
 5587SOL    HW228395   0.667   4.576   4.844  0.4523  1.7445 -0.7652
 5588SOL     OW28396   0.552   1.241  15.928 -0.0088 -0.6258  0.6668
 5588SOL    HW128397   0.566   1.300  16.002  1.1026  0.3458 -0.3208
 5588SOL    HW228398   0.593   1.286  15.854 -0.2922  0.8180  1.3856
 5589SOL     OW28399   1.555   3.178   4.685  0.8248  0.1205  0.0523
 5589SOL    HW128400   1.553   3.109   4.752 -1.7366  0.5212  0.3934
 5589SOL    HW228401   1.557   3.255   4.741 -2.6134  2.3615 -2.9650
 5590SOL     OW28402   2.454   3.521   5.140 -0.5513 -0.1835  0.1745
 5590SOL    HW128403   2.472   3.432   5.109  0.2684 -0.5831  1.7709
 5590SOL    HW228404   2.432   3.558   5.055  0.0099 -2.1998 -0.8371
 5591SOL     OW28405   2.988   1.304  11.500 -0.0320 -0.0142 -0.2030
 5591SOL    HW128406   2.903   1.267  11.526 -0.5761  1.1841 -0.3091
 5591SOL    HW228407   3.018   1.347  11.580 -0.8912  1.4139 -0.6581
 5592SOL     OW28408   2.333   1.872   5.980  0.4942 -0.0412  0.2703
 5592SOL    HW128409   2.380   1.922   6.047 -1.9885  1.8637  0.5811
 5592SOL    HW228410   2.409   1.858   5.924  0.1849 -1.8024  0.2752
 5593SOL     OW28411   0.036   1.557  14.060 -0.3477  0.2601  0.4630
 5593SOL    HW128412   0.071   1.585  13.975 -0.4452  0.5890  0.5325
 5593SOL    HW228413   0.080   1.472  14.056 -0.1695  0.4251 -1.4496
 5594SOL     OW28414   4.651   1.583   7.625  0.2861 -0.1968  0.3108
 5594SOL    HW128415   4.686   1.667   7.656 -0.9930  1.6740 -3.3427
 5594SOL    HW228416   4.728   1.540   7.588  2.2877  2.2542  1.6242
 5595SOL     OW28417   2.402   1.728   6.402 -0.4064 -0.3229  0.4511
 5595SOL    HW128418   2.316   1.749   6.366  0.2429  1.1345 -0.2498
 5595SOL    HW228419   2.390   1.783   6.479  1.4436  0.9091 -0.1303
 5596SOL     OW28420   3.853   3.911   5.350  0.3902  0.1823  0.3193
 5596SOL    HW128421   3.835   3.886   5.260  0.5421  1.2374 -0.0131
 5596SOL    HW228422   3.947   3.897   5.357  0.3222 -1.1766 -1.6128
 5597SOL     OW28423   3.169   4.435  14.800  0.6467  0.1418 -0.5819
 5597SOL    HW128424   3.087   4.400  14.834  1.2174  0.3548  0.9804
 5597SOL    HW228425   3.126   4.497  14.740 -1.1128  0.5787  1.1421
 5598SOL     OW28426   3.222   2.729   8.608 -0.0580  0.2534  0.2174
 5598SOL    HW128427   3.210   2.800   8.671 -0.3787 -1.1087  1.6816
 5598SOL    HW228428   3.223   2.771   8.523 -0.4465 -1.1277 -0.4706
 5599SOL     OW28429   1.552   0.981   9.076 -0.0596  0.6499  0.2074
 5599SOL    HW128430   1.504   1.039   9.017 -0.6082 -0.7397 -0.7046
 5599SOL    HW228431   1.509   0.898   9.058  0.4979  1.0228 -2.8801
 5600SOL     OW28432   1.537   3.366   1.759 -0.3701  0.0597  0.0755
 5600SOL    HW128433   1.486   3.447   1.764 -1.3188 -0.6171  1.5444
 5600SOL    HW228434   1.486   3.319   1.693 -3.5752  0.9031  1.9581
 5601SOL     OW28435   4.407   1.583  11.911  0.0705 -0.1377 -0.2215
 5601SOL    HW128436   4.441   1.621  11.830  2.2205 -0.2802  0.6356
 5601SOL    HW228437   4.467   1.638  11.960 -1.0467  0.9187 -0.0157
 5602SOL     OW28438   4.576   0.672  12.538  0.1799  0.1341  0.0191
 5602SOL    HW128439   4.522   0.751  12.538  1.7935  1.2470  1.5286
 5602SOL    HW228440   4.528   0.633  12.465 -1.4104  1.5332  0.3223
 5603SOL     OW28441   0.186   1.207   5.399 -0.1647  0.1873  0.4012
 5603SOL    HW128442   0.116   1.168   5.346 -2.3654  1.2893  2.4879
 5603SOL    HW228443   0.213   1.130   5.448 -1.5146 -0.4090  0.2187
 5604SOL     OW28444   1.498   0.811   3.894  0.4869 -0.3483 -0.6867
 5604SOL    HW128445   1.583   0.855   3.901  0.8489 -1.6186  2.6423
 5604SOL    HW228446   1.436   0.884   3.890 -0.4924 -1.0771  1.3555
 5605SOL     OW28447   1.050   1.186   4.770 -0.0466 -0.2954 -0.0831
 5605SOL    HW128448   1.059   1.095   4.740  1.2421 -0.4076  0.6128
 5605SOL    HW228449   1.057   1.187   4.866 -1.1373  1.4067 -0.0224
 5606SOL     OW28450   2.789   4.424   5.448  0.1832  0.3349  0.2212
 5606SOL    HW128451   2.802   4.361   5.377  2.1425 -2.0831  2.7116
 5606SOL    HW228452   2.877   4.462   5.445 -0.2505  1.4603  1.9107
 5607SOL     OW28453   3.261   1.119   2.939 -0.2989 -0.3039 -0.0132
 5607SOL    HW128454   3.328   1.053   2.951 -0.2070  0.1031  1.6753
 5607SOL    HW228455   3.300   1.200   2.973  2.7508 -2.2324  1.0091
 5608SOL     OW28456   3.727   2.929  14.422 -0.1419  0.2840  0.1201
 5608SOL    HW128457   3.668   2.957  14.352 -1.4998 -0.6694  0.8854
 5608SOL    HW228458   3.741   3.007  14.476 -1.4798 -0.4291  1.4656
 5609SOL     OW28459   3.735   1.709   2.144 -0.6085  0.9128 -0.0753
 5609SOL    HW128460   3.802   1.703   2.076 -0.5126  0.3688  0.0585
 5609SOL    HW228461   3.654   1.727   2.097 -1.6842  0.3161  1.5420
 5610SOL     OW28462   0.796   2.001  13.751 -0.3538 -0.4601  0.5503
 5610SOL    HW128463   0.888   2.025  13.764 -1.2538  2.6043  1.3084
 5610SOL    HW228464   0.755   2.086  13.731 -1.1641 -0.6885  1.2075
 5611SOL     OW28465   2.488   1.649   9.995 -0.2887  0.1505 -0.1041
 5611SOL    HW128466   2.481   1.590   9.919 -1.2437 -0.8161  0.7373
 5611SOL    HW228467   2.400   1.651  10.031 -0.5845  0.0901 -0.8146
 5612SOL     OW28468   3.254   1.488   3.818  0.5285 -0.5824  0.0048
 5612SOL    HW128469   3.276   1.575   3.784 -0.8139  0.9127  3.0100
 5612SOL    HW228470   3.213   1.443   3.744 -0.8540  2.5585 -1.1385
 5613SOL     OW28471   0.859   1.938   3.160  0.0459  0.5536 -0.4080
 5613SOL    HW128472   0.862   1.929   3.255  1.8735 -2.6399 -0.7666
 5613SOL    HW228473   0.937   1.988   3.137  0.2575 -0.9127 -2.8665
 5614SOL     OW28474   3.312   1.745   5.328 -0.2285 -0.0129  0.7955
 5614SOL    HW128475   3.233   1.692   5.315 -0.9162  1.5582 -1.2914
 5614SOL    HW228476   3.316   1.800   5.250  1.1359  0.1857  1.0113
 5615SOL     OW28477   1.078   4.657   4.803 -0.2540  0.2839 -0.1860
 5615SOL    HW128478   1.025   4.635   4.879 -0.8552  1.4081 -0.2858
 5615SOL    HW228479   1.104   4.569   4.777  1.3842  0.2792  1.4958
 5616SOL     OW28480   4.043   1.273   8.895 -0.2300  0.1528 -0.6038
 5616SOL    HW128481   4.011   1.189   8.862 -0.0500  0.0224 -0.4464
 5616SOL    HW228482   4.064   1.250   8.986  0.3914 -1.4622 -1.1456
 5617SOL     OW28483   1.568   1.898   8.475  0.4785  0.0395 -0.4833
 5617SOL    HW128484   1.593   1.984   8.440 -1.8424  0.9312  0.1055
 5617SOL    HW228485   1.475   1.919   8.474  0.8494  1.5684 -3.5310
 5618SOL     OW28486   3.247   4.667   3.552  0.4373 -0.3034  0.1176
 5618SOL    HW128487   3.295   4.589   3.521 -1.8673 -0.2479 -3.5681
 5618SOL    HW228488   3.250   4.651   3.646  3.4631  0.6511  0.1877
 5619SOL     OW28489   1.671   4.554  13.127 -0.4233 -0.1767  0.0625
 5619SOL    HW128490   1.655   4.646  13.146 -1.5998 -0.6052  1.1995
 5619SOL    HW228491   1.609   4.543  13.054 -0.7730  1.3852  0.1348
 5620SOL     OW28492   4.183   3.118  12.784 -0.0609  0.2813  0.4833
 5620SOL    HW128493   4.231   3.104  12.866 -1.7224 -2.8906  0.9207
 5620SOL    HW228494   4.108   3.061  12.800  2.2943 -2.5424  1.4316
 5621SOL     OW28495   1.114   1.320  10.929  0.6048 -0.0214  0.0233
 5621SOL    HW128496   1.072   1.235  10.918  1.2593 -0.3661  0.1518
 5621SOL    HW228497   1.064   1.349  11.006 -0.6406  0.4344 -0.9627
 5622SOL     OW28498   3.720   1.055   4.791 -0.0788 -0.1035 -0.1170
 5622SOL    HW128499   3.732   1.150   4.795 -0.9509 -0.0811  1.8380
 5622SOL    HW228500   3.637   1.036   4.833  0.8915 -1.4616  1.2027
 5623SOL     OW28501   0.570   3.900  12.986  0.2122 -0.0869  0.6459
 5623SOL    HW128502   0.534   3.917  12.900 -2.9041  1.9627  2.3661
 5623SOL    HW228503   0.567   3.805  12.996 -1.4517  0.0488  1.4957
 5624SOL     OW28504   3.392   4.140   4.036 -0.5025  0.4238 -0.0471
 5624SOL    HW128505   3.299   4.129   4.053 -0.9611  1.7735 -1.7857
 5624SOL    HW228506   3.429   4.085   4.105 -1.9648  1.0822  1.2471
 5625SOL     OW28507   0.472   4.053  13.211  0.1851  0.0141 -0.2845
 5625SOL    HW128508   0.461   4.132  13.159 -1.1006 -0.9500 -1.4596
 5625SOL    HW228509   0.506   4.000  13.140  0.2616  1.0590 -1.0252
 5626SOL     OW28510   1.205   0.708   0.578 -0.4029 -0.0803  0.2760
 5626SOL    HW128511   1.163   0.705   0.663  0.7381 -0.5290  0.8187
 5626SOL    HW228512   1.275   0.643   0.581  0.5931  1.0113  0.6194
 5627SOL     OW28513   0.381   3.107   1.955  0.0819  0.5723 -0.0495
 5627SOL    HW128514   0.360   3.116   2.049  2.3561 -1.1066  0.6045
 5627SOL    HW228515   0.476   3.109   1.966 -0.1528  1.1823  1.9370
 5628SOL     OW28516   2.698   1.345   0.584  0.0988  0.1864 -0.0817
 5628SOL    HW128517   2.669   1.385   0.666  0.6474  0.7825 -0.1813
 5628SOL    HW228518   2.613   1.317   0.550  0.7498 -0.7818 -0.9099
 5629SOL     OW28519   0.570   0.645   4.752 -0.3002  0.0850 -0.0961
 5629SOL    HW128520   0.631   0.718   4.746  0.3181 -0.5839 -1.8746
 5629SOL    HW228521   0.592   0.594   4.674 -0.2601 -0.3042  0.1679
 5630SOL     OW28522   1.420   3.375  10.145  0.1119  1.2367 -0.3341
 5630SOL    HW128523   1.453   3.358  10.234 -1.6626  1.6849  0.4127
 5630SOL    HW228524   1.372   3.457  10.148  0.2361  1.3962 -3.0163
 5631SOL     OW28525   1.750   1.431   5.024 -0.1419  0.9023  0.3125
 5631SOL    HW128526   1.843   1.427   5.001 -0.3584  0.3529 -0.4490
 5631SOL    HW228527   1.718   1.341   5.024  0.9460  0.5054  3.0790
 5632SOL     OW28528   4.365   1.726   6.760  0.0208  0.3279 -0.1043
 5632SOL    HW128529   4.443   1.737   6.706  0.4312 -1.1608  0.1779
 5632SOL    HW228530   4.293   1.773   6.718 -0.0642  0.7939  0.5650
 5633SOL     OW28531   3.183   1.935   4.527 -0.2926  0.5292  0.3359
 5633SOL    HW128532   3.088   1.936   4.517 -0.4779 -0.0061  2.0607
 5633SOL    HW228533   3.218   2.004   4.471  0.3028 -0.3417 -0.3702
 5634SOL     OW28534   1.027   0.181   6.169  0.2374  0.4052  0.0058
 5634SOL    HW128535   1.116   0.209   6.152 -0.1085  0.0624 -2.3338
 5634SOL    HW228536   0.975   0.251   6.129 -1.0517 -0.7311 -0.3101
 5635SOL     OW28537   0.752   1.645   3.505 -0.8069 -0.0018 -0.1111
 5635SOL    HW128538   0.777   1.553   3.504  0.1804  0.2745 -1.6578
 5635SOL    HW228539   0.769   1.677   3.594 -1.2182  0.7706 -0.3107
 5636SOL     OW28540   4.507   2.306   7.380 -0.4873 -0.1693  0.9729
 5636SOL    HW128541   4.561   2.350   7.446  1.3963 -1.4080  0.2804
 5636SOL    HW228542   4.438   2.259   7.426 -0.8078 -1.0862 -0.4301
 5637SOL     OW28543   0.309   4.275   5.425 -0.4051 -0.2176 -0.4315
 5637SOL    HW128544   0.222   4.266   5.387 -2.0854  0.1750  3.3105
 5637SOL    HW228545   0.287   4.324   5.504  0.5556  0.8386 -0.8287
 5638SOL     OW28546   1.208   0.940   7.255 -0.4863  0.5391  0.2589
 5638SOL    HW128547   1.233   0.858   7.298  1.0510 -0.6739 -2.9343
 5638SOL    HW228548   1.219   1.003   7.326 -0.5274 -0.2761  0.9904
 5639SOL     OW28549   0.649   0.306  17.428  0.5628 -0.5271  0.5835
 5639SOL    HW128550   0.636   0.273  17.516 -1.3810 -0.4937  0.3153
 5639SOL    HW228551   0.682   0.393  17.449  0.7069 -0.2668 -0.7033
 5640SOL     OW28552   1.535   1.050   8.126  0.1674 -0.0255 -0.2788
 5640SOL    HW128553   1.607   1.033   8.187 -0.5270 -1.6839  0.0766
 5640SOL    HW228554   1.500   1.128   8.168 -1.5377 -0.2391 -1.3043
 5641SOL     OW28555   1.035   1.936   4.473 -0.0552  0.1143  0.6957
 5641SOL    HW128556   1.042   1.954   4.566 -0.5373  1.2043  0.5242
 5641SOL    HW228557   1.042   2.021   4.429 -1.6447 -1.4003 -2.5528
 5642SOL     OW28558   2.196   2.123   7.354  0.0574 -0.0626  0.3863
 5642SOL    HW128559   2.205   2.063   7.280  2.1990 -0.8103  1.2278
 5642SOL    HW228560   2.239   2.196   7.308 -1.0261  0.3106 -0.0292
 5643SOL     OW28561   2.865   1.766   3.401  0.2701  0.1886 -0.5401
 5643SOL    HW128562   2.923   1.691   3.394 -0.3365  0.0678 -4.4071
 5643SOL    HW228563   2.810   1.737   3.474  1.7668 -0.4597  0.3168
 5644SOL     OW28564   4.200   1.707   7.930  0.4525 -0.2428 -0.2416
 5644SOL    HW128565   4.253   1.695   7.851 -0.2695 -0.5430 -0.6752
 5644SOL    HW228566   4.256   1.648   7.982  0.1866  0.8283  1.2741
 5645SOL     OW28567   3.443   1.406  12.498  0.3911  0.0034  0.7333
 5645SOL    HW128568   3.384   1.481  12.499 -0.2552 -0.5117  1.6753
 5645SOL    HW228569   3.522   1.443  12.459  0.0398 -0.0008  0.0262
 5646SOL     OW28570   3.764   0.859   8.861  0.1841 -0.6366  0.3101
 5646SOL    HW128571   3.824   0.804   8.812  1.8779  0.4974  1.1182
 5646SOL    HW228572   3.711   0.803   8.918 -1.8482  0.6434 -0.2944
 5647SOL     OW28573   4.612   2.313  11.940  0.6671  0.1165 -0.0434
 5647SOL    HW128574   4.560   2.348  11.867  0.8856  1.8001  0.6238
 5647SOL    HW228575   4.593   2.380  12.006  2.1931  0.5583 -0.0688
 5648SOL     OW28576   0.784   1.063  16.939 -0.2412 -0.3887  0.1694
 5648SOL    HW128577   0.762   0.976  16.972 -1.0669 -0.5332 -0.7524
 5648SOL    HW228578   0.703   1.114  16.948 -1.1871 -1.7939 -0.4649
 5649SOL     OW28579   0.532   0.667   0.668  0.4762 -0.5347 -0.3315
 5649SOL    HW128580   0.553   0.750   0.710 -0.9205  0.5253 -1.7292
 5649SOL    HW228581   0.481   0.620   0.735  1.0143  1.0983  1.2310
 5650SOL     OW28582   0.887   0.381   7.729  0.0353  0.3181 -0.5300
 5650SOL    HW128583   0.875   0.370   7.634 -0.9179 -0.8048 -0.2750
 5650SOL    HW228584   0.898   0.291   7.760  0.4680  0.3596 -0.5616
 5651SOL     OW28585   0.767   3.800   5.898 -0.0792 -0.2050  0.5048
 5651SOL    HW128586   0.821   3.737   5.849 -0.9044 -1.6134  1.4213
 5651SOL    HW228587   0.771   3.875   5.839 -1.4946 -0.4766  0.0530
 5652SOL     OW28588   0.247   0.975   7.252  0.7330 -0.3497  0.1906
 5652SOL    HW128589   0.319   1.012   7.201 -0.5931  2.9225  0.6959
 5652SOL    HW228590   0.263   0.881   7.255 -2.0279 -0.9169 -2.5107
 5653SOL     OW28591   0.472   2.354   6.706  0.1119 -0.1202  1.0375
 5653SOL    HW128592   0.514   2.433   6.674 -0.7322  0.8317  2.2763
 5653SOL    HW228593   0.403   2.336   6.642  1.2399 -0.5215 -0.0658
 5654SOL     OW28594   1.109   1.359   7.363  0.3434 -0.5904  0.0007
 5654SOL    HW128595   1.078   1.428   7.421  0.9662 -1.6775  1.6209
 5654SOL    HW228596   1.075   1.281   7.408  1.4316 -1.3923 -0.5677
 5655SOL     OW28597   3.762   1.790   1.258 -0.7379  0.4367  0.5869
 5655SOL    HW128598   3.853   1.802   1.230 -0.8109  0.4884  0.3747
 5655SOL    HW228599   3.736   1.792   1.166  0.3375 -1.0445  0.2534
 5656SOL     OW28600   2.344   2.233  12.679 -0.0543  0.1031  0.0371
 5656SOL    HW128601   2.338   2.297  12.750 -0.5697  0.9741 -0.7990
 5656SOL    HW228602   2.350   2.147  12.720 -0.5497  1.3776  2.7617
 5657SOL     OW28603   4.453   0.869   1.743 -0.4908  0.4935 -0.5655
 5657SOL    HW128604   4.486   0.955   1.771 -0.2388  0.5627 -1.0622
 5657SOL    HW228605   4.421   0.841   1.828  1.0467 -0.0446 -0.1635
 5658SOL     OW28606   0.899   4.599  12.763  0.3158  0.0651 -0.7640
 5658SOL    HW128607   0.859   4.681  12.735  0.6188  0.0195 -1.3316
 5658SOL    HW228608   0.889   4.599  12.858  0.9075 -1.5363 -0.6960
 5659SOL     OW28609   1.574   3.838   1.050  0.2042 -0.2810 -0.1434
 5659SOL    HW128610   1.616   3.923   1.066 -0.8572  0.5748 -1.8188
 5659SOL    HW228611   1.499   3.864   1.104  1.2817 -0.0384  1.2060
 5660SOL     OW28612   2.919   0.690   8.687  0.1215 -0.6138  0.2289
 5660SOL    HW128613   2.910   0.733   8.772 -0.5502 -1.7044  0.7146
 5660SOL    HW228614   3.015   0.679   8.684  0.1519  0.1678 -1.5119
 5661SOL     OW28615   1.221   2.585   8.514  0.4063  0.0188  0.5969
 5661SOL    HW128616   1.127   2.570   8.526  0.5703 -0.7040  0.9702
 5661SOL    HW228617   1.213   2.642   8.437  2.9708 -1.2313 -0.5856
 5662SOL     OW28618   0.195   1.389  13.750 -0.1317 -0.2891  0.6846
 5662SOL    HW128619   0.205   1.355  13.839 -1.2278  0.6471  1.1537
 5662SOL    HW228620   0.161   1.478  13.762 -0.5183 -0.5445  1.4249
 5663SOL     OW28621   0.537   4.233   6.753  0.3228 -0.1329 -0.1445
 5663SOL    HW128622   0.584   4.170   6.809  0.5683  0.1328 -0.0497
 5663SOL    HW228623   0.596   4.307   6.767 -0.2068  0.2666 -0.0112
 5664SOL     OW28624   4.630   4.590   0.057 -0.6041  0.1077  0.7612
 5664SOL    HW128625   4.680   4.513   0.028 -2.2842 -0.7725  0.1976
 5664SOL    HW228626   4.546   4.560   0.023 -1.6667  1.3262  2.3138
 5665SOL     OW28627   1.091   3.765   8.315 -0.1250 -0.2771  0.0253
 5665SOL    HW128628   1.091   3.677   8.354 -1.5675 -0.1694  0.2658
 5665SOL    HW228629   1.164   3.799   8.366  0.9279  0.4483 -1.9753
 5666SOL     OW28630   2.944   1.435   4.261  0.2345 -0.2459 -0.0879
 5666SOL    HW128631   2.933   1.343   4.284  0.0424  0.1071  1.2555
 5666SOL    HW228632   2.983   1.426   4.174 -0.7049 -0.9592 -0.4349
 5667SOL     OW28633   0.869   3.433   4.125  0.4534 -0.2409 -0.0834
 5667SOL    HW128634   0.832   3.365   4.181 -0.1199  1.2094  1.3237
 5667SOL    HW228635   0.876   3.377   4.048 -0.3973 -0.2493 -0.1620
 5668SOL     OW28636   0.652   1.706   5.486  0.4639  0.5483 -0.2750
 5668SOL    HW128637   0.565   1.743   5.470  0.6806  0.7398 -1.0325
 5668SOL    HW228638   0.625   1.630   5.538 -0.2777 -0.5933 -2.3168
 5669SOL     OW28639   4.146   1.903   9.038  0.0859 -0.3031  0.3675
 5669SOL    HW128640   4.103   1.913   9.123  1.9309 -0.9804  1.3906
 5669SOL    HW228641   4.072   1.904   8.977 -0.7845 -0.4584  1.4128
 5670SOL     OW28642   1.393   0.554   8.190  0.2214  0.0265  0.1641
 5670SOL    HW128643   1.414   0.536   8.281 -1.5856 -0.2553  0.5103
 5670SOL    HW228644   1.472   0.515   8.151  0.6389 -1.1290  2.1664
 5671SOL     OW28645   3.711   2.581   3.082  0.0805 -0.5936  0.3753
 5671SOL    HW128646   3.694   2.585   3.176  0.4917 -0.2134  0.4343
 5671SOL    HW228647   3.623   2.551   3.058 -0.3658  1.4264 -0.4833
 5672SOL     OW28648   1.856   1.025   0.241  0.0224  0.3854 -0.1835
 5672SOL    HW128649   1.874   1.089   0.309  1.0898 -0.7578  0.6350
 5672SOL    HW228650   1.897   1.058   0.161  1.6502  0.0313  0.4992
 5673SOL     OW28651   0.139   3.656   3.809 -0.1014  0.5431 -0.3283
 5673SOL    HW128652   0.136   3.728   3.873  1.7081 -0.3398  0.7731
 5673SOL    HW228653   0.231   3.629   3.816 -0.5319 -0.7332  0.2981
 5674SOL     OW28654   0.467   0.990   3.938 -0.4520 -0.4752  0.4191
 5674SOL    HW128655   0.502   1.049   4.005  0.3998  0.5717 -0.9353
 5674SOL    HW228656   0.379   0.981   3.975 -0.1768  0.0284  1.1840
 5675SOL     OW28657   1.735   1.919   1.302 -0.5176 -0.3614 -0.2935
 5675SOL    HW128658   1.656   1.954   1.343 -0.2102 -0.1547  0.1187
 5675SOL    HW228659   1.792   1.908   1.378 -1.2428 -0.2991  0.2559
 5676SOL     OW28660   0.726   0.363  12.246 -0.5377  0.1161 -0.2774
 5676SOL    HW128661   0.631   0.348  12.244 -0.5571  0.3645 -1.5815
 5676SOL    HW228662   0.720   0.453  12.279 -2.9697 -0.8829  2.0361
 5677SOL     OW28663   2.696   0.270   7.389  0.3235  0.0075  0.7062
 5677SOL    HW128664   2.662   0.181   7.389  0.8661 -0.1993 -0.5999
 5677SOL    HW228665   2.715   0.282   7.482  1.6357  0.2438  0.4169
 5678SOL     OW28666   2.376   0.966  10.445 -0.2831 -0.1964 -0.5976
 5678SOL    HW128667   2.467   0.969  10.476 -1.3702  2.2625  2.3131
 5678SOL    HW228668   2.391   0.906  10.371  1.6229  0.4737 -0.7804
 5679SOL     OW28669   0.164   1.596   5.133  0.4797  0.6687 -0.4527
 5679SOL    HW128670   0.088   1.615   5.188  1.1944  1.0613  0.4021
 5679SOL    HW228671   0.143   1.656   5.061 -0.3347 -1.1954 -1.7562
 5680SOL     OW28672   3.375   2.482   5.526  0.7994 -0.1651 -0.5779
 5680SOL    HW128673   3.329   2.464   5.444 -0.9780  0.1818  0.3436
 5680SOL    HW228674   3.410   2.568   5.505  2.0986 -0.7452 -0.7915
 5681SOL     OW28675   0.298   3.752   3.537 -0.1013 -0.1154  0.1454
 5681SOL    HW128676   0.301   3.691   3.463 -2.6952 -1.3506  1.0459
 5681SOL    HW228677   0.383   3.743   3.578 -0.0663 -1.9172 -0.3013
 5682SOL     OW28678   0.506   4.281   1.744  0.4359  0.0720  0.3061
 5682SOL    HW128679   0.499   4.270   1.649  1.6226 -0.3792  0.2631
 5682SOL    HW228680   0.586   4.228   1.754  0.2302 -0.1975  0.5338
 5683SOL     OW28681   3.648   1.800   3.839 -0.2038  0.3691 -0.1174
 5683SOL    HW128682   3.594   1.878   3.828 -0.8555 -0.1101 -0.2944
 5683SOL    HW228683   3.606   1.749   3.908  0.6735  0.6196  0.6082
 5684SOL     OW28684   2.048   1.213   5.662 -0.8900 -0.4795 -0.4031
 5684SOL    HW128685   2.046   1.249   5.750  0.6476 -0.5605 -0.3386
 5684SOL    HW228686   1.983   1.142   5.665  0.2786 -1.4995  0.7822
 5685SOL     OW28687   1.243   0.616   5.346 -0.0008 -0.5632  0.9591
 5685SOL    HW128688   1.164   0.563   5.335 -0.9838  1.3251 -1.0288
 5685SOL    HW228689   1.261   0.590   5.437  0.3610 -1.2192  0.6999
 5686SOL     OW28690   2.226   4.137   4.760  0.0092 -0.0174 -0.0197
 5686SOL    HW128691   2.174   4.175   4.689 -0.7927 -0.5646  0.2880
 5686SOL    HW228692   2.157   4.112   4.821 -0.2879  1.2834  0.1777
 5687SOL     OW28693   3.662   0.474   9.027 -0.3984  0.1502  0.4129
 5687SOL    HW128694   3.580   0.431   9.052 -0.8045  0.4286 -0.4429
 5687SOL    HW228695   3.626   0.549   8.980 -2.3070 -0.6900  0.5190
 5688SOL     OW28696   2.329   4.694   7.350  0.1028 -0.1173 -0.2540
 5688SOL    HW128697   2.347   0.053   7.340  1.4977 -0.3985 -0.3915
 5688SOL    HW228698   2.237   4.691   7.324  0.1108 -2.7734 -0.0085
 5689SOL     OW28699   3.693   1.670   4.205 -0.5016  0.5332  0.3345
 5689SOL    HW128700   3.614   1.638   4.160 -0.5405 -0.0241  0.7970
 5689SOL    HW228701   3.678   1.764   4.207 -0.5998  0.5718 -2.0976
 5690SOL     OW28702   0.886   4.099   3.508  0.1428 -0.1109  0.9077
 5690SOL    HW128703   0.866   4.095   3.414  0.2677  0.1131  0.8725
 5690SOL    HW228704   0.960   4.159   3.517 -0.7950  1.0505  0.8220
 5691SOL     OW28705   2.763   3.660  10.885  0.4670 -0.4075 -0.0532
 5691SOL    HW128706   2.852   3.625  10.888  0.8912  0.7308  0.5204
 5691SOL    HW228707   2.747   3.684  10.794  1.7796 -0.5607 -0.3257
 5692SOL     OW28708   3.204   2.807   4.374 -0.2649 -0.3504  0.4544
 5692SOL    HW128709   3.153   2.870   4.322 -0.0266 -1.1982 -0.7838
 5692SOL    HW228710   3.290   2.815   4.334 -0.7801  1.5530 -0.2842
 5693SOL     OW28711   0.075   2.263   6.882 -0.0045 -0.1688  0.5891
 5693SOL    HW128712   0.091   2.198   6.813  0.9551 -0.6624  1.2764
 5693SOL    HW228713   0.113   2.339   6.837  2.4291  0.5386  3.8518
 5694SOL     OW28714   1.163   2.881   1.886  0.6910  0.1054 -0.4130
 5694SOL    HW128715   1.193   2.970   1.868  1.0296 -0.1796 -1.2303
 5694SOL    HW228716   1.118   2.889   1.971 -0.6908 -0.3260 -1.1008
 5695SOL     OW28717   1.366   0.153  15.207 -0.8138 -0.6747  0.2354
 5695SOL    HW128718   1.349   0.226  15.148 -0.8334 -0.9241 -0.0698
 5695SOL    HW228719   1.355   0.077  15.150  0.7361 -1.6928  1.3097
 5696SOL     OW28720   2.091   0.803   8.375  0.3830 -0.4903  0.3135
 5696SOL    HW128721   1.996   0.800   8.387  0.2791 -0.3672 -0.4778
 5696SOL    HW228722   2.104   0.752   8.295 -0.3934 -0.3909  0.1255
 5697SOL     OW28723   3.616   2.913   4.779  0.3820  0.0812  0.0547
 5697SOL    HW128724   3.533   2.941   4.740 -0.4862 -1.1675  0.9741
 5697SOL    HW228725   3.674   2.900   4.705  1.2982 -1.3800  1.0238
 5698SOL     OW28726   1.831   3.574   3.709 -0.1508 -0.6809  1.1210
 5698SOL    HW128727   1.792   3.630   3.776 -1.9263 -0.5217 -0.0407
 5698SOL    HW228728   1.764   3.509   3.689  0.8668 -1.9786  1.9618
 5699SOL     OW28729   4.061   3.308   3.188  0.2293  0.1854  0.0791
 5699SOL    HW128730   4.039   3.219   3.214  0.2073  0.5594  1.3440
 5699SOL    HW228731   4.148   3.330   3.222 -0.2380  1.1228  0.6722
 5700SOL     OW28732   2.624   1.634   7.983 -0.0803 -0.7558 -0.1094
 5700SOL    HW128733   2.598   1.723   7.961  1.1899 -0.7535 -1.6153
 5700SOL    HW228734   2.546   1.590   7.948  0.6531 -0.5898 -1.9042
 5701SOL     OW28735   3.228   1.665   1.723 -0.2752 -0.0664  0.1538
 5701SOL    HW128736   3.233   1.602   1.795  0.9460  0.1349  0.2573
 5701SOL    HW228737   3.136   1.690   1.728  0.5114  3.0841 -0.9214
 5702SOL     OW28738   2.860   2.821  11.428 -0.3581  0.3667  0.0201
 5702SOL    HW128739   2.896   2.732  11.434 -1.8238 -0.1798  0.5065
 5702SOL    HW228740   2.906   2.846  11.347 -0.7484 -0.6691 -0.5318
 5703SOL     OW28741   1.564   4.027   7.536 -0.4515 -0.1490 -0.0731
 5703SOL    HW128742   1.583   4.070   7.619 -0.1356 -1.3800  0.4845
 5703SOL    HW228743   1.587   4.096   7.473 -1.5972  0.7823  0.5166
 5704SOL     OW28744   2.438   3.738   7.195 -0.7491  0.3412 -0.0593
 5704SOL    HW128745   2.410   3.650   7.171  0.4832 -0.6089  2.0491
 5704SOL    HW228746   2.424   3.793   7.117 -2.9708 -0.2644 -0.0957
 5705SOL     OW28747   0.078   0.492   8.152  0.1491 -0.7300  0.4244
 5705SOL    HW128748   0.061   0.585   8.163  1.4491 -0.2596 -1.4702
 5705SOL    HW228749   0.026   0.456   8.224 -2.2766  1.0142 -0.4674
 5706SOL     OW28750   0.565   4.486   5.471 -1.0421  0.4236  0.1734
 5706SOL    HW128751   0.474   4.483   5.499 -0.6457  1.3198  1.5280
 5706SOL    HW228752   0.614   4.439   5.538 -0.7534 -1.5667 -1.3882
 5707SOL     OW28753   1.860   3.189   5.180 -0.2597 -0.4541  0.4343
 5707SOL    HW128754   1.828   3.157   5.264 -2.5455 -1.6118 -0.8714
 5707SOL    HW228755   1.932   3.130   5.160  0.8847  1.1282 -0.1502
 5708SOL     OW28756   4.418   3.372   7.342  0.1205 -0.1120  0.0411
 5708SOL    HW128757   4.492   3.431   7.359  0.5063 -0.3332 -0.8581
 5708SOL    HW228758   4.453   3.288   7.370 -1.8589 -0.8218  0.3586
 5709SOL     OW28759   0.512   2.556   4.568  0.6170 -0.4845  0.2119
 5709SOL    HW128760   0.576   2.510   4.513 -1.0816  0.1641 -2.2941
 5709SOL    HW228761   0.555   2.536   4.651  0.7662 -0.6765  0.0902
 5710SOL     OW28762   2.126   4.616  13.164 -0.1025 -0.2357  0.2939
 5710SOL    HW128763   2.075   4.681  13.212 -0.4022  0.0594 -0.4162
 5710SOL    HW228764   2.213   4.657  13.166 -0.7689  1.2042  0.0394
 5711SOL     OW28765   2.073   2.943   9.135  0.1073  0.2949  0.0958
 5711SOL    HW128766   1.994   2.985   9.170  0.3409  0.2690  0.6602
 5711SOL    HW228767   2.043   2.860   9.099  0.3832  0.4715 -0.5298
 5712SOL     OW28768   1.272   4.692   5.326  0.0205  0.5548  0.2853
 5712SOL    HW128769   1.326   4.715   5.401  0.9264  0.3151 -0.2970
 5712SOL    HW228770   1.343   4.704   5.262 -1.3216  0.0188 -1.3117
 5713SOL     OW28771   2.832   3.198  14.153  0.0960  0.3472  0.0885
 5713SOL    HW128772   2.828   3.242  14.069  1.5700 -0.6694 -0.4997
 5713SOL    HW228773   2.772   3.261  14.195 -0.3643  0.3048 -0.5025
 5714SOL     OW28774   1.568   3.678   3.832  0.2719 -0.2482 -0.0644
 5714SOL    HW128775   1.554   3.608   3.769 -1.3238  0.7751 -0.8269
 5714SOL    HW228776   1.494   3.667   3.891 -1.8726 -1.0987 -2.9139
 5715SOL     OW28777   2.924   2.965   3.477 -0.2878 -0.3101  0.7096
 5715SOL    HW128778   2.980   2.903   3.525 -0.2798 -1.2299 -0.4916
 5715SOL    HW228779   2.927   3.052   3.517  0.5237  1.1087 -2.4136
 5716SOL     OW28780   1.596   3.585   7.543  0.8354  0.0141  0.0472
 5716SOL    HW128781   1.506   3.571   7.516  0.8551  0.2208 -0.1232
 5716SOL    HW228782   1.646   3.508   7.515  1.5856  1.0471 -1.4109
 5717SOL     OW28783   4.068   2.224  13.784  0.2685  0.1668 -0.2568
 5717SOL    HW128784   4.004   2.208  13.715  0.1157 -0.1928 -0.0323
 5717SOL    HW228785   4.150   2.231  13.735  1.3627 -1.2780  1.3698
 5718SOL     OW28786   0.234   0.573   3.323  0.0954  0.3398  0.0619
 5718SOL    HW128787   0.227   0.668   3.312 -2.7565  0.3604  2.0561
 5718SOL    HW228788   0.141   0.552   3.331  0.5720 -1.3320  1.2000
 5719SOL     OW28789   4.237   3.364  13.980 -0.4374 -0.3781 -0.1227
 5719SOL    HW128790   4.177   3.319  14.039 -1.2186 -0.9247 -1.3211
 5719SOL    HW228791   4.319   3.327  14.012 -0.2251 -0.2734 -0.5407
 5720SOL     OW28792   3.775   2.160   6.419  0.3974 -0.2383  0.2993
 5720SOL    HW128793   3.703   2.107   6.452 -0.3497  0.3634 -0.3647
 5720SOL    HW228794   3.834   2.162   6.494  0.8927  1.4375 -0.1216
 5721SOL     OW28795   3.805   0.314   1.883 -0.8219 -0.7306  0.0391
 5721SOL    HW128796   3.774   0.242   1.828 -0.1001  0.3670 -1.8478
 5721SOL    HW228797   3.839   0.265   1.958  1.5138  1.2788  0.3060
 5722SOL     OW28798   0.286   3.159   2.258  0.1689 -0.7923 -0.4958
 5722SOL    HW128799   0.306   3.249   2.233 -1.4558 -0.8751 -2.0169
 5722SOL    HW228800   0.362   3.138   2.313 -1.2421 -1.0216  1.3794
 5723SOL     OW28801   1.967   0.013   7.748 -0.3216  0.3345  0.3446
 5723SOL    HW128802   1.889   0.055   7.711 -0.4791 -1.8156 -1.7745
 5723SOL    HW228803   1.918   4.674   7.787  1.4650 -1.2981 -0.4617
 5724SOL     OW28804   4.298   2.813   4.212  0.1673 -0.2235  0.8650
 5724SOL    HW128805   4.244   2.740   4.243  1.5672 -1.8223 -0.4214
 5724SOL    HW228806   4.245   2.888   4.238 -1.4059 -1.4634  1.2880
 5725SOL     OW28807   2.394   3.111   2.138 -0.0126 -0.0933  0.0944
 5725SOL    HW128808   2.369   3.170   2.209  0.1148  0.5544 -0.3895
 5725SOL    HW228809   2.372   3.163   2.060 -0.8732 -0.1113  0.3366
 5726SOL     OW28810   3.916   3.975  15.969 -0.6101 -0.4695 -0.1410
 5726SOL    HW128811   3.944   4.013  16.052  3.2457 -2.4920 -0.4968
 5726SOL    HW228812   3.831   4.017  15.957  0.9025  2.6143 -0.1268
 5727SOL     OW28813   3.534   4.405  14.990 -0.0650  0.0721  0.3175
 5727SOL    HW128814   3.560   4.317  15.020  1.1235 -0.5093 -2.4563
 5727SOL    HW228815   3.622   4.433  14.963 -0.0738 -1.3392 -1.1604
 5728SOL     OW28816   1.333   2.056   7.720  0.1827 -0.4220  0.0327
 5728SOL    HW128817   1.258   2.060   7.662  1.2721  0.8474 -1.2898
 5728SOL    HW228818   1.406   2.031   7.663  0.5414  0.5022  0.0792
 5729SOL     OW28819   1.890   0.117   1.406 -0.0554  0.1773  0.3962
 5729SOL    HW128820   1.967   0.093   1.354 -0.2797 -2.1311  1.1170
 5729SOL    HW228821   1.870   0.206   1.376  0.6800  0.4740  0.7840
 5730SOL     OW28822   1.228   2.516   7.277 -0.2540  0.8260 -0.0238
 5730SOL    HW128823   1.179   2.469   7.209 -1.2536  1.3698  0.3110
 5730SOL    HW228824   1.202   2.607   7.261 -0.6223  0.2804 -2.5145
 5731SOL     OW28825   3.684   3.386   2.528 -0.1500  0.3963 -0.1846
 5731SOL    HW128826   3.674   3.481   2.535  1.2050  0.7061 -2.7882
 5731SOL    HW228827   3.748   3.372   2.598  0.4173 -0.8576 -0.9624
 5732SOL     OW28828   0.626   4.256   5.633 -0.5660 -0.3579  0.4689
 5732SOL    HW128829   0.684   4.239   5.707  0.2872  0.6299  0.0127
 5732SOL    HW228830   0.545   4.222   5.671 -0.5551 -0.9950 -0.0642
 5733SOL     OW28831   3.865   0.043  16.190 -0.0946 -0.4420  0.3616
 5733SOL    HW128832   3.901   4.719  16.123 -0.6732 -0.5244  0.1163
 5733SOL    HW228833   3.941   0.083  16.232  0.2245  0.2032 -0.8210
 5734SOL     OW28834   1.765   0.493  14.934 -0.0258  0.3476 -0.5680
 5734SOL    HW128835   1.834   0.549  14.969 -1.5445  0.9079  1.5645
 5734SOL    HW228836   1.697   0.480  15.000  0.4488  1.8146  0.2165
 5735SOL     OW28837   1.802   0.109  16.453  0.2965  0.3522 -0.4191
 5735SOL    HW128838   1.714   0.141  16.433 -0.5896 -1.5513  0.4933
 5735SOL    HW228839   1.809   0.033  16.396  0.4885  0.7923 -0.9899
 5736SOL     OW28840   2.454   1.582   3.724 -0.1829  0.1760 -0.2224
 5736SOL    HW128841   2.401   1.594   3.803 -0.9354 -0.4878 -0.6222
 5736SOL    HW228842   2.389   1.574   3.654  0.5880  0.9557 -1.0170
 5737SOL     OW28843   1.721   4.524  13.413 -0.1557  0.1007  0.0573
 5737SOL    HW128844   1.684   4.523  13.324 -2.5751 -0.4742  1.0705
 5737SOL    HW228845   1.758   4.436  13.410 -0.5377 -0.0566 -0.1106
 5738SOL     OW28846   4.333   2.648   8.698 -0.0837 -0.0758  0.0945
 5738SOL    HW128847   4.398   2.599   8.649 -1.6301 -1.8640 -0.1654
 5738SOL    HW228848   4.379   2.656   8.782 -1.8407 -0.0702  1.0739
 5739SOL     OW28849   3.611   2.970   2.475 -0.1545 -0.1986 -0.1641
 5739SOL    HW128850   3.542   2.915   2.437 -1.4001  1.0145  0.3669
 5739SOL    HW228851   3.583   3.058   2.449  0.7118  1.1641  3.5834
 5740SOL     OW28852   3.685   4.325  13.742 -0.5870 -0.0497  0.0951
 5740SOL    HW128853   3.714   4.239  13.771 -0.1936 -0.1228 -0.5199
 5740SOL    HW228854   3.762   4.375  13.768 -1.2956  1.6867 -1.1116
 5741SOL     OW28855   2.801   4.047   4.558  0.1842 -0.5908 -0.2604
 5741SOL    HW128856   2.810   3.960   4.597  0.9175 -0.3715  0.0675
 5741SOL    HW228857   2.866   4.087   4.617 -0.8690 -0.8622  1.0976
 5742SOL     OW28858   0.206   4.706  13.204  0.1810 -0.2553  0.1824
 5742SOL    HW128859   0.147   4.702  13.129  0.9233  1.7043 -0.5094
 5742SOL    HW228860   0.277   0.024  13.166 -0.0681  1.4841  2.0996
 5743SOL     OW28861   2.379   0.010   3.327 -0.1099  0.9544 -0.1134
 5743SOL    HW128862   2.326   4.720   3.251 -2.4010 -0.0100  1.7925
 5743SOL    HW228863   2.354   4.675   3.389 -1.3486  0.8317 -0.7685
 5744SOL     OW28864   3.169   4.626  12.490 -0.0613 -0.3650  0.1304
 5744SOL    HW128865   3.250   4.576  12.492  0.6483  0.7885  0.1966
 5744SOL    HW228866   3.193   4.709  12.448 -1.0365 -0.0664  0.1659
 5745SOL     OW28867   0.338   4.242   6.545 -0.2934 -0.9583  0.1355
 5745SOL    HW128868   0.395   4.218   6.619 -0.3055 -0.4934  0.2950
 5745SOL    HW228869   0.330   4.337   6.555  1.9021 -0.6834 -0.7116
 5746SOL     OW28870   2.465   0.483   7.391 -0.0546  0.6755  0.0310
 5746SOL    HW128871   2.492   0.536   7.316 -0.1660 -0.2251 -0.6607
 5746SOL    HW228872   2.546   0.461   7.437  0.2790 -0.0523 -0.9045
 5747SOL     OW28873   4.138   2.717   7.765  0.2629  0.1187 -0.3553
 5747SOL    HW128874   4.112   2.651   7.700  3.0194  0.0559 -1.3870
 5747SOL    HW228875   4.188   2.666   7.829 -1.9530 -1.6448 -0.0140
 5748SOL     OW28876   3.996   2.520   5.722 -0.2110 -0.2803 -0.1379
 5748SOL    HW128877   3.991   2.488   5.812  1.4793 -2.2048 -0.7329
 5748SOL    HW228878   4.020   2.610   5.744 -1.7548 -0.0015  0.3981
 5749SOL     OW28879   1.215   1.502   5.701  0.1033  0.7583  0.2464
 5749SOL    HW128880   1.159   1.523   5.775 -0.2624  1.4721 -0.2390
 5749SOL    HW228881   1.256   1.424   5.739 -0.6971  1.7465  3.0887
 5750SOL     OW28882   3.056   0.750   1.756 -0.5855  0.1359 -0.1332
 5750SOL    HW128883   3.105   0.745   1.674 -0.0975 -3.1879  0.3484
 5750SOL    HW228884   3.075   0.835   1.794  0.6560 -0.1997 -0.0139
 5751SOL     OW28885   1.875   4.570   9.879  0.0945  0.2107 -0.0076
 5751SOL    HW128886   1.807   4.507   9.858 -0.5260  0.3330  1.5961
 5751SOL    HW228887   1.840   4.625   9.950  0.4995  1.2499 -0.6203
 5752SOL     OW28888   4.389   4.318   2.988 -0.1530 -0.0370 -0.4004
 5752SOL    HW128889   4.467   4.269   3.014 -0.3369  0.4919  1.1392
 5752SOL    HW228890   4.412   4.342   2.898  4.0666  2.4988  1.3345
 5753SOL     OW28891   0.984   0.873   8.429 -0.2111 -0.3939  0.1212
 5753SOL    HW128892   0.976   0.836   8.341 -1.0820 -0.9030  0.4131
 5753SOL    HW228893   1.074   0.904   8.433 -0.6120  0.5873  1.4291
 5754SOL     OW28894   2.779   2.419  12.358 -0.5353  0.0211  0.4619
 5754SOL    HW128895   2.759   2.370  12.438 -1.9943  0.8181  0.5807
 5754SOL    HW228896   2.714   2.489  12.366 -1.5634 -0.9692  0.9172
 5755SOL     OW28897   3.797   2.758   2.871  0.2902 -0.1635  0.3712
 5755SOL    HW128898   3.845   2.729   2.793  0.5134 -2.0695  1.2042
 5755SOL    HW228899   3.759   2.677   2.905 -2.1563  0.9031  0.2084
 5756SOL     OW28900   2.153   0.341   5.444 -0.5541 -0.2967  0.0363
 5756SOL    HW128901   2.175   0.418   5.391  0.5200 -0.7516 -0.1852
 5756SOL    HW228902   2.060   0.356   5.460  0.0019  3.0573  0.1697
 5757SOL     OW28903   4.616   1.447   9.067 -0.1899  0.1426  0.0347
 5757SOL    HW128904   4.591   1.355   9.074 -0.1671 -0.0428 -2.3088
 5757SOL    HW228905   4.544   1.493   9.022 -1.8665 -0.7008  1.8494
 5758SOL     OW28906   0.648   2.264   3.464  0.2439 -0.5752 -0.0796
 5758SOL    HW128907   0.582   2.219   3.412  0.9820 -1.9710  0.1969
 5758SOL    HW228908   0.597   2.293   3.540  0.9273  0.2929  0.0563
 5759SOL     OW28909   2.738   2.670   9.282 -0.1456  0.2189  0.1315
 5759SOL    HW128910   2.824   2.693   9.246  1.2467 -2.9881  1.4228
 5759SOL    HW228911   2.675   2.709   9.220 -1.0696  0.0137  0.9444
 5760SOL     OW28912   3.628   3.446  12.447  0.1870 -0.4552 -0.2565
 5760SOL    HW128913   3.647   3.533  12.482 -0.0982 -0.9403  1.0955
 5760SOL    HW228914   3.560   3.461  12.381  0.9865  0.7971 -0.7926
 5761SOL     OW28915   0.758   0.991   9.322  0.2040  0.4485 -0.0354
 5761SOL    HW128916   0.723   1.079   9.305 -1.3566 -0.3883 -1.0770
 5761SOL    HW228917   0.717   0.954   9.244  0.3570  1.1705 -0.4607
 5762SOL     OW28918   3.071   0.254   3.431  0.0103 -0.0209  0.2962
 5762SOL    HW128919   3.133   0.234   3.361  0.5317 -1.5579  1.2119
 5762SOL    HW228920   3.042   0.163   3.433  2.6078 -0.8394 -0.0877
 5763SOL     OW28921   4.321   0.816   9.336  0.1753  0.8826  0.6065
 5763SOL    HW128922   4.318   0.797   9.242 -1.6400 -0.8558  1.0138
 5763SOL    HW228923   4.236   0.776   9.354  0.2329 -0.6627 -2.4624
 5764SOL     OW28924   4.350   1.426  12.900  0.5604 -0.0369  0.2125
 5764SOL    HW128925   4.390   1.369  12.966 -0.0185 -1.7071 -0.8982
 5764SOL    HW228926   4.282   1.473  12.948  1.1759  0.6377  0.4289
 5765SOL     OW28927   2.996   2.727   0.961  0.7598  0.2875  0.0363
 5765SOL    HW128928   2.998   2.646   1.012 -1.4396  0.5971  0.6305
 5765SOL    HW228929   3.071   2.777   0.995  0.2422  0.2103  1.3182
 5766SOL     OW28930   0.842   3.728   2.732  0.0778  0.2557 -0.2106
 5766SOL    HW128931   0.887   3.792   2.787 -2.1858  1.5817  0.0838
 5766SOL    HW228932   0.764   3.763   2.689  0.8448 -0.0342 -1.8620
 5767SOL     OW28933   3.308   0.751  11.613 -0.2611  0.1555  0.4095
 5767SOL    HW128934   3.367   0.692  11.566  1.7641  3.4610 -1.0969
 5767SOL    HW228935   3.250   0.780  11.543 -0.5423 -2.3311 -0.4048
 5768SOL     OW28936   2.878   2.097  13.876  0.7283 -0.4717 -0.0294
 5768SOL    HW128937   2.903   2.110  13.785 -0.9435  2.2906 -0.0866
 5768SOL    HW228938   2.804   2.041  13.850 -1.8406  3.1114 -0.4125
 5769SOL     OW28939   0.790   3.121   8.601 -0.0273 -0.0621  0.2811
 5769SOL    HW128940   0.724   3.057   8.574  0.2949  0.0197 -0.6986
 5769SOL    HW228941   0.867   3.071   8.629  0.1548 -1.1441 -2.1561
 5770SOL     OW28942   2.901   0.189   5.845 -0.1863  0.1408 -0.1715
 5770SOL    HW128943   2.808   0.169   5.845 -0.0167 -0.6733 -1.2179
 5770SOL    HW228944   2.893   0.278   5.878  1.9023  0.2192  0.1854
 5771SOL     OW28945   3.533   2.941   8.714  0.3933  0.1507 -0.1054
 5771SOL    HW128946   3.536   2.979   8.626  0.0017 -0.2840 -0.3019
 5771SOL    HW228947   3.512   3.017   8.768  0.2922  0.9796 -1.3053
 5772SOL     OW28948   0.615   0.004   3.271 -0.6165  0.6204  0.3062
 5772SOL    HW128949   0.690   4.709   3.323 -0.1877 -2.4741 -2.0797
 5772SOL    HW228950   0.552   0.013   3.343 -1.2348  2.5708 -0.4624
 5773SOL     OW28951   3.992   2.819   2.567 -0.2058 -0.3035  0.8973
 5773SOL    HW128952   3.961   2.907   2.547  1.9456  0.3133  0.3626
 5773SOL    HW228953   3.906   2.782   2.588 -0.3573  0.1654  1.1001
 5774SOL     OW28954   4.635   2.766   9.144  0.3670 -0.5003  0.4469
 5774SOL    HW128955   4.614   2.683   9.186 -3.6238 -1.2693 -3.0607
 5774SOL    HW228956   4.569   2.833   9.165  0.0943 -0.4760 -0.4568
 5775SOL     OW28957   1.021   2.334  17.710 -0.0791  0.8191 -0.9435
 5775SOL    HW128958   1.048   2.299  17.625  0.1639 -0.0218 -0.5146
 5775SOL    HW228959   1.080   2.406  17.730 -0.9577  1.6730 -1.3885
 5776SOL     OW28960   3.633   1.459   7.656  0.0890 -0.4472 -0.4743
 5776SOL    HW128961   3.656   1.542   7.698  2.7291 -1.4384  0.0320
 5776SOL    HW228962   3.715   1.431   7.615 -0.2827 -1.1397 -0.7418
 5777SOL     OW28963   3.066   2.412  11.170  0.7137  0.4637  0.2469
 5777SOL    HW128964   3.017   2.378  11.095 -0.2007  2.1027  0.0908
 5777SOL    HW228965   3.111   2.477  11.116 -0.0327  1.4498  0.7885
 5778SOL     OW28966   4.420   1.886   4.315 -0.1569 -0.1577  0.4174
 5778SOL    HW128967   4.365   1.821   4.360 -0.2048  0.4278  1.2178
 5778SOL    HW228968   4.379   1.966   4.349 -1.3152 -0.9062  0.8007
 5779SOL     OW28969   2.177   3.392   5.606  0.7776  0.0617 -0.1325
 5779SOL    HW128970   2.174   3.378   5.700  2.0010 -1.1241 -0.2890
 5779SOL    HW228971   2.094   3.353   5.578  0.4964 -0.1964  1.0893
 5780SOL     OW28972   3.401   4.534   2.957  0.2985 -0.1209  0.2559
 5780SOL    HW128973   3.433   4.569   2.874 -3.5720 -0.3207 -1.3666
 5780SOL    HW228974   3.305   4.531   2.949  0.5176  1.7726 -2.9459
 5781SOL     OW28975   1.089   3.881   9.246 -0.0510  0.6131 -0.2119
 5781SOL    HW128976   1.171   3.887   9.196 -0.0226  0.5660 -0.1709
 5781SOL    HW228977   1.122   3.807   9.297 -0.2345 -0.5774 -1.8421
 5782SOL     OW28978   2.207   4.340  17.391  0.4154  0.0475 -0.2955
 5782SOL    HW128979   2.293   4.318  17.426  0.6909  2.5115  0.5515
 5782SOL    HW228980   2.169   4.254  17.409  2.4394 -1.0295 -1.1540
 5783SOL     OW28981   1.866   4.654  12.925 -0.8090  0.0501 -0.2266
 5783SOL    HW128982   1.806   4.583  12.949 -3.4610  1.9428 -1.1782
 5783SOL    HW228983   1.841   4.678  12.836 -2.1386 -0.9282 -0.1180
 5784SOL     OW28984   0.790   2.412   2.758 -0.5437  0.3390  0.3482
 5784SOL    HW128985   0.751   2.408   2.671  3.2156 -1.4598 -1.2805
 5784SOL    HW228986   0.881   2.403   2.729 -0.7094 -5.2750  1.5208
 5785SOL     OW28987   3.735   2.162   6.739 -0.1552  0.5818 -0.1912
 5785SOL    HW128988   3.646   2.160   6.706 -0.9018 -1.0487  1.9138
 5785SOL    HW228989   3.766   2.249   6.714  0.3383  0.6708  0.7150
 5786SOL     OW28990   0.519   3.826   9.726 -0.0966  0.1477  0.2664
 5786SOL    HW128991   0.438   3.863   9.690 -0.0627  0.6292  0.6831
 5786SOL    HW228992   0.587   3.888   9.699 -0.3439  0.6796  0.8766
 5787SOL     OW28993   1.758   0.098   5.295  0.0142  0.7248 -0.1782
 5787SOL    HW128994   1.813   0.020   5.288 -0.7659  0.1814 -0.2070
 5787SOL    HW228995   1.823   0.155   5.255  0.5922 -0.0249 -0.3010
 5788SOL     OW28996   4.683   4.291   3.783 -0.2199 -0.3143 -0.4450
 5788SOL    HW128997   4.628   4.290   3.704  1.4935 -3.2630 -1.6241
 5788SOL    HW228998   0.027   4.280   3.728 -1.3296 -2.8511 -1.5400
 5789SOL     OW28999   1.291   1.993   5.795 -0.1498  0.3422 -0.2862
 5789SOL    HW129000   1.271   1.902   5.819 -0.6490  0.3862 -0.5591
 5789SOL    HW229001   1.350   1.984   5.720 -0.5089  0.7688 -0.6157
 5790SOL     OW29002   1.104   0.941   0.487  0.5576  0.0499  0.3435
 5790SOL    HW129003   1.163   0.868   0.506 -1.5632 -1.7977 -0.0998
 5790SOL    HW229004   1.139   0.971   0.403  1.0164  0.7838  0.7960
 5791SOL     OW29005   1.183   3.545   4.010  0.5286  0.3911  0.3485
 5791SOL    HW129006   1.242   3.475   4.039  1.0594  0.5813 -0.2746
 5791SOL    HW229007   1.141   3.505   3.934  0.6678  1.1533 -0.1244
 5792SOL     OW29008   1.148   3.195   8.268  0.3027 -0.2094  0.2897
 5792SOL    HW129009   1.162   3.263   8.203  0.2347 -0.5947 -0.1248
 5792SOL    HW229010   1.059   3.210   8.300  0.5659 -1.3350  1.5613
 5793SOL     OW29011   0.813   1.069   6.488 -0.0007 -0.5470  0.4691
 5793SOL    HW129012   0.746   1.000   6.486 -1.0825  0.4777  0.9571
 5793SOL    HW229013   0.822   1.087   6.582 -1.3322  1.6397  0.1709
 5794SOL     OW29014   3.563   2.055   8.618 -0.3682 -0.1017 -0.5157
 5794SOL    HW129015   3.477   2.088   8.643  0.2128  0.8641  0.2436
 5794SOL    HW229016   3.558   1.960   8.621  1.2084 -0.1660  0.0936
 5795SOL     OW29017   0.419   1.942   9.255  0.2725  0.2428 -0.5583
 5795SOL    HW129018   0.338   1.897   9.281  0.4518 -0.1732 -0.7305
 5795SOL    HW229019   0.415   2.005   9.328 -0.9515 -0.0696 -0.3496
 5796SOL     OW29020   1.368   4.564   6.798 -0.3593  0.3411  0.7124
 5796SOL    HW129021   1.434   4.511   6.753 -0.8078 -0.7299  1.3235
 5796SOL    HW229022   1.409   4.573   6.884  0.1921  0.0011  0.4870
 5797SOL     OW29023   2.718   2.540   1.661 -0.1670  0.3745  0.3800
 5797SOL    HW129024   2.664   2.462   1.664 -0.2784  0.4661  0.9058
 5797SOL    HW229025   2.756   2.543   1.573  1.4752  1.2578  1.1074
 5798SOL     OW29026   0.313   2.627   5.450  0.2469 -0.1730  0.1088
 5798SOL    HW129027   0.386   2.565   5.441  0.0736 -0.5512  1.2821
 5798SOL    HW229028   0.285   2.634   5.359 -0.2157 -2.1279  0.0851
 5799SOL     OW29029   3.138   1.590   7.704  0.5042 -0.1438  0.2679
 5799SOL    HW129030   3.231   1.602   7.721  0.5700 -0.1207 -0.1159
 5799SOL    HW229031   3.130   1.531   7.629 -1.2702  0.2979  0.1138
 5800SOL     OW29032   2.134   3.060   5.305  0.3075  0.2212 -0.2966
 5800SOL    HW129033   2.060   3.052   5.365  0.5961  2.5688  0.3845
 5800SOL    HW229034   2.163   2.969   5.301 -2.0111 -0.6173  1.9764
 5801SOL     OW29035   2.093   2.535   8.325 -0.1840 -0.1723  0.2954
 5801SOL    HW129036   2.129   2.602   8.268 -0.9410  0.0844  0.1297
 5801SOL    HW229037   2.021   2.590   8.356 -0.0770  0.4130 -0.5158
 5802SOL     OW29038   1.268   2.072  13.391  0.1463  0.4701  0.2181
 5802SOL    HW129039   1.205   2.135  13.355 -0.0332  0.2205  0.0948
 5802SOL    HW229040   1.265   1.998  13.331  1.4926  1.6971 -1.3563
 5803SOL     OW29041   1.998   1.041   9.614  0.0719  0.2949 -0.0402
 5803SOL    HW129042   1.905   1.046   9.638 -0.2451 -0.2144 -1.1336
 5803SOL    HW229043   2.012   1.120   9.561 -2.3187 -0.0539 -1.1900
 5804SOL     OW29044   2.074   2.756   1.964  0.1088 -0.2868 -0.1541
 5804SOL    HW129045   2.065   2.847   1.992  0.2623 -0.2369 -0.2686
 5804SOL    HW229046   2.120   2.773   1.881  1.3799  0.6891  0.7431
 5805SOL     OW29047   2.213   2.566   7.313 -0.2599  0.1380  0.6887
 5805SOL    HW129048   2.247   2.477   7.318 -0.5783  0.0667  1.4627
 5805SOL    HW229049   2.299   2.609   7.306 -1.1569  1.8136 -0.0838
 5806SOL     OW29050   0.322   0.143   3.162 -0.6459 -0.4534 -0.0798
 5806SOL    HW129051   0.335   0.090   3.241  0.3777  1.0085  0.7190
 5806SOL    HW229052   0.380   0.218   3.175  0.0830 -0.8642 -0.9496
 5807SOL     OW29053   1.338   3.082   7.361 -0.0644  0.5429  0.3221
 5807SOL    HW129054   1.395   3.006   7.368 -2.1856 -1.2260 -1.7065
 5807SOL    HW229055   1.261   3.043   7.403  0.4775 -0.1089  0.7017
 5808SOL     OW29056   3.078   1.405   4.019 -0.3253  0.2089  0.1786
 5808SOL    HW129057   3.117   1.449   3.943  0.7900 -0.2960  0.4585
 5808SOL    HW229058   3.139   1.331   4.027 -0.6891 -0.2548 -1.3033
 5809SOL     OW29059   0.631   4.305  10.496 -0.8088  0.2925  0.4292
 5809SOL    HW129060   0.610   4.213  10.508  0.3270 -0.0616 -0.3492
 5809SOL    HW229061   0.663   4.322  10.585  0.3310  2.2736 -0.3524
 5810SOL     OW29062   2.477   2.982   9.761 -0.5837  0.0089  0.3980
 5810SOL    HW129063   2.416   3.056   9.751 -0.1155  0.8870  3.8968
 5810SOL    HW229064   2.502   2.986   9.853  0.0344  2.0801  0.1422
 5811SOL     OW29065   1.604   4.015   4.810 -0.2659 -0.3414  0.1418
 5811SOL    HW129066   1.648   3.933   4.830 -2.3366 -1.5837 -0.4328
 5811SOL    HW229067   1.518   3.980   4.788 -0.4918  1.9686 -2.6015
 5812SOL     OW29068   0.450   0.967  14.224 -0.0225 -0.0591  0.0888
 5812SOL    HW129069   0.462   0.873  14.233  1.8804  0.2763  1.2513
 5812SOL    HW229070   0.527   0.997  14.273  0.6573  0.0426 -1.0492
 5813SOL     OW29071   1.408   2.258   6.897 -0.8602 -0.2163  0.0673
 5813SOL    HW129072   1.325   2.303   6.878 -0.4786 -0.2013 -1.5279
 5813SOL    HW229073   1.477   2.323   6.888 -0.1992 -1.0608 -0.9174
 5814SOL     OW29074   2.347   1.979  13.312 -0.5355  0.4367 -0.8445
 5814SOL    HW129075   2.297   2.009  13.236 -0.3276  0.6517 -0.8943
 5814SOL    HW229076   2.291   2.018  13.380 -0.0251 -0.8251  0.2882
 5815SOL     OW29077   4.056   2.711   6.812 -0.0594 -0.6337 -0.2109
 5815SOL    HW129078   3.977   2.760   6.792 -0.6516 -1.7417 -0.5916
 5815SOL    HW229079   4.032   2.619   6.822 -1.3517 -0.2606  0.1762
 5816SOL     OW29080   2.382   4.003   6.029 -0.3443  0.1000 -0.3305
 5816SOL    HW129081   2.359   3.963   6.113 -1.2313  0.5615 -0.3634
 5816SOL    HW229082   2.435   3.934   5.989 -1.7314 -1.4587  0.5540
 5817SOL     OW29083   0.166   1.684   0.308  0.0706  0.1290 -0.4701
 5817SOL    HW129084   0.243   1.628   0.296 -1.0789 -1.3169 -1.0414
 5817SOL    HW229085   0.105   1.619   0.273  1.2148 -0.2428 -1.7871
 5818SOL     OW29086   3.357   3.619   3.773 -0.5182  0.0632 -0.3550
 5818SOL    HW129087   3.417   3.574   3.714 -1.8438 -2.2560  0.0759
 5818SOL    HW229088   3.289   3.554   3.791  0.1352 -0.9718 -1.7299
 5819SOL     OW29089   2.723   2.088  11.900 -0.1564  0.1667  0.0700
 5819SOL    HW129090   2.722   1.992  11.904  0.4616  0.1990  1.1247
 5819SOL    HW229091   2.811   2.104  11.933 -0.9996  2.3047  1.2757
 5820SOL     OW29092   3.850   0.168   4.232 -0.6212  0.2090 -0.3562
 5820SOL    HW129093   3.760   0.196   4.249 -0.5206  0.9986 -1.1074
 5820SOL    HW229094   3.870   0.104   4.300  1.3829  1.4556  0.2238
 5821SOL     OW29095   4.387   0.702  10.632 -0.4265  0.3344 -0.2959
 5821SOL    HW129096   4.327   0.719  10.704  0.3473  0.4824  0.3212
 5821SOL    HW229097   4.467   0.751  10.651  0.1796 -0.8241  0.1525
 5822SOL     OW29098   4.068   3.500   4.821  0.4520 -0.0056  0.7484
 5822SOL    HW129099   3.977   3.475   4.837  0.1716 -0.0099 -0.8260
 5822SOL    HW229100   4.053   3.546   4.738  1.4084 -0.7932  0.1469
 5823SOL     OW29101   0.668   0.315  17.136  0.1513  0.4896 -0.2015
 5823SOL    HW129102   0.654   0.326  17.230 -1.6122 -0.2938 -0.3611
 5823SOL    HW229103   0.738   0.377  17.116  0.7745 -0.5731 -1.3514
 5824SOL     OW29104   4.618   1.661   3.757  0.0871 -0.8046 -0.3772
 5824SOL    HW129105   4.672   1.739   3.746 -0.6335 -0.0618  1.3748
 5824SOL    HW229106   4.560   1.696   3.825 -0.0114 -1.1646 -0.2781
 5825SOL     OW29107   2.782   4.244  16.149  0.1837 -0.0274 -0.4768
 5825SOL    HW129108   2.811   4.279  16.065 -0.5387 -1.1044 -1.1678
 5825SOL    HW229109   2.802   4.315  16.211 -1.3511 -1.7144  1.9584
 5826SOL     OW29110   0.049   3.263   8.474 -0.4830  0.1205 -0.1453
 5826SOL    HW129111   0.026   3.338   8.529  0.7829  0.7812 -0.4910
 5826SOL    HW229112   4.703   3.229   8.434 -0.2188  0.1744 -0.7266
 5827SOL     OW29113   0.489   3.077   4.906 -0.6918 -0.2707  0.8352
 5827SOL    HW129114   0.397   3.101   4.895 -0.4390 -0.6352 -1.8849
 5827SOL    HW229115   0.486   3.009   4.973  0.5592 -0.0482  1.1210
 5828SOL     OW29116   0.097   2.331   9.310 -0.8559 -0.1638 -0.2452
 5828SOL    HW129117   0.031   2.396   9.338 -1.1868 -1.2973  1.6089
 5828SOL    HW229118   0.133   2.367   9.229  2.1437  0.8000  1.5327
 5829SOL     OW29119   4.312   4.718   4.165  0.0128  0.1199 -0.0887
 5829SOL    HW129120   4.266   0.067   4.151  0.6374  0.6821  1.1474
 5829SOL    HW229121   4.398   0.001   4.126  1.1023 -2.4367  1.1511
 5830SOL     OW29122   3.244   0.765   7.568 -0.1506 -0.2631 -0.4978
 5830SOL    HW129123   3.263   0.731   7.655 -0.8671 -0.1083 -0.2780
 5830SOL    HW229124   3.331   0.795   7.542  0.5296  0.1165  2.2753
 5831SOL     OW29125   0.384   2.765   3.071 -0.0847  0.1687 -0.2975
 5831SOL    HW129126   0.334   2.819   3.010 -1.4637  0.3000  0.9307
 5831SOL    HW229127   0.450   2.726   3.014 -0.9910 -0.8479 -0.6619
 5832SOL     OW29128   4.613   4.181   6.719 -0.4071  0.9367  0.1856
 5832SOL    HW129129   4.687   4.152   6.771  0.1440  1.4777 -0.2971
 5832SOL    HW229130   4.636   4.146   6.633 -0.9660 -0.1743  0.4879
 5833SOL     OW29131   2.365   4.665   5.926  0.2908 -0.3475  0.2793
 5833SOL    HW129132   2.400   4.577   5.941 -2.6026 -0.8854  3.8554
 5833SOL    HW229133   2.384   4.710   6.007  0.4012 -0.3552  0.2579
 5834SOL     OW29134   4.505   2.834   0.748 -0.5874 -0.6474 -0.6130
 5834SOL    HW129135   4.495   2.845   0.653  0.2145 -1.1866 -0.7692
 5834SOL    HW229136   4.571   2.764   0.750  1.6069  1.4323 -0.0501
 5835SOL     OW29137   4.128   4.535  17.652 -0.1409  0.0137 -0.0476
 5835SOL    HW129138   4.138   4.625  17.683  0.8211  0.2504 -1.0570
 5835SOL    HW229139   4.131   4.489   0.001 -0.2892 -1.2802 -0.7496
 5836SOL     OW29140   0.404   3.217   4.266  0.5020 -0.0647  0.1950
 5836SOL    HW129141   0.481   3.264   4.298 -0.8521  0.9746  1.8966
 5836SOL    HW229142   0.330   3.276   4.280 -0.6756 -1.4560 -0.1885
 5837SOL     OW29143   3.515   4.688  10.110  0.0985  0.8011  0.3327
 5837SOL    HW129144   3.561   0.016  10.053 -0.2054 -0.7790 -1.6431
 5837SOL    HW229145   3.486   0.006  10.185  0.8944  0.2138  1.0450
 5838SOL     OW29146   3.458   1.523   1.153  0.3199  0.0024  0.2007
 5838SOL    HW129147   3.419   1.435   1.147  2.3094 -0.9737  1.6121
 5838SOL    HW229148   3.438   1.567   1.070  0.8157  1.0223  0.6227
 5839SOL     OW29149   2.365   4.314   8.023  0.0557 -0.0227  0.0733
 5839SOL    HW129150   2.424   4.263   7.968 -1.3969  0.0834 -1.5573
 5839SOL    HW229151   2.368   4.264   8.104 -2.1760  0.1368  0.2431
 5840SOL     OW29152   3.194   3.138   1.550 -0.2882 -0.3287  0.2218
 5840SOL    HW129153   3.138   3.181   1.486 -2.9926 -2.1734  1.3524
 5840SOL    HW229154   3.152   3.053   1.565 -1.0936  0.1128  0.4257
 5841SOL     OW29155   4.575   3.010  14.950  0.3228 -0.5686 -0.7047
 5841SOL    HW129156   4.589   2.991  15.043  1.9596  2.0161 -0.3968
 5841SOL    HW229157   4.567   2.923  14.913  2.0030 -0.5110 -1.2223
 5842SOL     OW29158   1.427   1.775   2.340 -0.0572 -0.4823 -0.4818
 5842SOL    HW129159   1.373   1.761   2.262 -1.0992 -0.6332  0.2681
 5842SOL    HW229160   1.481   1.845   2.305  0.7573 -0.6402  0.4464
 5843SOL     OW29161   0.713   0.947   0.683  0.3174  0.0563  0.4338
 5843SOL    HW129162   0.645   0.980   0.623  2.7470  1.6426 -1.4345
 5843SOL    HW229163   0.781   1.012   0.668 -1.3633  1.7492  0.0579
 5844SOL     OW29164   1.034   1.367   0.607 -0.0254  0.2949 -0.6041
 5844SOL    HW129165   0.969   1.305   0.639 -1.1729  2.5804  1.5486
 5844SOL    HW229166   1.094   1.363   0.682 -0.0374  2.0814 -0.4869
 5845SOL     OW29167   3.891   0.329   4.547 -0.1263 -0.7013  0.1646
 5845SOL    HW129168   3.969   0.277   4.567  0.7758 -1.2560 -4.8120
 5845SOL    HW229169   3.827   0.308   4.614  0.4590 -0.5325  0.7783
 5846SOL     OW29170   1.522   4.555   3.525  0.1560  0.1417  0.2382
 5846SOL    HW129171   1.498   4.646   3.542  2.3821  0.9298 -0.8083
 5846SOL    HW229172   1.474   4.519   3.599  0.5035 -1.0430 -0.1189
 5847SOL     OW29173   2.672   4.425   7.994  0.0835 -0.0345  0.4580
 5847SOL    HW129174   2.604   4.487   8.020  0.5882  0.1341  1.3450
 5847SOL    HW229175   2.616   4.363   7.946 -0.5563 -0.2360  1.4712
 5848SOL     OW29176   2.771   3.683   7.895  0.5077  0.7539  0.7740
 5848SOL    HW129177   2.681   3.664   7.923  0.9792  0.2970  1.9804
 5848SOL    HW229178   2.810   3.698   7.981 -2.4901 -0.1947  2.3092
 5849SOL     OW29179   3.151   3.068   9.198  0.1654 -0.4803  1.5097
 5849SOL    HW129180   3.162   3.162   9.180 -1.0342 -0.0129  3.1876
 5849SOL    HW229181   3.161   3.061   9.293  1.6400 -0.8648  1.3165
 5850SOL     OW29182   3.422   2.689  14.179  0.1968 -0.1073  0.2426
 5850SOL    HW129183   3.449   2.627  14.246  0.4779  1.3307  1.4544
 5850SOL    HW229184   3.492   2.664  14.118 -0.9623 -0.7764 -0.8160
 5851SOL     OW29185   4.499   1.975   3.390 -0.1375 -0.6040  0.2795
 5851SOL    HW129186   4.565   1.907   3.402  2.8730  2.1102 -0.8023
 5851SOL    HW229187   4.435   1.909   3.363  1.6319 -1.3856 -2.1266
 5852SOL     OW29188   2.777   0.477  14.189 -0.2087 -0.0900  0.1552
 5852SOL    HW129189   2.793   0.566  14.222 -0.3248 -0.0487  0.1025
 5852SOL    HW229190   2.765   0.495  14.096  0.6815 -0.9375 -0.1208
 5853SOL     OW29191   2.035   0.343   2.326  0.4640  0.5181 -0.0954
 5853SOL    HW129192   1.949   0.340   2.284  0.3276  0.9810  0.1518
 5853SOL    HW229193   2.045   0.436   2.346 -2.3015  0.9648 -0.7691
 5854SOL     OW29194   0.696   4.550   7.893 -0.1384 -0.1304 -0.1027
 5854SOL    HW129195   0.708   4.645   7.893 -1.4379  0.0315 -1.6806
 5854SOL    HW229196   0.609   4.535   7.929 -1.5011  4.0442 -1.6897
 5855SOL     OW29197   1.753   1.522   8.200 -0.4651  0.5390  0.1487
 5855SOL    HW129198   1.803   1.450   8.239 -0.0595  0.7911  0.1029
 5855SOL    HW229199   1.720   1.566   8.278 -1.2831 -1.4680  0.9119
 5856SOL     OW29200   4.633   3.795   5.856  0.2307  0.0729 -0.3748
 5856SOL    HW129201   4.625   3.866   5.793 -2.1726  0.7989  0.7529
 5856SOL    HW229202   4.612   3.833   5.941 -0.6403  1.9023 -1.4163
 5857SOL     OW29203   3.025   0.969   7.416  0.6388 -0.6701 -0.6157
 5857SOL    HW129204   3.025   0.884   7.460  1.3834  0.7294  2.0477
 5857SOL    HW229205   2.933   0.995   7.417  0.5581 -1.0636  1.8151
 5858SOL     OW29206   3.739   2.611  11.251 -0.0182  0.0860  0.0522
 5858SOL    HW129207   3.790   2.537  11.219  0.3506 -0.0399  0.9403
 5858SOL    HW229208   3.654   2.576  11.279 -1.2044  3.5965  0.9791
 5859SOL     OW29209   2.705   3.310   6.172 -0.2391  0.3388 -0.2384
 5859SOL    HW129210   2.735   3.223   6.147  1.6052  1.0085 -0.3637
 5859SOL    HW229211   2.660   3.339   6.093 -0.0680  1.7103  0.1611
 5860SOL     OW29212   1.771   4.681   3.374  0.2281  0.8232  0.2970
 5860SOL    HW129213   1.713   4.634   3.434  0.1580 -0.3513 -0.6800
 5860SOL    HW229214   1.795   0.027   3.420 -0.4843  1.6698 -0.8003
 5861SOL     OW29215   0.817   2.693   3.898 -0.3005  0.1984  0.6536
 5861SOL    HW129216   0.758   2.682   3.824  0.1547 -1.5201  0.5617
 5861SOL    HW229217   0.800   2.611   3.943  0.1656 -0.4792 -0.4048
 5862SOL     OW29218   4.230   1.312  11.071  0.4993 -0.2792  0.8228
 5862SOL    HW129219   4.197   1.327  11.159  2.7186 -0.2424  1.6452
 5862SOL    HW229220   4.254   1.400  11.041  0.8383 -0.3532  0.8746
 5863SOL     OW29221   2.520   2.786  10.974 -0.2261 -0.3146  0.1085
 5863SOL    HW129222   2.579   2.809  11.046 -1.7031  2.4049  0.4255
 5863SOL    HW229223   2.436   2.777  11.019  0.1775 -0.6457  0.7917
 5864SOL     OW29224   3.716   3.759   4.646  0.0439  0.5027 -0.3879
 5864SOL    HW129225   3.808   3.783   4.652  0.1816 -0.0766 -0.2236
 5864SOL    HW229226   3.670   3.833   4.686 -0.0583 -0.2901  0.9577
 5865SOL     OW29227   3.196   0.170   8.958  0.7107  0.5818  0.3737
 5865SOL    HW129228   3.257   0.168   9.032 -2.8694 -0.1640  3.3202
 5865SOL    HW229229   3.165   0.079   8.954 -0.1843  0.9031  0.1525
 5866SOL     OW29230   1.544   2.172   5.072  0.4739 -0.5283 -0.8461
 5866SOL    HW129231   1.604   2.097   5.072  0.7737 -0.2835 -1.4815
 5866SOL    HW229232   1.477   2.126   5.023 -0.5901  0.4213 -0.2754
 5867SOL     OW29233   1.658   3.901   5.774 -0.1538  0.3108 -0.0146
 5867SOL    HW129234   1.589   3.880   5.711 -0.3931  2.6840 -0.5615
 5867SOL    HW229235   1.664   3.824   5.829  0.7160 -1.4148 -2.5103
 5868SOL     OW29236   4.287   2.227   8.233 -0.3429 -0.4671  0.6676
 5868SOL    HW129237   4.236   2.250   8.311 -2.6555 -0.9692 -0.6741
 5868SOL    HW229238   4.370   2.218   8.280  0.9097 -2.0319 -1.8663
 5869SOL     OW29239   0.439   0.059   7.042 -0.1315  0.2397  0.0281
 5869SOL    HW129240   0.407   0.148   7.032  0.0404  0.2875 -0.0935
 5869SOL    HW229241   0.409   0.017   6.961  0.2733  2.7678 -1.4404
 5870SOL     OW29242   3.657   4.628   4.249  0.4147 -0.3504  0.2857
 5870SOL    HW129243   3.613   4.662   4.327  0.4974  0.7654 -0.1411
 5870SOL    HW229244   3.746   4.630   4.283  0.8284 -0.1961 -0.8049
 5871SOL     OW29245   1.561   3.288   3.219 -0.4488  0.1566  0.4051
 5871SOL    HW129246   1.646   3.330   3.233  0.3013 -1.3901  0.5297
 5871SOL    HW229247   1.531   3.317   3.133 -1.0174 -3.6741 -0.6974
 5872SOL     OW29248   4.140   0.705   3.604 -0.1185 -0.1480 -0.0374
 5872SOL    HW129249   4.084   0.782   3.589 -3.0747 -2.1876  0.4474
 5872SOL    HW229250   4.090   0.668   3.676  1.0959  0.8074  1.2868
 5873SOL     OW29251   1.357   0.689   7.046 -0.3634  0.3267 -0.1574
 5873SOL    HW129252   1.363   0.652   6.958  1.0707  0.5202 -0.1463
 5873SOL    HW229253   1.400   0.774   7.034  0.4058 -0.3461 -2.1825
 5874SOL     OW29254   0.359   4.051   4.720  0.3550  0.2556  0.2073
 5874SOL    HW129255   0.321   4.048   4.632  1.1009 -1.9820 -0.0410
 5874SOL    HW229256   0.432   4.112   4.707  0.2705  0.5865  1.3323
 5875SOL     OW29257   0.226   3.230  17.165  0.5843 -0.0002  0.3175
 5875SOL    HW129258   0.303   3.182  17.136  1.5648  1.0115  1.2759
 5875SOL    HW229259   0.273   3.292  17.221 -3.2254  0.8335  2.6100
 5876SOL     OW29260   0.148   2.468   2.909 -0.3300  0.3752 -0.6328
 5876SOL    HW129261   0.161   2.374   2.926  1.1571  0.2393 -2.4755
 5876SOL    HW229262   0.117   2.503   2.992 -2.6604  1.8396 -2.1430
 5877SOL     OW29263   1.192   2.162   3.717  0.0635 -0.6517 -0.3581
 5877SOL    HW129264   1.208   2.068   3.721  4.5319  0.0632 -1.1698
 5877SOL    HW229265   1.146   2.190   3.796 -1.8400 -2.0634 -0.9724
 5878SOL     OW29266   3.603   4.281   2.302 -0.2905  0.3300 -0.2973
 5878SOL    HW129267   3.560   4.217   2.245 -1.8042  0.9855  0.0950
 5878SOL    HW229268   3.639   4.208   2.352  0.3592  1.3131  0.6695
 5879SOL     OW29269   2.388   0.239   7.295  0.1521 -0.1156  0.0208
 5879SOL    HW129270   2.458   0.229   7.231  2.7546  0.7382  2.7647
 5879SOL    HW229271   2.429   0.311   7.343 -0.1277 -1.4138  2.2186
 5880SOL     OW29272   0.394   0.266  13.163  0.0262  0.4224 -0.4355
 5880SOL    HW129273   0.329   0.336  13.161 -1.2010 -0.7493 -1.6254
 5880SOL    HW229274   0.433   0.274  13.077 -0.4138  0.4761 -0.6319
 5881SOL     OW29275   2.404   1.129  14.706 -0.8183 -0.6280 -0.5473
 5881SOL    HW129276   2.351   1.090  14.776  2.0051 -1.1238  1.2963
 5881SOL    HW229277   2.356   1.210  14.690 -0.2965 -0.3460 -0.6515
 5882SOL     OW29278   3.313   3.032   5.746  0.2641 -0.2278 -0.2892
 5882SOL    HW129279   3.232   3.083   5.735 -0.8169 -2.4820 -2.9722
 5882SOL    HW229280   3.299   2.950   5.697 -2.4581  0.3468 -0.5105
 5883SOL     OW29281   3.093   4.523   0.716 -0.8670  0.3586  0.2658
 5883SOL    HW129282   3.138   4.559   0.792  1.7004 -2.2963  0.0244
 5883SOL    HW229283   3.126   4.433   0.715 -0.9507  0.3559 -3.5671
 5884SOL     OW29284   3.216   0.158   2.506  0.2552  0.5470 -1.0492
 5884SOL    HW129285   3.168   0.236   2.535  0.0876  0.3475 -0.7892
 5884SOL    HW229286   3.144   0.106   2.469  1.8710 -1.2753 -1.6675
 5885SOL     OW29287   0.175   2.879   9.158 -0.2248 -0.4869  0.3648
 5885SOL    HW129288   0.093   2.830   9.163 -0.2578 -0.5733 -0.8471
 5885SOL    HW229289   0.239   2.816   9.192 -0.7214  0.5906  3.2870
 5886SOL     OW29290   4.536   3.537   5.787 -0.0400 -0.1954  0.1292
 5886SOL    HW129291   4.577   3.621   5.809  0.1632 -0.1456 -0.4304
 5886SOL    HW229292   4.565   3.533   5.695 -0.7305 -1.0098 -0.0510
 5887SOL     OW29293   2.916   2.813   8.591  0.1516  0.0034 -0.2018
 5887SOL    HW129294   2.967   2.891   8.569 -2.7671  1.9841  0.0692
 5887SOL    HW229295   2.946   2.749   8.526 -1.0014  0.6024 -1.3461
 5888SOL     OW29296   2.016   3.084   7.147  0.0213 -0.0225 -0.0631
 5888SOL    HW129297   2.106   3.064   7.173  0.1615 -0.2374 -0.7069
 5888SOL    HW229298   1.970   3.068   7.229 -0.3896  1.5490  0.0077
 5889SOL     OW29299   1.148   2.940   8.674  0.7557 -0.5164 -0.3272
 5889SOL    HW129300   1.120   2.860   8.719 -0.7852  0.7908  1.0245
 5889SOL    HW229301   1.071   2.942   8.616 -0.7118  1.0628  1.6953
 5890SOL     OW29302   3.499   1.443   2.450 -0.1613 -0.3287 -0.5620
 5890SOL    HW129303   3.495   1.383   2.525 -1.5533  0.6344  0.1358
 5890SOL    HW229304   3.453   1.397   2.380 -0.4329 -1.7026  0.5237
 5891SOL     OW29305   1.398   0.880  12.086 -0.4954  0.0024  0.1647
 5891SOL    HW129306   1.398   0.800  12.140 -0.8008 -1.1855 -1.5952
 5891SOL    HW229307   1.425   0.839  12.004 -0.2006 -1.1852  0.8370
 5892SOL     OW29308   3.221   1.594   6.153 -0.0458  0.4216  0.4425
 5892SOL    HW129309   3.270   1.518   6.186  0.9091  0.3706 -1.1151
 5892SOL    HW229310   3.263   1.605   6.068 -1.3192  0.7490 -0.1383
 5893SOL     OW29311   2.163   3.680   5.953 -0.5128 -0.1504  0.0550
 5893SOL    HW129312   2.257   3.694   5.945 -0.3811 -1.5952 -0.9540
 5893SOL    HW229313   2.137   3.742   5.885  0.6301  0.2601 -0.0079
 5894SOL     OW29314   0.689   3.326   9.399  0.4441  0.1789 -0.3443
 5894SOL    HW129315   0.644   3.410   9.408 -0.4483 -0.0751 -2.3173
 5894SOL    HW229316   0.772   3.337   9.446  0.1960 -1.8377  0.5196
 5895SOL     OW29317   4.564   0.271  14.022  0.2332 -0.0708 -0.0764
 5895SOL    HW129318   4.603   0.358  14.033 -0.1608  0.5230 -3.3125
 5895SOL    HW229319   4.517   0.280  13.939 -1.0023 -1.6546  0.4724
 5896SOL     OW29320   3.071   2.210   7.526  0.1219 -0.2254 -0.1319
 5896SOL    HW129321   3.000   2.189   7.586  0.1504 -1.1025 -0.4039
 5896SOL    HW229322   3.023   2.179   7.449  1.0135 -3.4412  0.6222
 5897SOL     OW29323   2.589   3.131   2.947 -0.0837 -0.2119  0.3452
 5897SOL    HW129324   2.651   3.062   2.923  1.3182  0.7187  1.2224
 5897SOL    HW229325   2.579   3.173   2.862 -1.6303  0.2073  0.7366
 5898SOL     OW29326   3.448   0.926   7.146 -0.1698 -0.0056  0.1929
 5898SOL    HW129327   3.357   0.947   7.128 -0.3019 -0.9741 -0.3051
 5898SOL    HW229328   3.467   0.854   7.085  1.8090  0.3539  0.3931
 5899SOL     OW29329   3.862   4.313   2.748 -0.1258 -0.3255  0.3311
 5899SOL    HW129330   3.924   4.354   2.808  0.4896 -0.1812 -0.4023
 5899SOL    HW229331   3.873   4.377   2.678  0.7794  0.4190  1.1737
 5900SOL     OW29332   1.998   0.137   5.090  0.1600  0.0139 -0.8160
 5900SOL    HW129333   1.958   0.208   5.040 -2.2603 -1.0210 -0.3321
 5900SOL    HW229334   2.019   0.087   5.011  1.7037 -1.7065  0.6887
 5901SOL     OW29335   3.382   2.773  11.742 -0.0040 -0.1235 -0.2039
 5901SOL    HW129336   3.391   2.720  11.821 -0.9829 -1.1649 -0.8043
 5901SOL    HW229337   3.378   2.862  11.776 -0.3060 -0.1018 -0.3019
 5902SOL     OW29338   2.577   4.638   8.913  0.3891  0.2534  0.2121
 5902SOL    HW129339   2.484   4.661   8.922 -0.2248 -1.5444 -1.5578
 5902SOL    HW229340   2.626   4.719   8.923  1.1972 -0.3124  0.8670
 5903SOL     OW29341   3.364   1.188  10.924  0.3859  0.0516 -0.2606
 5903SOL    HW129342   3.386   1.265  10.871  0.4199  1.1225  1.2864
 5903SOL    HW229343   3.400   1.218  11.008  1.2766 -1.3902 -0.1205
 5904SOL     OW29344   2.787   4.629  11.255 -0.6297 -0.3804 -0.2023
 5904SOL    HW129345   2.756   4.636  11.345  2.5193  0.6109  0.7871
 5904SOL    HW229346   2.878   4.658  11.259 -0.5776 -0.7274  0.9983
 5905SOL     OW29347   3.709   1.438   1.211 -0.2025  0.3162 -0.2547
 5905SOL    HW129348   3.693   1.489   1.291 -0.7516 -1.2124  0.6095
 5905SOL    HW229349   3.624   1.461   1.175  0.1872  0.4183 -1.0991
 5906SOL     OW29350   0.445   0.693   3.952  0.4376 -0.3356 -0.5024
 5906SOL    HW129351   0.462   0.787   3.952  0.6296 -0.3679  0.1200
 5906SOL    HW229352   0.361   0.682   3.997  1.9329 -1.9003  1.9461
 5907SOL     OW29353   2.679   1.530   6.619  0.1396  0.6130 -0.2369
 5907SOL    HW129354   2.675   1.561   6.529 -0.5461  1.2117  0.0065
 5907SOL    HW229355   2.674   1.434   6.611 -3.1703  0.4967  3.2326
 5908SOL     OW29356   2.225   1.763   2.890 -0.3986  0.3844 -0.1392
 5908SOL    HW129357   2.247   1.850   2.923  1.8751 -0.8109  1.5597
 5908SOL    HW229358   2.135   1.753   2.920 -0.1620 -0.6066  0.2693
 5909SOL     OW29359   3.240   2.338   6.254 -0.1203  0.5147 -0.0722
 5909SOL    HW129360   3.300   2.264   6.253  1.0480  1.4705 -1.2577
 5909SOL    HW229361   3.177   2.329   6.182 -0.2063 -0.3884  0.1182
 5910SOL     OW29362   2.442   3.259  11.576 -0.4013 -0.4549 -0.4098
 5910SOL    HW129363   2.505   3.207  11.525 -1.4667  1.0670 -3.2871
 5910SOL    HW229364   2.453   3.333  11.516  3.2412  0.2981  1.1963
 5911SOL     OW29365   4.309   1.732   7.644  0.3156 -0.0056  0.6153
 5911SOL    HW129366   4.229   1.693   7.609 -0.1310  2.1159 -0.7188
 5911SOL    HW229367   4.376   1.705   7.582  0.1029 -1.9198  1.2276
 5912SOL     OW29368   1.212   0.433   0.793  0.3193 -0.5614  0.1916
 5912SOL    HW129369   1.118   0.414   0.798 -0.1488  1.3241 -1.5632
 5912SOL    HW229370   1.230   0.361   0.732 -2.0216 -1.5610  0.6659
 5913SOL     OW29371   0.580   2.839   3.553 -0.1993 -0.5973 -0.2307
 5913SOL    HW129372   0.585   2.841   3.457  0.1385  1.4912 -0.1634
 5913SOL    HW229373   0.486   2.854   3.560 -0.8231 -3.4099 -2.5382
 5914SOL     OW29374   1.088   3.242   3.204  0.3291  0.4072  0.5725
 5914SOL    HW129375   1.002   3.201   3.214 -0.0662  0.3211 -3.0824
 5914SOL    HW229376   1.136   3.196   3.273 -0.4186 -1.3897 -0.1042
 5915SOL     OW29377   4.020   4.048   0.339  0.3359  0.2974  0.5163
 5915SOL    HW129378   4.022   3.993   0.261 -0.3856  0.0860  0.6517
 5915SOL    HW229379   3.928   4.049   0.365  0.0922 -0.4783 -0.3041
 5916SOL     OW29380   0.076   2.223   4.496  0.0270  0.0849 -0.5550
 5916SOL    HW129381   0.011   2.260   4.436 -0.8254  1.9024  1.5193
 5916SOL    HW229382   0.033   2.141   4.522  1.4575 -0.4132  0.2458
 5917SOL     OW29383   4.484   1.904   8.207 -0.4984  0.1542  0.1817
 5917SOL    HW129384   4.400   1.868   8.237 -1.4064 -0.2980 -2.9255
 5917SOL    HW229385   4.545   1.856   8.264  0.1788  1.0123  0.1897
 5918SOL     OW29386   0.583   0.728   1.058 -0.1273  0.1911  0.3346
 5918SOL    HW129387   0.508   0.775   1.095  0.0821  3.1503 -3.0618
 5918SOL    HW229388   0.626   0.803   1.017 -1.2358  0.5768 -0.1101
 5919SOL     OW29389   0.371   1.576   7.929 -0.2764  0.2117 -0.2397
 5919SOL    HW129390   0.374   1.572   8.024 -1.3155 -0.7402 -0.2366
 5919SOL    HW229391   0.346   1.668   7.916 -1.1155  0.0308  0.0838
 5920SOL     OW29392   0.553   1.617   1.635  0.2558  0.0877 -0.6029
 5920SOL    HW129393   0.470   1.572   1.622 -0.5137  1.7534 -1.3469
 5920SOL    HW229394   0.528   1.708   1.625 -0.9404  0.0383  1.8395
 5921SOL     OW29395   0.703   4.352   4.279  0.1207 -0.0517  0.1116
 5921SOL    HW129396   0.762   4.280   4.261  0.8630  0.7286 -0.5533
 5921SOL    HW229397   0.716   4.406   4.201 -0.6132  1.3488  0.9524
 5922SOL     OW29398   0.661   3.113   1.984  0.3968 -0.0031 -0.2837
 5922SOL    HW129399   0.737   3.059   2.006  0.5989 -0.0278 -1.0428
 5922SOL    HW229400   0.693   3.203   1.970 -0.0249  0.0050 -1.2210
 5923SOL     OW29401   3.883   3.282   2.719  0.4730  0.5646 -0.0560
 5923SOL    HW129402   3.891   3.342   2.793 -1.6452  0.4526  0.2611
 5923SOL    HW229403   3.900   3.199   2.764 -0.3690 -0.3979 -1.4941
 5924SOL     OW29404   2.443   2.541   6.962 -0.0811 -0.3789  0.0398
 5924SOL    HW129405   2.348   2.538   6.976  0.1204 -0.6988  1.3619
 5924SOL    HW229406   2.486   2.477   7.019 -0.4134  0.3540  1.1178
 5925SOL     OW29407   3.050   1.582   9.077  0.9420  0.3052  0.2097
 5925SOL    HW129408   3.087   1.633   9.005  0.6958 -0.2493 -0.3082
 5925SOL    HW229409   3.103   1.504   9.059  1.0279 -0.1370  2.4257
 5926SOL     OW29410   3.571   3.799   5.880 -0.4175  0.2661 -0.5091
 5926SOL    HW129411   3.549   3.888   5.908 -0.9689 -0.0767  0.1421
 5926SOL    HW229412   3.633   3.823   5.812 -0.0885 -2.1751 -1.0661
 5927SOL     OW29413   2.172   2.311   3.448 -0.5200 -0.2128 -0.1432
 5927SOL    HW129414   2.092   2.328   3.498 -0.6858  0.1865 -0.5428
 5927SOL    HW229415   2.139   2.263   3.372 -2.9042  0.5034  0.4416
 5928SOL     OW29416   0.844   3.784   6.165  0.3929  0.2241  0.1350
 5928SOL    HW129417   0.798   3.777   6.082 -0.1607  0.8483  0.3859
 5928SOL    HW229418   0.897   3.863   6.150  0.9268  0.2172  1.9441
 5929SOL     OW29419   2.476   2.774  15.067  0.0364  0.2916  0.2148
 5929SOL    HW129420   2.500   2.865  15.046 -0.0489  0.1508 -0.5146
 5929SOL    HW229421   2.524   2.764  15.149  0.7841 -0.6775 -0.3307
 5930SOL     OW29422   0.718   3.188   8.309  0.5415  0.6763 -0.4615
 5930SOL    HW129423   0.648   3.236   8.353 -0.8918 -1.9276  0.1421
 5930SOL    HW229424   0.694   3.097   8.328 -0.6788  0.9349 -0.7569
 5931SOL     OW29425   3.174   2.076   9.386  0.3916  0.0689  0.2580
 5931SOL    HW129426   3.090   2.029   9.392 -0.2080  1.2060  0.7533
 5931SOL    HW229427   3.196   2.099   9.476  2.5187  0.0073 -0.2449
 5932SOL     OW29428   3.181   2.861  17.654  0.7598 -0.1887  0.4565
 5932SOL    HW129429   3.233   2.898  17.583  1.6905  2.5663  2.5445
 5932SOL    HW229430   3.208   2.907  17.734 -1.5013 -2.2362  2.3990
 5933SOL     OW29431   0.307   2.423  13.832  0.3619  0.5607  0.0460
 5933SOL    HW129432   0.346   2.338  13.852  1.5600  1.5429  1.8139
 5933SOL    HW229433   0.219   2.420  13.869  0.3080 -2.8916 -0.3156
 5934SOL     OW29434   1.013   3.697  17.197  0.3961  0.4751  0.2845
 5934SOL    HW129435   1.039   3.660  17.112 -0.0605 -2.3190  1.3595
 5934SOL    HW229436   0.917   3.688  17.193  0.5236 -1.3147  1.3208
 5935SOL     OW29437   1.071   4.285   6.716 -0.0949 -0.3065  0.7636
 5935SOL    HW129438   1.088   4.358   6.657 -1.4265 -1.6039 -1.2433
 5935SOL    HW229439   1.115   4.216   6.666  1.8750  1.0869  0.6199
 5936SOL     OW29440   3.967   3.566  13.872  0.4818  0.0779  0.1034
 5936SOL    HW129441   3.898   3.523  13.822  0.2758 -0.9152  1.2362
 5936SOL    HW229442   4.049   3.529  13.837  0.2997  1.9762 -2.3509
 5937SOL     OW29443   2.950   2.378   9.472  0.2790 -0.1265  0.4970
 5937SOL    HW129444   2.867   2.420   9.447  0.6136 -0.2332 -0.7809
 5937SOL    HW229445   2.915   2.333   9.549 -1.4258 -0.1971 -0.3224
 5938SOL     OW29446   2.326   4.375   2.632  0.2155 -0.2956 -0.1714
 5938SOL    HW129447   2.274   4.345   2.707  0.6087  0.8043  0.5378
 5938SOL    HW229448   2.279   4.447   2.591  1.4328  1.5000  1.5842
 5939SOL     OW29449   3.078   2.186  12.479  0.0934 -0.1171  0.1983
 5939SOL    HW129450   3.139   2.251  12.515  1.5243 -1.3610 -0.0093
 5939SOL    HW229451   3.056   2.139  12.559 -0.6353 -0.2983 -0.1068
 5940SOL     OW29452   0.591   3.685   9.074 -0.2602  0.8523  0.2167
 5940SOL    HW129453   0.677   3.685   9.117 -0.0569  0.4314 -0.1821
 5940SOL    HW229454   0.590   3.601   9.028  1.9662  0.5986  0.6133
 5941SOL     OW29455   0.327   0.961   0.101  0.3425 -0.4587  0.1339
 5941SOL    HW129456   0.285   1.044   0.125 -0.7387 -0.4724 -1.6666
 5941SOL    HW229457   0.412   0.971   0.143  0.7575 -1.7488 -0.4224
 5942SOL     OW29458   0.615   1.561  11.036  0.8468 -0.0911  0.3152
 5942SOL    HW129459   0.702   1.559  11.074 -0.1297 -0.6056  2.5398
 5942SOL    HW229460   0.632   1.583  10.944  1.2610 -0.6198  0.2673
 5943SOL     OW29461   1.631   4.074   3.212 -0.3071 -0.1115 -0.0525
 5943SOL    HW129462   1.562   4.079   3.146  0.6471  2.5026 -0.8271
 5943SOL    HW229463   1.625   4.163   3.246  4.2193  0.9650 -2.0936
 5944SOL     OW29464   3.678   4.327   7.747 -0.5431 -0.4532  0.0788
 5944SOL    HW129465   3.612   4.280   7.798 -0.7417 -1.8811 -1.4877
 5944SOL    HW229466   3.665   4.294   7.658 -0.5269  1.7027 -0.7145
 5945SOL     OW29467   2.627   0.693  11.784 -0.3331 -0.5756 -0.4589
 5945SOL    HW129468   2.621   0.654  11.697 -0.2400 -0.8428 -0.3453
 5945SOL    HW229469   2.715   0.669  11.811 -0.4453 -1.3454 -0.7789
 5946SOL     OW29470   4.701   1.694   2.368  0.4613  0.4245  0.1705
 5946SOL    HW129471   0.055   1.701   2.406  0.6681  2.7639 -0.7590
 5946SOL    HW229472   4.676   1.614   2.413  0.8401  0.2528  0.0809
 5947SOL     OW29473   2.254   3.975   3.245  0.5026 -0.4466  0.2892
 5947SOL    HW129474   2.191   3.903   3.245  0.7098 -0.6305  1.1325
 5947SOL    HW229475   2.220   4.019   3.323 -2.8117 -0.1283 -1.2980
 5948SOL     OW29476   3.752   2.894   1.068 -0.3976  0.7691 -0.1872
 5948SOL    HW129477   3.752   2.840   0.989 -1.6742 -1.9721  1.7109
 5948SOL    HW229478   3.702   2.829   1.116 -0.7833  1.5299  0.4546
 5949SOL     OW29479   1.553   2.613   3.768  0.0501  0.0730 -0.4150
 5949SOL    HW129480   1.467   2.596   3.806  1.1606  0.9484  2.5329
 5949SOL    HW229481   1.590   2.529   3.797  2.2147  1.4907  0.9587
 5950SOL     OW29482   4.652   0.667   9.009  0.8236  0.6465  0.2640
 5950SOL    HW129483   4.611   0.648   9.093 -0.3387  2.4676  0.1035
 5950SOL    HW229484   4.668   0.578   8.977  0.9857  1.2243 -1.2885
 5951SOL     OW29485   3.518   4.569   6.289 -0.0321  0.3832  0.0988
 5951SOL    HW129486   3.502   4.476   6.275  1.1565  0.1308  0.3939
 5951SOL    HW229487   3.593   4.579   6.230 -0.1970  2.8405  0.3088
 5952SOL     OW29488   1.348   0.660   7.313  0.0573 -0.3836  0.4833
 5952SOL    HW129489   1.355   0.641   7.220 -2.3484 -1.0253  0.4363
 5952SOL    HW229490   1.376   0.575   7.346  0.8825  0.2472  1.4123
 5953SOL     OW29491   3.614   2.732   3.957  0.0950 -0.0005  0.9805
 5953SOL    HW129492   3.538   2.765   4.005 -0.2565 -1.9227  1.7528
 5953SOL    HW229493   3.677   2.804   3.952 -0.0191 -0.2202 -2.9647
 5954SOL     OW29494   3.971   2.931   5.200  0.5618 -1.0842  0.7176
 5954SOL    HW129495   3.937   2.910   5.113  2.0668  0.2741 -0.1959
 5954SOL    HW229496   3.932   3.016   5.218  1.0908 -0.4534 -1.1236
 5955SOL     OW29497   3.482   1.408   0.667 -0.1199 -0.5745  0.5224
 5955SOL    HW129498   3.411   1.390   0.728 -0.5920 -2.1454 -0.5052
 5955SOL    HW229499   3.439   1.370   0.591  0.3560  0.6552 -0.3536
 5956SOL     OW29500   0.095   1.205   9.046  0.5838 -0.2527 -0.2382
 5956SOL    HW129501   0.081   1.125   8.996  0.6241  0.5008 -1.4514
 5956SOL    HW229502   0.169   1.237   8.995  1.3186 -1.0091  0.3541
 5957SOL     OW29503   4.406   2.572   3.593 -0.4021  0.4570  0.3272
 5957SOL    HW129504   4.416   2.665   3.617 -1.8226  0.9498 -1.0330
 5957SOL    HW229505   4.389   2.578   3.499  0.3553 -1.1276  0.0824
 5958SOL     OW29506   1.071   0.555   4.204 -0.3906 -0.1218  0.0518
 5958SOL    HW129507   1.086   0.499   4.280 -0.1768 -0.0043  0.0966
 5958SOL    HW229508   0.988   0.516   4.175 -1.0928  1.3988 -0.0104
 5959SOL     OW29509   1.030   0.738   1.552 -0.0672 -0.4301 -0.7040
 5959SOL    HW129510   1.114   0.769   1.518 -0.9995  1.2862 -1.4534
 5959SOL    HW229511   0.976   0.813   1.526 -1.4273 -0.2909  2.5341
 5960SOL     OW29512   1.796   0.898   7.534 -0.7106 -0.2075  0.3496
 5960SOL    HW129513   1.706   0.873   7.513 -0.9376  0.2351  0.7981
 5960SOL    HW229514   1.814   0.957   7.461  2.7014  0.1703  1.4486
 5961SOL     OW29515   2.367   4.288   3.316 -0.2013 -0.2462 -0.1436
 5961SOL    HW129516   2.337   4.302   3.226 -2.4093 -1.7946  0.3388
 5961SOL    HW229517   2.366   4.192   3.310 -0.0453 -0.2286 -0.4661
 5962SOL     OW29518   3.638   3.808   3.554 -0.2668 -0.4277 -0.0014
 5962SOL    HW129519   3.680   3.794   3.469 -0.8641 -1.3766 -0.1448
 5962SOL    HW229520   3.709   3.790   3.615  0.9790  1.3573 -0.9252
 5963SOL     OW29521   2.003   0.411  16.403  0.2098  0.0882 -0.2057
 5963SOL    HW129522   1.918   0.366  16.403 -0.1856  0.8682  2.4822
 5963SOL    HW229523   2.064   0.348  16.442 -0.1679  0.8884  1.6341
 5964SOL     OW29524   1.409   1.553  16.268  0.3145  0.0635  0.7077
 5964SOL    HW129525   1.337   1.606  16.302  0.3221 -0.8577  2.1678
 5964SOL    HW229526   1.476   1.543  16.336 -0.2262 -0.9440  1.0989
 5965SOL     OW29527   1.803   3.906   4.352 -0.0745 -0.0464 -0.2733
 5965SOL    HW129528   1.763   3.987   4.322  0.5903  0.8234  1.2193
 5965SOL    HW229529   1.836   3.882   4.265  0.6699 -2.4775  0.6696
 5966SOL     OW29530   1.056   1.690  12.412  0.2971 -0.1278  0.4274
 5966SOL    HW129531   1.029   1.598  12.408  1.0932 -0.2920 -1.4903
 5966SOL    HW229532   1.134   1.697  12.468  2.3219 -2.4222 -2.0730
 5967SOL     OW29533   1.092   2.917   7.875 -0.6697 -0.0860  0.0730
 5967SOL    HW129534   1.076   3.006   7.843 -0.1301 -0.0446 -0.0838
 5967SOL    HW229535   1.022   2.864   7.839 -3.3352  0.7427  4.0448
 5968SOL     OW29536   3.031   3.113   6.104 -0.5174 -0.1286 -0.5226
 5968SOL    HW129537   3.071   3.198   6.085 -1.2248  0.5553  1.0994
 5968SOL    HW229538   2.946   3.125   6.062  0.0483 -1.4111 -2.0146
 5969SOL     OW29539   3.044   1.992   8.805 -0.3308  0.6606  0.3729
 5969SOL    HW129540   2.967   1.994   8.862 -1.5620 -1.2436 -1.2194
 5969SOL    HW229541   3.054   1.897   8.798  4.7374  0.9643  3.7170
 5970SOL     OW29542   4.675   0.091   0.950  0.1546  0.4289  0.1729
 5970SOL    HW129543   4.669   0.176   0.993 -0.3109 -0.1991  1.3578
 5970SOL    HW229544   4.676   0.038   1.030  1.9922 -0.5325 -0.4745
 5971SOL     OW29545   2.955   1.382   5.351  0.7817  0.4711 -0.1506
 5971SOL    HW129546   3.037   1.410   5.312  0.2152  3.1263  0.5641
 5971SOL    HW229547   2.922   1.472   5.355 -2.5319 -0.7061 -1.2056
 5972SOL     OW29548   0.187   0.190   5.513  0.1806  0.0130 -0.1537
 5972SOL    HW129549   0.273   0.160   5.541  0.4528  1.7145  0.8665
 5972SOL    HW229550   0.217   0.241   5.437 -1.1590 -1.2263 -1.5107
 5973SOL     OW29551   0.638   3.637  14.774  0.6512  0.1498 -0.0977
 5973SOL    HW129552   0.635   3.701  14.845 -4.1007  0.5492 -0.6490
 5973SOL    HW229553   0.556   3.595  14.801  0.4217  1.4016  1.1665
 5974SOL     OW29554   2.628   2.024   3.734  0.1802 -0.0361  0.3174
 5974SOL    HW129555   2.709   2.053   3.694  1.0941 -1.7931  0.8983
 5974SOL    HW229556   2.605   1.959   3.668 -1.0448 -0.0522  0.7626
 5975SOL     OW29557   2.198   3.118   5.009  0.0681  0.7575 -0.3219
 5975SOL    HW129558   2.135   3.054   4.975  0.7945 -0.2803  0.2843
 5975SOL    HW229559   2.169   3.136   5.099  0.1591 -0.6441 -0.0125
 5976SOL     OW29560   3.612   1.824  10.891 -0.3519  0.4213  0.0292
 5976SOL    HW129561   3.585   1.870  10.971  0.6307 -0.6147  0.9490
 5976SOL    HW229562   3.589   1.734  10.913  1.6127 -0.0869  0.0237
 5977SOL     OW29563   3.284   0.922   5.932 -0.2285  0.3880 -0.3125
 5977SOL    HW129564   3.323   0.995   5.981 -0.8201  0.1093  0.5757
 5977SOL    HW229565   3.242   0.975   5.865 -1.9355  1.1362  1.3473
 5978SOL     OW29566   3.869   0.095   2.053 -0.8373 -0.1950  0.6803
 5978SOL    HW129567   3.931   0.030   2.022 -0.7537  0.2372 -0.0679
 5978SOL    HW229568   3.788   0.046   2.038 -1.1271 -0.3763  2.8234
 5979SOL     OW29569   3.997   3.895   6.003 -0.4413  0.1042  0.0873
 5979SOL    HW129570   3.990   3.802   5.984 -2.2119  0.0158  1.1874
 5979SOL    HW229571   4.071   3.896   6.063 -0.8267 -2.3692  0.5721
 5980SOL     OW29572   3.684   0.975   6.438 -0.0082 -0.7969 -0.3961
 5980SOL    HW129573   3.675   1.054   6.492 -1.4702 -0.9663 -0.3926
 5980SOL    HW229574   3.779   0.962   6.431  0.2061  1.2301 -1.4553
 5981SOL     OW29575   2.968   1.223  16.140 -0.4647 -0.3355 -0.0837
 5981SOL    HW129576   2.992   1.288  16.075 -1.5956  0.7163  0.5518
 5981SOL    HW229577   2.877   1.246  16.158 -0.1165  0.4860  0.5988
 5982SOL     OW29578   3.245   0.562  16.176  0.1167  0.2881 -0.4165
 5982SOL    HW129579   3.202   0.640  16.142  3.2558  2.0243 -0.4773
 5982SOL    HW229580   3.332   0.579  16.139  1.0283  2.8392  2.8916
 5983SOL     OW29581   3.616   0.809  17.081 -0.7927  0.4265 -0.3783
 5983SOL    HW129582   3.616   0.810  16.985 -1.1243 -2.9822 -0.4273
 5983SOL    HW229583   3.667   0.886  17.103 -2.3818  1.5526 -0.6617
 5984SOL     OW29584   4.455   1.614  12.336 -0.1858  0.0371  0.5944
 5984SOL    HW129585   4.499   1.633  12.253 -2.7808 -0.6257 -0.9402
 5984SOL    HW229586   4.480   1.687  12.393  2.3907 -1.6214  1.5562
 5985SOL     OW29587   0.367   3.320   8.617 -0.1532  0.3813 -0.4310
 5985SOL    HW129588   0.329   3.246   8.570  1.8220  0.4039 -2.0203
 5985SOL    HW229589   0.309   3.328   8.693 -0.1463 -1.7094 -0.1965
 5986SOL     OW29590   2.763   4.423   8.900  0.0752  0.0804  0.0693
 5986SOL    HW129591   2.678   4.465   8.911  0.4549  0.7102  0.5946
 5986SOL    HW229592   2.797   4.490   8.841 -2.3998 -0.7853 -2.3102
 5987SOL     OW29593   0.050   0.854   2.950  0.0576  0.4148  0.4109
 5987SOL    HW129594   0.127   0.902   2.982 -0.5386  0.7719  1.2891
 5987SOL    HW229595   0.033   0.873   2.858 -1.6008 -2.2522  0.1686
 5988SOL     OW29596   3.475   4.076   2.107 -0.5145 -0.2660 -0.3025
 5988SOL    HW129597   3.475   3.993   2.156  0.1890 -0.5126 -0.7094
 5988SOL    HW229598   3.417   4.052   2.035 -0.8748 -2.4533  0.7098
 5989SOL     OW29599   3.740   3.628   3.974 -0.6891  0.2678 -0.2839
 5989SOL    HW129600   3.722   3.543   3.934 -2.3791  0.1099  0.8053
 5989SOL    HW229601   3.791   3.671   3.906  1.9111  0.2728  1.6664
 5990SOL     OW29602   2.813   1.662   1.208 -0.3782  0.1640  0.0979
 5990SOL    HW129603   2.886   1.600   1.208 -0.8407 -0.3809 -1.0153
 5990SOL    HW229604   2.872   1.738   1.210  0.8312 -0.8023  1.0611
 5991SOL     OW29605   3.204   2.400   7.261 -0.0866 -0.6003 -0.4965
 5991SOL    HW129606   3.177   2.482   7.219 -1.8322 -1.4347 -1.0044
 5991SOL    HW229607   3.188   2.419   7.353  3.8870 -0.4785  0.1604
 5992SOL     OW29608   2.900   3.505   1.570 -0.5628  0.0931  0.2491
 5992SOL    HW129609   2.984   3.516   1.526 -0.9420 -0.4808 -0.6359
 5992SOL    HW229610   2.924   3.516   1.662 -0.4609 -0.4908  0.2927
 5993SOL     OW29611   3.544   1.435   1.949  0.2524  0.3770  0.4669
 5993SOL    HW129612   3.493   1.405   1.873 -1.1614  2.8248  0.4324
 5993SOL    HW229613   3.550   1.528   1.924  0.6084  0.6159  1.4580
 5994SOL     OW29614   1.471   2.354  10.441  0.6955 -0.3407 -0.6027
 5994SOL    HW129615   1.550   2.346  10.387  1.9962 -0.2025  1.3132
 5994SOL    HW229616   1.423   2.419  10.388  2.4956 -0.2321 -2.1139
 5995SOL     OW29617   0.951   4.566   7.293 -0.1869  0.2492 -0.1433
 5995SOL    HW129618   1.042   4.593   7.279  1.3146 -3.0966  3.0933
 5995SOL    HW229619   0.907   4.643   7.330  1.0432  1.0818 -0.4170
 5996SOL     OW29620   0.656   4.168   5.365  0.0329  0.4265 -0.5705
 5996SOL    HW129621   0.562   4.150   5.362 -0.3161  1.9440  1.1594
 5996SOL    HW229622   0.661   4.222   5.444  0.9849 -2.6682  1.4803
 5997SOL     OW29623   0.459   1.080   0.629 -0.0547 -0.1541 -0.2333
 5997SOL    HW129624   0.470   1.162   0.676  0.1348  0.2522 -0.9846
 5997SOL    HW229625   0.413   1.118   0.554 -0.1563 -1.8059 -1.0300
 5998SOL     OW29626   2.994   0.121   7.520  0.1209  0.3312 -0.6037
 5998SOL    HW129627   2.999   0.197   7.463 -1.9067 -1.3139 -2.9659
 5998SOL    HW229628   2.903   0.091   7.518 -0.1652  1.2920 -2.6312
 5999SOL     OW29629   4.275   3.328   7.935 -0.2727  1.1952 -0.1295
 5999SOL    HW129630   4.253   3.244   7.894 -4.0570  1.6663  0.9733
 5999SOL    HW229631   4.336   3.363   7.870 -1.3790  2.8014 -0.2965
 6000SOL     OW29632   0.498   3.518   8.003  0.1004  0.0721  0.6397
 6000SOL    HW129633   0.585   3.533   7.965 -1.2706  2.4038 -1.5819
 6000SOL    HW229634   0.495   3.587   8.069  1.7985 -0.1824  0.9983
 6001SOL     OW29635   0.924   4.476   2.728  0.5800 -0.4342 -0.4533
 6001SOL    HW129636   0.883   4.476   2.642  1.0035 -0.1323 -0.6574
 6001SOL    HW229637   0.928   4.384   2.753 -1.4787 -0.5111 -0.4011
 6002SOL     OW29638   2.741   1.404  11.328  0.1777 -0.1172  0.6438
 6002SOL    HW129639   2.714   1.374  11.415  2.3417  0.3975  1.4933
 6002SOL    HW229640   2.760   1.494  11.353  0.0047  0.2278 -0.4677
 6003SOL     OW29641   2.146   1.103  10.093  0.0718  0.1780  0.1427
 6003SOL    HW129642   2.072   1.075  10.040 -0.0807 -0.2755  0.6037
 6003SOL    HW229643   2.112   1.103  10.183  0.7299  0.9023  0.3936
 6004SOL     OW29644   4.369   4.078  14.878  0.0558  0.5975 -0.6219
 6004SOL    HW129645   4.411   3.999  14.913  0.7440  1.4463  0.4731
 6004SOL    HW229646   4.343   4.106  14.966 -0.6379 -1.1252 -0.2756
 6005SOL     OW29647   0.260   2.930   7.647 -0.4305 -0.3717 -0.5524
 6005SOL    HW129648   0.248   2.854   7.705 -2.0930 -1.1910 -1.9712
 6005SOL    HW229649   0.259   2.895   7.558 -2.6569 -0.3825 -0.5134
 6006SOL     OW29650   3.564   0.989   5.818 -0.2884 -0.3751 -0.0196
 6006SOL    HW129651   3.568   1.081   5.842  1.4592  0.0747 -1.9953
 6006SOL    HW229652   3.486   0.999   5.763 -0.8546  1.1108  1.0860
 6007SOL     OW29653   2.935   0.090   1.525 -0.2551  0.3928  0.1127
 6007SOL    HW129654   2.962   0.151   1.594 -3.5445 -0.3606  2.0786
 6007SOL    HW229655   2.882   0.146   1.468 -1.1907 -0.8222 -0.2066
 6008SOL     OW29656   0.782   4.306   5.995 -0.4015 -0.0269  0.2200
 6008SOL    HW129657   0.795   4.335   6.085 -1.2422  0.0644  0.3156
 6008SOL    HW229658   0.733   4.224   6.008 -0.7879  0.3743  1.2970
 6009SOL     OW29659   4.144   3.536  11.653 -0.0843  1.1383 -0.2345
 6009SOL    HW129660   4.201   3.566  11.723  3.1688  0.9136 -2.8181
 6009SOL    HW229661   4.198   3.533  11.575  0.4524  1.6368  0.1211
 6010SOL     OW29662   0.435   2.211   1.354  0.5242  0.6417 -0.5991
 6010SOL    HW129663   0.432   2.275   1.282  0.1523  1.9720  0.6090
 6010SOL    HW229664   0.488   2.143   1.312  0.8784 -0.2807  1.3626
 6011SOL     OW29665   0.951   3.511  10.596 -0.3871  0.1929 -0.0247
 6011SOL    HW129666   0.923   3.589  10.644 -0.8456  0.3189 -0.5012
 6011SOL    HW229667   0.889   3.529  10.526  0.7313  0.0649 -1.0368
 6012SOL     OW29668   4.338   3.315   2.760 -0.0616 -0.1907  0.2888
 6012SOL    HW129669   4.255   3.322   2.712 -1.2473  0.7268  2.4261
 6012SOL    HW229670   4.360   3.407   2.779 -2.3362  0.4038  0.0834
 6013SOL     OW29671   3.999   0.984   8.877  0.4631  0.0217 -0.1764
 6013SOL    HW129672   4.055   0.939   8.940 -2.3576 -1.8818  0.9517
 6013SOL    HW229673   3.928   0.923   8.857  1.6405 -1.0787 -1.0296
 6014SOL     OW29674   1.015   0.666  16.755  0.1825  0.4313 -0.6634
 6014SOL    HW129675   0.974   0.581  16.768 -0.6782  0.8602 -0.6068
 6014SOL    HW229676   1.108   0.642  16.761  0.0268 -0.1366 -0.4443
 6015SOL     OW29677   3.514   3.158   9.421 -0.3611 -0.5957  0.3810
 6015SOL    HW129678   3.506   3.253   9.431 -0.7174 -0.5025 -0.7680
 6015SOL    HW229679   3.421   3.138   9.417 -0.8709  1.9881 -0.5977
 6016SOL     OW29680   3.449   1.030  15.810  0.1705 -0.1756  0.5151
 6016SOL    HW129681   3.502   1.029  15.890 -1.5855 -0.8275  1.6849
 6016SOL    HW229682   3.521   1.020  15.748  1.3848 -0.2208  1.9117
 6017SOL     OW29683   4.040   0.061   7.913  0.0980  0.2082 -0.0509
 6017SOL    HW129684   4.039   0.112   7.832 -1.1627  0.4487  0.1149
 6017SOL    HW229685   4.105   4.726   7.898 -0.5240 -0.8103  2.0324
 6018SOL     OW29686   0.340   2.003   9.702 -0.4014 -0.1258  0.3026
 6018SOL    HW129687   0.392   1.924   9.690 -0.4688  0.1908 -2.1142
 6018SOL    HW229688   0.298   1.988   9.787  1.4286 -0.4558  1.1397
 6019SOL     OW29689   1.105   3.885   5.654  0.0187 -0.3711  0.0262
 6019SOL    HW129690   1.172   3.941   5.693  2.5122 -2.3046 -1.5278
 6019SOL    HW229691   1.159   3.823   5.605  0.2880  0.6845 -1.0104
 6020SOL     OW29692   4.385   1.406  12.481  0.0437  0.1417  0.6689
 6020SOL    HW129693   4.395   1.368  12.393  1.0404 -1.9729  1.6773
 6020SOL    HW229694   4.428   1.488  12.458  1.7430 -0.8045  0.4549
 6021SOL     OW29695   4.011   1.599   2.488  0.4849  0.0281  0.3035
 6021SOL    HW129696   3.941   1.545   2.453  0.0860 -0.6991  2.1930
 6021SOL    HW229697   4.049   1.642   2.412  1.0434  0.8858  1.0718
 6022SOL     OW29698   1.596   0.035  12.659 -0.0479 -0.2326  0.4373
 6022SOL    HW129699   1.530   4.700  12.654  0.8224 -1.0150 -0.1394
 6022SOL    HW229700   1.674   4.714  12.661 -0.8594 -1.3584  1.3018
 6023SOL     OW29701   1.233   3.183   8.789 -0.3886 -0.0126  0.0456
 6023SOL    HW129702   1.215   3.092   8.763  1.4816 -0.6516  1.0618
 6023SOL    HW229703   1.162   3.229   8.743  2.6806  1.3357 -3.2930
 6024SOL     OW29704   4.468   0.094   9.109  0.0255  0.3273  0.1401
 6024SOL    HW129705   4.386   0.139   9.089  0.3963  0.8443 -0.2146
 6024SOL    HW229706   4.432   0.063   9.192 -0.4319  3.2944  1.0436
 6025SOL     OW29707   2.667   2.834   9.037 -0.2385 -0.5631 -0.4300
 6025SOL    HW129708   2.740   2.838   8.976 -1.5838  1.5730 -1.9268
 6025SOL    HW229709   2.594   2.786   8.996 -1.4956 -0.5770  1.8159
 6026SOL     OW29710   4.217   0.249   9.133  0.8187 -0.1995  0.2439
 6026SOL    HW129711   4.170   0.207   9.206 -0.3652 -0.1397 -0.4931
 6026SOL    HW229712   4.153   0.252   9.062 -0.4266  2.1265  1.4516
 6027SOL     OW29713   3.408   1.625  11.100  0.0022 -0.0215 -0.0103
 6027SOL    HW129714   3.437   1.619  11.009 -0.4492  0.0742 -0.1604
 6027SOL    HW229715   3.478   1.570  11.135 -0.1267 -0.3067 -0.1993
 6028SOL     OW29716   4.725   4.037   2.907  0.6465  0.4537 -0.2336
 6028SOL    HW129717   0.037   4.110   2.950  0.6258  0.4808 -0.2575
 6028SOL    HW229718   4.711   3.990   2.989  0.9635  1.3748  0.3575
 6029SOL     OW29719   4.285   3.692   6.405 -0.2282  0.4419  0.0291
 6029SOL    HW129720   4.374   3.688   6.440 -0.0473 -2.5927 -0.8556
 6029SOL    HW229721   4.274   3.600   6.382 -1.2640  0.7147 -0.5493
 6030SOL     OW29722   2.633   1.919  11.315  0.0091 -0.7140  0.2583
 6030SOL    HW129723   2.669   1.985  11.257 -1.8040  0.1905  0.1555
 6030SOL    HW229724   2.644   1.833  11.273  0.9802  0.1426 -1.2334
 6031SOL     OW29725   4.089   0.240   8.393 -0.6196 -0.1935 -0.5763
 6031SOL    HW129726   4.068   0.209   8.305 -1.4361  1.7952 -1.0911
 6031SOL    HW229727   4.024   0.311   8.394  0.3246  0.7086 -2.2284
 6032SOL     OW29728   2.879   1.195   0.775 -0.2362  0.5971 -0.0529
 6032SOL    HW129729   2.799   1.247   0.789  0.3579  1.6131 -0.4173
 6032SOL    HW229730   2.914   1.237   0.697 -0.5005  0.3130 -0.3238
 6033SOL     OW29731   2.190   3.357   5.268  0.6344 -0.2070 -0.0522
 6033SOL    HW129732   2.276   3.316   5.265  0.8919  0.5022 -2.4828
 6033SOL    HW229733   2.145   3.298   5.328 -1.1729 -0.9327 -2.1083
 6034SOL     OW29734   3.808   2.361   8.340 -0.0241 -0.0468  0.0765
 6034SOL    HW129735   3.749   2.436   8.343 -0.3018 -0.3558  2.0247
 6034SOL    HW229736   3.809   2.358   8.244 -1.3207 -0.5048  0.0815
 6035SOL     OW29737   1.179   2.034   4.157  0.1940 -0.5196  0.6685
 6035SOL    HW129738   1.190   2.081   4.239 -0.7012  0.4953  0.2002
 6035SOL    HW229739   1.118   1.968   4.189  0.3061 -0.7772  0.3631
 6036SOL     OW29740   1.664   3.599   4.276 -0.9853 -0.1730 -0.1772
 6036SOL    HW129741   1.693   3.509   4.261  0.1664  0.7305 -3.3929
 6036SOL    HW229742   1.691   3.605   4.368 -0.4354  0.3874 -0.3727
 6037SOL     OW29743   0.967   1.530   5.118  0.4910  0.1614  0.7630
 6037SOL    HW129744   1.007   1.531   5.205 -2.3800  0.6444  2.0675
 6037SOL    HW229745   0.872   1.528   5.123  0.2211 -0.5696 -4.0927
 6038SOL     OW29746   1.051   2.990  14.540  0.1070 -0.8744  0.1889
 6038SOL    HW129747   0.960   3.019  14.548 -0.4638 -2.6782  0.4318
 6038SOL    HW229748   1.085   3.047  14.472 -2.4588  1.3021  0.7344
 6039SOL     OW29749   3.234   3.370   5.675  0.2154  0.6943 -0.6457
 6039SOL    HW129750   3.196   3.434   5.616  1.8525  2.5057  0.2852
 6039SOL    HW229751   3.323   3.403   5.681  0.3421  0.0616  1.2889
 6040SOL     OW29752   3.185   2.591   6.006  0.3097 -0.0325 -0.1652
 6040SOL    HW129753   3.232   2.642   6.072 -1.0864  0.4240  0.4593
 6040SOL    HW229754   3.182   2.508   6.054  2.2711 -0.1436 -0.2363
 6041SOL     OW29755   0.372   1.547  14.102 -0.4853 -0.4156  0.4640
 6041SOL    HW129756   0.396   1.640  14.101 -0.9617 -0.3348 -2.8744
 6041SOL    HW229757   0.425   1.519  14.177 -0.2771 -0.4800  0.2928
 6042SOL     OW29758   0.089   3.030   2.011  0.6599 -0.1956  0.3004
 6042SOL    HW129759   0.040   2.984   1.943 -1.6910 -0.8268  2.4186
 6042SOL    HW229760   0.134   2.966   2.066 -0.4633 -0.2846  1.1241
 6043SOL     OW29761   4.298   1.536  16.873  0.4727  0.4583 -0.4332
 6043SOL    HW129762   4.273   1.455  16.918 -0.2330  2.0784  2.1016
 6043SOL    HW229763   4.218   1.583  16.896  0.3247 -0.9002  1.8096
 6044SOL     OW29764   0.907   4.137   8.657  0.4003  0.6470  0.2132
 6044SOL    HW129765   0.895   4.104   8.568 -2.1241  2.7092 -0.1888
 6044SOL    HW229766   0.859   4.219   8.659 -2.9440 -1.3231  0.2398
 6045SOL     OW29767   2.499   1.367   5.874 -0.2630  0.3708  0.6891
 6045SOL    HW129768   2.471   1.277   5.858 -3.0627  1.1975  0.9400
 6045SOL    HW229769   2.514   1.394   5.783  1.9673 -0.8076  0.7085
 6046SOL     OW29770   2.186   2.729   3.619  0.6301  0.3623  0.1632
 6046SOL    HW129771   2.253   2.676   3.662  1.9301  0.7643 -1.3614
 6046SOL    HW229772   2.133   2.761   3.692 -1.4804  2.2940 -2.2173
 6047SOL     OW29773   0.640   2.266   4.089 -0.4356  0.0587 -0.3834
 6047SOL    HW129774   0.569   2.277   4.153  2.2109  2.8756  2.0940
 6047SOL    HW229775   0.593   2.218   4.021  2.8059 -2.0773 -1.1289
 6048SOL     OW29776   2.833   0.894   6.483 -0.7686 -0.0152  0.2638
 6048SOL    HW129777   2.769   0.845   6.536 -0.7856 -1.0691 -0.7478
 6048SOL    HW229778   2.909   0.896   6.541 -0.7117  4.1255  0.0394
 6049SOL     OW29779   1.170   2.606   2.720 -0.3659  0.3497 -0.1667
 6049SOL    HW129780   1.125   2.525   2.696  0.4067 -0.1964  0.2356
 6049SOL    HW229781   1.248   2.597   2.665  0.0512  0.8951  0.3367
 6050SOL     OW29782   3.818   3.516   5.444  0.7647  0.2576 -0.3742
 6050SOL    HW129783   3.747   3.578   5.427  0.1722  0.6612  3.4714
 6050SOL    HW229784   3.878   3.555   5.381 -2.3946  0.1277 -3.4736
 6051SOL     OW29785   2.707   2.185   7.349 -0.1523  0.1606  0.1469
 6051SOL    HW129786   2.706   2.191   7.444  0.6177 -0.1766  0.1707
 6051SOL    HW229787   2.662   2.102   7.332 -0.0022  0.3314 -1.0601
 6052SOL     OW29788   1.633   2.150  15.451 -0.2169 -0.0623  0.7457
 6052SOL    HW129789   1.683   2.203  15.512  0.9126  0.7630 -0.8831
 6052SOL    HW229790   1.545   2.134  15.485  0.1899 -0.0733  1.7770
 6053SOL     OW29791   3.120   1.777   0.777  0.3615  0.3022 -0.3652
 6053SOL    HW129792   3.029   1.760   0.800  0.0770  0.3936 -1.4284
 6053SOL    HW229793   3.110   1.769   0.682 -0.2390 -0.9198 -0.1938
 6054SOL     OW29794   2.141   0.046   1.285  0.0724 -0.0545 -0.3675
 6054SOL    HW129795   2.149   0.081   1.197  0.0858  0.6338 -0.0914
 6054SOL    HW229796   2.210   4.715   1.274  0.4647  0.0943  1.2183
 6055SOL     OW29797   0.107   1.513   4.157  0.1216 -0.1848 -0.0490
 6055SOL    HW129798   0.106   1.521   4.252 -1.0133 -1.7833  0.0787
 6055SOL    HW229799   0.117   1.593   4.106 -0.7131 -0.1481 -0.1528
 6056SOL     OW29800   4.214   3.402  13.551 -0.0974 -0.4288  0.0361
 6056SOL    HW129801   4.239   3.457  13.625 -1.0436  1.0610 -0.7368
 6056SOL    HW229802   4.185   3.326  13.601  0.7139 -0.4355  0.5065
 6057SOL     OW29803   2.410   1.935   6.601  0.0145 -0.6126  0.3513
 6057SOL    HW129804   2.503   1.922   6.580  0.0379 -1.1544  0.8131
 6057SOL    HW229805   2.417   2.020   6.644 -0.3704  0.3216 -1.3984
 6058SOL     OW29806   2.309   3.703  15.400  0.1607  0.0405 -0.2918
 6058SOL    HW129807   2.315   3.792  15.436  0.4888  0.0041 -0.2536
 6058SOL    HW229808   2.402   3.691  15.381 -0.0379 -0.2779 -1.0407
 6059SOL     OW29809   0.430   2.338   5.656  0.1545  0.4458  0.1646
 6059SOL    HW129810   0.417   2.403   5.726  0.6116 -0.8941  1.5085
 6059SOL    HW229811   0.497   2.289   5.703 -0.9961 -0.9672  0.3256
 6060SOL     OW29812   3.683   2.165   9.034 -0.1166  0.3573  0.2907
 6060SOL    HW129813   3.610   2.223   9.056  0.1704  1.0629 -0.6296
 6060SOL    HW229814   3.699   2.180   8.941 -0.3792  0.7979  0.3167
 6061SOL     OW29815   0.123   1.439  10.398 -0.1083  0.6873  0.7296
 6061SOL    HW129816   0.078   1.490  10.331 -0.4890 -1.3291 -0.5437
 6061SOL    HW229817   0.046   1.435  10.456  1.8830  1.6945  3.4645
 6062SOL     OW29818   4.283   3.418   0.786 -0.0655  0.2391 -0.1828
 6062SOL    HW129819   4.367   3.391   0.823 -2.4489 -3.9810  2.1802
 6062SOL    HW229820   4.319   3.494   0.740  0.7056  1.0201  1.6658
 6063SOL     OW29821   4.544   1.621  14.207 -0.1435 -0.1358 -0.5173
 6063SOL    HW129822   4.611   1.592  14.145  2.2204 -0.3240  2.1029
 6063SOL    HW229823   4.568   1.713  14.205 -0.8506  0.0971  1.6256
 6064SOL     OW29824   0.146   1.918   4.422  0.0754  0.3138 -0.0110
 6064SOL    HW129825   0.059   1.932   4.461  0.8046 -0.0410  1.7591
 6064SOL    HW229826   0.130   1.942   4.331  1.1323  0.9150 -0.0421
 6065SOL     OW29827   3.631   1.723   4.587 -0.3625  0.1992  0.8002
 6065SOL    HW129828   3.648   1.816   4.604 -1.2284  0.3141  1.0207
 6065SOL    HW229829   3.537   1.732   4.569 -0.7082 -0.5019  2.2091
 6066SOL     OW29830   4.284   3.536  11.408  0.1796 -0.4893 -0.9778
 6066SOL    HW129831   4.260   3.466  11.348 -0.2291 -0.6384 -0.6356
 6066SOL    HW229832   4.246   3.613  11.365  2.1053 -0.8000 -3.2550
 6067SOL     OW29833   2.644   3.212   0.943  0.5064 -0.1749 -0.3238
 6067SOL    HW129834   2.638   3.273   1.016 -0.4879  0.1486 -0.6690
 6067SOL    HW229835   2.650   3.278   0.874  0.8827  1.3179  1.1401
 6068SOL     OW29836   3.401   0.637  14.466 -0.4294  0.2742 -0.2760
 6068SOL    HW129837   3.438   0.550  14.457 -1.8136 -0.0625 -2.6109
 6068SOL    HW229838   3.372   0.653  14.376  0.2770  0.4363 -0.4755
 6069SOL     OW29839   3.517   3.259   8.108 -0.4362 -1.0839  0.5107
 6069SOL    HW129840   3.550   3.170   8.120 -0.2375 -1.0955 -0.1481
 6069SOL    HW229841   3.426   3.252   8.138  0.4864 -1.4352  3.2457
 6070SOL     OW29842   0.129   0.308   7.446  0.6612 -0.3030  0.4290
 6070SOL    HW129843   0.076   0.254   7.504  0.4881  2.2854  2.7100
 6070SOL    HW229844   0.166   0.240   7.390  2.3398  0.7943  0.1683
 6071SOL     OW29845   0.259   1.982   6.479  0.3495  0.3488  0.4953
 6071SOL    HW129846   0.215   1.912   6.431 -0.7264  0.7608  0.8655
 6071SOL    HW229847   0.286   2.044   6.411  1.7397  0.3876  1.0835
 6072SOL     OW29848   1.378   4.056  11.022  0.1966 -0.0743 -0.1723
 6072SOL    HW129849   1.299   4.035  10.973  0.4514  0.0825 -0.6498
 6072SOL    HW229850   1.435   4.105  10.962  0.4725  0.5953  0.6280
 6073SOL     OW29851   0.801   0.189  14.353  0.4753  0.1844  0.7078
 6073SOL    HW129852   0.730   0.242  14.316  0.7677 -0.4135 -0.7095
 6073SOL    HW229853   0.878   0.245  14.358 -0.5450  2.0208 -3.3963
 6074SOL     OW29854   3.535   2.116   2.313 -0.2303  0.2306  0.3723
 6074SOL    HW129855   3.560   2.025   2.333 -1.3160 -0.3588 -0.9455
 6074SOL    HW229856   3.463   2.110   2.376 -0.2308  2.0539  0.5254
 6075SOL     OW29857   0.145   2.485   1.794  0.5275 -0.2636  0.0530
 6075SOL    HW129858   0.164   2.553   1.729  1.3013  0.3316  0.9051
 6075SOL    HW229859   0.153   2.410   1.735  0.5039 -0.4288  0.2603
 6076SOL     OW29860   0.991   0.643   8.190  0.6555 -0.1077  0.0508
 6076SOL    HW129861   0.989   0.575   8.257 -0.1378 -0.2390 -0.1080
 6076SOL    HW229862   0.972   0.587   8.115 -1.1979  0.7295 -0.1091
 6077SOL     OW29863   1.616   0.230  16.770 -0.3315 -0.1633 -0.3858
 6077SOL    HW129864   1.704   0.258  16.747 -0.2798  1.7973  2.1165
 6077SOL    HW229865   1.623   0.137  16.792 -1.3444  0.1057  1.0838
 6078SOL     OW29866   3.163   0.773  11.372  0.2398 -0.3972  0.3414
 6078SOL    HW129867   3.093   0.723  11.416  0.8645 -1.5477  0.0362
 6078SOL    HW229868   3.129   0.776  11.283  1.3697  2.8481  0.0414
 6079SOL     OW29869   0.557   4.279   2.303  0.1544 -0.3335  0.4869
 6079SOL    HW129870   0.490   4.330   2.257  0.4026  0.5997  1.1471
 6079SOL    HW229871   0.587   4.221   2.233 -2.0739  0.3251 -1.0114
 6080SOL     OW29872   1.651   3.298   1.144 -0.3977 -0.0800  0.4917
 6080SOL    HW129873   1.612   3.264   1.063  0.4973  1.4712 -0.5819
 6080SOL    HW229874   1.703   3.375   1.123 -0.2815 -0.2072  0.3114
 6081SOL     OW29875   0.923   1.128   0.201 -0.6327  0.0615 -0.2401
 6081SOL    HW129876   1.014   1.156   0.204 -0.8437  0.7077  0.1169
 6081SOL    HW229877   0.888   1.215   0.218  0.4698  0.1943  1.3019
 6082SOL     OW29878   4.273   3.662  15.063  0.5745 -0.0536  0.0904
 6082SOL    HW129879   4.368   3.652  15.059  0.6794  1.0530 -0.2522
 6082SOL    HW229880   4.244   3.578  15.099  1.6638  0.0361  1.1829
 6083SOL     OW29881   4.631   1.443  15.272  0.4145  0.3140 -0.0296
 6083SOL    HW129882   4.703   1.506  15.261 -0.9799  2.0143  0.7104
 6083SOL    HW229883   4.577   1.444  15.193 -1.3281 -1.9115  1.1381
 6084SOL     OW29884   4.443   1.204   3.755 -0.6771  0.5168 -0.2817
 6084SOL    HW129885   4.404   1.171   3.836  0.8217  1.5159  0.8384
 6084SOL    HW229886   4.535   1.217   3.777 -1.4716  1.6235  2.4341
 6085SOL     OW29887   3.867   0.065   6.881 -0.0199  0.0927  0.3680
 6085SOL    HW129888   3.836   0.060   6.790 -2.3920 -0.8415  1.2596
 6085SOL    HW229889   3.943   0.122   6.868 -0.5994  0.8653  0.3755
 6086SOL     OW29890   0.167   1.798   8.846  0.5476  0.0207  0.8788
 6086SOL    HW129891   0.132   1.753   8.770  1.5348 -0.5074  0.7308
 6086SOL    HW229892   0.257   1.766   8.844  0.3570 -0.6537  2.4909
 6087SOL     OW29893   3.659   2.410   7.241  0.3000 -0.5938 -0.0873
 6087SOL    HW129894   3.687   2.499   7.221 -1.5534  0.6835  2.9764
 6087SOL    HW229895   3.633   2.371   7.158  0.8356 -1.9360  0.3771
 6088SOL     OW29896   1.950   0.316  10.308  0.3455  0.8728 -0.3191
 6088SOL    HW129897   1.985   0.267  10.233 -0.3505 -0.2185  0.0709
 6088SOL    HW229898   1.972   0.263  10.384 -0.4105 -0.7969 -1.2771
 6089SOL     OW29899   1.000   1.597   8.511 -0.1173  0.6638 -0.5629
 6089SOL    HW129900   1.042   1.600   8.425  3.0218  0.4031  0.9919
 6089SOL    HW229901   1.009   1.686   8.543 -0.0667  0.1412  0.8794
 6090SOL     OW29902   0.206   2.545   6.953  0.0226  0.2105 -0.2845
 6090SOL    HW129903   0.160   2.528   6.870  1.9457 -2.1877 -0.8679
 6090SOL    HW229904   0.199   2.640   6.952  1.3256  0.3591  3.6542
 6091SOL     OW29905   1.096   4.391   4.742 -0.3751  0.1594  0.2052
 6091SOL    HW129906   1.071   4.339   4.819  1.0197 -0.9851 -0.1225
 6091SOL    HW229907   1.136   4.322   4.688  0.6534 -1.1562  2.6450
 6092SOL     OW29908   3.730   2.958  11.606 -0.1471  0.3826  0.4136
 6092SOL    HW129909   3.664   2.891  11.589  0.2157  0.0916  0.1610
 6092SOL    HW229910   3.735   2.952  11.701 -1.0774 -1.3841  0.3386
 6093SOL     OW29911   0.724   1.236   8.196 -0.0638  0.0309  0.2607
 6093SOL    HW129912   0.691   1.280   8.118  0.2150  0.7371  0.5396
 6093SOL    HW229913   0.810   1.211   8.164 -0.7024 -1.2372 -0.4500
 6094SOL     OW29914   2.835   1.296  13.269 -0.0842  0.2538  0.2608
 6094SOL    HW129915   2.890   1.364  13.307  0.4513  0.0423 -0.1292
 6094SOL    HW229916   2.820   1.345  13.188  1.3515  0.3981  0.0766
 6095SOL     OW29917   4.610   1.839   2.159  0.3326  0.0002 -0.0797
 6095SOL    HW129918   4.540   1.779   2.138  0.6286  0.0327 -1.1348
 6095SOL    HW229919   4.642   1.798   2.239  0.2061  1.5818  0.7892
 6096SOL     OW29920   1.344   0.413  12.367 -0.1632  0.7720 -0.1286
 6096SOL    HW129921   1.373   0.335  12.321 -0.3846 -0.0498  1.1076
 6096SOL    HW229922   1.256   0.391  12.399 -0.7179  1.1512 -1.3769
 6097SOL     OW29923   4.038   3.170  14.484  0.4411 -0.1300  0.5505
 6097SOL    HW129924   4.036   3.209  14.396 -1.9681 -0.1427  0.5849
 6097SOL    HW229925   3.947   3.166  14.513  0.5971  1.3476  1.2774
 6098SOL     OW29926   1.747   4.378  15.774  0.5304  0.2010 -0.0165
 6098SOL    HW129927   1.741   4.419  15.861  0.5440  0.9167 -0.3512
 6098SOL    HW229928   1.763   4.286  15.795  0.0586  0.6667  2.4660
 6099SOL     OW29929   1.693   0.132  13.234 -0.2053  0.0678  0.2676
 6099SOL    HW129930   1.626   0.196  13.259 -1.9504 -1.7604  0.2607
 6099SOL    HW229931   1.671   0.131  13.141 -3.6879  0.9040  1.0936
 6100SOL     OW29932   4.253   0.207   1.854  0.4514 -0.5271 -0.8072
 6100SOL    HW129933   4.240   0.203   1.949  0.1390 -1.3900 -0.8840
 6100SOL    HW229934   4.263   0.113   1.834 -1.2835 -1.2614  1.7488
 6101SOL     OW29935   0.249   2.574  10.306 -0.5641 -0.5152  0.4369
 6101SOL    HW129936   0.172   2.599  10.256  1.2607 -0.2967 -2.2685
 6101SOL    HW229937   0.226   2.611  10.391 -0.6538  2.8231 -1.0645
 6102SOL     OW29938   3.955   1.333  15.160 -0.1160  0.2396 -0.4541
 6102SOL    HW129939   3.962   1.394  15.086  0.2230 -0.1255 -0.7218
 6102SOL    HW229940   3.889   1.370  15.218  1.5358  0.8660  1.0322
 6103SOL     OW29941   1.245   3.352  16.947 -0.3238 -0.5543  0.1974
 6103SOL    HW129942   1.306   3.413  16.989  1.9910 -2.8025  0.0804
 6103SOL    HW229943   1.165   3.401  16.965  1.0367  1.1186  1.6540
 6104SOL     OW29944   4.535   1.231   2.365  0.6001  0.3844  0.6360
 6104SOL    HW129945   4.482   1.235   2.285 -0.6407 -2.7378  1.3175
 6104SOL    HW229946   4.474   1.189   2.425  2.0570  1.4598  2.8790
 6105SOL     OW29947   1.772   0.009  10.059  0.0938  0.4757  0.1011
 6105SOL    HW129948   1.687   0.012  10.016  1.3177 -0.3688 -2.3311
 6105SOL    HW229949   1.798   0.101  10.052  2.2905 -0.2289 -1.0858
 6106SOL     OW29950   2.556   0.974   7.800  0.5029 -0.0906  0.7043
 6106SOL    HW129951   2.570   1.034   7.727  0.2884  0.9151  1.4831
 6106SOL    HW229952   2.584   0.892   7.759 -3.5977 -1.1492  0.0460
 6107SOL     OW29953   0.181   1.946  15.446  0.1923 -0.5743  0.1874
 6107SOL    HW129954   0.226   2.029  15.460  1.3989 -1.6219  2.4077
 6107SOL    HW229955   0.229   1.887  15.503 -2.7076 -2.9708  0.1349
 6108SOL     OW29956   1.797   4.500   8.299  0.0887  0.2498  0.7206
 6108SOL    HW129957   1.784   4.469   8.388  0.1242 -0.6726  0.4071
 6108SOL    HW229958   1.734   4.441   8.256  0.7658 -0.0748  0.1647
 6109SOL     OW29959   4.012   1.299   5.584 -0.5464 -0.2609  0.1687
 6109SOL    HW129960   3.930   1.347   5.597  1.1411  2.7587 -0.3743
 6109SOL    HW229961   3.965   1.228   5.540  0.4192  0.4380 -1.9693
 6110SOL     OW29962   4.295   2.220  10.180  0.1066  0.3423 -0.2757
 6110SOL    HW129963   4.245   2.139  10.187  1.0600 -0.2272 -0.1494
 6110SOL    HW229964   4.315   2.227  10.274 -0.0507  0.5351 -0.2552
 6111SOL     OW29965   3.821   1.125   6.110 -0.0005 -0.4298  0.1332
 6111SOL    HW129966   3.822   1.134   6.205 -2.7246 -1.0219  0.2103
 6111SOL    HW229967   3.875   1.048   6.090  1.8629  0.5892  1.2489
 6112SOL     OW29968   2.219   1.181   1.748  0.0959 -0.2732  0.2931
 6112SOL    HW129969   2.243   1.223   1.831 -1.9038  0.1820  0.6329
 6112SOL    HW229970   2.146   1.122   1.767  0.0975  0.1652  1.6985
 6113SOL     OW29971   3.543   3.628  10.054 -0.3102 -0.0687  0.3213
 6113SOL    HW129972   3.573   3.705  10.006  1.6365 -0.9205  0.1828
 6113SOL    HW229973   3.455   3.601  10.030  0.9825 -2.7066 -1.4980
 6114SOL     OW29974   0.204   2.476  13.041 -0.3790  0.4694 -0.1078
 6114SOL    HW129975   0.259   2.550  13.015  0.9871 -0.5040  0.0277
 6114SOL    HW229976   0.226   2.458  13.132 -0.9548 -1.3138 -0.3264
 6115SOL     OW29977   1.659   3.354   5.125  0.2323 -0.4081 -0.8894
 6115SOL    HW129978   1.745   3.316   5.140  0.3916  0.4167  0.2456
 6115SOL    HW229979   1.604   3.279   5.147  2.7352 -2.2073 -0.7895
 6116SOL     OW29980   4.502   2.251  15.030  0.1559 -0.1639  0.6362
 6116SOL    HW129981   4.534   2.194  14.960 -2.1037 -1.7684  0.9359
 6116SOL    HW229982   4.506   2.338  14.989  0.2234 -0.8571 -0.8210
 6117SOL     OW29983   1.466   2.901  17.497 -0.2614  0.0679 -0.2528
 6117SOL    HW129984   1.497   2.871  17.582  1.1451  0.3937 -0.6344
 6117SOL    HW229985   1.539   2.881  17.438  0.4846 -2.0019  1.3838
 6118SOL     OW29986   2.104   0.867   9.108 -0.1156 -0.1496 -0.6104
 6118SOL    HW129987   2.188   0.901   9.078  1.1693 -2.2127  0.6541
 6118SOL    HW229988   2.039   0.928   9.075 -0.4076 -0.9404 -1.5042
 6119SOL     OW29989   1.705   4.391   6.886 -0.3191 -0.0661 -0.4043
 6119SOL    HW129990   1.667   4.477   6.868  1.1417  0.6927  0.1518
 6119SOL    HW229991   1.773   4.420   6.946 -1.1846 -1.2430  1.1458
 6120SOL     OW29992   3.793   1.811   7.573  0.1357 -0.3900  1.0536
 6120SOL    HW129993   3.762   1.761   7.648 -0.6640  0.6391  1.4034
 6120SOL    HW229994   3.772   1.902   7.595 -2.5899  0.0473 -3.2937
 6121SOL     OW29995   0.728   0.251   4.719  0.2251 -0.5539 -0.7977
 6121SOL    HW129996   0.716   0.323   4.657 -1.7129  0.8806  1.2274
 6121SOL    HW229997   0.817   0.265   4.752 -0.1953 -0.1233  0.1423
 6122SOL     OW29998   0.343   0.555   2.807  0.4126 -0.1620 -0.1164
 6122SOL    HW129999   0.438   0.568   2.806  0.6042 -1.6611 -1.6151
 6122SOL    HW230000   0.320   0.548   2.714 -1.5297  0.2229  0.3480
 6123SOL     OW30001   4.423   1.317  11.889  0.3919 -0.5895 -0.0691
 6123SOL    HW130002   4.439   1.411  11.891  0.4734 -0.6358  1.2423
 6123SOL    HW230003   4.344   1.309  11.941 -0.7588  1.3662 -1.5453
 6124SOL     OW30004   4.021   2.986  16.670 -0.0034 -0.1345  0.5705
 6124SOL    HW130005   4.104   2.998  16.623  0.4314  2.5432  2.0321
 6124SOL    HW230006   3.953   2.968  16.605 -0.0215 -0.2861  0.6329
 6125SOL     OW30007   1.320   4.140   8.818  0.0789 -0.0736  0.3111
 6125SOL    HW130008   1.378   4.063   8.817 -1.7594 -1.4442 -1.7924
 6125SOL    HW230009   1.243   4.104   8.862 -0.7272  0.7413 -0.4337
 6126SOL     OW30010   0.263   0.709  13.207  0.4327 -0.2688  0.0658
 6126SOL    HW130011   0.193   0.690  13.144  0.4639  1.0071 -0.3630
 6126SOL    HW230012   0.304   0.782  13.161  2.2592 -1.0395  0.4968
 6127SOL     OW30013   4.265   0.736  10.870 -0.7530  0.1407 -0.3669
 6127SOL    HW130014   4.337   0.779  10.916 -1.8568  0.7109  0.8161
 6127SOL    HW230015   4.216   0.696  10.941 -0.6010 -1.3106 -1.0867
 6128SOL     OW30016   0.830   0.991   7.795  0.1600  1.0216 -0.0651
 6128SOL    HW130017   0.905   0.995   7.735  0.2505 -0.0085 -0.0091
 6128SOL    HW230018   0.834   0.900   7.825 -1.3351  1.2810  0.9184
 6129SOL     OW30019   2.842   2.300   5.985 -0.3916  0.3615  0.3888
 6129SOL    HW130020   2.754   2.338   5.995  0.3059  2.4670 -1.3201
 6129SOL    HW230021   2.840   2.273   5.893  1.2136  0.3091  0.3800
 6130SOL     OW30022   3.189   2.193   7.070 -0.6802  0.1747  0.7777
 6130SOL    HW130023   3.223   2.250   7.139 -0.0877  0.0441  0.5905
 6130SOL    HW230024   3.140   2.132   7.125 -0.8825 -0.5996 -0.2676
 6131SOL     OW30025   0.769   3.016   0.987  0.5068 -0.5929  0.0084
 6131SOL    HW130026   0.687   3.056   0.955  0.9102 -0.2579 -0.6126
 6131SOL    HW230027   0.757   3.006   1.081 -1.0556  0.1258 -0.1049
 6132SOL     OW30028   3.106   2.939   1.712  0.1728 -0.2775 -0.2719
 6132SOL    HW130029   3.126   2.988   1.792 -0.2412 -2.1113  0.9407
 6132SOL    HW230030   3.010   2.936   1.721  0.3279 -1.8998  0.8508
 6133SOL     OW30031   2.038   2.320   6.135  0.5423 -0.1743 -0.2384
 6133SOL    HW130032   1.981   2.249   6.107 -0.8232  0.7867  0.0861
 6133SOL    HW230033   1.975   2.356   6.198 -0.7890  0.7199 -2.0609
 6134SOL     OW30034   0.566   0.901   6.047 -0.3119 -0.1127  0.1761
 6134SOL    HW130035   0.631   0.839   6.082 -0.9205 -0.1908  1.1913
 6134SOL    HW230036   0.604   0.920   5.962  0.9269  1.5617  1.1118
 6135SOL     OW30037   2.922   2.664   5.986  0.0841  1.0359 -1.0216
 6135SOL    HW130038   3.017   2.654   5.982 -0.0117 -0.2119 -0.0630
 6135SOL    HW230039   2.904   2.643   6.078 -1.7473  1.4417 -1.2990
 6136SOL     OW30040   4.275   1.311  14.117 -0.6979  0.3873  0.4506
 6136SOL    HW130041   4.263   1.384  14.056  0.0555  0.3613  0.2674
 6136SOL    HW230042   4.195   1.314  14.169 -0.9239  1.1857  0.0663
 6137SOL     OW30043   3.050   0.494  11.531  0.2209 -0.1316  0.1166
 6137SOL    HW130044   3.128   0.463  11.487 -0.2443 -0.0026 -0.7852
 6137SOL    HW230045   2.996   0.520  11.457  1.7675 -1.2327 -1.3790
 6138SOL     OW30046   1.155   4.663   1.582  0.1968  0.1165 -0.1590
 6138SOL    HW130047   1.235   4.663   1.528 -0.0894  0.5747 -0.5819
 6138SOL    HW230048   1.096   4.709   1.523 -0.5172 -1.4215 -0.6560
 6139SOL     OW30049   1.881   2.086   7.894  0.0651  0.2684 -0.2823
 6139SOL    HW130050   1.916   2.174   7.883 -0.8782  0.3177 -2.7635
 6139SOL    HW230051   1.790   2.109   7.875  0.4484  1.8429 -0.2626
 6140SOL     OW30052   3.951   3.891   2.099  0.5669 -0.2544  1.0091
 6140SOL    HW130053   3.940   3.888   2.194 -1.9844  0.8563  0.7538
 6140SOL    HW230054   4.013   3.820   2.081 -1.9238 -2.0110 -0.6011
 6141SOL     OW30055   4.197   1.433   6.718  0.8836  0.4426 -0.0246
 6141SOL    HW130056   4.142   1.480   6.780  0.5624  0.3240 -0.2191
 6141SOL    HW230057   4.288   1.452   6.740  1.0119  0.5603 -0.6656
 6142SOL     OW30058   4.255   2.875  16.365 -0.0133  0.1982 -0.0488
 6142SOL    HW130059   4.240   2.794  16.316  0.1859  1.6180 -2.4636
 6142SOL    HW230060   4.350   2.879  16.373  0.0511 -2.6601  0.6004
 6143SOL     OW30061   2.167   2.898   6.783 -0.0056 -0.2064  0.4657
 6143SOL    HW130062   2.074   2.901   6.807 -0.3266 -1.5612 -0.5841
 6143SOL    HW230063   2.182   2.992   6.773 -0.8328  0.0925  2.0121
 6144SOL     OW30064   0.517   4.192  13.445 -0.3613 -0.9230  0.0701
 6144SOL    HW130065   0.506   4.146  13.529  0.5545  0.2830  0.8617
 6144SOL    HW230066   0.494   4.136  13.372  0.5266 -0.5113 -0.5220
 6145SOL     OW30067   4.406   3.958   0.175  0.4509  0.1188 -0.1056
 6145SOL    HW130068   4.350   3.924   0.245  0.0543  0.5533 -0.2121
 6145SOL    HW230069   4.453   4.008   0.241  1.1457  2.7027 -2.5564
 6146SOL     OW30070   0.407   3.430  13.960 -0.4236  0.5480 -0.1860
 6146SOL    HW130071   0.425   3.336  13.948 -0.8509  0.5241 -0.6767
 6146SOL    HW230072   0.389   3.443  14.053  2.5786 -0.2970  0.4995
 6147SOL     OW30073   0.966   3.295   8.861 -0.4539  0.1845  0.2117
 6147SOL    HW130074   0.908   3.332   8.794  1.3218 -2.7936 -2.9794
 6147SOL    HW230075   0.987   3.375   8.910 -0.3100  1.2828 -1.6309
 6148SOL     OW30076   4.598   2.209  13.562 -0.2538  0.7145  0.2140
 6148SOL    HW130077   4.557   2.191  13.646  1.9537  0.3901  1.2037
 6148SOL    HW230078   4.645   2.126  13.553 -1.3547  0.3271 -1.9991
 6149SOL     OW30079   0.247   3.741   3.101 -0.3229 -0.0357 -0.6344
 6149SOL    HW130080   0.181   3.683   3.063  0.8025  0.5910 -3.5353
 6149SOL    HW230081   0.203   3.795   3.167  2.8919 -1.6752  2.8529
 6150SOL     OW30082   4.719   2.653  16.266  1.1356 -0.5757 -0.0076
 6150SOL    HW130083   4.695   2.627  16.177 -0.3710  1.9333 -0.3229
 6150SOL    HW230084   4.637   2.670  16.313  0.0902 -3.1077 -0.9119
 6151SOL     OW30085   4.634   1.534   3.015 -0.2496 -0.1005  0.1148
 6151SOL    HW130086   4.571   1.494   2.955 -2.2330  0.5577  1.7446
 6151SOL    HW230087   4.654   1.456   3.067 -3.3949  0.0932  1.6124
 6152SOL     OW30088   3.107   2.317   7.923  0.0640 -0.1339 -0.0349
 6152SOL    HW130089   3.023   2.279   7.948 -0.7151  0.7158 -1.3535
 6152SOL    HW230090   3.160   2.272   7.989 -1.0700 -0.0222  0.9378
 6153SOL     OW30091   2.122   3.017   3.460 -0.0435  0.4362 -0.3985
 6153SOL    HW130092   2.204   3.006   3.414 -0.0199  0.5958 -0.3958
 6153SOL    HW230093   2.091   2.929   3.479 -0.2976  0.6705  0.2915
 6154SOL     OW30094   1.230   1.746   7.648 -0.6931 -0.8443  0.2385
 6154SOL    HW130095   1.287   1.769   7.575 -0.6290  1.6770  1.1050
 6154SOL    HW230096   1.291   1.718   7.717  0.1962  0.5502  0.0052
 6155SOL     OW30097   0.776   2.698   6.828 -0.0527  0.6532 -0.0420
 6155SOL    HW130098   0.816   2.752   6.759  2.0194  0.1462  0.7825
 6155SOL    HW230099   0.723   2.641   6.772 -0.6758  1.1951  0.0023
 6156SOL     OW30100   2.138   3.690  12.148  0.1346  0.1202 -0.6235
 6156SOL    HW130101   2.176   3.619  12.097 -1.7356 -1.1623 -0.2265
 6156SOL    HW230102   2.104   3.742  12.075 -1.0205  1.6077  0.9377
 6157SOL     OW30103   4.299   2.455   6.680 -0.2588  0.4445 -0.1612
 6157SOL    HW130104   4.295   2.482   6.588 -0.4624  2.0589  0.3098
 6157SOL    HW230105   4.206   2.464   6.703 -0.4607 -1.4889 -0.2872
 6158SOL     OW30106   4.622   4.093   3.331 -0.4965 -0.6879  0.4507
 6158SOL    HW130107   4.608   4.045   3.250  2.4137  0.8185 -0.9475
 6158SOL    HW230108   4.673   4.036   3.388  0.5620 -2.2781 -2.1240
 6159SOL     OW30109   0.914   2.751   5.115 -0.4254  0.1485 -0.3002
 6159SOL    HW130110   0.918   2.718   5.205  0.8533  3.3590  0.8190
 6159SOL    HW230111   0.960   2.832   5.134  1.9171 -1.2112 -0.1479
 6160SOL     OW30112   4.364   3.746   2.359  0.2663  0.1163  0.0757
 6160SOL    HW130113   4.386   3.656   2.381  1.4919  0.4847  0.3506
 6160SOL    HW230114   4.449   3.785   2.339  1.5852 -2.9680 -0.2447
 6161SOL     OW30115   2.736   0.226   8.474 -0.3957 -0.1816 -0.3552
 6161SOL    HW130116   2.789   0.272   8.409  1.1102 -0.8851  0.3620
 6161SOL    HW230117   2.654   0.229   8.426 -1.2962 -1.2657  1.1085
 6162SOL     OW30118   0.556   1.221  16.391  0.0118  0.0804  0.1995
 6162SOL    HW130119   0.496   1.189  16.458  0.1246 -1.1426 -0.2768
 6162SOL    HW230120   0.613   1.144  16.381 -0.2191 -0.0704  0.0455
 6163SOL     OW30121   0.819   0.482   4.167  0.4505  0.0504 -0.1930
 6163SOL    HW130122   0.783   0.414   4.223 -1.1976 -0.0564 -1.3844
 6163SOL    HW230123   0.791   0.559   4.215  3.2778  0.4407  0.8402
 6164SOL     OW30124   1.323   3.639   6.890 -0.3657 -0.4391  0.3385
 6164SOL    HW130125   1.329   3.722   6.843  1.2200 -0.0231  1.2469
 6164SOL    HW230126   1.236   3.645   6.931  0.4579  0.4053  1.9746
 6165SOL     OW30127   0.434   4.673   1.675  0.2282  0.2264  0.2449
 6165SOL    HW130128   0.451   4.600   1.616 -0.8948 -1.2621  1.7528
 6165SOL    HW230129   0.524   4.705   1.678  0.7710 -1.0587 -2.5443
 6166SOL     OW30130   1.315   1.215   5.701  0.5735 -0.1246 -0.3055
 6166SOL    HW130131   1.285   1.257   5.621 -2.6646  2.3228  2.1857
 6166SOL    HW230132   1.291   1.123   5.693 -2.3360  0.3011  3.6708
 6167SOL     OW30133   0.156   3.361   3.918  0.7438 -0.0496  0.3089
 6167SOL    HW130134   0.228   3.361   3.982  0.2665 -3.2785  0.8388
 6167SOL    HW230135   0.115   3.443   3.947  1.2427  0.3153 -0.0051
 6168SOL     OW30136   1.157   1.657  15.869 -0.0977 -0.0525 -0.0174
 6168SOL    HW130137   1.212   1.604  15.927  2.0218  1.9562 -0.2090
 6168SOL    HW230138   1.082   1.683  15.923 -0.3312 -2.0148  0.6220
 6169SOL     OW30139   0.107   1.779   7.725  0.3870 -0.0229  0.2595
 6169SOL    HW130140   0.189   1.784   7.775  1.1102  1.2986 -1.0481
 6169SOL    HW230141   0.063   1.854   7.766  2.7548  0.3964  2.0811
 6170SOL     OW30142   1.397   3.145   6.627  0.0270 -0.2870 -0.7109
 6170SOL    HW130143   1.472   3.105   6.583  0.1380 -0.6292 -0.2212
 6170SOL    HW230144   1.440   3.221   6.666 -1.1793  0.6683 -1.2801
 6171SOL     OW30145   1.573   2.586  15.081 -0.2119 -0.2068  0.3609
 6171SOL    HW130146   1.557   2.659  15.141  0.3827  0.1177  0.1292
 6171SOL    HW230147   1.509   2.518  15.102 -0.6729  0.6395  1.7363
 6172SOL     OW30148   0.210   0.097   7.303  0.1565 -0.3489 -0.2701
 6172SOL    HW130149   0.277   0.134   7.245  1.4180  0.0645  1.4514
 6172SOL    HW230150   0.219   0.003   7.290  1.9852 -0.6398  3.0045
 6173SOL     OW30151   1.788   4.598  12.647  0.1626  0.5321 -0.1076
 6173SOL    HW130152   1.784   4.503  12.659 -0.0575  0.4630 -0.7386
 6173SOL    HW230153   1.823   4.604  12.558  3.5055 -0.6759  1.1206
 6174SOL     OW30154   0.540   3.233   6.725 -0.2586 -0.2647 -0.4717
 6174SOL    HW130155   0.559   3.193   6.640 -1.4020  0.8123 -1.2368
 6174SOL    HW230156   0.541   3.327   6.711  1.5826 -0.5097 -1.9564
 6175SOL     OW30157   1.044   4.547  11.255 -0.2887 -0.4273 -0.0479
 6175SOL    HW130158   1.106   4.608  11.295 -0.8592  1.0188 -1.3875
 6175SOL    HW230159   1.004   4.605  11.190 -0.7692  1.7679  2.2217
 6176SOL     OW30160   3.798   1.929  10.688  0.8036  0.4137 -0.3193
 6176SOL    HW130161   3.735   1.868  10.726  0.3251 -1.3029 -3.9289
 6176SOL    HW230162   3.781   2.009  10.738 -1.4719 -0.4495  0.2807
 6177SOL     OW30163   1.655   2.150   1.561  0.0292 -0.1758 -0.0821
 6177SOL    HW130164   1.689   2.224   1.512  2.2706 -0.9524  0.3176
 6177SOL    HW230165   1.580   2.122   1.508  1.8856 -1.4350 -2.0007
 6178SOL     OW30166   0.457   3.216   3.009 -0.5054 -0.1768  0.0173
 6178SOL    HW130167   0.494   3.293   3.052 -0.2433 -1.0328  1.3204
 6178SOL    HW230168   0.442   3.257   2.924 -3.2613 -0.7842  0.1878
 6179SOL     OW30169   0.243   1.897   0.097 -0.2177 -0.3280  0.4463
 6179SOL    HW130170   0.166   1.932   0.052  0.1131 -0.6098 -0.3239
 6179SOL    HW230171   0.205   1.831   0.156 -0.2529 -0.5859  0.1335
 6180SOL     OW30172   0.798   0.195  12.454 -0.1579  0.5216  0.3662
 6180SOL    HW130173   0.784   0.253  12.379  2.3013  1.4315  0.6077
 6180SOL    HW230174   0.785   0.111  12.411  1.2361  1.0535 -1.1058
 6181SOL     OW30175   4.089   1.361   3.632  0.0895 -0.1084  0.0546
 6181SOL    HW130176   4.002   1.324   3.624  0.6839 -1.5302  0.1693
 6181SOL    HW230177   4.102   1.354   3.726  0.3974  1.2612  0.1221
 6182SOL     OW30178   1.097   3.950   6.849 -0.3205  0.1377  0.2005
 6182SOL    HW130179   1.153   3.985   6.918 -1.8321  0.0903  1.4602
 6182SOL    HW230180   1.168   3.936   6.788  0.0200 -1.0078  0.8678
 6183SOL     OW30181   1.436   1.606   0.804  0.1027 -0.1472  0.2087
 6183SOL    HW130182   1.465   1.694   0.780 -1.7518  0.5476  0.5061
 6183SOL    HW230183   1.419   1.623   0.897 -1.1073  0.7274 -0.1764
 6184SOL     OW30184   0.168   2.207   2.658  0.2366  0.5899 -0.5471
 6184SOL    HW130185   0.076   2.185   2.640  0.9462 -1.3463 -1.8040
 6184SOL    HW230186   0.174   2.231   2.751  0.7491 -0.8695 -0.2049
 6185SOL     OW30187   0.005   1.580   2.099  0.1452 -0.5871  0.4499
 6185SOL    HW130188   4.649   1.576   2.064  0.5469  4.1353 -1.2325
 6185SOL    HW230189   4.716   1.597   2.191  3.0573  2.0346  0.7131
 6186SOL     OW30190   3.957   1.067   2.945 -0.9187 -0.2974  0.0515
 6186SOL    HW130191   3.918   1.133   3.003  1.3012 -0.9587  2.3274
 6186SOL    HW230192   4.027   1.124   2.914  0.0508 -1.7484 -0.4260
 6187SOL     OW30193   2.273   1.508   7.298  1.0240 -0.1963  0.1225
 6187SOL    HW130194   2.192   1.466   7.327  1.1858  0.4721  1.5649
 6187SOL    HW230195   2.323   1.440   7.252  0.9877  1.4163 -2.2796
 6188SOL     OW30196   1.962   3.048   4.895 -0.3029  0.2236 -0.0024
 6188SOL    HW130197   1.968   3.018   4.804  1.4889  0.9506 -0.1165
 6188SOL    HW230198   1.952   3.143   4.887  0.6082  0.5060  2.4259
 6189SOL     OW30199   1.691   0.348   8.190 -0.0385  1.0346 -0.1520
 6189SOL    HW130200   1.779   0.310   8.182  0.0597  1.3923 -0.8320
 6189SOL    HW230201   1.690   0.416   8.122  0.1719  0.9083 -0.2831
 6190SOL     OW30202   0.926   1.287   8.558 -0.3974 -0.1168  0.2609
 6190SOL    HW130203   1.009   1.289   8.510  0.6781 -1.0289  2.1002
 6190SOL    HW230204   0.878   1.360   8.521  1.6885  0.7988 -0.6253
 6191SOL     OW30205   2.799   3.894   8.999 -0.7536 -0.7612 -0.0178
 6191SOL    HW130206   2.760   3.982   9.001  0.6416 -0.1335 -0.5184
 6191SOL    HW230207   2.746   3.855   8.930  0.2072 -0.7071 -0.7917
 6192SOL     OW30208   3.627   4.253   3.515  0.0849 -0.5109 -0.1290
 6192SOL    HW130209   3.594   4.206   3.438 -2.4885 -1.8691  1.7834
 6192SOL    HW230210   3.621   4.345   3.487 -1.3673 -0.2706  0.9324
 6193SOL     OW30211   1.193   0.560  14.277  0.0008  0.1112 -0.3327
 6193SOL    HW130212   1.232   0.541  14.192  1.4507  0.8708  0.1533
 6193SOL    HW230213   1.255   0.623  14.315  0.4410  0.0626 -0.9766
 6194SOL     OW30214   0.202   4.567   7.287 -0.2048  0.7160 -0.6020
 6194SOL    HW130215   0.201   4.514   7.207 -1.6029 -1.9346  1.1996
 6194SOL    HW230216   0.193   4.503   7.357  1.0720 -0.0350 -1.1122
 6195SOL     OW30217   0.765   3.313   7.222 -0.5986 -0.4481 -0.1201
 6195SOL    HW130218   0.853   3.327   7.256  0.3416 -0.7306 -2.4263
 6195SOL    HW230219   0.758   3.218   7.210 -1.5761 -0.3224 -0.6307
 6196SOL     OW30220   0.425   0.063   4.894  0.2562 -0.2226  0.7305
 6196SOL    HW130221   0.359   0.024   4.951 -1.0871  0.4979 -0.3290
 6196SOL    HW230222   0.471   4.728   4.845  1.0618 -1.1846  2.8478
 6197SOL     OW30223   0.005   0.356   4.105 -0.3089 -0.1934 -0.0676
 6197SOL    HW130224   0.034   0.403   4.183  0.3207  1.4469 -1.3040
 6197SOL    HW230225   0.076   0.292   4.095 -0.6090 -0.6386  0.5930
 6198SOL     OW30226   3.792   3.148   8.944  0.0372 -0.4509  0.3734
 6198SOL    HW130227   3.797   3.185   8.856 -3.3231 -0.6804  0.0808
 6198SOL    HW230228   3.878   3.107   8.957 -0.0917 -0.1981  2.0142
 6199SOL     OW30229   4.370   0.602   3.715  0.2619  0.3037 -0.0038
 6199SOL    HW130230   4.292   0.655   3.697  0.4204  1.3646  2.4483
 6199SOL    HW230231   4.352   0.587   3.808 -0.6150  1.8566  0.0862
 6200SOL     OW30232   3.686   3.056  14.779  0.0561 -0.1593  0.0787
 6200SOL    HW130233   3.751   3.121  14.806 -3.2775  2.7722  1.0696
 6200SOL    HW230234   3.689   2.993  14.851 -2.9500 -0.6601 -0.2322
 6201SOL     OW30235   3.775   3.421  12.734  0.3033 -0.3613 -0.2480
 6201SOL    HW130236   3.803   3.410  12.825  3.4130 -1.2876 -1.3082
 6201SOL    HW230237   3.710   3.490  12.746 -0.5350 -1.5360  1.9970
 6202SOL     OW30238   4.393   0.589   3.182  0.3967  0.4434 -0.7313
 6202SOL    HW130239   4.415   0.611   3.272  1.5809 -0.1033 -0.8769
 6202SOL    HW230240   4.465   0.633   3.135 -0.7040  2.1838 -0.7732
 6203SOL     OW30241   1.802   1.345  12.235  0.3390 -0.1084 -0.1248
 6203SOL    HW130242   1.861   1.415  12.207 -1.6111  1.8199  0.5773
 6203SOL    HW230243   1.761   1.318  12.153 -0.3631 -2.1813  0.9126
 6204SOL     OW30244   3.642   3.446   1.659 -0.3761 -0.8922 -0.2767
 6204SOL    HW130245   3.582   3.507   1.703  0.2506  0.7347 -1.7065
 6204SOL    HW230246   3.717   3.499   1.635  0.3037 -0.1465  3.5532
 6205SOL     OW30247   0.718   1.823   2.770 -0.0167 -0.1347  0.1320
 6205SOL    HW130248   0.805   1.857   2.753 -0.3194  1.1180  1.1016
 6205SOL    HW230249   0.737   1.729   2.780  0.0876 -0.1702 -0.4241
 6206SOL     OW30250   2.304   3.913  12.849 -0.4244  0.2165  0.0706
 6206SOL    HW130251   2.362   3.949  12.916  0.1082 -0.5965  0.0549
 6206SOL    HW230252   2.353   3.921  12.767 -0.0452 -0.6547  0.2121
 6207SOL     OW30253   3.531   0.546   2.493 -0.5577 -0.0338 -0.7312
 6207SOL    HW130254   3.599   0.590   2.544 -0.7539  2.0511 -2.2928
 6207SOL    HW230255   3.471   0.521   2.564 -0.6518 -0.0519 -0.8181
 6208SOL     OW30256   4.554   2.152  11.187  0.1324  0.2914  0.2209
 6208SOL    HW130257   4.566   2.058  11.198  1.8986  0.3331 -1.3917
 6208SOL    HW230258   4.641   2.180  11.160 -0.5001  4.1584  2.1737
 6209SOL     OW30259   3.006   3.249   1.386  0.1786 -0.2983  0.2856
 6209SOL    HW130260   2.972   3.288   1.305 -0.2938 -0.4375  0.4207
 6209SOL    HW230261   3.056   3.328   1.408  0.8909  0.1686 -2.9722
 6210SOL     OW30262   1.640   2.827  17.313  0.5454 -0.3543 -0.3309
 6210SOL    HW130263   1.594   2.745  17.297  0.0933  0.3358 -2.5305
 6210SOL    HW230264   1.654   2.855  17.223  0.3369 -1.2625 -0.6461
 6211SOL     OW30265   0.703   0.667   6.150 -0.7631 -0.5746  0.3793
 6211SOL    HW130266   0.719   0.575   6.128 -0.8889 -0.7458  0.9885
 6211SOL    HW230267   0.656   0.662   6.233  0.8758  3.0263  1.5176
 6212SOL     OW30268   1.656   3.246   6.659  0.0779  0.1348 -0.4118
 6212SOL    HW130269   1.654   3.341   6.647 -1.7351  0.2472  0.7544
 6212SOL    HW230270   1.710   3.235   6.737  0.5552 -1.4042 -0.9772
 6213SOL     OW30271   2.317   0.808   6.986  0.0042  0.0889  0.2298
 6213SOL    HW130272   2.365   0.845   6.912 -1.8840  1.9647 -0.0463
 6213SOL    HW230273   2.289   0.886   7.033  4.4665 -0.5481  3.8924
 6214SOL     OW30274   3.495   2.500  11.383  0.8089  0.0799 -0.1191
 6214SOL    HW130275   3.515   2.418  11.338  0.9886  0.1020 -0.0803
 6214SOL    HW230276   3.409   2.472  11.413  0.8703  2.0354  1.9327
 6215SOL     OW30277   1.984   1.262   7.606 -0.0656 -0.0735  0.5866
 6215SOL    HW130278   1.888   1.263   7.611 -0.0492 -1.9155  1.1397
 6215SOL    HW230279   2.021   1.291   7.689 -0.5679  0.6893  0.5470
 6216SOL     OW30280   4.605   3.058   6.463  0.0837  0.3764 -0.0739
 6216SOL    HW130281   4.687   3.070   6.511  0.5332 -0.0447 -0.7331
 6216SOL    HW230282   4.559   3.004   6.527  0.9831 -0.0277  0.2325
 6217SOL     OW30283   0.216   0.155   4.141  0.1643 -0.4092 -0.1260
 6217SOL    HW130284   0.250   0.065   4.137  1.2809 -0.0007  0.2516
 6217SOL    HW230285   0.252   0.184   4.225  1.2328  1.1124 -1.1110
 6218SOL     OW30286   3.992   2.854   7.179 -0.3597  0.0507 -0.1182
 6218SOL    HW130287   4.056   2.909   7.223 -1.3553  0.6144  0.6226
 6218SOL    HW230288   4.036   2.857   7.094  0.0512  2.2458  0.1668
 6219SOL     OW30289   0.008   0.325   5.068 -0.3119 -0.0880 -0.0031
 6219SOL    HW130290   4.682   0.386   5.112 -0.1977  0.7465 -1.0005
 6219SOL    HW230291   0.000   0.253   5.131  1.8975 -1.6690 -1.5654
 6220SOL     OW30292   4.582   4.081  15.170  0.8604 -0.5963 -0.2546
 6220SOL    HW130293   4.603   4.172  15.150 -2.3502  0.5322  1.4160
 6220SOL    HW230294   4.663   4.038  15.144  1.7577  0.4347  0.8148
 6221SOL     OW30295   2.100   4.595  13.834  0.0450 -0.2114  0.0442
 6221SOL    HW130296   2.169   4.634  13.887 -1.7487  2.0464  0.7282
 6221SOL    HW230297   2.022   4.613  13.887 -0.8473 -0.0216 -1.3382
 6222SOL     OW30298   3.228   1.183   6.592  0.1185 -0.0881  0.0441
 6222SOL    HW130299   3.234   1.151   6.502 -1.2783  1.6393 -0.6735
 6222SOL    HW230300   3.288   1.255   6.577 -0.1393  0.3395  1.0232
 6223SOL     OW30301   3.319   4.541  15.075  0.5480  0.4809 -0.2489
 6223SOL    HW130302   3.392   4.482  15.056  1.4038  1.7666 -0.9204
 6223SOL    HW230303   3.301   4.568  14.985  1.1995  0.1943 -0.4663
 6224SOL     OW30304   3.784   1.489   4.013  0.9356 -0.4669 -0.3930
 6224SOL    HW130305   3.799   1.557   4.078 -1.4901 -1.4378  1.1896
 6224SOL    HW230306   3.725   1.435   4.065  1.2781  0.0259  0.5066
 6225SOL     OW30307   0.117   3.787   2.162 -0.1382 -0.1047  0.9078
 6225SOL    HW130308   0.072   3.827   2.088 -1.3543 -0.4425  1.4576
 6225SOL    HW230309   0.152   3.709   2.119  0.6164  0.6455  0.1619
 6226SOL     OW30310   0.038   3.481   6.439 -0.0310 -0.2129 -0.1657
 6226SOL    HW130311   0.105   3.419   6.469  0.4335  1.5269  2.3710
 6226SOL    HW230312   0.042   3.557   6.496  1.7447 -0.1760 -0.3629
 6227SOL     OW30313   2.967   0.628  11.746  0.0783 -0.2896 -0.2725
 6227SOL    HW130314   3.013   0.580  11.677  0.3449  2.4604 -2.0241
 6227SOL    HW230315   2.937   0.561  11.807 -1.5876  0.1494 -0.6256
 6228SOL     OW30316   4.135   0.419   2.113  0.1417 -0.1918  1.3658
 6228SOL    HW130317   4.196   0.345   2.116  1.6405  1.1096  3.3641
 6228SOL    HW230318   4.052   0.382   2.084  0.2543  0.1864  0.5517
 6229SOL     OW30319   2.023   3.828  11.941 -0.0037 -0.2010 -0.2033
 6229SOL    HW130320   2.011   3.805  11.848  1.8529 -1.4688 -0.1209
 6229SOL    HW230321   1.931   3.811  11.962  0.1699  1.4537  1.9178
 6230SOL     OW30322   1.955   0.229   8.121  0.0403 -0.0274  0.1291
 6230SOL    HW130323   1.970   0.271   8.205 -0.2541  4.7009 -2.1903
 6230SOL    HW230324   1.937   0.142   8.156 -1.3715 -0.1138 -0.8319
 6231SOL     OW30325   4.527   2.000   6.681  0.1079  0.3919  0.5540
 6231SOL    HW130326   4.565   2.060   6.617  0.6835 -2.2528 -1.5435
 6231SOL    HW230327   4.550   1.914   6.646 -2.6109 -0.0180 -0.2440
 6232SOL     OW30328   2.329   1.792  13.053  0.2054 -0.1577 -0.1127
 6232SOL    HW130329   2.325   1.702  13.019  0.8688 -1.0461  2.1821
 6232SOL    HW230330   2.328   1.781  13.148  2.0315  0.1615 -0.0619
 6233SOL     OW30331   4.646   0.734   2.082  0.1437  0.1609  0.3554
 6233SOL    HW130332   4.628   0.640   2.087  0.4032  0.0696 -0.3649
 6233SOL    HW230333   4.576   0.775   2.132  0.0759 -0.0223  0.4102
 6234SOL     OW30334   1.736   3.094   8.523 -0.3435  0.8209 -0.1590
 6234SOL    HW130335   1.804   3.068   8.585 -0.0351  3.4337  0.6152
 6234SOL    HW230336   1.679   3.146   8.580  1.1637  3.2497 -0.8791
 6235SOL     OW30337   1.028   2.459   7.596  0.1494  0.5625  0.3223
 6235SOL    HW130338   0.960   2.486   7.534  2.8157 -0.8752 -3.2284
 6235SOL    HW230339   0.970   2.436   7.668  0.9882 -0.8859  0.5349
 6236SOL     OW30340   4.714   3.012  11.572  0.7382 -0.3263  0.1413
 6236SOL    HW130341   4.681   3.087  11.521  1.1510 -0.0625  0.2637
 6236SOL    HW230342   0.049   2.976  11.517  0.5638 -0.6623  0.1405
 6237SOL     OW30343   0.308   1.053   8.554 -0.2341  0.2595 -0.3208
 6237SOL    HW130344   0.314   1.031   8.647 -0.6377  1.9549  0.1105
 6237SOL    HW230345   0.384   1.112   8.549 -0.1243  0.1462  0.0256
 6238SOL     OW30346   1.107   4.230   3.592 -0.0750  0.9063 -0.9343
 6238SOL    HW130347   1.098   4.281   3.673  0.1424 -1.8015  0.7883
 6238SOL    HW230348   1.166   4.160   3.621  0.7648  3.0701  2.6124
 6239SOL     OW30349   1.694   1.732   3.372 -0.4037 -0.1485  0.5252
 6239SOL    HW130350   1.731   1.808   3.417  0.5214  0.8507 -1.8653
 6239SOL    HW230351   1.726   1.660   3.425 -1.1819 -0.7866  0.1161
 6240SOL     OW30352   3.130   3.224  13.489 -0.2527 -0.1122 -0.1433
 6240SOL    HW130353   3.156   3.207  13.580  0.7094 -0.6874 -0.5227
 6240SOL    HW230354   3.048   3.270  13.503  0.2636  0.9095 -0.4839
 6241SOL     OW30355   2.246   2.158   2.712  0.2341 -0.2487 -0.0696
 6241SOL    HW130356   2.292   2.076   2.729 -0.2857 -0.6033 -0.3650
 6241SOL    HW230357   2.154   2.131   2.719  0.7771 -2.3866 -1.0676
 6242SOL     OW30358   0.990   1.243   6.052 -0.1779 -0.3840  0.2108
 6242SOL    HW130359   1.064   1.198   6.092 -0.0207  0.1245  0.5005
 6242SOL    HW230360   0.926   1.172   6.056 -0.2484 -0.2233  2.4413
 6243SOL     OW30361   1.861   3.394  11.354  0.3877  0.5076  0.4177
 6243SOL    HW130362   1.777   3.418  11.392  0.6246  1.2562  0.4649
 6243SOL    HW230363   1.918   3.426  11.423  1.8167 -3.4907  1.0969
 6244SOL     OW30364   2.308   2.580   8.973 -0.3139 -0.6448  0.3023
 6244SOL    HW130365   2.222   2.620   8.986  0.5613  1.2739  0.1196
 6244SOL    HW230366   2.349   2.654   8.929  0.2856 -0.3315  1.3794
 6245SOL     OW30367   3.595   1.057   7.566  0.5111  0.1206  0.5488
 6245SOL    HW130368   3.690   1.072   7.564  0.3378  1.1795  0.6019
 6245SOL    HW230369   3.569   1.077   7.656  1.0751  2.2585  0.2293
 6246SOL     OW30370   4.036   0.959   3.591 -0.8756 -0.4078 -0.4426
 6246SOL    HW130371   4.117   0.984   3.636 -0.0089 -1.7197 -1.2910
 6246SOL    HW230372   3.963   0.994   3.642 -1.9176 -1.0655 -1.5009
 6247SOL     OW30373   1.393   2.880   8.975 -0.2130  0.4571 -0.4453
 6247SOL    HW130374   1.439   2.906   8.896  1.1447 -1.1409 -0.1880
 6247SOL    HW230375   1.332   2.824   8.926 -2.2727  0.7801  1.7464
 6248SOL     OW30376   1.136   3.768   3.224  0.2275  0.1397  0.2885
 6248SOL    HW130377   1.161   3.685   3.264  0.1208  1.0474  2.2431
 6248SOL    HW230378   1.075   3.739   3.155  0.1583 -0.4647  0.6033
 6249SOL     OW30379   3.395   1.993   7.956 -0.2797  0.1085 -0.3757
 6249SOL    HW130380   3.463   2.059   7.944 -0.3504 -0.0282 -1.5462
 6249SOL    HW230381   3.391   1.985   8.052  0.1054  0.6565 -0.3190
 6250SOL     OW30382   4.574   2.762   4.207  0.3049 -0.2393  0.1978
 6250SOL    HW130383   4.486   2.796   4.224  0.2622  0.0653 -0.6530
 6250SOL    HW230384   4.623   2.843   4.218 -0.2274 -0.0431  1.1069
 6251SOL     OW30385   3.164   2.907   7.064  0.0924 -0.4683 -0.1267
 6251SOL    HW130386   3.250   2.879   7.032 -0.4362 -0.7752 -1.2735
 6251SOL    HW230387   3.186   3.000   7.059  1.7845 -0.8074  0.7629
 6252SOL     OW30388   1.520   2.214   2.492  0.5871 -0.0695  0.2401
 6252SOL    HW130389   1.490   2.273   2.561  1.0369  1.9148 -1.2583
 6252SOL    HW230390   1.544   2.133   2.538  2.2640  0.4562  0.2863
 6253SOL     OW30391   0.650   2.755   8.773 -0.4279  0.0799  0.4773
 6253SOL    HW130392   0.601   2.740   8.692 -0.9585  4.2636 -0.0224
 6253SOL    HW230393   0.581   2.788   8.831 -0.7067 -0.9839  0.7515
 6254SOL     OW30394   2.673   0.654  16.626  0.0280 -0.2495 -0.0924
 6254SOL    HW130395   2.693   0.679  16.716 -1.6842 -0.1763  0.2617
 6254SOL    HW230396   2.585   0.617  16.635 -0.0308 -0.2170 -0.5310
 6255SOL     OW30397   2.907   3.089   0.438 -0.1481 -0.0211  0.3379
 6255SOL    HW130398   2.933   3.181   0.428 -2.7931  0.6017 -0.8183
 6255SOL    HW230399   2.828   3.094   0.491 -0.3208  0.8925  0.0021
 6256SOL     OW30400   3.762   3.796   8.135  0.1732  0.2051 -0.9919
 6256SOL    HW130401   3.698   3.745   8.085 -0.2608 -1.1022  0.8988
 6256SOL    HW230402   3.824   3.811   8.064 -0.3126  1.7780 -1.0991
 6257SOL     OW30403   2.270   3.531  11.393 -1.0966 -0.2387 -0.0016
 6257SOL    HW130404   2.196   3.487  11.436 -1.0313  1.1833  1.5660
 6257SOL    HW230405   2.261   3.623  11.415  2.2042  0.0497  0.0432
 6258SOL     OW30406   3.463   0.961   2.025  0.0217 -0.9867  0.0658
 6258SOL    HW130407   3.486   0.935   2.114 -1.8816 -1.1915  0.4837
 6258SOL    HW230408   3.544   0.941   1.978  0.0930 -1.1238  0.2461
 6259SOL     OW30409   3.116   1.752  11.937  0.1678  0.7517  0.1462
 6259SOL    HW130410   3.136   1.658  11.938 -0.3251  0.6770  2.6577
 6259SOL    HW230411   3.170   1.794  12.003  0.0863 -0.3987  0.9340
 6260SOL     OW30412   1.598   2.153   8.357  0.3497  0.1515 -0.4241
 6260SOL    HW130413   1.591   2.177   8.265  0.0595 -1.0978 -0.7318
 6260SOL    HW230414   1.582   2.232   8.408 -1.9628 -1.4470  1.3630
 6261SOL     OW30415   2.324   4.721   9.301  0.4214 -0.3461 -0.8517
 6261SOL    HW130416   2.348   4.733   9.209  1.4955 -0.6243 -0.6168
 6261SOL    HW230417   2.232   4.699   9.288  0.8083 -0.2962 -3.7378
 6262SOL     OW30418   3.265   1.851  11.166  0.5163  0.1112 -0.5913
 6262SOL    HW130419   3.262   1.836  11.260 -1.0418  1.2800 -0.4643
 6262SOL    HW230420   3.297   1.766  11.132  1.2536 -0.2155  0.9143
 6263SOL     OW30421   4.328   4.365   2.721  0.2168  0.1272 -0.8675
 6263SOL    HW130422   4.244   4.407   2.703 -0.5365 -0.7974  0.4721
 6263SOL    HW230423   4.299   4.274   2.725  2.9498 -0.7681 -1.1338
 6264SOL     OW30424   2.231   1.360  13.663  0.0578 -0.5909 -0.3691
 6264SOL    HW130425   2.141   1.328  13.652  0.2033 -1.0525 -0.2202
 6264SOL    HW230426   2.228   1.388  13.755 -1.1957  0.5996 -0.7721
 6265SOL     OW30427   2.113   3.524  15.305  0.4198  0.4553 -0.3970
 6265SOL    HW130428   2.169   3.600  15.325 -0.2993  1.1041 -0.8550
 6265SOL    HW230429   2.127   3.498  15.215  0.1248  2.9957 -1.1795
 6266SOL     OW30430   3.489   4.513  13.789  0.1476  0.3733  0.8042
 6266SOL    HW130431   3.555   4.444  13.785  0.0894  0.3519  0.1367
 6266SOL    HW230432   3.513   4.554  13.872  0.5657  0.7721  0.4842
 6267SOL     OW30433   2.102   0.983  10.787  0.1913 -0.3224  0.1059
 6267SOL    HW130434   2.011   1.007  10.771 -0.2214 -0.6670  2.0298
 6267SOL    HW230435   2.128   1.036  10.862 -0.7855 -1.0902  0.9844
 6268SOL     OW30436   3.348   4.179  17.140 -0.0371 -0.5529 -0.3235
 6268SOL    HW130437   3.264   4.157  17.180  1.0151 -0.3667  1.9806
 6268SOL    HW230438   3.409   4.165  17.212 -0.6861  1.7234  0.6606
 6269SOL     OW30439   2.018   4.085   2.175 -0.0373 -0.0752  0.2207
 6269SOL    HW130440   2.009   4.175   2.206 -0.5444  0.1003 -0.4174
 6269SOL    HW230441   2.077   4.094   2.100 -1.9539 -0.3394 -1.3437
 6270SOL     OW30442   3.550   1.583   8.995  0.3598 -0.4446  0.1349
 6270SOL    HW130443   3.622   1.543   8.946  0.5017 -0.4603  0.3589
 6270SOL    HW230444   3.588   1.663   9.033  0.3976 -0.2884 -0.2251
 6271SOL     OW30445   3.859   2.906   4.945  0.1482  0.0601 -0.6052
 6271SOL    HW130446   3.768   2.885   4.922 -0.8659  1.7425  1.9568
 6271SOL    HW230447   3.902   2.883   4.862  0.6105 -3.5057  0.6100
 6272SOL     OW30448   4.529   0.703   4.988  0.0231 -0.5166 -0.0570
 6272SOL    HW130449   4.485   0.650   4.922 -0.0067  0.7524 -1.0590
 6272SOL    HW230450   4.621   0.696   4.963 -0.2206 -1.5161 -0.6694
 6273SOL     OW30451   2.825   3.383   0.070 -0.4505 -0.4218  0.5225
 6273SOL    HW130452   2.760   3.390   0.140 -0.1201 -1.3499  0.9162
 6273SOL    HW230453   2.906   3.379   0.121  0.9556 -2.1530 -1.8474
 6274SOL     OW30454   4.497   0.243   3.406 -0.3349  0.3299 -0.0059
 6274SOL    HW130455   4.579   0.270   3.366  0.4410 -1.9947  0.0197
 6274SOL    HW230456   4.477   0.320   3.460  0.7642  0.3370  0.3950
 6275SOL     OW30457   0.310   0.298   5.821  0.2672 -0.1597  0.9727
 6275SOL    HW130458   0.396   0.337   5.836  0.5471 -0.8306  1.1353
 6275SOL    HW230459   0.330   0.214   5.862 -0.5140 -1.2979 -0.9938
 6276SOL     OW30460   0.611   1.924   6.825 -0.3281 -0.4120 -0.2877
 6276SOL    HW130461   0.638   2.004   6.781  1.1869 -0.4736  0.5243
 6276SOL    HW230462   0.674   1.864   6.784 -0.2614 -1.6726  1.6158
 6277SOL     OW30463   2.032   4.127   6.271  0.1887  0.0737 -0.3530
 6277SOL    HW130464   2.022   4.196   6.336 -0.2572 -0.4552  0.1338
 6277SOL    HW230465   2.084   4.068   6.326  0.2928  0.1258 -0.3946
 6278SOL     OW30466   1.986   4.085   8.951 -0.1892 -0.5564  0.0676
 6278SOL    HW130467   1.914   4.147   8.942 -0.6709 -1.4487 -2.2890
 6278SOL    HW230468   2.058   4.138   8.918  0.0772 -0.9007  0.0870
 6279SOL     OW30469   1.760   0.469   6.765 -0.1303 -0.3455  0.0854
 6279SOL    HW130470   1.697   0.527   6.722 -0.8592 -1.0481  0.2152
 6279SOL    HW230471   1.825   0.450   6.698  0.0084  2.1928 -0.4880
 6280SOL     OW30472   0.086   1.016   4.838  0.5336 -0.2184  0.3235
 6280SOL    HW130473   0.089   1.092   4.780  0.1617  0.7135  1.5105
 6280SOL    HW230474   0.098   1.068   4.918  1.0689  0.7616 -0.3931
 6281SOL     OW30475   1.964   0.591   4.329  0.3667  0.0230  0.0354
 6281SOL    HW130476   1.963   0.663   4.391 -2.1087  1.2350 -1.3749
 6281SOL    HW230477   1.991   0.631   4.246 -0.7810 -0.1444 -0.4278
 6282SOL     OW30478   4.626   0.291  13.204  0.3382  0.0067  0.3699
 6282SOL    HW130479   4.664   0.310  13.290 -3.1834  3.5951  1.1277
 6282SOL    HW230480   4.567   0.217  13.220  1.5254 -0.8904  0.6943
 6283SOL     OW30481   3.054   1.815  10.796  0.3798  0.1164  0.7452
 6283SOL    HW130482   3.110   1.783  10.726 -0.6562 -0.9411  0.4101
 6283SOL    HW230483   3.081   1.750  10.862 -2.1283 -2.4167 -0.7073
 6284SOL     OW30484   1.732   2.161   3.270 -0.0128  0.1688  0.2655
 6284SOL    HW130485   1.643   2.196   3.277 -1.3435 -2.5887 -3.1760
 6284SOL    HW230486   1.735   2.085   3.211 -3.0939  1.3637 -1.4611
 6285SOL     OW30487   1.656   1.968   6.274  0.3593 -0.4208  0.1806
 6285SOL    HW130488   1.742   1.998   6.303  1.2135  0.4698 -3.3668
 6285SOL    HW230489   1.626   2.055   6.247  0.8098 -0.2172  0.3431
 6286SOL     OW30490   2.142   3.690  12.442  0.4512  0.2933 -0.4538
 6286SOL    HW130491   2.169   3.731  12.359  0.3265 -0.2369 -0.7592
 6286SOL    HW230492   2.122   3.600  12.416  0.2985  0.6601 -1.5997
 6287SOL     OW30493   4.455   0.618   6.471 -0.5820  0.1911 -0.1860
 6287SOL    HW130494   4.447   0.525   6.451  0.9863  0.1993 -0.8272
 6287SOL    HW230495   4.478   0.653   6.385 -0.0755 -2.2868 -1.0736
 6288SOL     OW30496   3.264   2.909   4.620  0.6567 -0.0831  0.2815
 6288SOL    HW130497   3.318   2.978   4.582 -0.4505  1.6034  1.7918
 6288SOL    HW230498   3.228   2.862   4.545  0.3757  1.3124 -0.4407
 6289SOL     OW30499   2.891   3.001  14.326 -0.4111  0.3247  0.1618
 6289SOL    HW130500   2.876   3.084  14.281 -0.4010  0.0606 -0.3302
 6289SOL    HW230501   2.849   2.956  14.253 -2.5036  2.2873  0.1354
 6290SOL     OW30502   3.618   2.663  17.389 -0.6859 -0.1466  0.3346
 6290SOL    HW130503   3.561   2.669  17.465 -0.2921  2.2597  0.4342
 6290SOL    HW230504   3.562   2.609  17.333 -0.4159  0.6147 -0.6782
 6291SOL     OW30505   3.190   1.598   3.126 -0.1839 -0.2386  0.4762
 6291SOL    HW130506   3.116   1.620   3.068 -0.2788  0.6442  0.9462
 6291SOL    HW230507   3.269   1.628   3.081 -0.1016 -1.7022 -0.3668
 6292SOL     OW30508   1.866   0.488   9.138  0.3110 -0.7811 -0.4459
 6292SOL    HW130509   1.888   0.488   9.231  1.5017  0.3219 -0.7302
 6292SOL    HW230510   1.926   0.556   9.107  0.9385 -0.1547  2.1070
 6293SOL     OW30511   3.417   0.739   8.657 -0.1246  0.5406  0.5048
 6293SOL    HW130512   3.395   0.721   8.565  1.1909 -1.0703  0.5184
 6293SOL    HW230513   3.394   0.831   8.670  0.8937  1.2029 -2.3592
 6294SOL     OW30514   3.326   1.797   7.189  0.2452  0.3220 -0.2430
 6294SOL    HW130515   3.306   1.885   7.220  1.2099  0.1809  0.7792
 6294SOL    HW230516   3.314   1.745   7.269 -2.6943  2.7013  0.8609
 6295SOL     OW30517   3.431   1.837   1.739 -0.1457 -0.3788  0.0120
 6295SOL    HW130518   3.352   1.785   1.729 -1.2842  1.2163  0.8835
 6295SOL    HW230519   3.496   1.771   1.715 -0.4691 -1.3078  1.6747
 6296SOL     OW30520   4.319   4.191   4.462  0.5479 -0.0561  0.1713
 6296SOL    HW130521   4.324   4.204   4.367  0.6642  2.0021  0.4661
 6296SOL    HW230522   4.368   4.269   4.485  0.8682 -0.1611 -0.1566
 6297SOL     OW30523   1.609   2.361   3.861 -0.1838  0.3047 -0.2419
 6297SOL    HW130524   1.583   2.270   3.873 -1.8115  0.4970 -2.2622
 6297SOL    HW230525   1.638   2.375   3.951  0.3299  0.4068 -0.4203
 6298SOL     OW30526   2.542   4.076   7.084 -0.2687 -0.3283 -0.5131
 6298SOL    HW130527   2.582   4.155   7.048  0.6186  0.0951  1.3887
 6298SOL    HW230528   2.556   4.012   7.014 -2.0462 -2.8110  1.3764
 6299SOL     OW30529   2.093   3.082   2.321 -0.0163  0.4887  0.0495
 6299SOL    HW130530   2.087   3.059   2.414  1.1381  0.4241  0.1131
 6299SOL    HW230531   2.127   3.171   2.331 -0.0696  0.4595  0.5135
 6300SOL     OW30532   3.198   0.125   5.269 -0.5751  0.4069 -0.1349
 6300SOL    HW130533   3.104   0.114   5.281 -0.4635 -2.5522 -1.9192
 6300SOL    HW230534   3.201   0.118   5.174  2.5330 -2.4976  0.1992
 6301SOL     OW30535   3.988   3.255   0.165  0.6215 -0.3127  0.0713
 6301SOL    HW130536   3.962   3.165   0.144  0.2202 -0.5162  1.4815
 6301SOL    HW230537   3.909   3.287   0.209  0.8114  1.2685 -0.7387
 6302SOL     OW30538   2.472   1.045   1.869 -0.3099 -0.8274  0.2413
 6302SOL    HW130539   2.491   1.138   1.882 -0.3835 -0.7813  0.0270
 6302SOL    HW230540   2.476   1.011   1.958  0.5763 -0.6454  0.2799
 6303SOL     OW30541   2.244   0.311   1.387 -0.3067  0.5192  0.5744
 6303SOL    HW130542   2.322   0.259   1.369 -0.6047  0.5457 -0.8112
 6303SOL    HW230543   2.182   0.252   1.429 -0.0815 -0.6604 -0.7450
 6304SOL     OW30544   2.993   2.857  12.003  0.2062  0.0037 -0.3215
 6304SOL    HW130545   3.077   2.903  12.002 -0.1492  0.6155 -2.2682
 6304SOL    HW230546   2.941   2.914  11.946  1.7462  1.1779 -0.5394
 6305SOL     OW30547   0.218   2.907   6.719 -0.4596  0.0448  0.0946
 6305SOL    HW130548   0.248   2.863   6.639 -0.4379  0.8332 -0.3356
 6305SOL    HW230549   0.197   2.994   6.684  0.0425  0.5742  1.1108
 6306SOL     OW30550   0.404   3.888   8.601  0.2577  0.0252 -0.6229
 6306SOL    HW130551   0.417   3.965   8.545 -0.2123  1.6173  1.4482
 6306SOL    HW230552   0.455   3.910   8.679 -2.0727  1.6827  0.4688
 6307SOL     OW30553   2.487   1.847  12.426 -0.5040  0.0779  0.0854
 6307SOL    HW130554   2.569   1.895  12.440 -0.9323  0.8935 -0.2013
 6307SOL    HW230555   2.457   1.889  12.346  0.1139 -1.6252 -1.0335
 6308SOL     OW30556   4.070   2.889   3.725  0.2037 -0.4556 -0.1636
 6308SOL    HW130557   4.016   2.902   3.647 -0.5357 -0.9228  0.2709
 6308SOL    HW230558   4.116   2.806   3.713  1.1707 -0.5034  3.6939
 6309SOL     OW30559   0.084   2.423   5.739 -0.3602  0.0037  0.2646
 6309SOL    HW130560   0.034   2.492   5.697 -0.6316 -0.1046  0.4093
 6309SOL    HW230561   0.170   2.433   5.698 -1.6286  0.7093 -2.1808
 6310SOL     OW30562   0.718   4.001   5.131  0.3437  0.4139  0.1549
 6310SOL    HW130563   0.729   4.093   5.156  2.1407  0.2768 -0.1309
 6310SOL    HW230564   0.639   3.977   5.180 -0.8383 -0.9743 -2.4504
 6311SOL     OW30565   2.134   1.442   3.832 -0.4308  0.3943 -0.1194
 6311SOL    HW130566   2.115   1.499   3.757 -0.2568  0.7864  0.1352
 6311SOL    HW230567   2.067   1.471   3.894  0.3643  0.6823  0.5993
 6312SOL     OW30568   0.085   4.543   3.780 -0.2794  0.4461 -0.3716
 6312SOL    HW130569   0.054   4.453   3.787 -1.3989  0.6254 -3.1388
 6312SOL    HW230570   0.003   4.594   3.780 -1.0697 -0.8346 -1.0592
 6313SOL     OW30571   3.724   1.501   6.371 -0.5313  0.2507 -0.0609
 6313SOL    HW130572   3.778   1.572   6.336 -1.2009  0.3629 -0.8659
 6313SOL    HW230573   3.659   1.548   6.422 -1.5384 -4.4465  3.0161
 6314SOL     OW30574   0.898   3.504  13.514  0.4903  0.0232  0.0480
 6314SOL    HW130575   0.918   3.410  13.519  0.3797 -0.0821 -1.4876
 6314SOL    HW230576   0.893   3.527  13.606  2.0247  1.9200 -0.3526
 6315SOL     OW30577   1.576   2.522   2.169 -0.1035  0.6139  0.0945
 6315SOL    HW130578   1.638   2.481   2.230  0.4552  2.5605  0.8334
 6315SOL    HW230579   1.607   2.612   2.160 -1.8304  1.3604  1.4903
 6316SOL     OW30580   0.119   2.860   8.395  0.2296 -0.0924 -0.2850
 6316SOL    HW130581   0.076   2.876   8.480  0.1560 -1.3332 -0.0897
 6316SOL    HW230582   0.043   2.877   8.340  2.0643  0.1642 -2.7090
 6317SOL     OW30583   1.097   4.479   6.142 -0.3213  0.7240  0.4247
 6317SOL    HW130584   1.006   4.501   6.124  0.3459  1.5738 -1.9974
 6317SOL    HW230585   1.134   4.565   6.164  4.6009 -1.1846 -0.5166
 6318SOL     OW30586   0.198   2.850   9.779  0.0226  0.6022 -0.3613
 6318SOL    HW130587   0.103   2.845   9.789  0.0637  1.0604  0.2897
 6318SOL    HW230588   0.229   2.777   9.834 -1.3340 -0.7196 -1.3624
 6319SOL     OW30589   0.361   0.300  16.117  0.1282  0.2281  0.0655
 6319SOL    HW130590   0.324   0.380  16.079 -0.5205 -1.5061 -2.8698
 6319SOL    HW230591   0.418   0.338  16.185  0.0611 -1.5704  1.1422
 6320SOL     OW30592   1.137   4.544   6.936  0.2078  0.0415  0.4379
 6320SOL    HW130593   1.193   4.537   6.859  0.9090 -0.6489  1.0059
 6320SOL    HW230594   1.122   4.452   6.958 -0.3318  0.5651  2.2500
 6321SOL     OW30595   3.952   3.858   3.199  0.1577 -0.1796  0.1732
 6321SOL    HW130596   3.864   3.821   3.196  0.1522 -0.0150 -1.3506
 6321SOL    HW230597   4.001   3.776   3.198 -0.6055 -0.6240 -0.7779
 6322SOL     OW30598   3.756   2.673   2.595 -0.0783 -0.2330  0.5934
 6322SOL    HW130599   3.755   2.592   2.543  2.7255  1.4930 -2.1890
 6322SOL    HW230600   3.670   2.708   2.573 -0.2265 -0.1731  1.2751
 6323SOL     OW30601   3.577   1.161  16.679  0.5170 -0.0714 -0.1175
 6323SOL    HW130602   3.628   1.085  16.652 -0.5517 -1.3093  1.3666
 6323SOL    HW230603   3.505   1.120  16.727  1.0196  0.0894  0.7652
 6324SOL     OW30604   2.401   1.620   6.980 -0.3168 -0.0498  0.1527
 6324SOL    HW130605   2.343   1.668   6.920 -1.0077 -0.9595  0.1076
 6324SOL    HW230606   2.487   1.639   6.941 -0.2866  1.0370  0.7345
 6325SOL     OW30607   1.684   1.794   1.060  0.2776 -0.1529  0.1312
 6325SOL    HW130608   1.710   1.850   1.133 -0.3681  1.8533 -1.1880
 6325SOL    HW230609   1.761   1.807   1.006  0.8600  0.3374  1.0832
 6326SOL     OW30610   3.168   1.773   0.225 -0.0456 -0.7004  0.4679
 6326SOL    HW130611   3.164   1.684   0.190  0.1861  0.0066 -1.3397
 6326SOL    HW230612   3.077   1.804   0.226  0.4115  0.6026  1.8749
 6327SOL     OW30613   0.029   1.897   7.098 -0.2162  0.2094  0.5959
 6327SOL    HW130614   4.689   1.840   7.120  0.6572 -0.9925  0.3836
 6327SOL    HW230615   4.730   1.987   7.101  1.5558  0.8775 -0.1798
 6328SOL     OW30616   2.289   2.810   6.431  0.2107 -0.1578  0.2724
 6328SOL    HW130617   2.319   2.819   6.521 -0.2305  2.5575  0.1390
 6328SOL    HW230618   2.281   2.715   6.422  2.3025 -0.3616  0.7553
 6329SOL     OW30619   2.795   4.291   5.693  0.3859  0.1727  0.1588
 6329SOL    HW130620   2.823   4.343   5.618  1.2884 -2.2006 -1.1527
 6329SOL    HW230621   2.818   4.347   5.767  0.5757 -0.0296  0.2559
 6330SOL     OW30622   4.249   3.559  13.786  0.4754 -0.8336 -0.1821
 6330SOL    HW130623   4.237   3.517  13.871 -1.1650 -2.4108 -1.2141
 6330SOL    HW230624   4.301   3.640  13.788  0.4332 -0.8843  3.5330
 6331SOL     OW30625   0.101   3.205   7.335 -0.1285 -0.3642 -0.8741
 6331SOL    HW130626   0.061   3.124   7.302 -0.7881 -0.6830  0.7001
 6331SOL    HW230627   0.192   3.188   7.360  0.3115  1.3710 -1.3265
 6332SOL     OW30628   3.967   3.481   8.635 -0.5137 -0.4583 -0.3973
 6332SOL    HW130629   3.878   3.507   8.611 -0.9189 -0.4274  1.1192
 6332SOL    HW230630   4.013   3.564   8.641 -0.4794 -0.5937  1.1246
 6333SOL     OW30631   1.016   1.668   0.234 -0.3389  0.3985  0.4299
 6333SOL    HW130632   1.061   1.746   0.266  4.1543 -0.9562 -2.6401
 6333SOL    HW230633   1.011   1.691   0.141 -0.1276 -0.3816  0.2291
 6334SOL     OW30634   2.530   0.087  10.506  0.2195 -0.2117  0.0332
 6334SOL    HW130635   2.605   0.053  10.555 -0.0042 -1.2550 -0.3359
 6334SOL    HW230636   2.504   0.153  10.570  2.6451  1.6173 -0.8581
 6335SOL     OW30637   0.841   1.139   0.518 -0.2829  0.0285 -0.1957
 6335SOL    HW130638   0.922   1.118   0.471  0.3644  2.2599 -0.0715
 6335SOL    HW230639   0.771   1.148   0.454  0.3618 -3.2862 -1.3656
 6336SOL     OW30640   0.685   1.214   7.737  0.2248 -0.0004  0.3268
 6336SOL    HW130641   0.732   1.151   7.793  0.7249 -0.4610 -0.6160
 6336SOL    HW230642   0.656   1.159   7.665 -2.2863  1.2006  0.4286
 6337SOL     OW30643   1.447   4.478  10.092 -0.1631  0.3639  0.3118
 6337SOL    HW130644   1.434   4.440  10.005 -1.5453  3.0456 -0.6748
 6337SOL    HW230645   1.541   4.465  10.107 -0.4705 -3.5002 -1.3163
 6338SOL     OW30646   3.146   3.356   1.722  0.4437 -0.1185 -0.2371
 6338SOL    HW130647   3.224   3.409   1.737 -0.4601  1.2368 -0.3368
 6338SOL    HW230648   3.176   3.288   1.661 -0.7519  0.8134 -1.8687
 6339SOL     OW30649   1.520   0.999   1.021  0.3155  0.5515  0.0474
 6339SOL    HW130650   1.435   1.043   1.028 -0.0244 -0.2225  0.7817
 6339SOL    HW230651   1.542   0.963   1.107  2.0224  1.0065 -0.2055
 6340SOL     OW30652   1.474   0.094   3.576 -0.3325 -0.4618  0.1171
 6340SOL    HW130653   1.543   0.157   3.598 -0.2309 -0.7517  0.6197
 6340SOL    HW230654   1.413   0.149   3.527  2.4213  0.9510 -1.7646
 6341SOL     OW30655   0.060   2.948  13.602 -0.1412  0.0232 -0.0263
 6341SOL    HW130656   4.719   3.003  13.581 -1.1941 -0.9090  1.2945
 6341SOL    HW230657   0.137   3.004  13.607  0.2488 -0.4128 -1.0469
 6342SOL     OW30658   1.656   0.761   3.412 -0.2334 -0.1201 -0.2592
 6342SOL    HW130659   1.751   0.760   3.425 -0.0031  0.8876 -1.8350
 6342SOL    HW230660   1.625   0.811   3.487 -2.4874 -0.9898 -0.5918
 6343SOL     OW30661   1.316   1.179  12.678  0.0508 -0.6547 -0.2328
 6343SOL    HW130662   1.370   1.258  12.678  0.0936 -0.6837 -0.2216
 6343SOL    HW230663   1.348   1.153  12.591  1.1552 -1.0758  0.2896
 6344SOL     OW30664   0.981   0.288   0.983 -0.6918  0.3772  0.7041
 6344SOL    HW130665   0.914   0.321   0.923  1.0913 -0.2044 -1.5857
 6344SOL    HW230666   1.024   0.213   0.942  3.2851  3.4532 -0.7337
 6345SOL     OW30667   3.250   0.710   3.421 -0.1557 -0.4093 -0.1160
 6345SOL    HW130668   3.329   0.761   3.404 -0.3015 -0.3958 -0.7513
 6345SOL    HW230669   3.285   0.623   3.439 -0.0004 -0.2347  0.4151
 6346SOL     OW30670   1.071   4.426  10.286 -0.6609  0.0009  0.6248
 6346SOL    HW130671   1.056   4.467  10.371 -0.3951  0.9447  0.2183
 6346SOL    HW230672   0.977   4.421  10.269 -0.8986  1.0271  1.6396
 6347SOL     OW30673   0.137   4.732  10.952 -0.5516 -0.1554 -0.4445
 6347SOL    HW130674   0.063   0.052  10.924  0.2814  2.0090  1.5627
 6347SOL    HW230675   0.172   4.712  10.864 -0.2215 -0.7336 -0.1810
 6348SOL     OW30676   2.521   0.472   9.362  0.4796  0.4169 -0.6000
 6348SOL    HW130677   2.602   0.478   9.412  0.3580 -2.9550  0.0228
 6348SOL    HW230678   2.464   0.454   9.437  0.8635 -0.9759 -0.6314
 6349SOL     OW30679   3.902   0.959   7.479 -0.1615 -0.1238  0.2315
 6349SOL    HW130680   3.889   0.976   7.386 -2.0176 -0.4139  0.4410
 6349SOL    HW230681   3.851   0.880   7.498 -1.8911  0.7541 -0.8566
 6350SOL     OW30682   0.370   4.436  15.841 -0.1213 -0.1444  0.2680
 6350SOL    HW130683   0.403   4.386  15.916  2.9939  1.0187 -0.3390
 6350SOL    HW230684   0.442   4.438  15.778 -1.0754 -3.9405 -0.9940
 6351SOL     OW30685   2.108   4.565   9.269  0.3503 -0.1227  0.2652
 6351SOL    HW130686   2.039   4.627   9.246  1.6909  1.5991  0.8003
 6351SOL    HW230687   2.083   4.530   9.354  1.0573  1.2462  1.0482
 6352SOL     OW30688   4.394   1.781   3.578 -0.2099  0.3079  0.3493
 6352SOL    HW130689   4.449   1.780   3.656 -0.2754  0.0332  0.3886
 6352SOL    HW230690   4.314   1.810   3.621 -0.5191 -0.0581  0.0208
 6353SOL     OW30691   2.884   3.405   6.367  0.2250  0.2247 -0.4374
 6353SOL    HW130692   2.827   3.361   6.304 -0.0454 -1.2788  0.8760
 6353SOL    HW230693   2.860   3.496   6.346 -2.7246 -0.5505 -0.3948
 6354SOL     OW30694   0.047   0.579   9.359  0.5907 -0.6169 -0.2784
 6354SOL    HW130695   0.125   0.614   9.402  0.9913 -0.7216 -0.9224
 6354SOL    HW230696   0.088   0.519   9.297  0.3274 -2.1586  1.0368
 6355SOL     OW30697   2.048   1.857  10.938 -0.0220  0.0431  0.0813
 6355SOL    HW130698   2.061   1.949  10.962 -1.3536  0.1319  0.4691
 6355SOL    HW230699   2.055   1.857  10.843  0.1444 -0.5418  0.0973
 6356SOL     OW30700   3.128   4.567   7.111 -0.6081 -0.4439  0.3327
 6356SOL    HW130701   3.130   4.579   7.206 -0.7716  0.2739  0.2453
 6356SOL    HW230702   3.209   4.607   7.080 -0.7115  0.5112  1.2717
 6357SOL     OW30703   4.697   4.093   7.599 -0.4015  0.0887  0.8622
 6357SOL    HW130704   4.700   4.184   7.628  1.8221  0.7102 -1.3015
 6357SOL    HW230705   0.056   4.078   7.581 -0.5053  1.9357 -1.3078
 6358SOL     OW30706   0.931   1.778  16.055  0.1344  0.2449  0.5841
 6358SOL    HW130707   0.925   1.710  16.122  1.2619 -0.7214 -0.2850
 6358SOL    HW230708   0.996   1.834  16.097  1.1598 -0.0852 -0.5592
 6359SOL     OW30709   2.603   1.574  17.531 -0.0842  0.0837 -0.6099
 6359SOL    HW130710   2.577   1.638  17.465  1.0185  0.5898 -0.5537
 6359SOL    HW230711   2.624   1.647  17.589  0.5889  0.2394 -1.0401
 6360SOL     OW30712   4.503   3.714  12.214 -0.2228  0.0068  0.1655
 6360SOL    HW130713   4.410   3.700  12.232 -0.9354  2.5945 -1.6921
 6360SOL    HW230714   4.531   3.752  12.297  0.4381  1.8198 -0.8989
 6361SOL     OW30715   1.856   3.913   1.275  0.4226 -0.4032 -0.6317
 6361SOL    HW130716   1.798   3.990   1.269 -0.3103 -1.0213 -1.4457
 6361SOL    HW230717   1.921   3.932   1.208  0.8082  1.3901  0.2417
 6362SOL     OW30718   4.076   3.356   5.241 -0.2906 -0.4118 -0.0362
 6362SOL    HW130719   4.033   3.345   5.156 -3.1721  0.5941  1.2950
 6362SOL    HW230720   4.130   3.277   5.238  1.2530  0.5559  1.5142
 6363SOL     OW30721   2.807   1.552   4.788  0.1416 -0.2477  0.1374
 6363SOL    HW130722   2.816   1.466   4.747 -1.6514  1.1832 -3.3640
 6363SOL    HW230723   2.756   1.529   4.865 -0.9127  1.2066 -0.1235
 6364SOL     OW30724   2.387   4.066   4.473 -0.0966 -0.3154 -0.1285
 6364SOL    HW130725   2.323   4.041   4.539  0.7867  0.5126  1.0550
 6364SOL    HW230726   2.347   4.137   4.422 -0.2959 -1.3036 -1.3350
 6365SOL     OW30727   2.818   0.396  16.797 -0.3745 -0.3466 -0.1937
 6365SOL    HW130728   2.766   0.385  16.876  2.3758 -2.3167  1.3205
 6365SOL    HW230729   2.845   0.304  16.789  2.3945  0.3605  0.8223
 6366SOL     OW30730   2.965   2.024   8.554  0.5635  0.2143  0.8152
 6366SOL    HW130731   3.032   1.983   8.499 -1.0627 -1.4499  0.0546
 6366SOL    HW230732   3.023   2.033   8.629  1.2875  1.5061  0.0895
 6367SOL     OW30733   3.925   3.413  16.527  0.4078 -0.4621 -0.1416
 6367SOL    HW130734   3.886   3.343  16.579  0.1261 -0.2838 -0.1118
 6367SOL    HW230735   4.013   3.405  16.564 -0.1783 -0.5174  1.2317
 6368SOL     OW30736   1.993   4.308   0.526  0.4378  0.0373 -0.3426
 6368SOL    HW130737   1.937   4.231   0.528  1.4541 -0.6562  1.7098
 6368SOL    HW230738   1.948   4.353   0.455  0.8308  1.4630  0.3082
 6369SOL     OW30739   2.334   3.250   6.554  0.1796  0.1360  0.2924
 6369SOL    HW130740   2.407   3.217   6.502  0.9196 -0.3081  1.6148
 6369SOL    HW230741   2.300   3.325   6.506  1.0944 -0.4230 -1.2500
 6370SOL     OW30742   2.123   2.382   6.764  0.5378 -0.4536  0.0247
 6370SOL    HW130743   2.144   2.321   6.834  1.7750  1.3697  1.2521
 6370SOL    HW230744   2.177   2.349   6.693 -0.1476 -0.1724 -0.6274
 6371SOL     OW30745   2.651   2.553   7.713 -0.2912 -0.0612  0.2463
 6371SOL    HW130746   2.682   2.550   7.804 -1.1825  0.8387  0.5718
 6371SOL    HW230747   2.662   2.647   7.698 -0.5546 -0.3242 -1.4703
 6372SOL     OW30748   3.659   3.304  16.376  0.3084 -0.6107  0.5548
 6372SOL    HW130749   3.585   3.365  16.378  0.9142  0.1566 -0.2678
 6372SOL    HW230750   3.733   3.365  16.373 -0.5820  0.3991 -1.0414
 6373SOL     OW30751   0.677   0.080  13.120 -0.0793  0.4864 -0.2138
 6373SOL    HW130752   0.703   0.087  13.212 -0.9998 -0.7201  0.1357
 6373SOL    HW230753   0.611   0.012  13.129  0.0222  0.4274  0.0831
 6374SOL     OW30754   1.385   2.593  14.635 -0.1572  0.1288  0.0091
 6374SOL    HW130755   1.406   2.686  14.635 -0.8781  0.2949 -0.4322
 6374SOL    HW230756   1.426   2.576  14.720 -2.6814 -0.8669  1.0515
 6375SOL     OW30757   1.666   2.878   6.928 -0.2676  0.0765  0.5611
 6375SOL    HW130758   1.638   2.948   6.988 -3.6163 -0.2181 -0.6391
 6375SOL    HW230759   1.758   2.903   6.929  0.2347 -1.8592  1.9305
 6376SOL     OW30760   1.703   1.307   7.636 -0.5687 -0.2541  0.2997
 6376SOL    HW130761   1.660   1.385   7.603 -1.0522 -1.5367 -2.1135
 6376SOL    HW230762   1.635   1.281   7.697  1.3278 -1.6692  1.8039
 6377SOL     OW30763   0.188   0.712   5.724 -0.0095  0.2800 -0.7737
 6377SOL    HW130764   0.193   0.630   5.675  0.0375 -1.8282  2.7830
 6377SOL    HW230765   0.279   0.715   5.753  0.3028  1.2388 -1.8458
 6378SOL     OW30766   0.177   3.227   5.700  0.0932  1.0577 -0.2821
 6378SOL    HW130767   0.239   3.255   5.768  1.0672 -2.2012  0.1389
 6378SOL    HW230768   0.091   3.264   5.723 -0.4106  1.0384 -2.1218
 6379SOL     OW30769   4.501   3.594   2.101  0.6776  0.3524 -0.0637
 6379SOL    HW130770   4.544   3.679   2.098  2.4511 -0.6048 -1.7159
 6379SOL    HW230771   4.523   3.574   2.192 -3.0533 -0.2622  0.7215
 6380SOL     OW30772   1.250   1.805   6.037 -0.2255 -0.3579 -0.1160
 6380SOL    HW130773   1.210   1.866   6.100  0.3171 -0.2037  0.0783
 6380SOL    HW230774   1.214   1.723   6.070 -1.6074  0.6561  0.9009
 6381SOL     OW30775   1.196   3.551   7.665 -0.1552 -0.3281 -0.1240
 6381SOL    HW130776   1.188   3.638   7.705  1.4515 -0.0146 -0.4965
 6381SOL    HW230777   1.262   3.560   7.596 -0.0685  1.2549  0.1678
 6382SOL     OW30778   0.750   1.279  14.651 -0.2295 -0.2393 -0.4803
 6382SOL    HW130779   0.728   1.338  14.724  1.7411 -1.7833  1.3796
 6382SOL    HW230780   0.830   1.232  14.675 -0.3957 -0.6998 -0.8299
 6383SOL     OW30781   1.520   0.396   5.257 -0.0918  0.0772  0.4476
 6383SOL    HW130782   1.491   0.485   5.279 -4.0218 -0.8624 -0.8712
 6383SOL    HW230783   1.437   0.349   5.264 -0.1653  0.1906  0.3454
 6384SOL     OW30784   3.105   4.699   4.393 -0.0586 -0.1673 -0.0189
 6384SOL    HW130785   3.108   4.612   4.432  1.7570  0.0407  0.3388
 6384SOL    HW230786   3.011   4.716   4.396  0.0694  0.2213  1.6615
 6385SOL     OW30787   3.522   0.685   9.290  0.1471 -0.1930 -0.1991
 6385SOL    HW130788   3.538   0.593   9.269 -0.6194 -0.4340  0.2777
 6385SOL    HW230789   3.432   0.679   9.322  0.4869  0.9123  0.9645
 6386SOL     OW30790   1.315   2.636   1.945  0.1570  0.0616  0.9279
 6386SOL    HW130791   1.334   2.709   1.886  0.4367 -2.2208 -1.8091
 6386SOL    HW230792   1.241   2.666   1.999 -0.1323 -1.8690  1.5861
 6387SOL     OW30793   4.018   1.893  15.082  0.1243  0.0275 -0.0782
 6387SOL    HW130794   3.983   1.913  15.169 -1.4506  2.8081 -1.3568
 6387SOL    HW230795   3.950   1.837  15.044  0.4148  0.8178 -1.7686
 6388SOL     OW30796   2.354   3.022  11.121 -0.3499  0.2098 -0.0627
 6388SOL    HW130797   2.327   3.098  11.173  0.5988 -0.0569  0.8141
 6388SOL    HW230798   2.448   3.037  11.128  0.0388 -1.8607 -0.8644
 6389SOL     OW30799   3.387   4.668   7.032  0.3085  0.0177 -0.3694
 6389SOL    HW130800   3.363   0.026   7.019 -0.7524  0.2317  3.0453
 6389SOL    HW230801   3.414   4.646   6.943  0.9894 -0.8272  0.0500
 6390SOL     OW30802   3.519   2.967   2.749  0.1389 -0.3651 -0.3852
 6390SOL    HW130803   3.582   2.949   2.679  0.2746 -0.2767 -0.2858
 6390SOL    HW230804   3.444   2.985   2.693  1.1273  0.6395 -1.3790
 6391SOL     OW30805   0.375   1.524   0.194  0.1963 -0.1911  1.2114
 6391SOL    HW130806   0.446   1.461   0.207  0.3191 -0.1587  0.6727
 6391SOL    HW230807   0.386   1.568   0.110  0.5400 -1.6658  0.5030
 6392SOL     OW30808   4.459   1.345   5.725 -0.1175 -0.1540  0.7688
 6392SOL    HW130809   4.464   1.302   5.639  0.5394  1.2137  0.1243
 6392SOL    HW230810   4.400   1.413   5.692  2.1648  1.6114  0.3438
 6393SOL     OW30811   1.479   2.956   5.890  0.0970 -0.1696  0.1811
 6393SOL    HW130812   1.558   2.949   5.944 -0.4269  2.1916  1.2640
 6393SOL    HW230813   1.508   2.982   5.803 -1.9784  1.5778 -0.0001
 6394SOL     OW30814   3.932   2.333   1.616 -0.3262  0.1949  0.2222
 6394SOL    HW130815   3.879   2.259   1.645 -0.4945  0.4864  0.6539
 6394SOL    HW230816   3.950   2.301   1.527 -0.4565  2.0890 -0.4707
 6395SOL     OW30817   4.431   2.322   4.527 -0.1199  0.6462  0.3204
 6395SOL    HW130818   4.492   2.363   4.465 -0.5496  1.7399  0.6054
 6395SOL    HW230819   4.434   2.388   4.596  1.8961 -1.2907  2.0698
 6396SOL     OW30820   1.833   3.457   5.766  0.1013  0.0200 -0.2119
 6396SOL    HW130821   1.845   3.393   5.696  1.4450  0.4168 -0.3469
 6396SOL    HW230822   1.770   3.422   5.830 -1.0400  1.1825 -0.6888
 6397SOL     OW30823   3.451   0.705   6.967 -0.0658 -0.4247  0.1551
 6397SOL    HW130824   3.471   0.711   6.874  0.4868  2.0491  0.4323
 6397SOL    HW230825   3.380   0.640   6.965 -0.3258 -0.1175 -0.6902
 6398SOL     OW30826   0.005   3.386  17.311  0.2098  0.0011  0.2000
 6398SOL    HW130827   0.078   3.340  17.269 -0.4234  0.7765 -1.7210
 6398SOL    HW230828   4.685   3.423  17.242  0.0496 -0.5052  0.0513
 6399SOL     OW30829   0.128   1.962   2.313  1.0234  0.3939 -0.2670
 6399SOL    HW130830   0.155   1.872   2.296 -0.4681  0.0802 -0.9302
 6399SOL    HW230831   0.210   2.007   2.292  0.7694  0.0051 -2.1036
 6400SOL     OW30832   0.859   0.537   1.632 -0.0842 -0.4031  0.3574
 6400SOL    HW130833   0.910   0.613   1.604  1.7822 -1.9064 -0.3647
 6400SOL    HW230834   0.924   0.469   1.611 -0.1670  0.4421 -2.7013
 6401SOL     OW30835   1.723   0.194   9.150 -0.4954 -0.0539  0.3587
 6401SOL    HW130836   1.672   0.252   9.207  1.2432  1.3861  0.4790
 6401SOL    HW230837   1.799   0.247   9.123  0.9716 -2.1059  0.4869
 6402SOL     OW30838   0.878   1.079   8.912 -0.4886  0.0683  0.2936
 6402SOL    HW130839   0.880   1.060   9.006 -1.1783  1.3448  0.5607
 6402SOL    HW230840   0.897   1.172   8.903 -0.7757  0.3212  2.2605
 6403SOL     OW30841   3.356   1.763  17.617  0.2487  0.0992  0.1832
 6403SOL    HW130842   3.322   1.852  17.615 -1.9961 -0.7292  1.6290
 6403SOL    HW230843   3.399   1.762  17.531  1.9646  1.0574  1.0350
 6404SOL     OW30844   0.896   0.098   0.728  0.3529  0.3538 -0.5184
 6404SOL    HW130845   0.948   0.025   0.694  1.8613  0.7152  0.9458
 6404SOL    HW230846   0.874   0.084   0.820 -1.4332 -0.2032 -1.0418
 6405SOL     OW30847   3.699   4.727  11.149  0.4844 -0.0744 -0.1450
 6405SOL    HW130848   3.751   4.726  11.230  0.1911 -0.7063  0.0286
 6405SOL    HW230849   3.717   4.639  11.115  0.7974 -0.6638  1.5278
 6406SOL     OW30850   3.179   0.776   6.163 -0.3675  0.3183 -0.0066
 6406SOL    HW130851   3.264   0.814   6.139  0.3576 -1.8830 -0.9563
 6406SOL    HW230852   3.137   0.779   6.077 -1.6201  1.7919  0.6588
 6407SOL     OW30853   3.945   4.693   7.139  0.4759 -0.0630 -0.6636
 6407SOL    HW130854   3.874   4.708   7.202  0.6421  0.4386 -0.5923
 6407SOL    HW230855   3.903   0.002   7.064  1.1861  1.5068 -0.1507
 6408SOL     OW30856   2.423   0.265   6.031 -0.0932  0.2805  0.8028
 6408SOL    HW130857   2.456   0.354   6.018 -0.7589  0.1834 -1.5197
 6408SOL    HW230858   2.328   0.272   6.022 -0.1753 -1.1311  0.5181
 6409SOL     OW30859   3.270   2.262   5.054 -0.7417 -0.5018  0.4006
 6409SOL    HW130860   3.352   2.253   5.006 -0.2629  1.4622  0.8531
 6409SOL    HW230861   3.216   2.214   4.991  0.0380 -0.0356 -0.6164
 6410SOL     OW30862   4.458   1.635   2.077 -0.1981 -0.0388 -0.0506
 6410SOL    HW130863   4.436   1.546   2.050  4.2681 -0.9152 -0.8187
 6410SOL    HW230864   4.378   1.661   2.123 -0.5846  1.2531 -1.4396
 6411SOL     OW30865   0.278   1.235   4.966 -0.4729  0.1107 -0.1863
 6411SOL    HW130866   0.186   1.252   4.983 -0.6430 -2.1113  1.1853
 6411SOL    HW230867   0.300   1.262   4.877  2.1282 -1.0631  0.0937
 6412SOL     OW30868   1.438   3.879   8.757 -0.2933  0.6300  0.6532
 6412SOL    HW130869   1.498   3.905   8.687  0.8546  0.3040  1.5064
 6412SOL    HW230870   1.500   3.822   8.803  1.7254  1.1272 -1.4599
 6413SOL     OW30871   0.982   2.773   2.625 -0.2420  0.4265 -0.4980
 6413SOL    HW130872   0.974   2.824   2.706 -1.1525  0.4861 -0.6312
 6413SOL    HW230873   1.051   2.714   2.658 -0.4237 -0.4925 -1.7615
 6414SOL     OW30874   2.132   3.326   3.187 -0.8139 -0.2985 -0.7227
 6414SOL    HW130875   2.194   3.262   3.153  0.3656 -0.5180  1.8327
 6414SOL    HW230876   2.193   3.365   3.250 -2.0099 -0.3431  0.4561
 6415SOL     OW30877   3.989   3.293   3.900  0.0682 -0.5436  0.4091
 6415SOL    HW130878   4.033   3.358   3.845 -2.4444  0.3234 -0.6290
 6415SOL    HW230879   4.033   3.286   3.985  2.4383 -1.4437 -0.9198
 6416SOL     OW30880   3.196   1.792   2.021 -0.4554  0.0681  0.4408
 6416SOL    HW130881   3.126   1.842   2.064 -2.4431 -1.5081 -0.9227
 6416SOL    HW230882   3.147   1.712   2.004 -0.4872  0.2909 -0.5357
 6417SOL     OW30883   4.457   1.849   2.786  0.2771  0.0905 -0.1191
 6417SOL    HW130884   4.508   1.803   2.852  0.0193 -1.8479 -1.2619
 6417SOL    HW230885   4.369   1.820   2.811  0.5007 -0.6424 -0.1608
 6418SOL     OW30886   0.179   2.325  11.891 -0.1749 -0.2223  0.3619
 6418SOL    HW130887   0.209   2.375  11.815  2.9212 -0.6085  1.3269
 6418SOL    HW230888   0.085   2.311  11.895 -0.2372 -0.4906 -1.9641
 6419SOL     OW30889   3.901   4.457  10.761  0.2518  0.3936 -0.1039
 6419SOL    HW130890   3.952   4.394  10.711  1.1250  0.2224  0.9853
 6419SOL    HW230891   3.905   4.413  10.846 -1.5280  0.4988  0.0375
 6420SOL     OW30892   1.812   2.824   4.864  0.8081  0.5799  0.7726
 6420SOL    HW130893   1.747   2.859   4.803  0.4621 -0.5276  0.5244
 6420SOL    HW230894   1.851   2.911   4.878  0.8547  0.6933 -0.1061
 6421SOL     OW30895   1.915   4.317   4.344  0.2345 -0.2152 -0.4568
 6421SOL    HW130896   1.968   4.239   4.328  1.4586 -0.0461  2.7283
 6421SOL    HW230897   1.936   4.342   4.434  0.3039 -0.2850 -0.4538
 6422SOL     OW30898   4.116   0.441  16.373 -0.0704 -0.2438  0.4580
 6422SOL    HW130899   4.075   0.468  16.291  1.0804 -1.0371 -0.3799
 6422SOL    HW230900   4.071   0.491  16.441 -1.3132  0.4357 -0.8881
 6423SOL     OW30901   2.243   3.390   5.890  0.1337 -0.6629  0.1113
 6423SOL    HW130902   2.292   3.427   5.964  1.1325  0.2063 -0.9877
 6423SOL    HW230903   2.179   3.461   5.881  0.3693 -0.5734 -0.8632
 6424SOL     OW30904   0.200   0.816   2.109  0.0234  0.3087  0.0795
 6424SOL    HW130905   0.108   0.790   2.105  0.4026 -0.9937  0.0127
 6424SOL    HW230906   0.230   0.775   2.028 -3.5987 -1.1574 -0.5154
 6425SOL     OW30907   2.369   2.598   4.619 -0.3766 -0.2832  0.6548
 6425SOL    HW130908   2.409   2.670   4.668 -1.2061  1.7361 -1.6563
 6425SOL    HW230909   2.445   2.564   4.572 -1.0936  1.6697 -1.9168
 6426SOL     OW30910   1.172   2.424   1.751  0.2887 -0.0796  0.4486
 6426SOL    HW130911   1.187   2.518   1.742  1.2906 -0.2146  0.7302
 6426SOL    HW230912   1.229   2.388   1.682  2.1674  3.3278  0.2143
 6427SOL     OW30913   1.114   1.606   3.193  0.2113 -0.1878  0.3818
 6427SOL    HW130914   1.118   1.692   3.236 -0.2740 -0.5333  1.1153
 6427SOL    HW230915   1.022   1.588   3.172  0.1469  0.0503  0.4525
 6428SOL     OW30916   3.825   3.419   9.108 -0.3505 -0.4639  0.3923
 6428SOL    HW130917   3.885   3.486   9.077 -0.9143 -0.2747 -0.2726
 6428SOL    HW230918   3.760   3.412   9.039  0.7598 -0.6324 -0.6344
 6429SOL     OW30919   3.922   1.094   3.381 -0.5166 -0.3200  0.5228
 6429SOL    HW130920   3.974   1.172   3.364 -1.8887  0.1799 -1.4055
 6429SOL    HW230921   3.980   1.052   3.444  0.4671  0.6523  0.2688
 6430SOL     OW30922   2.670   3.057   4.677 -1.3758 -0.2104 -0.2037
 6430SOL    HW130923   2.762   3.034   4.693 -1.0416  1.9390  1.0132
 6430SOL    HW230924   2.641   3.079   4.766 -1.6855 -0.5690 -0.2191
 6431SOL     OW30925   1.057   0.456   6.539  0.0802 -0.5075 -0.1703
 6431SOL    HW130926   1.034   0.462   6.631  1.6218  3.8073 -0.0796
 6431SOL    HW230927   0.973   0.453   6.493  0.4095  0.3948 -0.8420
 6432SOL     OW30928   3.047   4.455   4.481  0.2730  0.5427 -0.0631
 6432SOL    HW130929   3.019   4.418   4.565 -1.1122 -0.6077 -1.0481
 6432SOL    HW230930   2.990   4.399   4.429  0.5553 -0.2779  0.5122
 6433SOL     OW30931   3.448   3.098   5.121  0.2743 -0.0163  0.2308
 6433SOL    HW130932   3.449   3.170   5.183  2.0946  0.2136 -0.0637
 6433SOL    HW230933   3.530   3.114   5.074 -0.4675 -0.8140 -1.3580
 6434SOL     OW30934   2.459   3.848  17.217  0.6145 -0.1497 -0.5858
 6434SOL    HW130935   2.553   3.859  17.199  1.0256 -2.3678  0.1631
 6434SOL    HW230936   2.412   3.911  17.162 -1.5934 -0.8300  0.5584
 6435SOL     OW30937   1.040   2.537   4.439 -0.4829  0.1439  0.0434
 6435SOL    HW130938   1.031   2.552   4.345  0.4515  1.5759  0.1824
 6435SOL    HW230939   1.014   2.623   4.473 -0.1787  0.8724 -1.5569
 6436SOL     OW30940   0.541   4.605  12.146  0.6941  0.5007 -0.1867
 6436SOL    HW130941   0.620   4.626  12.195  0.2476  0.9197  0.3487
 6436SOL    HW230942   0.527   4.682  12.091 -2.9818 -0.6109 -0.8580
 6437SOL     OW30943   1.371   2.959   4.353 -0.2972  0.1989 -0.0224
 6437SOL    HW130944   1.288   2.948   4.307 -1.4730  0.0459  2.1297
 6437SOL    HW230945   1.363   3.047   4.391  0.8469  0.2614  0.0724
 6438SOL     OW30946   0.395   3.613  15.504  0.2858  0.1723 -0.2396
 6438SOL    HW130947   0.458   3.672  15.463  2.5380 -1.3537  1.0267
 6438SOL    HW230948   0.338   3.672  15.553 -0.1322 -0.7949  0.4495
 6439SOL     OW30949   2.197   2.826   4.484 -0.3275  0.0850 -0.3046
 6439SOL    HW130950   2.283   2.819   4.442  1.5373 -0.7391  3.6178
 6439SOL    HW230951   2.221   2.804   4.574 -2.3136  0.6604  0.3685
 6440SOL     OW30952   4.416   1.231   8.190 -0.1735 -0.4562  0.0874
 6440SOL    HW130953   4.340   1.173   8.186 -1.0149  0.7826 -1.5489
 6440SOL    HW230954   4.400   1.274   8.274  2.4226 -0.8034  0.7756
 6441SOL     OW30955   0.388   3.631  14.553  0.2842 -0.6195 -0.9758
 6441SOL    HW130956   0.458   3.567  14.546 -0.4865 -1.5029 -0.5937
 6441SOL    HW230957   0.354   3.608  14.640 -1.3422  3.7585 -0.4376
 6442SOL     OW30958   3.691   0.217   2.753  0.3030  0.5360  0.2812
 6442SOL    HW130959   3.704   0.309   2.777 -1.2566  0.2014  2.4630
 6442SOL    HW230960   3.613   0.215   2.698 -0.6816  0.7521  1.6732
 6443SOL     OW30961   0.346   2.678  13.809 -0.1601  0.2797 -0.5335
 6443SOL    HW130962   0.340   2.583  13.799 -2.7571  0.7110 -2.9295
 6443SOL    HW230963   0.256   2.709  13.812 -0.9444 -2.2261  1.2632
 6444SOL     OW30964   3.938   1.301  10.252  0.7001 -0.2619 -0.2711
 6444SOL    HW130965   3.851   1.265  10.234 -0.8120  3.0325  0.5429
 6444SOL    HW230966   3.958   1.257  10.335  1.1101  0.3005 -0.0662
 6445SOL     OW30967   1.681   0.024   4.933 -0.1034 -0.3975  0.1060
 6445SOL    HW130968   1.705   4.694   4.999  0.8173  0.5138  0.6609
 6445SOL    HW230969   1.698   0.107   4.978 -1.4095  0.3417 -0.7390
 6446SOL     OW30970   2.687   0.330   4.055  0.4380  0.2726  0.0594
 6446SOL    HW130971   2.614   0.327   3.993  1.5307 -0.7966 -1.1783
 6446SOL    HW230972   2.649   0.334   4.143  0.7376 -1.3682  0.2623
 6447SOL     OW30973   3.919   0.949   4.306 -0.2450 -0.1022 -0.0786
 6447SOL    HW130974   3.896   0.861   4.337 -1.1128 -0.0214 -0.4825
 6447SOL    HW230975   3.998   0.926   4.258 -1.2598 -0.6090 -1.5071
 6448SOL     OW30976   1.761   3.690   1.785 -0.3660 -0.0342  0.1872
 6448SOL    HW130977   1.781   3.716   1.695  4.4379 -0.2626  1.1638
 6448SOL    HW230978   1.846   3.702   1.827  0.0941  1.7719 -1.2950
 6449SOL     OW30979   0.665   0.804  15.652 -0.4954 -0.3685 -0.1912
 6449SOL    HW130980   0.756   0.798  15.623  0.4176  1.3713  2.3289
 6449SOL    HW230981   0.659   0.899  15.664 -2.2629 -0.4964 -0.0807
 6450SOL     OW30982   1.342   2.478   2.552 -0.0175  0.4840  0.0153
 6450SOL    HW130983   1.365   2.467   2.460 -0.6063  0.9447 -0.1883
 6450SOL    HW230984   1.263   2.424   2.547  1.0536 -0.9469 -1.2456
 6451SOL     OW30985   0.221   1.524   3.270 -0.1589 -0.4296  0.2615
 6451SOL    HW130986   0.228   1.436   3.306 -0.9907  0.0644  1.6240
 6451SOL    HW230987   0.199   1.568   3.352 -2.1062 -1.6715  0.3998
 6452SOL     OW30988   1.148   1.101   4.030 -0.2147  0.2443  0.2198
 6452SOL    HW130989   1.066   1.052   4.030 -0.0469 -0.0267  1.5154
 6452SOL    HW230990   1.127   1.187   4.068 -1.4963 -0.0548  0.1946
 6453SOL     OW30991   4.122   1.396   7.017 -0.0601 -0.1280  0.4943
 6453SOL    HW130992   4.083   1.469   6.968  0.5326  0.2786  0.6332
 6453SOL    HW230993   4.047   1.358   7.064  1.2065 -2.1910  0.8303
 6454SOL     OW30994   2.434   1.105   6.337  0.0789 -0.1690  0.0107
 6454SOL    HW130995   2.520   1.065   6.321 -1.1499 -3.0572  0.7138
 6454SOL    HW230996   2.441   1.166   6.263  0.4061 -0.3198 -0.0825
 6455SOL     OW30997   3.765   3.526   2.190 -0.2137  0.4025 -0.3032
 6455SOL    HW130998   3.834   3.471   2.228 -0.4084 -0.0694 -0.6272
 6455SOL    HW230999   3.815   3.569   2.121 -1.0125 -1.9231 -2.3219
 6456SOL     OW31000   1.525   2.535   7.694  0.3770 -1.0003  0.5288
 6456SOL    HW131001   1.511   2.513   7.602  0.5484 -0.6181  0.4113
 6456SOL    HW231002   1.570   2.619   7.687  1.2269 -1.4952  0.1003
 6457SOL     OW31003   3.638   2.999   7.000  0.2844 -0.1377  0.1631
 6457SOL    HW131004   3.677   2.980   7.086 -0.9001 -1.1599  0.4681
 6457SOL    HW231005   3.564   3.054   7.025 -0.0198 -0.1851 -0.6400
 6458SOL     OW31006   3.192   0.054   8.420  0.7067  0.0737 -0.2249
 6458SOL    HW131007   3.112   0.099   8.445 -0.4635  0.4325 -4.6260
 6458SOL    HW231008   3.245   0.089   8.492 -0.3429 -1.7675  1.4105
 6459SOL     OW31009   2.895   1.112  10.712  0.0623 -0.2618 -0.5170
 6459SOL    HW131010   2.849   1.044  10.760  2.9866 -1.1961  0.9375
 6459SOL    HW231011   2.987   1.097  10.732  0.1059  1.0745  0.2710
 6460SOL     OW31012   3.564   1.767   4.860 -0.6107 -0.3032  0.2891
 6460SOL    HW131013   3.616   1.732   4.787 -1.9144  1.5882 -1.5441
 6460SOL    HW231014   3.495   1.700   4.863 -0.9524  0.0626  0.5321
 6461SOL     OW31015   1.467   1.747   2.594 -0.8488 -0.5282 -0.0338
 6461SOL    HW131016   1.385   1.708   2.625 -0.5116 -0.4625  0.9472
 6461SOL    HW231017   1.446   1.772   2.504  1.0011 -0.6005 -0.4908
 6462SOL     OW31018   3.619   2.570   4.912  0.3675 -0.0770  0.1227
 6462SOL    HW131019   3.657   2.657   4.928 -2.1147  1.0953 -0.3595
 6462SOL    HW231020   3.612   2.543   5.003  1.6073 -0.8672 -0.0211
 6463SOL     OW31021   4.580   3.382   4.021 -0.4390  0.1697 -0.1495
 6463SOL    HW131022   4.614   3.369   3.932 -1.6907  0.8991 -0.7479
 6463SOL    HW231023   4.560   3.292   4.044  0.3927 -0.0353 -0.2357
 6464SOL     OW31024   3.909   0.836  11.694  0.0806 -0.3360 -0.6668
 6464SOL    HW131025   3.842   0.862  11.757  0.7102 -1.1952  0.3375
 6464SOL    HW231026   3.927   0.927  11.671  0.1678  0.0774  1.0506
 6465SOL     OW31027   2.690   0.345   7.673  0.0974  0.1951 -0.1127
 6465SOL    HW131028   2.770   0.398   7.677  0.3407 -0.2108  0.4163
 6465SOL    HW231029   2.656   0.361   7.761  0.2456 -0.8258  0.1327
 6466SOL     OW31030   2.471   0.813   8.682 -0.3219 -0.0099 -0.0131
 6466SOL    HW131031   2.447   0.897   8.722  0.8259 -0.0033  0.6573
 6466SOL    HW231032   2.478   0.759   8.761  1.2906 -2.3456 -1.7615
 6467SOL     OW31033   1.487   0.715   8.529 -0.5259  0.1460 -0.4559
 6467SOL    HW131034   1.522   0.692   8.443 -0.1356 -1.5984  0.1614
 6467SOL    HW231035   1.540   0.662   8.588 -0.7576 -0.6784 -0.9856
 6468SOL     OW31036   3.580   3.640  16.026  0.8592  0.6609 -0.3961
 6468SOL    HW131037   3.525   3.692  15.967 -0.5600 -0.5254 -0.1343
 6468SOL    HW231038   3.665   3.658  15.987  1.6928 -0.6801  0.8197
 6469SOL     OW31039   3.055   1.462   6.977  0.3256  0.6460 -0.1156
 6469SOL    HW131040   2.981   1.514   7.008 -1.5253 -3.3970  2.3475
 6469SOL    HW231041   3.013   1.376   6.965  0.0837  0.8355 -0.6205
 6470SOL     OW31042   3.585   1.958   9.268 -0.6081  0.1498  0.4031
 6470SOL    HW131043   3.505   1.992   9.227 -0.5876 -1.0298 -0.6004
 6470SOL    HW231044   3.549   1.932   9.353  0.2804  0.9061  1.0095
 6471SOL     OW31045   0.576   3.193   2.363  0.2756  0.4186 -0.4337
 6471SOL    HW131046   0.615   3.220   2.446  2.8899 -0.6413 -1.3264
 6471SOL    HW231047   0.565   3.275   2.315  0.9263  2.9513  3.7753
 6472SOL     OW31048   1.583   1.335  13.414 -0.3551 -0.0015  0.4462
 6472SOL    HW131049   1.568   1.248  13.450 -0.1444  0.1357  0.8767
 6472SOL    HW231050   1.626   1.381  13.487  0.1666  1.2908 -0.6812
 6473SOL     OW31051   0.277   3.711  14.812 -0.2107  0.3037 -0.1180
 6473SOL    HW131052   0.354   3.739  14.862 -0.8227  0.6352  0.6355
 6473SOL    HW231053   0.222   3.788  14.806  0.4249  0.7890  0.2671
 6474SOL     OW31054   3.797   3.381  10.317  0.2918 -0.0719  0.3869
 6474SOL    HW131055   3.854   3.414  10.387  0.3371 -0.6148  0.6102
 6474SOL    HW231056   3.714   3.408  10.356 -1.1188 -1.8860 -1.3442
 6475SOL     OW31057   4.410   4.538   9.813  0.6623 -0.3470  1.0639
 6475SOL    HW131058   4.369   4.611   9.860 -1.8338 -0.6285 -0.6703
 6475SOL    HW231059   4.366   4.475   9.870  0.9824 -0.2974  1.3674
 6476SOL     OW31060   4.492   3.115   7.325  0.1265 -0.4147  1.0201
 6476SOL    HW131061   4.526   3.045   7.381  3.5850  1.4657  1.2882
 6476SOL    HW231062   4.537   3.093   7.243 -0.0181 -0.8862  1.0693
 6477SOL     OW31063   3.119   2.177  15.419  0.4172  0.0698 -0.0753
 6477SOL    HW131064   3.152   2.259  15.381  1.5374 -1.0663 -1.5685
 6477SOL    HW231065   3.160   2.181  15.506 -0.8428 -0.8571  0.5575
 6478SOL     OW31066   3.676   1.665  15.442  0.3155 -0.1581  0.1873
 6478SOL    HW131067   3.651   1.755  15.460  0.0441 -0.2757  0.3985
 6478SOL    HW231068   3.590   1.634  15.411  0.7615 -1.3629  0.1746
 6479SOL     OW31069   3.189   0.138   4.992 -0.0820  0.0762  0.2247
 6479SOL    HW131070   3.187   0.230   4.966 -1.0759 -0.2035 -0.6631
 6479SOL    HW231071   3.131   0.099   4.927  0.9702 -1.1598  0.0149
 6480SOL     OW31072   3.434   3.361  14.584 -0.4407  0.2800 -0.2486
 6480SOL    HW131073   3.422   3.398  14.497 -1.3695 -0.0822 -0.2707
 6480SOL    HW231074   3.422   3.271  14.554 -0.2275  0.0297  0.4139
 6481SOL     OW31075   3.172   1.102   4.727  0.4843  0.4765 -0.8095
 6481SOL    HW131076   3.112   1.029   4.706  2.2166 -1.9010  2.5257
 6481SOL    HW231077   3.134   1.164   4.665  0.5433  0.4076 -0.9153
 6482SOL     OW31078   1.292   3.069   2.904 -0.0138 -0.6861  0.4539
 6482SOL    HW131079   1.310   2.976   2.919 -1.8461 -1.1647 -0.3574
 6482SOL    HW231080   1.243   3.071   2.822  0.9220  0.9423 -0.0641
 6483SOL     OW31081   0.497   3.071   0.932  0.0131 -0.3704  0.2747
 6483SOL    HW131082   0.541   3.044   0.851 -1.5509  0.4869 -0.8806
 6483SOL    HW231083   0.410   3.069   0.890 -0.2113 -0.0163  0.7271
 6484SOL     OW31084   4.369   0.492  13.444  0.3484 -0.0265 -0.2412
 6484SOL    HW131085   4.315   0.414  13.438  0.2396 -0.0935  1.6446
 6484SOL    HW231086   4.431   0.457  13.508 -0.1719 -0.0844  0.2387
 6485SOL     OW31087   0.037   0.824   3.921  0.2924  0.2280 -1.0227
 6485SOL    HW131088   4.728   0.747   3.884  1.7705 -1.2206  0.2478
 6485SOL    HW231089   4.707   0.895   3.925 -1.9039 -1.7333 -1.5933
 6486SOL     OW31090   3.113   1.617   4.651 -0.7909 -0.1192  0.1023
 6486SOL    HW131091   3.017   1.626   4.649 -0.7052  1.0533  1.0256
 6486SOL    HW231092   3.136   1.612   4.744  0.3998  0.0542 -0.1878
 6487SOL     OW31093   4.435   2.821   1.006 -0.7106 -0.2735 -0.1316
 6487SOL    HW131094   4.356   2.770   1.022 -2.0374  2.4908  2.2086
 6487SOL    HW231095   4.454   2.806   0.913 -0.5028 -1.9435  0.1806
 6488SOL     OW31096   3.701   3.027   0.633  0.5125 -0.3487  0.0414
 6488SOL    HW131097   3.766   3.075   0.581  1.2766 -0.8765  0.5086
 6488SOL    HW231098   3.658   2.976   0.564 -0.3844  0.3839  0.0664
 6489SOL     OW31099   4.540   3.091   3.761  0.0622  0.1357  0.7896
 6489SOL    HW131100   4.603   3.118   3.694 -1.4335 -1.4923 -1.2720
 6489SOL    HW231101   4.604   3.104   3.831  0.5604 -3.0228  0.9057
 6490SOL     OW31102   2.355   3.285   7.079  0.3535 -0.4480  0.3035
 6490SOL    HW131103   2.263   3.309   7.078  0.3084 -0.6266 -0.0072
 6490SOL    HW231104   2.339   3.191   7.083 -0.8379 -0.1650  1.8622
 6491SOL     OW31105   4.289   3.070   6.245 -0.8808 -0.0356  0.2953
 6491SOL    HW131106   4.265   3.003   6.310 -0.7574 -2.1463 -1.8608
 6491SOL    HW231107   4.228   3.134   6.283 -1.0330 -0.0498  0.0765
 6492SOL     OW31108   1.669   2.714   5.361  0.2993  0.8126  0.2757
 6492SOL    HW131109   1.667   2.786   5.424 -1.4345  1.0100 -0.0096
 6492SOL    HW231110   1.654   2.633   5.411  1.0672  0.3609 -0.2296
 6493SOL     OW31111   2.771   3.106   4.209 -0.4732  0.6511 -0.0008
 6493SOL    HW131112   2.725   3.035   4.254 -1.4888 -0.1850 -2.3434
 6493SOL    HW231113   2.695   3.137   4.160  0.0708  2.3106  0.2153
 6494SOL     OW31114   3.692   0.068   7.258  0.5787  0.1368  0.0016
 6494SOL    HW131115   3.658   4.713   7.269  0.4677 -0.0618 -1.9994
 6494SOL    HW231116   3.689   0.105   7.346  1.0538 -1.6361  0.7714
 6495SOL     OW31117   4.533   0.941   8.120  0.2464  0.2982 -0.2948
 6495SOL    HW131118   4.453   0.991   8.137  0.2959 -0.4597  2.1860
 6495SOL    HW231119   4.565   1.002   8.053  0.7181  0.0613 -0.2817
 6496SOL     OW31120   0.184   1.662   7.180 -0.1945  0.3444  0.4113
 6496SOL    HW131121   0.143   1.606   7.246  0.5592 -1.6714 -0.8666
 6496SOL    HW231122   0.117   1.730   7.185 -0.9144 -0.3135 -0.5246
 6497SOL     OW31123   4.161   3.434  15.145  0.0452 -0.3268  0.0438
 6497SOL    HW131124   4.071   3.457  15.165  0.7026  2.1873  0.0994
 6497SOL    HW231125   4.154   3.339  15.131  0.5642 -0.1689 -1.3091
 6498SOL     OW31126   0.958   0.490  10.877 -0.2574 -0.3881  0.4151
 6498SOL    HW131127   1.014   0.440  10.817 -0.2607  2.8488 -2.3141
 6498SOL    HW231128   1.019   0.551  10.918 -1.0371  1.0017 -0.4958
 6499SOL     OW31129   1.488   0.847   3.211 -0.1717 -0.0948 -0.1300
 6499SOL    HW131130   1.549   0.807   3.273  2.0356 -1.0274 -2.8878
 6499SOL    HW231131   1.435   0.775   3.174  0.5797 -0.9626  0.4819
 6500SOL     OW31132   3.550   2.248  11.269  0.3805  0.5075 -0.1824
 6500SOL    HW131133   3.573   2.169  11.220 -1.1512  0.1475 -0.3305
 6500SOL    HW231134   3.471   2.276  11.222 -0.5939 -1.0606  0.5294
 6501SOL     OW31135   0.499   1.838   0.872  0.2703  0.3407 -0.3663
 6501SOL    HW131136   0.513   1.838   0.777 -2.8920 -0.0066 -0.8461
 6501SOL    HW231137   0.409   1.868   0.880  0.2081 -0.1502  0.7271
 6502SOL     OW31138   0.378   2.272   8.766 -0.7904  0.2282 -0.5931
 6502SOL    HW131139   0.448   2.330   8.797 -1.4334  0.1149  1.0538
 6502SOL    HW231140   0.302   2.321   8.799 -1.2576 -0.8337 -0.1203
 6503SOL     OW31141   4.048   2.165   8.119  0.4459 -0.1148  0.5000
 6503SOL    HW131142   4.084   2.082   8.087  0.6166 -0.4105  1.4534
 6503SOL    HW231143   4.125   2.210   8.153  0.6249  2.5153 -3.4628
 6504SOL     OW31144   0.751   0.829   5.805  0.2055  0.8119  0.1608
 6504SOL    HW131145   0.762   0.743   5.845  1.1189  1.6335  1.6413
 6504SOL    HW231146   0.730   0.794   5.718 -0.4838  0.9366  0.2697
 6505SOL     OW31147   1.089   0.846   2.413  0.2839 -0.3666 -0.5304
 6505SOL    HW131148   1.062   0.920   2.467  1.2526 -1.6174  1.6599
 6505SOL    HW231149   1.008   0.808   2.377 -1.6087  0.3976  2.9704
 6506SOL     OW31150   1.161   4.093   8.423  0.3368 -0.4150  0.2175
 6506SOL    HW131151   1.192   4.035   8.492  0.8035  0.7681  1.0053
 6506SOL    HW231152   1.071   4.061   8.428 -0.1074  0.4564 -2.3649
 6507SOL     OW31153   2.403   4.290   8.706 -0.0356  0.3143 -0.6934
 6507SOL    HW131154   2.313   4.270   8.732  0.1510  0.7765  0.2908
 6507SOL    HW231155   2.444   4.225   8.762  0.0168 -0.4536 -1.6110
 6508SOL     OW31156   1.300   2.795   3.518  0.1163  0.0829 -0.2084
 6508SOL    HW131157   1.210   2.782   3.551  0.2391 -0.2875 -0.0185
 6508SOL    HW231158   1.317   2.703   3.498 -1.0385 -0.3603  0.8145
 6509SOL     OW31159   0.046   2.890   8.869  0.2137 -0.2780  0.2057
 6509SOL    HW131160   0.044   2.960   8.933 -0.3276 -0.6666  0.6131
 6509SOL    HW231161   0.082   2.820   8.924  1.8737  0.5507  0.1667
 6510SOL     OW31162   1.184   4.365   0.294 -0.2810  0.0637 -0.4188
 6510SOL    HW131163   1.256   4.425   0.314 -1.1398  0.1664  2.3480
 6510SOL    HW231164   1.224   4.322   0.219 -1.0175 -0.9255 -0.2402
 6511SOL     OW31165   3.138   1.068   5.709 -0.6916  0.0955  0.3877
 6511SOL    HW131166   3.230   1.091   5.714 -0.2695 -0.7930 -3.3367
 6511SOL    HW231167   3.108   1.107   5.626 -0.8333  1.3972  1.0529
 6512SOL     OW31168   3.935   1.249   7.126  0.3443  0.8191  0.7479
 6512SOL    HW131169   3.931   1.157   7.154  0.4081  0.5702 -0.0609
 6512SOL    HW231170   3.846   1.282   7.137  0.4900  1.7688 -0.9435
 6513SOL     OW31171   1.396   4.477   2.828  0.3945  0.0449 -0.4320
 6513SOL    HW131172   1.327   4.421   2.793 -1.5181  0.4721  2.7036
 6513SOL    HW231173   1.415   4.545   2.763 -3.1863 -1.1981 -2.7955
 6514SOL     OW31174   1.884   1.488   2.111 -0.1316 -0.1809 -0.0937
 6514SOL    HW131175   1.858   1.403   2.075 -1.8310  0.0325  0.6604
 6514SOL    HW231176   1.867   1.480   2.205 -1.3090 -0.0554 -0.2954
 6515SOL     OW31177   2.509   4.164   8.492 -0.2473 -0.5960  0.1884
 6515SOL    HW131178   2.492   4.196   8.581 -0.0545  1.0383 -0.3677
 6515SOL    HW231179   2.511   4.072   8.517 -0.7807 -0.9556 -1.0463
 6516SOL     OW31180   3.472   3.432   9.449 -0.2389 -0.0793  0.2894
 6516SOL    HW131181   3.533   3.489   9.495  0.2908 -0.9361  0.6484
 6516SOL    HW231182   3.402   3.407   9.509 -0.9387 -1.2593 -1.0086
 6517SOL     OW31183   0.757   2.778   8.453  0.0622  0.2630 -0.1341
 6517SOL    HW131184   0.697   2.704   8.464  0.2161  0.3182  1.0739
 6517SOL    HW231185   0.767   2.792   8.358 -1.2922  1.5714 -0.0738
 6518SOL     OW31186   0.651   4.253   0.673  0.3414  0.1022 -0.0906
 6518SOL    HW131187   0.573   4.201   0.656  1.1498 -1.0737 -0.2017
 6518SOL    HW231188   0.641   4.319   0.604 -2.0565 -0.9959 -0.7767
 6519SOL     OW31189   1.257   2.319   9.110  0.8499 -0.4743 -0.6312
 6519SOL    HW131190   1.305   2.290   9.188  2.6874 -1.2944 -2.0774
 6519SOL    HW231191   1.169   2.328   9.147  0.7790  3.1698 -1.7410
 6520SOL     OW31192   4.107   3.430  17.518  0.6858  0.4726 -0.1373
 6520SOL    HW131193   4.171   3.492  17.485  1.2493  0.0810  0.2344
 6520SOL    HW231194   4.060   3.408  17.437  0.5828  0.6353 -0.1219
 6521SOL     OW31195   3.074   1.349   7.598  0.4120 -0.1246 -0.3222
 6521SOL    HW131196   3.168   1.360   7.615  0.4883 -1.6147  0.2297
 6521SOL    HW231197   3.054   1.311   7.684  0.1015 -0.0250 -0.3522
 6522SOL     OW31198   0.349   0.190   9.216  0.0603 -0.4458 -0.4627
 6522SOL    HW131199   0.328   0.122   9.279  2.0817  0.3025  1.0176
 6522SOL    HW231200   0.367   0.131   9.142 -0.0773  0.4626 -1.2276
 6523SOL     OW31201   4.324   3.989   8.125 -0.2945  0.0597 -0.3021
 6523SOL    HW131202   4.346   3.915   8.068  0.8629 -0.6828  1.1328
 6523SOL    HW231203   4.297   4.057   8.063 -0.8444  0.0209 -0.1097
 6524SOL     OW31204   1.556   4.112   3.904  0.0815  0.0636  0.4386
 6524SOL    HW131205   1.650   4.094   3.910  0.0211  0.1253  1.4945
 6524SOL    HW231206   1.547   4.115   3.809  1.7238 -0.3193  0.2715
 6525SOL     OW31207   0.446   1.779   9.655  0.2946 -0.4154  0.1266
 6525SOL    HW131208   0.373   1.732   9.616  1.4270 -1.6277 -0.5067
 6525SOL    HW231209   0.482   1.717   9.719 -0.3920  0.4810  1.3885
 6526SOL     OW31210   2.919   4.365  15.928  0.1440 -0.0999  0.2593
 6526SOL    HW131211   2.967   4.442  15.896 -2.9009  1.8784  0.4226
 6526SOL    HW231212   2.976   4.293  15.900 -1.9617 -1.0575 -1.5684
 6527SOL     OW31213   2.357   1.074  11.134  0.2307 -0.1848  0.4152
 6527SOL    HW131214   2.293   1.086  11.064  2.0453 -0.1731 -1.2563
 6527SOL    HW231215   2.399   1.158  11.152  0.8487 -0.2207 -0.8554
 6528SOL     OW31216   1.650   0.277  12.542  0.0689 -0.0592 -0.4261
 6528SOL    HW131217   1.741   0.263  12.569 -0.3657  0.6593  1.3811
 6528SOL    HW231218   1.601   0.204  12.580  1.4520 -0.1444  1.1917
 6529SOL     OW31219   0.365   0.368   6.422 -0.3187 -0.1621  0.1367
 6529SOL    HW131220   0.319   0.452   6.423  0.9061  0.4494  3.2113
 6529SOL    HW231221   0.340   0.331   6.337 -1.1099 -0.0372  0.3140
 6530SOL     OW31222   2.392   3.339   3.828  0.3175  0.6290  0.3467
 6530SOL    HW131223   2.438   3.378   3.903  0.4406  0.6156  0.2779
 6530SOL    HW231224   2.324   3.405   3.812 -1.4155 -1.0514  0.7337
 6531SOL     OW31225   1.628   1.536   7.512  0.3694 -0.2498  0.4339
 6531SOL    HW131226   1.603   1.591   7.438  0.2507 -1.1620 -0.2049
 6531SOL    HW231227   1.709   1.577   7.541  0.1943 -0.6764  1.5526
 6532SOL     OW31228   1.104   1.427   2.770 -0.3586 -0.5932  0.5384
 6532SOL    HW131229   1.050   1.367   2.822  2.1179 -0.5400  3.2112
 6532SOL    HW231230   1.120   1.506   2.822  0.6004 -0.1509 -0.4320
 6533SOL     OW31231   1.658   0.255  10.343  0.1708 -0.0578 -0.1844
 6533SOL    HW131232   1.739   0.277  10.297 -0.1913 -0.4293 -1.0044
 6533SOL    HW231233   1.691   0.179  10.392 -1.3932 -0.2308  0.6053
 6534SOL     OW31234   0.454   3.812   8.160 -0.0486 -0.3224  0.1979
 6534SOL    HW131235   0.404   3.735   8.187 -3.6331  2.4316  1.2854
 6534SOL    HW231236   0.414   3.884   8.209 -0.9245 -0.8693  0.2858
 6535SOL     OW31237   1.401   4.228  10.211 -0.4781  0.4794 -0.0893
 6535SOL    HW131238   1.446   4.312  10.204  1.0028 -0.6119 -3.9469
 6535SOL    HW231239   1.473   4.167  10.228 -0.2805 -0.0651 -2.8452
 6536SOL     OW31240   1.126   1.684   4.940 -0.2605 -0.4023 -0.5792
 6536SOL    HW131241   1.082   1.768   4.955  1.8549  0.2080  2.1441
 6536SOL    HW231242   1.079   1.626   5.001  2.2479  0.6610  2.3812
 6537SOL     OW31243   0.588   4.732   9.856  0.1824  0.5765 -0.4473
 6537SOL    HW131244   0.560   0.015   9.946  1.0589 -0.5659  0.0335
 6537SOL    HW231245   0.582   4.637   9.865  1.0126  0.3366 -2.3907
 6538SOL     OW31246   3.705   4.612  17.126  0.4012 -0.7454  0.6601
 6538SOL    HW131247   3.764   4.547  17.162  1.2503  0.4965  1.4650
 6538SOL    HW231248   3.752   4.694  17.139 -1.0150  0.2128 -0.1355
 6539SOL     OW31249   1.445   2.532   9.038  0.4752 -0.4337 -0.8588
 6539SOL    HW131250   1.422   2.570   8.953 -1.9491  0.4594  0.2128
 6539SOL    HW231251   1.373   2.471   9.053 -1.0354  1.1502 -1.6978
 6540SOL     OW31252   3.439   3.299   0.064 -0.0967 -0.5152 -0.2791
 6540SOL    HW131253   3.469   3.341   0.144  0.3241 -2.0849  0.3745
 6540SOL    HW231254   3.516   3.259   0.024  1.4064  3.1225 -1.0519
 6541SOL     OW31255   4.233   0.268  13.511 -0.1161 -0.9218 -0.1359
 6541SOL    HW131256   4.138   0.259  13.513 -0.1006 -0.8578  0.6453
 6541SOL    HW231257   4.245   0.290  13.603 -1.4403 -1.9525  0.2770
 6542SOL     OW31258   0.087   2.257   8.494  0.4257 -0.0247 -0.2211
 6542SOL    HW131259   0.087   2.259   8.398 -2.3973  1.7455 -0.1993
 6542SOL    HW231260   0.120   2.168   8.503  0.2129 -0.1261 -0.4369
 6543SOL     OW31261   0.862   4.544   5.464 -0.2760 -0.1606 -0.4008
 6543SOL    HW131262   0.915   4.623   5.470 -2.1349  0.8731  2.7922
 6543SOL    HW231263   0.914   4.490   5.524  1.0635 -0.8969 -2.2465
 6544SOL     OW31264   3.609   0.578   8.154 -0.4292 -0.7849 -0.1582
 6544SOL    HW131265   3.587   0.487   8.131  0.3337 -0.9414 -0.2727
 6544SOL    HW231266   3.560   0.606   8.232 -0.9508 -1.7647 -0.1339
 6545SOL     OW31267   3.207   4.420  15.392  0.0232  0.2569 -0.4056
 6545SOL    HW131268   3.230   4.513  15.388 -1.1241  0.5258 -0.7937
 6545SOL    HW231269   3.120   4.421  15.432 -0.6374  1.6921 -1.8902
 6546SOL     OW31270   2.389   4.487   1.013  0.0581 -0.6513  0.5098
 6546SOL    HW131271   2.316   4.451   0.962  0.4434 -1.6337  0.6624
 6546SOL    HW231272   2.452   4.477   0.942  1.4183  0.5940  1.5530
 6547SOL     OW31273   0.327   2.170   9.103  0.4047 -0.1204 -0.0621
 6547SOL    HW131274   0.288   2.136   9.022  3.1662 -0.7891 -1.1022
 6547SOL    HW231275   0.369   2.091   9.137 -0.8353 -0.8114 -0.1494
 6548SOL     OW31276   4.479   4.294   3.564  0.5643 -0.0468  0.3160
 6548SOL    HW131277   4.386   4.313   3.578  0.7050  0.7701  0.1527
 6548SOL    HW231278   4.498   4.352   3.490  2.5002 -0.3590  0.5646
 6549SOL     OW31279   0.671   2.310   2.978 -0.0626 -0.0311 -0.9784
 6549SOL    HW131280   0.733   2.289   3.048 -1.8915 -0.6830  0.4152
 6549SOL    HW231281   0.728   2.344   2.908  1.3868 -0.1653  0.1318
 6550SOL     OW31282   3.832   3.195  11.532  0.1461  0.2589  0.2050
 6550SOL    HW131283   3.867   3.212  11.444  2.0063 -2.1845  0.4578
 6550SOL    HW231284   3.836   3.100  11.547 -0.8426  0.1449 -0.2071
 6551SOL     OW31285   4.314   1.154   9.221  0.8371  0.5340 -0.5689
 6551SOL    HW131286   4.403   1.159   9.184  0.5361  0.9283 -1.2352
 6551SOL    HW231287   4.288   1.229   9.167  1.8903  1.9467  0.8906
 6552SOL     OW31288   0.739   1.798  13.927 -0.0011 -0.1674 -0.6609
 6552SOL    HW131289   0.765   1.855  13.854  0.3066  0.7536  0.1779
 6552SOL    HW231290   0.814   1.793  13.987 -1.2618  2.1658  1.0483
 6553SOL     OW31291   0.282   1.639   1.460 -0.2226 -0.7176 -0.0696
 6553SOL    HW131292   0.194   1.621   1.427 -1.5002 -0.2449  3.0008
 6553SOL    HW231293   0.247   1.684   1.537 -0.8735 -2.5354  0.7074
 6554SOL     OW31294   2.828   1.755  10.598  0.3191  0.0137 -0.1184
 6554SOL    HW131295   2.770   1.736  10.525  0.5423 -3.0609  0.4615
 6554SOL    HW231296   2.866   1.840  10.574 -0.1011  0.9884  2.7484
 6555SOL     OW31297   2.659   2.917   1.208  0.0851 -0.2358  0.3165
 6555SOL    HW131298   2.711   2.963   1.273  0.1663 -1.1747  0.9064
 6555SOL    HW231299   2.616   2.847   1.257 -0.6094 -0.3782 -0.4904
 6556SOL     OW31300   0.133   2.921   4.570 -0.8692 -0.1789  0.2819
 6556SOL    HW131301   0.185   2.971   4.507 -2.5041  2.8856  1.3562
 6556SOL    HW231302   0.171   2.835   4.557 -1.0860 -0.4445  1.3444
 6557SOL     OW31303   0.001   1.112   2.111  0.2160  0.2952  0.2444
 6557SOL    HW131304   0.097   1.111   2.101  0.2048 -0.9107  0.3232
 6557SOL    HW231305   0.002   1.168   2.189  2.7642  0.6998 -0.0604
 6558SOL     OW31306   4.196   1.302  14.523 -0.1604 -0.2430 -0.0381
 6558SOL    HW131307   4.248   1.240  14.575  1.3460  0.5229 -0.6439
 6558SOL    HW231308   4.265   1.349  14.477 -1.2900  0.6641 -0.7868
 6559SOL     OW31309   2.804   3.252   5.840  0.5726 -0.5016  0.0358
 6559SOL    HW131310   2.728   3.303   5.868 -0.0018  0.0105 -2.4194
 6559SOL    HW231311   2.797   3.175   5.896  2.8255 -0.4003  0.4776
 6560SOL     OW31312   4.251   1.099   6.672 -0.0082  0.2350 -0.6160
 6560SOL    HW131313   4.199   1.109   6.752 -0.2104  1.0197 -0.8424
 6560SOL    HW231314   4.195   1.144   6.608  0.7630  2.0396 -0.0336
 6561SOL     OW31315   2.339   3.327   0.733 -0.5606 -0.3750 -0.3401
 6561SOL    HW131316   2.428   3.360   0.722 -0.1673 -0.8441  1.4921
 6561SOL    HW231317   2.356   3.233   0.725 -0.6442 -0.4321  0.1325
 6562SOL     OW31318   3.147   4.486  10.538 -0.5617  0.1608  0.0185
 6562SOL    HW131319   3.171   4.458  10.449  2.4206 -1.2362  1.2637
 6562SOL    HW231320   3.062   4.444  10.545 -0.6171  0.4603  1.0745
 6563SOL     OW31321   3.259   3.112   2.763 -0.0984  0.3013  0.8842
 6563SOL    HW131322   3.178   3.092   2.811 -0.2967  0.8194  0.7604
 6563SOL    HW231323   3.255   3.050   2.690 -0.7768  0.7480  0.5420
 6564SOL     OW31324   2.892   2.418   7.010  0.3317 -0.1032  0.0986
 6564SOL    HW131325   2.889   2.494   7.069  0.7696  1.1286 -1.4623
 6564SOL    HW231326   2.898   2.344   7.071  1.2521 -1.0902 -1.2149
 6565SOL     OW31327   4.314   3.529   4.923  0.0999  0.0816 -0.0613
 6565SOL    HW131328   4.345   3.439   4.920  1.4416  0.5500 -0.1828
 6565SOL    HW231329   4.230   3.504   4.885  0.3075 -1.3669  0.4350
 6566SOL     OW31330   0.941   4.648   2.967  0.4343  0.1483  0.4267
 6566SOL    HW131331   0.918   4.603   2.886 -2.4227  2.2503  0.0920
 6566SOL    HW231332   0.860   4.679   3.007  1.6526 -0.3216  3.3121
 6567SOL     OW31333   1.121   0.714   3.842  0.0058 -0.5524  0.4228
 6567SOL    HW131334   1.164   0.759   3.770  1.1492 -0.8581  0.9128
 6567SOL    HW231335   1.100   0.632   3.798  1.0035 -1.0715  0.9040
 6568SOL     OW31336   2.575   3.860   2.320 -0.1919 -0.3961  0.4952
 6568SOL    HW131337   2.536   3.838   2.404  0.3115  1.1468  1.1332
 6568SOL    HW231338   2.591   3.771   2.289 -0.8004  0.1136 -1.2730
 6569SOL     OW31339   3.039   1.810   8.289 -0.4534 -0.3102  0.3165
 6569SOL    HW131340   3.066   1.762   8.211  2.5566  0.2485  1.0345
 6569SOL    HW231341   3.049   1.897   8.251 -0.6381 -0.0310  0.9086
 6570SOL     OW31342   0.707   1.302   0.736 -0.3620 -0.1227 -0.5268
 6570SOL    HW131343   0.740   1.266   0.653  0.1513  1.4681 -1.0031
 6570SOL    HW231344   0.641   1.362   0.701 -1.9739 -1.0682  0.9320
 6571SOL     OW31345   1.518   4.235   9.185 -0.1891  0.0719 -0.3646
 6571SOL    HW131346   1.431   4.255   9.218 -1.1188 -2.3487 -1.3427
 6571SOL    HW231347   1.507   4.143   9.162 -0.8655 -0.2745  1.2960
 6572SOL     OW31348   3.260   2.716  11.273  0.6670 -0.0019  0.2126
 6572SOL    HW131349   3.317   2.776  11.322 -0.8332  1.6256 -0.0304
 6572SOL    HW231350   3.214   2.679  11.349 -0.0767 -1.2515 -0.8464
 6573SOL     OW31351   1.377   2.187   7.151 -0.6171 -1.3482 -0.3021
 6573SOL    HW131352   1.453   2.191   7.208 -0.9852 -0.8064  0.1518
 6573SOL    HW231353   1.403   2.214   7.063  2.0257 -1.3662  0.4937
 6574SOL     OW31354   4.117   2.549   9.406 -0.6162  0.2773 -0.3424
 6574SOL    HW131355   4.025   2.526   9.393 -1.5628  3.4353  0.8207
 6574SOL    HW231356   4.118   2.632   9.454  1.3967  0.1918 -0.2087
 6575SOL     OW31357   0.386   1.807   3.200 -0.3458 -0.0594 -0.0030
 6575SOL    HW131358   0.439   1.734   3.234  0.0813  0.1693 -0.1803
 6575SOL    HW231359   0.449   1.877   3.183  0.6367 -0.8826  0.1599
 6576SOL     OW31360   2.006   0.596   1.293 -0.3820  0.1060  0.5595
 6576SOL    HW131361   2.000   0.645   1.212 -2.6904 -1.3584 -0.1784
 6576SOL    HW231362   2.095   0.560   1.289  0.9412  3.4866 -0.1083
 6577SOL     OW31363   4.251   2.451   5.574  0.1694 -0.3899 -0.3783
 6577SOL    HW131364   4.196   2.478   5.648  1.0563  1.7655 -0.5189
 6577SOL    HW231365   4.303   2.531   5.573 -0.5477  0.0768 -0.3734
 6578SOL     OW31366   4.575   1.971   5.754 -0.4922 -0.3021  0.0857
 6578SOL    HW131367   4.511   2.041   5.768 -0.3505 -0.1184 -0.1726
 6578SOL    HW231368   4.533   1.896   5.713 -0.0696 -1.1898  1.2938
 6579SOL     OW31369   4.257   4.195  13.620 -0.1246  0.1255 -0.2908
 6579SOL    HW131370   4.307   4.267  13.659 -2.3225  1.9931 -0.9148
 6579SOL    HW231371   4.294   4.130  13.680  0.3672 -0.6320 -1.4072
 6580SOL     OW31372   1.724   4.656  10.921  0.1108 -0.0744  0.1385
 6580SOL    HW131373   1.634   4.672  10.892  0.0369 -0.5864  0.0866
 6580SOL    HW231374   1.752   4.730  10.976 -2.8797  0.3181  1.0947
 6581SOL     OW31375   3.117   0.858   8.288  0.1895 -0.0112  0.1859
 6581SOL    HW131376   3.167   0.928   8.331 -0.9371  1.5865 -1.1199
 6581SOL    HW231377   3.031   0.880   8.324  1.3375  2.1482  1.6604
 6582SOL     OW31378   0.358   3.098   6.876 -0.7503  0.4247 -0.6167
 6582SOL    HW131379   0.299   3.039   6.830 -1.5557 -0.4432  1.5460
 6582SOL    HW231380   0.421   3.123   6.809  1.2463 -1.4436  0.5535
 6583SOL     OW31381   1.624   0.003   8.077  0.3116 -0.3344  0.3244
 6583SOL    HW131382   1.548   0.039   8.123  1.2103  0.3747  1.2287
 6583SOL    HW231383   1.675   4.713   8.153  0.9399  0.1605  0.0557
 6584SOL     OW31384   0.200   4.407   6.255  0.1155 -0.6818  0.0366
 6584SOL    HW131385   0.251   4.414   6.336  0.5513 -0.1943 -0.2812
 6584SOL    HW231386   0.191   4.312   6.252  2.7602 -0.9444  0.8524
 6585SOL     OW31387   0.911   3.423  14.507 -0.8563  0.2349 -0.5833
 6585SOL    HW131388   0.950   3.457  14.427 -2.1034 -1.6530 -1.9851
 6585SOL    HW231389   0.862   3.346  14.480 -1.1179  1.1152 -2.5620
 6586SOL     OW31390   1.712   1.745   6.974 -0.2681  0.2425 -0.4097
 6586SOL    HW131391   1.721   1.655   7.006 -0.0721 -0.1690 -1.6083
 6586SOL    HW231392   1.620   1.748   6.947  0.3607 -0.9016 -2.7422
 6587SOL     OW31393   3.052   0.549   3.891  0.6104  0.4396 -0.2580
 6587SOL    HW131394   3.055   0.466   3.844  1.5566  0.3200  0.0177
 6587SOL    HW231395   3.140   0.537   3.926  1.2834 -0.9945 -2.4430
 6588SOL     OW31396   4.123   2.443   3.260 -0.1066 -0.0849 -0.6186
 6588SOL    HW131397   4.091   2.455   3.171  2.1925  2.2869 -1.1075
 6588SOL    HW231398   4.057   2.378   3.287  0.7523 -0.6948  0.0067
 6589SOL     OW31399   0.856   3.757   7.851  0.4565  0.3601  0.1597
 6589SOL    HW131400   0.896   3.810   7.919  0.1324  1.3925 -0.4603
 6589SOL    HW231401   0.883   3.669   7.878 -0.0744 -0.3004 -1.4555
 6590SOL     OW31402   2.188   2.726   4.055  0.1047 -0.2107  0.2244
 6590SOL    HW131403   2.127   2.798   4.038  0.8319 -0.2216 -2.4132
 6590SOL    HW231404   2.196   2.715   4.150  0.1288  0.5424  0.3110
 6591SOL     OW31405   3.395   0.817   4.989 -0.2305  0.8340  0.3271
 6591SOL    HW131406   3.303   0.836   4.974  0.2189  1.3613 -1.7194
 6591SOL    HW231407   3.430   0.791   4.904 -0.2145 -0.4953  0.7404
 6592SOL     OW31408   3.666   4.082   8.882 -0.0293 -0.0129  0.3364
 6592SOL    HW131409   3.750   4.049   8.915  0.0455 -0.0906  0.0727
 6592SOL    HW231410   3.647   4.014   8.817  3.0568  0.8113 -1.4421
 6593SOL     OW31411   0.903   1.902   8.312  0.1626  0.9189  0.4649
 6593SOL    HW131412   0.960   1.959   8.260  0.4209  0.0149 -0.2425
 6593SOL    HW231413   0.940   1.818   8.285 -1.0752  0.4228  0.2985
 6594SOL     OW31414   2.698   2.094   8.603  0.2705 -0.4292 -0.2115
 6594SOL    HW131415   2.786   2.064   8.581  0.2007 -0.7454 -0.0571
 6594SOL    HW231416   2.713   2.147   8.681 -1.6338  0.1774 -0.2444
 6595SOL     OW31417   0.706   1.786   9.529 -0.0242  0.3387  0.4566
 6595SOL    HW131418   0.735   1.826   9.611  1.6608  0.7044 -0.3147
 6595SOL    HW231419   0.613   1.788   9.550  0.4059 -0.4426  2.4977
 6596SOL     OW31420   1.309   4.028  11.661 -0.2355  0.2191 -0.1240
 6596SOL    HW131421   1.256   4.108  11.660  2.9586  2.3667  0.3945
 6596SOL    HW231422   1.254   3.970  11.713  1.7808 -0.4459  1.2724
 6597SOL     OW31423   1.908   1.357   1.640  0.1165 -0.4057  0.0185
 6597SOL    HW131424   1.851   1.293   1.682 -0.1034 -1.9346 -2.5662
 6597SOL    HW231425   1.831   1.399   1.601  1.3645 -0.3707 -2.4450
 6598SOL     OW31426   0.031   1.817  17.526  0.0559  0.2414 -0.1170
 6598SOL    HW131427   4.698   1.857  17.582  0.5169  2.0454 -0.8319
 6598SOL    HW231428   0.075   1.893  17.487  0.2559  0.0743 -0.2200
 6599SOL     OW31429   0.105   0.479   5.940 -0.0858 -0.4095  0.1059
 6599SOL    HW131430   0.152   0.397   5.954 -2.5394 -2.1531 -1.8076
 6599SOL    HW231431   0.162   0.509   5.869 -0.4670  0.5974  0.2363
 6600SOL     OW31432   3.694   1.866   6.515 -0.2225 -0.1655  0.7844
 6600SOL    HW131433   3.778   1.892   6.554  0.0192  0.8674 -0.4506
 6600SOL    HW231434   3.709   1.854   6.421 -1.9068  0.1887  0.4674
 6601SOL     OW31435   3.828   3.353   5.815  0.3752 -0.0076 -0.4290
 6601SOL    HW131436   3.794   3.329   5.901  3.3863  2.2902  1.3755
 6601SOL    HW231437   3.831   3.262   5.785  1.7175 -0.6460  1.6259
 6602SOL     OW31438   1.040   3.611   4.248 -0.4468  0.0791  0.4127
 6602SOL    HW131439   0.960   3.563   4.226  0.2289 -1.2736  0.9317
 6602SOL    HW231440   1.097   3.577   4.180 -0.5434 -0.8373  0.7926
 6603SOL     OW31441   3.244   2.006   8.469  0.0932 -0.5126  0.1935
 6603SOL    HW131442   3.272   2.026   8.558  0.6535  0.6709 -0.2573
 6603SOL    HW231443   3.263   2.098   8.451  1.6366 -0.9430 -0.3562
 6604SOL     OW31444   1.238   3.011  10.902  0.6084  0.4977  0.6152
 6604SOL    HW131445   1.152   3.042  10.873 -0.5502 -3.1764  0.1169
 6604SOL    HW231446   1.226   2.917  10.889  0.5409  0.2890  2.1629
 6605SOL     OW31447   0.070   3.422   2.200 -0.3474  0.3888  0.5190
 6605SOL    HW131448   0.138   3.468   2.248  2.2165  0.0382 -2.7358
 6605SOL    HW231449   0.113   3.392   2.120 -0.6083 -1.5093  1.0904
 6606SOL     OW31450   1.157   3.367   6.328 -0.0088 -0.3567  0.3617
 6606SOL    HW131451   1.221   3.435   6.308  0.4229 -0.9144 -0.1465
 6606SOL    HW231452   1.114   3.341   6.246 -1.7153 -0.3941  1.2633
 6607SOL     OW31453   3.784   4.595  11.396 -0.7492 -0.1086 -0.2014
 6607SOL    HW131454   3.866   4.545  11.398 -1.1412 -0.7250  0.3441
 6607SOL    HW231455   3.713   4.531  11.392 -1.7274  0.8914  0.9956
 6608SOL     OW31456   4.547   0.976   4.887 -0.3395 -0.0350 -0.1631
 6608SOL    HW131457   4.526   0.917   4.960 -0.8056 -0.8596 -0.9551
 6608SOL    HW231458   4.642   0.964   4.882 -0.7987 -3.4848 -0.7028
 6609SOL     OW31459   1.556   2.823   4.520  0.3369 -0.1202  0.0030
 6609SOL    HW131460   1.485   2.861   4.468  0.2631 -0.0084  0.1811
 6609SOL    HW231461   1.532   2.730   4.522 -0.7010  0.1757  2.0525
 6610SOL     OW31462   2.018   3.826   7.943  0.4790  0.1105  0.3165
 6610SOL    HW131463   1.976   3.856   8.023 -0.2920  0.5181 -0.2408
 6610SOL    HW231464   2.055   3.740   7.964  0.6175  0.1756  0.3419
 6611SOL     OW31465   1.846   1.030   2.259 -0.0131 -0.1511 -0.5608
 6611SOL    HW131466   1.868   1.078   2.339 -2.0290  0.8281 -0.6050
 6611SOL    HW231467   1.801   0.949   2.284  1.0071 -0.1528  1.1989
 6612SOL     OW31468   0.267   1.839  15.185  0.1153  0.5140  0.6932
 6612SOL    HW131469   0.298   1.912  15.238  0.9498  0.5732  0.1238
 6612SOL    HW231470   0.290   1.868  15.097  1.4855 -1.6314  0.3502
 6613SOL     OW31471   4.669   0.584   3.938 -0.4715  0.4356 -0.1873
 6613SOL    HW131472   4.711   0.544   3.862 -2.2536  1.8203 -1.8940
 6613SOL    HW231473   4.675   0.515   4.004 -0.1534 -0.4958 -1.1902
 6614SOL     OW31474   3.089   4.261   2.101 -0.5390 -0.0593 -0.6279
 6614SOL    HW131475   2.997   4.248   2.124 -0.7490 -0.2018 -1.5410
 6614SOL    HW231476   3.137   4.186   2.133  0.4269  1.7662  2.1989
 6615SOL     OW31477   0.291   0.047   8.241  0.5578 -0.2955 -0.3356
 6615SOL    HW131478   0.249   0.049   8.327  0.9804  0.5836 -0.1484
 6615SOL    HW231479   0.226   0.093   8.188  0.8979 -0.4185 -0.8516
 6616SOL     OW31480   2.871   4.465   5.886 -0.5035 -0.1196 -0.0790
 6616SOL    HW131481   2.890   4.449   5.978  1.0333  2.6006  0.0656
 6616SOL    HW231482   2.943   4.525   5.867  0.2195 -0.8661  0.2876
 6617SOL     OW31483   0.265   3.983   6.471  0.5411  0.6231 -0.3612
 6617SOL    HW131484   0.299   4.070   6.492 -1.6929  1.2167  0.8111
 6617SOL    HW231485   0.209   4.018   6.401 -0.1458  0.6574  0.2021
 6618SOL     OW31486   2.844   0.953   3.562 -0.1444  1.0878 -0.1182
 6618SOL    HW131487   2.892   0.876   3.593 -1.4149  0.3794  0.1108
 6618SOL    HW231488   2.920   0.999   3.526 -0.4851 -0.4293 -2.7944
 6619SOL     OW31489   2.700   4.727  11.542 -0.3860  0.0767  0.4230
 6619SOL    HW131490   2.635   4.711  11.610  1.0119  0.0798  1.7631
 6619SOL    HW231491   2.778   4.696  11.587 -1.2240 -0.4467  1.5094
 6620SOL     OW31492   3.469   0.400   3.097  0.7994 -0.0794  0.1997
 6620SOL    HW131493   3.497   0.459   3.167 -0.7253  0.8924 -0.0005
 6620SOL    HW231494   3.481   0.456   3.021  1.8499 -1.4157 -0.6055
 6621SOL     OW31495   3.929   2.950  12.837 -0.2364  0.3671  0.8820
 6621SOL    HW131496   3.984   2.884  12.794  0.3491  1.3120  0.1791
 6621SOL    HW231497   3.852   2.898  12.861 -0.1228 -1.2460 -2.1502
 6622SOL     OW31498   4.327   3.363  14.796  0.5607  0.2173 -0.2433
 6622SOL    HW131499   4.416   3.330  14.808  0.6363  1.1672  1.8638
 6622SOL    HW231500   4.296   3.311  14.722  0.9480 -1.1740  0.5835
 6623SOL     OW31501   2.872   1.761   5.397 -0.4801 -0.0787 -0.0775
 6623SOL    HW131502   2.838   1.845   5.429 -0.6610 -0.4367  0.6667
 6623SOL    HW231503   2.876   1.720   5.483 -1.2187 -0.3931 -0.1896
 6624SOL     OW31504   3.076   3.278   0.113  0.0847 -0.0600 -0.1095
 6624SOL    HW131505   3.094   3.263   0.020  1.8821  2.5387 -0.1820
 6624SOL    HW231506   3.046   3.188   0.125 -1.0835  0.0934 -1.8008
 6625SOL     OW31507   3.227   0.564   6.374  0.1649 -0.1173  0.3889
 6625SOL    HW131508   3.251   0.616   6.298  2.7249  0.3730  1.5093
 6625SOL    HW231509   3.132   0.576   6.378  0.3348  1.7745 -1.4474
 6626SOL     OW31510   1.734   1.672   2.682 -0.6306  0.1916  0.1401
 6626SOL    HW131511   1.742   1.577   2.689 -0.5631  0.2897  1.3474
 6626SOL    HW231512   1.655   1.675   2.629 -1.2235  1.1700  1.0788
 6627SOL     OW31513   1.813   4.607  10.297  0.3294  0.0471 -0.3656
 6627SOL    HW131514   1.824   4.659  10.377  1.8819  1.1668 -1.3064
 6627SOL    HW231515   1.806   4.673  10.229 -0.2198  0.7514  0.3732
 6628SOL     OW31516   4.301   3.338  12.381  0.1076 -0.2442  0.0184
 6628SOL    HW131517   4.266   3.344  12.470  2.2950 -0.9387  0.9082
 6628SOL    HW231518   4.304   3.427  12.344  1.2897  0.8262  2.6845
 6629SOL     OW31519   1.940   1.090   7.248 -0.1009 -0.1387 -0.7935
 6629SOL    HW131520   1.977   1.003   7.260 -1.6688 -0.6054  0.6502
 6629SOL    HW231521   1.924   1.079   7.154  1.6131 -0.2825 -1.0600
 6630SOL     OW31522   0.069   3.139  15.190 -0.2551 -0.6266  0.3376
 6630SOL    HW131523   0.015   3.108  15.263  1.4865 -0.2451  1.7977
 6630SOL    HW231524   0.036   3.228  15.185 -0.4733 -0.7522 -0.5018
 6631SOL     OW31525   1.439   4.094  11.278 -0.1944  0.2192 -0.1856
 6631SOL    HW131526   1.419   4.104  11.185  2.0546  1.9414 -0.4734
 6631SOL    HW231527   1.432   3.999  11.294  0.3251  0.1216 -0.5495
 6632SOL     OW31528   3.318   0.187   4.538 -0.5518 -0.0345  0.3833
 6632SOL    HW131529   3.394   0.240   4.515 -0.9541  0.7966  0.9808
 6632SOL    HW231530   3.251   0.237   4.490  0.7133 -0.4294 -1.8050
 6633SOL     OW31531   0.188   4.488   7.029 -0.1596 -0.1628  0.4552
 6633SOL    HW131532   0.271   4.464   6.987  0.8850  3.3135  0.5150
 6633SOL    HW231533   0.169   4.570   6.984 -2.1673  1.2054  3.7904
 6634SOL     OW31534   3.296   0.167   7.226  0.1877  0.4115 -0.6784
 6634SOL    HW131535   3.237   0.233   7.261 -1.3628 -0.7173 -1.1224
 6634SOL    HW231536   3.270   0.091   7.279 -1.3363  0.7031 -0.9967
 6635SOL     OW31537   0.972   3.854  13.245 -0.5615 -0.4217  0.7358
 6635SOL    HW131538   0.900   3.918  13.250 -0.1746 -0.0351  1.4140
 6635SOL    HW231539   1.008   3.863  13.334  0.2540  1.8472  0.1778
 6636SOL     OW31540   3.646   4.293   6.371 -0.3443 -0.0182  0.6032
 6636SOL    HW131541   3.735   4.328   6.377 -0.1081 -0.4429 -0.4869
 6636SOL    HW231542   3.620   4.325   6.457  0.4675  1.3656  0.3304
 6637SOL     OW31543   2.902   4.157   7.190  0.5793  0.5601  0.0332
 6637SOL    HW131544   2.860   4.091   7.134 -0.6103  1.7431 -0.4663
 6637SOL    HW231545   2.837   4.176   7.257 -0.4011  1.0958 -1.0683
 6638SOL     OW31546   0.669   1.798   8.812  0.3861  0.2932 -0.0451
 6638SOL    HW131547   0.656   1.711   8.775 -2.5411  0.2362  1.1040
 6638SOL    HW231548   0.615   1.862   8.765 -0.8847 -0.4193  0.4480
 6639SOL     OW31549   4.058   4.680  13.749  0.1971  0.6242 -0.1374
 6639SOL    HW131550   4.053   0.020  13.809  0.4883  1.4883 -1.1707
 6639SOL    HW231551   4.150   4.684  13.723 -0.2787  2.5554 -1.5635
 6640SOL     OW31552   2.480   2.253   8.318 -0.1587  0.0244 -0.2851
 6640SOL    HW131553   2.447   2.218   8.400  0.7298  0.5304  0.2771
 6640SOL    HW231554   2.421   2.208   8.257  0.2767  0.9972 -1.4339
 6641SOL     OW31555   2.167   2.377   4.824  0.6230  0.0090  0.2097
 6641SOL    HW131556   2.080   2.389   4.861  1.1877  1.8456  0.9268
 6641SOL    HW231557   2.163   2.379   4.728 -1.5726 -2.1140  0.2551
 6642SOL     OW31558   3.772   0.663   0.836  0.0928 -0.0506 -0.3318
 6642SOL    HW131559   3.807   0.593   0.890  0.2542  0.9381  0.8450
 6642SOL    HW231560   3.853   0.687   0.790 -0.2055  0.7364 -0.4460
 6643SOL     OW31561   0.927   1.182   4.304  0.3222  0.0301 -0.7644
 6643SOL    HW131562   0.892   1.244   4.239 -1.3282  0.1185  0.1979
 6643SOL    HW231563   0.859   1.190   4.371 -1.4431 -2.4256 -2.2515
 6644SOL     OW31564   1.000   1.219   7.547  0.3791 -0.3817 -0.1390
 6644SOL    HW131565   1.029   1.136   7.584  0.1977  0.3792  1.6796
 6644SOL    HW231566   1.007   1.275   7.623  1.0933 -0.4904 -0.1252
 6645SOL     OW31567   1.190   2.716   8.844 -0.4374 -0.1042  0.7164
 6645SOL    HW131568   1.115   2.671   8.803  0.4683 -0.9829  0.0243
 6645SOL    HW231569   1.256   2.651   8.821  0.4752  0.9312  0.4186
 6646SOL     OW31570   0.860   4.017   5.440  0.1982 -0.6458 -0.0809
 6646SOL    HW131571   0.795   4.080   5.408  2.4337  1.5694 -0.2894
 6646SOL    HW231572   0.848   3.938   5.388 -1.8335 -1.2980  1.3597
 6647SOL     OW31573   4.308   0.346   8.584  0.4848  0.2098  0.0750
 6647SOL    HW131574   4.234   0.405   8.570 -2.4952 -3.8024 -1.1729
 6647SOL    HW231575   4.284   0.270   8.531  0.5929  0.6404 -0.5817
 6648SOL     OW31576   2.450   2.552  11.710  0.1211 -0.0680 -0.5189
 6648SOL    HW131577   2.530   2.593  11.743  0.1317  0.0638 -0.7028
 6648SOL    HW231578   2.496   2.526  11.629  0.7732 -1.4610  0.3074
 6649SOL     OW31579   4.073   2.563   7.549 -0.1314 -0.2015  0.0824
 6649SOL    HW131580   4.093   2.472   7.528 -1.4976 -0.3568 -0.5248
 6649SOL    HW231581   3.980   2.555   7.529 -0.0407  1.5026 -1.0498
 6650SOL     OW31582   4.212   2.800   1.268  0.2382  0.2181 -0.6932
 6650SOL    HW131583   4.195   2.723   1.322  1.9959 -0.7800 -1.5560
 6650SOL    HW231584   4.220   2.754   1.185 -0.1266  1.9014 -1.6561
 6651SOL     OW31585   2.520   4.248   1.305 -0.3239 -0.2296 -0.0701
 6651SOL    HW131586   2.491   4.232   1.394  3.9361  1.2142  1.6148
 6651SOL    HW231587   2.548   4.337   1.327 -0.8526 -0.9134  3.2234
 6652SOL     OW31588   2.683   0.498   5.131  0.3884 -0.3521  0.3340
 6652SOL    HW131589   2.660   0.479   5.222 -2.4134 -0.2397 -0.3471
 6652SOL    HW231590   2.737   0.574   5.155  0.7966 -0.4594 -0.2516
 6653SOL     OW31591   1.178   0.209   0.666 -0.3853 -0.0397 -0.0540
 6653SOL    HW131592   1.203   0.146   0.734  0.7364 -0.3320 -0.7311
 6653SOL    HW231593   1.103   0.164   0.626 -0.2298  0.0309 -0.4264
 6654SOL     OW31594   0.294   3.625  13.753 -0.3976 -0.2125 -0.5138
 6654SOL    HW131595   0.379   3.670  13.748 -0.6839  0.3571 -0.2643
 6654SOL    HW231596   0.305   3.549  13.810 -0.2649 -1.1139 -1.7329
 6655SOL     OW31597   3.317   1.630   7.409 -0.0614 -0.0720  0.1759
 6655SOL    HW131598   3.395   1.677   7.440  0.8636 -1.5587  0.1085
 6655SOL    HW231599   3.303   1.564   7.478  2.0122  0.6941  1.3421
 6656SOL     OW31600   2.869   0.708  14.362 -0.2775 -0.3795 -0.4331
 6656SOL    HW131601   2.846   0.736  14.450 -0.8715 -0.2282 -0.6373
 6656SOL    HW231602   2.950   0.758  14.351 -0.9003  0.3789 -1.5039
 6657SOL     OW31603   1.183   1.969   9.047  0.0191 -0.1450  0.0985
 6657SOL    HW131604   1.127   1.956   8.970  0.0492  2.9409 -0.4449
 6657SOL    HW231605   1.226   2.053   9.029 -0.0148  0.0930  1.1650
 6658SOL     OW31606   4.236   3.441  15.463  0.1652  0.1611  0.7666
 6658SOL    HW131607   4.181   3.512  15.494 -0.3439 -0.1424  0.5690
 6658SOL    HW231608   4.227   3.463  15.370  2.2866 -4.9254 -0.6765
 6659SOL     OW31609   0.374   1.051  16.783 -0.2309 -0.4540 -0.1303
 6659SOL    HW131610   0.383   1.117  16.852  0.5546  1.9668 -2.5753
 6659SOL    HW231611   0.467   1.045  16.765  0.3463 -2.0358  3.3180
 6660SOL     OW31612   3.613   1.225   6.583  0.7735 -0.2322 -0.4185
 6660SOL    HW131613   3.546   1.259   6.643 -0.4200 -3.0970 -0.1250
 6660SOL    HW231614   3.665   1.188   6.654  0.5244 -0.8329 -0.5473
 6661SOL     OW31615   3.742   3.090   7.250 -0.5875  0.6203 -0.5151
 6661SOL    HW131616   3.816   3.149   7.267  0.6797 -0.9482 -0.6138
 6661SOL    HW231617   3.676   3.155   7.274 -1.0185 -0.8174  2.2607
 6662SOL     OW31618   2.964   2.037   2.281 -0.3769 -0.2764 -0.3847
 6662SOL    HW131619   2.872   2.044   2.308 -0.9586 -0.9290 -2.2631
 6662SOL    HW231620   2.968   1.942   2.277 -0.1021 -0.2399 -0.8346
 6663SOL     OW31621   4.439   2.047   7.337 -0.2399 -0.0165  0.4090
 6663SOL    HW131622   4.489   2.116   7.293 -0.6756  0.9074  1.3667
 6663SOL    HW231623   4.509   2.001   7.385  0.7036  1.1683  0.1699
 6664SOL     OW31624   2.898   4.014  11.088  0.0207  0.2128  0.0035
 6664SOL    HW131625   2.963   4.070  11.129  0.4828  0.2777 -0.8079
 6664SOL    HW231626   2.898   3.941  11.149  1.2933  0.1828 -0.0342
 6665SOL     OW31627   2.328   4.725   5.487 -0.7067  0.4225  0.1972
 6665SOL    HW131628   2.239   4.695   5.506 -1.3424  1.6424 -0.8517
 6665SOL    HW231629   2.326   4.722   5.392 -2.4466 -0.1385  0.2605
 6666SOL     OW31630   3.013   0.858   4.199  0.0335 -0.5762 -0.3516
 6666SOL    HW131631   3.107   0.844   4.204 -0.0804 -0.2187  2.9637
 6666SOL    HW231632   2.976   0.770   4.202 -0.0043 -0.5977 -1.6792
 6667SOL     OW31633   3.348   3.886   2.416 -0.1689 -0.1049 -0.0702
 6667SOL    HW131634   3.310   3.800   2.401  1.4623 -0.8517  0.0541
 6667SOL    HW231635   3.376   3.908   2.327 -1.0906  1.0815 -0.0641
 6668SOL     OW31636   4.018   3.639  10.375 -0.4605  0.3663 -0.7914
 6668SOL    HW131637   4.044   3.555  10.413  1.1021  2.0073  1.7769
 6668SOL    HW231638   3.938   3.659  10.423  0.0307  1.6115 -0.5038
 6669SOL     OW31639   4.362   4.120   5.057 -0.0230  0.4018  0.0246
 6669SOL    HW131640   4.283   4.135   5.109 -0.6719 -2.9437  0.0037
 6669SOL    HW231641   4.342   4.046   5.000  2.3372 -0.9126  0.8881
 6670SOL     OW31642   2.082   3.035   8.716 -0.3999 -0.4130 -0.0661
 6670SOL    HW131643   2.016   3.064   8.779 -0.2127  0.3046 -0.2104
 6670SOL    HW231644   2.088   2.941   8.736  2.4731 -0.0643  0.5423
 6671SOL     OW31645   2.975   3.003   0.067 -0.3419  0.4066  0.3971
 6671SOL    HW131646   3.031   2.959   0.003  1.3336 -1.3441  3.0120
 6671SOL    HW231647   2.892   2.966   0.036 -0.1326 -1.6497  2.2540
 6672SOL     OW31648   1.331   0.847   2.311 -0.4013  0.1437  0.4636
 6672SOL    HW131649   1.404   0.899   2.343 -0.3563 -0.9071  2.0765
 6672SOL    HW231650   1.251   0.871   2.358 -1.1440 -1.4794  0.0550
 6673SOL     OW31651   2.836   4.565   2.176 -0.6047 -0.6349  0.0966
 6673SOL    HW131652   2.815   4.570   2.270 -2.5796 -1.2641 -0.3126
 6673SOL    HW231653   2.778   4.633   2.143 -2.0603 -1.2681  1.3848
 6674SOL     OW31654   0.934   0.635   7.557  0.3315  0.6421 -0.1608
 6674SOL    HW131655   0.966   0.546   7.539 -0.9718  0.2713 -0.6575
 6674SOL    HW231656   0.880   0.624   7.636  0.4910  1.1446  0.0156
 6675SOL     OW31657   0.488   3.944   5.256  0.6526 -0.0973  0.0151
 6675SOL    HW131658   0.475   3.951   5.350  0.9871  2.8585 -0.1735
 6675SOL    HW231659   0.433   4.015   5.222  0.7129 -0.6422 -1.2357
 6676SOL     OW31660   4.530   1.506   5.005  0.0446  0.1191  0.0732
 6676SOL    HW131661   4.437   1.498   4.986  0.1120 -0.3946 -0.0376
 6676SOL    HW231662   4.545   1.600   4.995  0.2155  0.0529 -0.2683
 6677SOL     OW31663   0.821   1.704   7.342  0.4662 -0.0047  0.0593
 6677SOL    HW131664   0.840   1.787   7.299 -0.8503 -0.4613 -1.4087
 6677SOL    HW231665   0.904   1.698   7.389 -0.1234  0.0576  1.1138
 6678SOL     OW31666   0.501   1.774   7.080 -0.0314 -0.3684 -0.1817
 6678SOL    HW131667   0.455   1.824   7.013  0.5456  1.2973  0.6545
 6678SOL    HW231668   0.424   1.733   7.119 -0.8268  0.9831 -0.3474
 6679SOL     OW31669   0.682   2.145   8.972  0.3816 -0.2563 -0.0135
 6679SOL    HW131670   0.775   2.164   8.969  1.0725 -3.3706  1.3008
 6679SOL    HW231671   0.692   2.070   9.031  0.5406 -0.8620 -0.8232
 6680SOL     OW31672   4.530   3.207   6.219 -0.1652 -0.2535 -0.4799
 6680SOL    HW131673   4.439   3.178   6.210 -0.1801 -1.0964  2.4094
 6680SOL    HW231674   4.559   3.160   6.297  1.1876  0.8778 -0.3162
 6681SOL     OW31675   4.451   1.421   9.779 -0.0949  0.1109 -0.1403
 6681SOL    HW131676   4.429   1.453   9.691  2.5629  1.7272 -0.2066
 6681SOL    HW231677   4.474   1.331   9.757  0.4198  0.2148 -0.0186
 6682SOL     OW31678   3.267   3.521   6.987 -0.1435  0.2359  0.1384
 6682SOL    HW131679   3.310   3.473   6.915  2.1012 -0.2979  1.8229
 6682SOL    HW231680   3.183   3.531   6.943  0.4376  1.6063 -0.6357
 6683SOL     OW31681   3.075   2.051   7.279 -0.0280  0.3031  0.2975
 6683SOL    HW131682   3.150   2.035   7.336  0.0526  0.7080  0.3094
 6683SOL    HW231683   3.026   1.974   7.307 -0.2726 -0.3333 -1.8594
 6684SOL     OW31684   2.389   1.441   6.479  0.1285 -0.0092  0.0563
 6684SOL    HW131685   2.381   1.524   6.433  1.7831  0.7035  1.0890
 6684SOL    HW231686   2.302   1.408   6.503  0.5831 -1.1683  0.1202
 6685SOL     OW31687   1.790   0.417   0.882  0.1483  0.1247  0.0889
 6685SOL    HW131688   1.848   0.468   0.825 -0.7132  1.8156  0.7256
 6685SOL    HW231689   1.833   0.435   0.966  0.8727 -2.3190  0.2285
 6686SOL     OW31690   0.024   2.758   2.490  0.2847  0.3997  0.6801
 6686SOL    HW131691   0.071   2.754   2.573  0.6919 -0.4578  0.4073
 6686SOL    HW231692   0.053   2.841   2.454  0.4174  0.2226  0.3810
 6687SOL     OW31693   1.719   1.494   3.829 -0.5701  0.7112 -0.3025
 6687SOL    HW131694   1.666   1.563   3.869 -0.7645  1.5118 -1.9679
 6687SOL    HW231695   1.802   1.498   3.877  0.4302  0.3253 -2.0192
 6688SOL     OW31696   0.114   4.246  11.852 -0.0297 -0.1752  0.1158
 6688SOL    HW131697   0.160   4.167  11.881 -1.0617 -0.1680  1.7698
 6688SOL    HW231698   0.185   4.294  11.809  0.0151 -0.0529  0.3269
 6689SOL     OW31699   2.763   0.997   7.435  0.3739 -0.3698  0.1211
 6689SOL    HW131700   2.690   0.983   7.375 -0.7963 -0.6996  1.6443
 6689SOL    HW231701   2.715   1.044   7.502  0.7116 -0.1611  0.2142
 6690SOL     OW31702   1.158   1.421   9.710  0.3664 -0.3045 -0.6167
 6690SOL    HW131703   1.146   1.488   9.778  0.3254 -0.8115 -0.1262
 6690SOL    HW231704   1.098   1.457   9.644  0.3576 -1.9030 -1.4654
 6691SOL     OW31705   3.937   3.431   6.421 -0.0652  0.2995  0.1700
 6691SOL    HW131706   3.947   3.492   6.348 -1.6122  0.9040  0.4780
 6691SOL    HW231707   3.844   3.437   6.442 -0.3654  0.8931 -1.2897
 6692SOL     OW31708   2.650   4.224   7.433  0.2866 -0.1444  0.2715
 6692SOL    HW131709   2.602   4.263   7.506 -0.0800 -3.0113  1.5416
 6692SOL    HW231710   2.583   4.164   7.403  0.3044 -0.1037  0.1512
 6693SOL     OW31711   0.559   3.726   3.489  0.6264  0.8624 -0.2607
 6693SOL    HW131712   0.634   3.751   3.434 -1.2190  0.6596 -2.9039
 6693SOL    HW231713   0.601   3.659   3.541  0.8062  0.1856 -1.2728
 6694SOL     OW31714   1.966   3.877   2.298  0.0038  0.4027  0.2255
 6694SOL    HW131715   2.004   3.952   2.253  0.7346  0.7247  1.3784
 6694SOL    HW231716   1.880   3.871   2.255 -1.4725  2.0102  2.9431
 6695SOL     OW31717   4.120   2.723   2.295  0.3017  0.2332 -0.0562
 6695SOL    HW131718   4.039   2.711   2.246 -0.1482  0.0943  0.7161
 6695SOL    HW231719   4.084   2.754   2.379 -1.9673 -0.6337 -0.7068
 6696SOL     OW31720   2.978   2.362   5.656 -0.1622 -0.6667 -0.1233
 6696SOL    HW131721   2.958   2.287   5.711  2.1060 -0.9203  0.3403
 6696SOL    HW231722   2.958   2.331   5.568 -2.4948 -0.5606  0.3669
 6697SOL     OW31723   0.160   2.547   1.312 -0.0862 -0.1460  0.2197
 6697SOL    HW131724   0.228   2.610   1.336  0.4166 -0.4621 -0.3842
 6697SOL    HW231725   0.080   2.584   1.350 -0.4384 -0.6455 -0.0349
 6698SOL     OW31726   3.860   1.355   9.844  0.5818  0.0948 -1.1477
 6698SOL    HW131727   3.823   1.433   9.886  4.6648  1.8023 -0.6621
 6698SOL    HW231728   3.837   1.371   9.752 -0.7415  0.0962 -0.8154
 6699SOL     OW31729   1.916   2.188  12.385 -0.2532  0.3138 -0.3004
 6699SOL    HW131730   1.936   2.271  12.343 -2.1997  0.8494 -0.1580
 6699SOL    HW231731   2.004   2.163  12.411 -0.0866  1.6904  0.4936
 6700SOL     OW31732   1.626   1.112  12.272 -0.1364 -0.4830  0.2062
 6700SOL    HW131733   1.674   1.047  12.323 -0.5220 -1.3686 -0.5602
 6700SOL    HW231734   1.691   1.183  12.278 -2.0329  1.3950 -1.1972
 6701SOL     OW31735   0.352   4.403   8.722  0.7072 -0.3571  0.4724
 6701SOL    HW131736   0.431   4.452   8.703  0.7600 -0.7037 -0.1882
 6701SOL    HW231737   0.294   4.478   8.711 -0.5895 -1.2447  1.1552
 6702SOL     OW31738   1.591   1.977   5.354  0.3315  1.0463  0.3342
 6702SOL    HW131739   1.518   2.030   5.322 -1.1795 -1.0229  0.2908
 6702SOL    HW231740   1.636   1.943   5.277  1.5963  0.3060  1.4135
 6703SOL     OW31741   3.682   1.781   9.101 -0.4667  0.5599  0.1775
 6703SOL    HW131742   3.669   1.832   9.181  0.7523  0.7606  0.2507
 6703SOL    HW231743   3.743   1.838   9.053 -0.3657 -1.0326 -1.5976
 6704SOL     OW31744   3.431   1.776  13.335  0.0310 -0.1081  0.3938
 6704SOL    HW131745   3.486   1.842  13.378 -0.2562 -0.1026  0.7570
 6704SOL    HW231746   3.378   1.750  13.411  1.8801  1.1617  2.1133
 6705SOL     OW31747   4.533   3.223   8.402 -0.4958 -0.5772  0.3510
 6705SOL    HW131748   4.471   3.212   8.475 -0.4845 -0.1316  0.4269
 6705SOL    HW231749   4.479   3.278   8.345  0.4313 -0.1186 -0.0858
 6706SOL     OW31750   1.202   1.413   3.353 -0.3479 -0.8337 -0.0465
 6706SOL    HW131751   1.161   1.488   3.310 -1.5784 -1.4857 -0.0024
 6706SOL    HW231752   1.153   1.409   3.435 -0.5429 -1.7192 -0.2168
 6707SOL     OW31753   3.813   2.005   2.781  0.4771  0.5699 -0.0376
 6707SOL    HW131754   3.853   1.923   2.755  1.0599  1.1474 -0.9435
 6707SOL    HW231755   3.831   2.051   2.699  2.5169 -1.3563 -0.6523
 6708SOL     OW31756   1.105   0.837   9.822 -0.2804  0.3837  0.0501
 6708SOL    HW131757   1.067   0.793   9.746  0.6290 -2.0746  1.0331
 6708SOL    HW231758   1.047   0.831   9.897 -2.7710  3.1331 -1.6331
 6709SOL     OW31759   2.088   3.315   9.100  0.4028 -0.2299 -0.2598
 6709SOL    HW131760   2.082   3.362   9.183  0.0347  0.3465 -0.6124
 6709SOL    HW231761   2.036   3.236   9.118 -2.1826  1.2068 -1.4775
 6710SOL     OW31762   3.416   1.067   9.050 -0.3971  0.3285  0.4273
 6710SOL    HW131763   3.507   1.041   9.063 -0.2704  0.3527 -0.4822
 6710SOL    HW231764   3.435   1.160   9.040 -0.2228  0.2233 -0.1798
 6711SOL     OW31765   3.325   1.121  14.926 -0.6092 -0.6829 -0.1064
 6711SOL    HW131766   3.368   1.047  14.883 -0.8062 -1.0097  0.2562
 6711SOL    HW231767   3.302   1.178  14.853 -1.1722 -1.0804 -0.2409
 6712SOL     OW31768   3.755   0.634  11.596 -0.4956  0.3207  0.1786
 6712SOL    HW131769   3.808   0.713  11.606 -0.0407  0.1696 -1.0249
 6712SOL    HW231770   3.684   0.664  11.539  0.4187  0.9925 -0.6068
 6713SOL     OW31771   3.803   3.150   1.434  0.2556  0.3044  0.2171
 6713SOL    HW131772   3.841   3.184   1.353 -2.3348  1.4117 -0.5238
 6713SOL    HW231773   3.854   3.192   1.504  0.9210  0.3409 -0.2900
 6714SOL     OW31774   2.414   1.328  11.145  0.3434  0.2935 -0.3912
 6714SOL    HW131775   2.358   1.399  11.112 -1.0858 -1.8220 -2.4648
 6714SOL    HW231776   2.498   1.364  11.115  0.5131  0.6318  0.4849
 6715SOL     OW31777   4.052   2.548   8.089 -0.3997  0.1595  0.7806
 6715SOL    HW131778   4.134   2.546   8.039 -1.7426  0.0903 -1.4400
 6715SOL    HW231779   4.081   2.529   8.178 -1.6883  2.5094  1.7100
 6716SOL     OW31780   2.381   0.159  10.008 -0.4530  0.0911 -0.0050
 6716SOL    HW131781   2.367   0.068  10.033 -0.8570  0.2323  0.2880
 6716SOL    HW231782   2.386   0.200  10.094  0.2795  0.4865 -0.2336
 6717SOL     OW31783   4.360   2.990   5.496  0.4997  0.5113 -0.2192
 6717SOL    HW131784   4.422   3.026   5.559  0.9887  1.6880 -1.3481
 6717SOL    HW231785   4.305   3.065   5.474  0.8645  0.6841 -0.5615
 6718SOL     OW31786   3.221   0.461   5.101 -0.0737 -0.2764  0.4540
 6718SOL    HW131787   3.167   0.491   5.173  0.0752  3.1039 -0.8235
 6718SOL    HW231788   3.163   0.469   5.025 -0.0147 -3.1391  0.1080
 6719SOL     OW31789   2.453   3.767  13.273 -0.1163  0.0091 -0.7038
 6719SOL    HW131790   2.469   3.710  13.197 -3.1585 -3.6628  1.4553
 6719SOL    HW231791   2.510   3.735  13.343 -2.4337 -1.2730  0.5597
 6720SOL     OW31792   2.633   0.650  17.467 -0.1224  0.2000 -0.1045
 6720SOL    HW131793   2.620   0.637  17.561 -0.7089  0.3823 -0.1598
 6720SOL    HW231794   2.710   0.706  17.472  0.1743 -0.0960 -1.5163
 6721SOL     OW31795   4.469   3.577   9.280  0.3244 -0.0490 -0.2316
 6721SOL    HW131796   4.380   3.549   9.260  0.2319  0.8736 -1.0890
 6721SOL    HW231797   4.500   3.492   9.312  0.8939  0.6255  1.0365
 6722SOL     OW31798   0.531   1.557   6.777 -0.0787  0.4309  0.3196
 6722SOL    HW131799   0.518   1.636   6.724  0.5088 -0.7324 -1.5528
 6722SOL    HW231800   0.485   1.579   6.858 -0.0705 -3.1678  1.2972
 6723SOL     OW31801   3.850   0.925  15.753 -0.3069 -0.0107  0.2925
 6723SOL    HW131802   3.763   0.930  15.715  0.3348  0.8458 -1.0585
 6723SOL    HW231803   3.859   1.014  15.785 -0.3867  0.3132 -0.5927
 6724SOL     OW31804   1.300   4.604  12.928  0.7182  0.5900 -0.7536
 6724SOL    HW131805   1.251   4.525  12.952 -0.8175  2.1173  1.1784
 6724SOL    HW231806   1.228   4.654  12.891 -0.9222 -1.5378 -0.4694
 6725SOL     OW31807   2.191   3.411  16.460  0.4330 -0.0145 -0.3530
 6725SOL    HW131808   2.248   3.346  16.419 -0.6075 -1.1451 -0.0324
 6725SOL    HW231809   2.196   3.489  16.405  4.0103  1.8226  2.6183
 6726SOL     OW31810   4.647   3.453   5.038  0.3551  0.5210 -0.5183
 6726SOL    HW131811   4.723   3.436   5.094 -1.0978 -1.2643  0.8951
 6726SOL    HW231812   4.619   3.364   5.018 -1.3480  0.2556  3.0787
 6727SOL     OW31813   1.446   0.861  16.611 -0.2092  0.1143 -0.4130
 6727SOL    HW131814   1.455   0.938  16.555  1.8223 -0.4195 -0.8490
 6727SOL    HW231815   1.352   0.847  16.624 -0.3426  0.0282 -1.4604
 6728SOL     OW31816   0.176   2.538   6.370  0.2459 -0.4511 -0.5439
 6728SOL    HW131817   0.210   2.474   6.433 -0.6650 -1.1038 -0.7170
 6728SOL    HW231818   0.258   2.582   6.349 -0.3113  0.4114 -0.9078
 6729SOL     OW31819   0.454   4.717  10.113 -0.1323  0.3254  0.1627
 6729SOL    HW131820   0.461   0.028  10.197 -2.0458 -0.0580  0.5162
 6729SOL    HW231821   0.366   0.008  10.087 -0.7478 -1.7876  0.1942
 6730SOL     OW31822   1.318   1.914   3.877 -0.2696 -0.6762 -0.4525
 6730SOL    HW131823   1.262   1.872   3.943  0.5632  0.9857  1.3039
 6730SOL    HW231824   1.377   1.949   3.944  0.4768  0.1497 -1.5422
 6731SOL     OW31825   4.529   3.968   1.833  0.3254  0.3102 -0.1700
 6731SOL    HW131826   4.605   4.015   1.799  0.5501  0.4294  0.4946
 6731SOL    HW231827   4.467   4.037   1.856  1.4708  1.4120 -0.4162
 6732SOL     OW31828   3.520   3.896   6.216 -0.4458  0.1399  0.0969
 6732SOL    HW131829   3.508   3.912   6.310 -0.0837  1.4316 -0.0836
 6732SOL    HW231830   3.429   3.884   6.187 -0.2871  1.0852 -0.7923
 6733SOL     OW31831   3.708   3.762  12.393 -0.3726 -0.1321  0.3770
 6733SOL    HW131832   3.655   3.701  12.342 -0.1073 -1.3758  1.5850
 6733SOL    HW231833   3.647   3.821  12.435  0.2000  0.1535  0.8060
 6734SOL     OW31834   0.928   3.027   2.370 -0.2292  0.0278 -0.9569
 6734SOL    HW131835   0.883   3.097   2.323 -1.8236 -0.7388 -0.5739
 6734SOL    HW231836   0.931   3.071   2.455 -0.1559 -0.1274 -0.8780
 6735SOL     OW31837   4.260   4.495   6.833  0.1806 -0.3261 -0.2884
 6735SOL    HW131838   4.353   4.519   6.836 -0.0379  0.6874 -1.7538
 6735SOL    HW231839   4.267   4.405   6.865 -3.3597 -0.9174 -1.1771
 6736SOL     OW31840   0.889   1.784  15.356 -0.1581 -0.1266 -0.4835
 6736SOL    HW131841   0.842   1.751  15.433  0.8475 -0.3041  0.0511
 6736SOL    HW231842   0.826   1.794  15.284 -3.5592 -0.7676  2.3874
 6737SOL     OW31843   3.613   3.164  10.403  0.2964 -0.3929 -0.3531
 6737SOL    HW131844   3.539   3.212  10.439 -0.6108 -0.2262 -2.4731
 6737SOL    HW231845   3.683   3.207  10.453  0.9656 -0.3420 -1.3234
 6738SOL     OW31846   1.161   2.985   0.758 -0.2653 -0.0198 -0.0836
 6738SOL    HW131847   1.179   2.997   0.851 -1.8967  0.3426  0.1852
 6738SOL    HW231848   1.091   2.920   0.760 -0.5765  0.1984 -3.0339
 6739SOL     OW31849   0.223   1.731   4.016  0.0011 -0.4480  0.0545
 6739SOL    HW131850   0.272   1.776   3.948  1.1069 -3.2550 -1.0039
 6739SOL    HW231851   0.283   1.749   4.088 -0.8999  0.2082  0.6436
 6740SOL     OW31852   0.505   3.211   7.084 -0.1115 -0.2093 -0.0181
 6740SOL    HW131853   0.482   3.186   6.995 -0.2629  1.9250 -0.5535
 6740SOL    HW231854   0.570   3.145   7.111  2.0482  1.1029 -2.0301
 6741SOL     OW31855   1.200   3.490  13.003 -0.2533  0.6222  0.1714
 6741SOL    HW131856   1.142   3.564  13.019 -0.5839  0.1194  1.2454
 6741SOL    HW231857   1.247   3.478  13.085 -0.3084  0.3758  0.1681
 6742SOL     OW31858   4.606   0.904   3.428  0.0422 -0.3419 -0.0759
 6742SOL    HW131859   4.575   0.819   3.397 -0.6874 -0.6195  1.3907
 6742SOL    HW231860   4.533   0.965   3.416  0.7769  0.1761 -1.8503
 6743SOL     OW31861   3.264   4.413   8.807 -0.6686 -0.2540 -0.1933
 6743SOL    HW131862   3.254   4.421   8.712 -1.9917 -1.5286 -0.1507
 6743SOL    HW231863   3.293   4.322   8.809  1.8204  0.5183 -0.5195
 6744SOL     OW31864   3.817   3.187   0.464  0.1143 -0.3630 -0.5505
 6744SOL    HW131865   3.837   3.240   0.541  0.5121  0.5517 -1.3006
 6744SOL    HW231866   3.779   3.250   0.404  1.8238 -0.4379 -1.7050
 6745SOL     OW31867   1.906   2.886  15.761 -0.0456  0.5537  0.1195
 6745SOL    HW131868   1.849   2.961  15.744 -1.0202 -0.0873  0.5399
 6745SOL    HW231869   1.958   2.870  15.682  0.0164 -0.8141  0.4318
 6746SOL     OW31870   1.866   3.686  17.093  0.3718  0.5449  0.1211
 6746SOL    HW131871   1.845   3.770  17.052 -0.3462 -0.2291 -1.0911
 6746SOL    HW231872   1.894   3.639  17.014  0.9833 -0.4597  0.9436
 6747SOL     OW31873   0.882   4.695   6.857 -0.0905  0.3377 -0.2259
 6747SOL    HW131874   0.966   4.648   6.850  0.1092  0.6261  0.2583
 6747SOL    HW231875   0.855   4.634   6.926  0.5836 -2.1208 -2.1189
 6748SOL     OW31876   2.621   4.081   3.737  0.2702  1.0930  0.4029
 6748SOL    HW131877   2.716   4.082   3.734  0.2864 -2.5221 -0.1562
 6748SOL    HW231878   2.589   4.167   3.766 -0.7640  0.4075  1.3004
 6749SOL     OW31879   1.465   0.720   5.245  0.2495  0.2931  0.3254
 6749SOL    HW131880   1.467   0.805   5.288 -3.5115  1.1773 -1.1939
 6749SOL    HW231881   1.379   0.686   5.271  1.1338 -1.0594  1.5043
 6750SOL     OW31882   4.378   2.475   7.596 -0.3093  0.3219 -0.2816
 6750SOL    HW131883   4.286   2.480   7.568 -0.2512 -0.4718 -0.5845
 6750SOL    HW231884   4.378   2.390   7.640  0.8344  1.2315  1.5128
 6751SOL     OW31885   3.100   3.403   7.472 -0.3635  0.1505 -0.3745
 6751SOL    HW131886   3.108   3.369   7.383  1.8500 -0.1099 -0.0597
 6751SOL    HW231887   3.004   3.393   7.473 -0.2883 -0.4559  0.6465
 6752SOL     OW31888   2.157   0.442   5.080 -0.1090 -1.0923  0.9244
 6752SOL    HW131889   2.201   0.512   5.129 -1.9622  0.5827  0.2230
 6752SOL    HW231890   2.064   0.446   5.103 -0.8589  0.6142 -2.3709
 6753SOL     OW31891   2.650   1.038   8.803 -0.2928  0.2746 -0.6293
 6753SOL    HW131892   2.604   1.121   8.820 -0.2325  0.0707  0.5371
 6753SOL    HW231893   2.666   1.030   8.709  0.4411  0.0395 -0.4783
 6754SOL     OW31894   2.528   2.455   3.201 -0.0626 -0.1031 -0.4054
 6754SOL    HW131895   2.476   2.534   3.212  1.0165  0.6143 -0.3927
 6754SOL    HW231896   2.462   2.394   3.169  0.5131 -1.7726  1.5237
 6755SOL     OW31897   3.331   1.440   6.554 -0.4405  0.0471 -0.3651
 6755SOL    HW131898   3.313   1.484   6.637 -2.0675 -0.2033 -0.5849
 6755SOL    HW231899   3.426   1.456   6.555 -0.6539  1.3767 -3.5365
 6756SOL     OW31900   3.911   3.579   6.170 -0.1991  0.4530  0.0342
 6756SOL    HW131901   3.837   3.634   6.145 -0.5104  0.1963  0.3900
 6756SOL    HW231902   3.965   3.599   6.094 -0.8494  1.4662 -0.1621
 6757SOL     OW31903   4.108   1.934  15.616 -0.2039 -0.0892  0.1467
 6757SOL    HW131904   4.104   1.995  15.542  1.4759 -0.5075 -0.2870
 6757SOL    HW231905   4.112   1.847  15.576 -0.1193  0.5239 -1.1946
 6758SOL     OW31906   2.290   2.535   8.022  0.4289 -0.6861  0.1019
 6758SOL    HW131907   2.313   2.515   8.113  0.6393  0.0602  0.2198
 6758SOL    HW231908   2.311   2.628   8.007 -0.1133 -0.4799  0.6234
 6759SOL     OW31909   2.428   4.239   1.569 -0.3593 -0.5318 -0.6790
 6759SOL    HW131910   2.364   4.172   1.591 -1.0640 -0.0377 -1.2177
 6759SOL    HW231911   2.377   4.317   1.549 -1.8318 -1.5995 -1.0354
 6760SOL     OW31912   1.833   2.473  16.411  0.5356 -0.0267 -0.4170
 6760SOL    HW131913   1.797   2.552  16.451  0.2869  1.5058 -3.7687
 6760SOL    HW231914   1.869   2.505  16.329  0.6360  0.6171 -0.1223
 6761SOL     OW31915   1.690   4.454   9.202  0.6932 -0.2550  0.4597
 6761SOL    HW131916   1.624   4.386   9.192  0.0517  0.5703 -0.8382
 6761SOL    HW231917   1.752   4.425   9.136 -0.3579 -4.5794  1.3996
 6762SOL     OW31918   0.037   0.914   0.705  0.1493  0.1330  0.0934
 6762SOL    HW131919   0.086   0.887   0.627  1.9817  1.0972  0.9185
 6762SOL    HW231920   0.089   0.988   0.735  0.4279  0.3345 -0.8836
 6763SOL     OW31921   1.082   1.737   1.406  0.1037  0.4084 -0.5730
 6763SOL    HW131922   1.023   1.718   1.334  0.3551  0.7487 -0.8674
 6763SOL    HW231923   1.027   1.793   1.461  1.1244  0.2773  0.5975
 6764SOL     OW31924   0.292   4.244   2.397  0.0626  0.1574  0.1633
 6764SOL    HW131925   0.387   4.236   2.396  0.1224  0.8747  0.0473
 6764SOL    HW231926   0.267   4.193   2.321  2.4472  0.2160 -0.6336
 6765SOL     OW31927   3.808   0.581   0.532  0.0910  0.2777  0.2949
 6765SOL    HW131928   3.849   0.557   0.615  1.8185 -0.2915 -0.7150
 6765SOL    HW231929   3.717   0.582   0.562 -0.2511  1.0873 -0.7564
 6766SOL     OW31930   1.331   1.346   4.920 -0.0877  0.2641  0.2709
 6766SOL    HW131931   1.262   1.309   4.976 -0.9610  1.5030  0.0191
 6766SOL    HW231932   1.384   1.267   4.928 -0.5203 -0.0614 -0.0130
 6767SOL     OW31933   0.574   1.906  11.361  0.3502 -0.1472 -0.9140
 6767SOL    HW131934   0.511   1.850  11.315  0.1464  1.1153 -2.1678
 6767SOL    HW231935   0.587   1.976  11.296 -0.0632 -1.2239 -2.1665
 6768SOL     OW31936   2.228   3.439   0.511  0.1966  0.0158  0.0185
 6768SOL    HW131937   2.210   3.523   0.554  0.1647 -0.3275  0.6744
 6768SOL    HW231938   2.246   3.387   0.589  1.2221  1.7177  0.9232
 6769SOL     OW31939   4.041   0.310  16.650 -0.1843  0.2252  0.6625
 6769SOL    HW131940   4.082   0.232  16.612  1.3449  0.0206  2.7517
 6769SOL    HW231941   4.110   0.376  16.655 -0.0837 -0.0399  2.8899
 6770SOL     OW31942   3.959   4.164   8.544 -0.1355  0.6478  0.0237
 6770SOL    HW131943   3.920   4.231   8.487  0.8263  1.3351  0.1800
 6770SOL    HW231944   3.888   4.100   8.545 -0.0401  0.5344 -1.1774
 6771SOL     OW31945   1.616   2.415   1.474  0.1147 -0.2802  0.2345
 6771SOL    HW131946   1.610   2.492   1.418  0.2598 -0.0850  0.4842
 6771SOL    HW231947   1.643   2.452   1.558  0.8427  0.1957 -0.2079
 6772SOL     OW31948   4.388   3.785  16.835 -0.3934  0.1424  0.6387
 6772SOL    HW131949   4.320   3.728  16.799  0.1166 -0.2159  0.2468
 6772SOL    HW231950   4.404   3.746  16.921 -0.9928 -1.3726  0.0619
 6773SOL     OW31951   0.237   4.655  15.688 -0.5063  0.5612  0.0805
 6773SOL    HW131952   0.307   4.721  15.686 -0.7600  0.8219 -0.3680
 6773SOL    HW231953   0.279   4.603  15.756  0.1536  1.5432  0.4393
 6774SOL     OW31954   1.098   1.091   5.508 -0.3673  0.3245 -0.7203
 6774SOL    HW131955   1.134   1.147   5.440 -0.2625 -0.1722 -1.0732
 6774SOL    HW231956   1.024   1.062   5.455 -0.9666 -0.2492  0.4324
 6775SOL     OW31957   0.791   1.555   2.830 -0.0214  0.0770 -0.4464
 6775SOL    HW131958   0.703   1.519   2.826 -0.6830  1.6059  0.4180
 6775SOL    HW231959   0.836   1.485   2.877 -0.7940 -0.4565 -0.5062
 6776SOL     OW31960   1.425   1.091  14.789  0.7439  0.3584  0.7418
 6776SOL    HW131961   1.406   1.148  14.863 -0.4906  0.4926  0.3306
 6776SOL    HW231962   1.403   1.148  14.715 -2.2144 -3.5314 -1.4157
 6777SOL     OW31963   4.663   2.661   3.151  0.5132 -0.5629  0.0694
 6777SOL    HW131964   4.695   2.571   3.145  1.2859 -0.2906  0.0572
 6777SOL    HW231965   4.682   2.692   3.063  1.0228  3.5640  1.6555
 6778SOL     OW31966   0.772   3.849  13.842  0.0515  0.0492 -0.4910
 6778SOL    HW131967   0.775   3.913  13.913  2.0310 -3.3394  2.4824
 6778SOL    HW231968   0.794   3.902  13.765  0.3467  0.1706 -0.3218
 6779SOL     OW31969   0.858   2.374   6.551  0.1436 -0.3859  0.5040
 6779SOL    HW131970   0.861   2.402   6.642  2.3979  0.9070  0.0325
 6779SOL    HW231971   0.886   2.457   6.512 -0.0986  0.0111  1.1955
 6780SOL     OW31972   1.120   3.969   9.742 -0.1912 -0.5837  0.5032
 6780SOL    HW131973   1.130   4.023   9.664 -0.1801 -0.3263  0.6842
 6780SOL    HW231974   1.173   4.009   9.812  1.1897  2.1580 -2.1116
 6781SOL     OW31975   0.004   0.645  13.071  0.2745  0.2222 -0.2935
 6781SOL    HW131976   4.698   0.706  13.009  2.5512  1.3038 -0.7053
 6781SOL    HW231977   4.677   0.659  13.143  2.3777 -1.1168  1.7673
 6782SOL     OW31978   1.539   3.738   8.411 -0.0080 -0.2767 -0.3540
 6782SOL    HW131979   1.523   3.823   8.452  0.5525 -1.6844  2.8572
 6782SOL    HW231980   1.612   3.756   8.352 -2.0874 -1.3925 -3.2591
 6783SOL     OW31981   2.749   1.366  16.201 -0.2542 -0.5486 -0.0224
 6783SOL    HW131982   2.722   1.420  16.275 -1.9884 -0.3159 -0.8195
 6783SOL    HW231983   2.685   1.392  16.135 -1.5604  0.7817  1.7399
 6784SOL     OW31984   1.249   0.840   6.326 -0.3543  0.2736  0.6281
 6784SOL    HW131985   1.285   0.790   6.400  2.8283 -0.8003 -1.6537
 6784SOL    HW231986   1.158   0.842   6.357 -0.3802  0.6111  0.5298
 6785SOL     OW31987   1.759   1.423   6.865  0.2564 -0.0311  0.5415
 6785SOL    HW131988   1.690   1.417   6.799 -0.6120  0.1292  1.4363
 6785SOL    HW231989   1.733   1.361   6.933  0.5573 -0.1087  0.5849
 6786SOL     OW31990   3.724   3.418  10.037  0.0072  0.1757 -0.7411
 6786SOL    HW131991   3.668   3.496  10.036 -0.2144  0.0326  0.4012
 6786SOL    HW231992   3.738   3.391  10.127 -1.9698 -2.2451 -1.1668
 6787SOL     OW31993   3.477   0.852   7.439 -0.3592  0.6118  0.2383
 6787SOL    HW131994   3.503   0.936   7.477 -0.7190  1.0104 -0.3815
 6787SOL    HW231995   3.498   0.863   7.346 -1.6856  1.4589  0.0381
 6788SOL     OW31996   0.903   4.364   0.950 -0.3728  0.7897  0.0435
 6788SOL    HW131997   0.940   4.284   0.915 -1.7520 -0.1024  0.6239
 6788SOL    HW231998   0.926   4.423   0.878  3.0496  0.0025  0.4762
 6789SOL     OW31999   4.567   4.542   5.701 -0.0032 -0.1763  0.2089
 6789SOL    HW132000   4.583   4.467   5.759  0.0785 -0.8441 -0.6892
 6789SOL    HW232001   4.508   4.501   5.638 -0.0806  1.2124 -0.6185
 6790SOL     OW32002   2.523   2.108   3.979 -0.1514 -0.0009 -0.2195
 6790SOL    HW132003   2.528   2.033   4.038  1.4967 -0.3198 -0.7709
 6790SOL    HW232004   2.569   2.071   3.904 -0.0536  1.9244 -1.0867
 6791SOL     OW32005   1.643   3.334   6.024  0.1925 -0.1673 -0.7236
 6791SOL    HW132006   1.553   3.359   6.003  0.4811  0.6488 -0.9982
 6791SOL    HW232007   1.630   3.240   6.039  1.5429 -0.5903 -2.2558
 6792SOL     OW32008   2.573   1.156   7.577 -0.3100 -0.3283  0.0241
 6792SOL    HW132009   2.549   1.182   7.488  2.5105 -0.5968 -0.7987
 6792SOL    HW232010   2.535   1.228   7.627 -0.3430 -0.8968  0.8144
 6793SOL     OW32011   2.136   0.091   0.728 -0.2125 -0.1260  0.1187
 6793SOL    HW132012   2.042   0.088   0.745 -0.0140 -1.1684  1.0813
 6793SOL    HW232013   2.142   0.043   0.646  1.2728  2.7342 -1.4275
 6794SOL     OW32014   4.661   4.425   7.086  0.3530  0.2165  0.4933
 6794SOL    HW132015   0.012   4.463   7.063 -0.1958  1.0587 -0.1490
 6794SOL    HW232016   4.690   4.340   7.119  1.1415  0.0152 -0.6900
 6795SOL     OW32017   0.295   1.660  11.464 -0.3629  0.2358  0.2912
 6795SOL    HW132018   0.362   1.623  11.521  0.1193  2.6765  1.3127
 6795SOL    HW232019   0.337   1.698  11.386  0.2706 -1.6509 -0.2931
 6796SOL     OW32020   1.120   1.734  12.124  0.0868  0.0868  0.3532
 6796SOL    HW132021   1.124   1.722  12.219  2.6172 -0.6029  0.1529
 6796SOL    HW232022   1.036   1.780  12.113  0.8305  1.1984 -0.6543
 6797SOL     OW32023   0.033   2.859   3.653 -0.5973 -0.5219 -0.7405
 6797SOL    HW132024   4.730   2.778   3.619 -2.0608 -0.9023  1.7619
 6797SOL    HW232025   0.005   2.930   3.595 -1.4255 -0.4936 -0.3123
 6798SOL     OW32026   2.874   1.853   7.340 -1.0988  0.5270  0.2011
 6798SOL    HW132027   2.779   1.843   7.344 -1.2968  3.7860  3.6752
 6798SOL    HW232028   2.889   1.834   7.433 -0.3591  1.8663  0.3510
 6799SOL     OW32029   1.995   0.101   3.012 -0.0962 -0.1944  0.1247
 6799SOL    HW132030   1.990   0.086   2.918  1.0822 -2.3305  0.3954
 6799SOL    HW232031   1.986   0.013   3.049 -1.0113 -0.3655 -0.5275
 6800SOL     OW32032   0.613   0.937   4.939  0.4475  0.3317 -0.0309
 6800SOL    HW132033   0.678   0.895   4.882  0.6984  0.5535  0.0906
 6800SOL    HW232034   0.648   0.913   5.024  2.1606  4.5245  0.4401
 6801SOL     OW32035   0.786   3.262   4.569  0.3373 -0.0908  0.4876
 6801SOL    HW132036   0.879   3.246   4.588  0.4299  0.9998  0.9894
 6801SOL    HW232037   0.759   3.322   4.639 -0.2535 -0.3233  0.4537
 6802SOL     OW32038   0.082   0.511   2.907 -0.6263 -0.0784  0.3999
 6802SOL    HW132039   0.174   0.516   2.882 -0.8941  0.5247 -0.4756
 6802SOL    HW232040   0.077   0.599   2.945 -1.4496 -0.6672  1.6739
 6803SOL     OW32041   4.020   4.611   5.164  0.1918 -0.8400 -0.9097
 6803SOL    HW132042   3.974   4.566   5.093 -2.9989  2.9276 -1.1992
 6803SOL    HW232043   4.037   4.538   5.224 -2.1973 -0.8880 -0.2877
 6804SOL     OW32044   3.012   1.774   2.244 -0.2696 -0.6693  0.1472
 6804SOL    HW132045   2.934   1.736   2.204 -0.7933  0.5176  0.0615
 6804SOL    HW232046   3.078   1.710   2.215 -0.6621  0.4825 -3.2002
 6805SOL     OW32047   2.521   4.592   7.798 -0.5226 -0.1404  0.0788
 6805SOL    HW132048   2.525   4.685   7.773 -1.4227 -0.2073 -0.3147
 6805SOL    HW232049   2.505   4.609   7.891  2.1519  1.8695  0.1807
 6806SOL     OW32050   0.676   2.970   9.276  0.0429 -0.0643 -0.0768
 6806SOL    HW132051   0.767   2.963   9.304 -0.3561 -3.1993  0.4325
 6806SOL    HW232052   0.637   3.028   9.342  1.2698  0.4270  0.2308
 6807SOL     OW32053   4.031   1.624   6.846  0.2597  0.3374  0.5288
 6807SOL    HW132054   4.097   1.685   6.812 -1.0824  0.1393 -2.4424
 6807SOL    HW232055   3.982   1.681   6.905  0.4422  1.0314  0.0055
 6808SOL     OW32056   0.790   2.744   5.978 -0.0703  0.0282 -0.5702
 6808SOL    HW132057   0.826   2.827   5.948 -1.1184  1.2661  1.5890
 6808SOL    HW232058   0.866   2.686   5.980  0.2812  0.5812  1.5907
 6809SOL     OW32059   4.398   0.022   4.647 -0.6402  0.2022 -0.7048
 6809SOL    HW132060   4.406   4.698   4.722  2.1658  1.4944  0.0018
 6809SOL    HW232061   4.443   0.106   4.662  1.4177 -1.1690  0.8305
 6810SOL     OW32062   2.402   0.223  10.290 -0.2116 -0.0581  0.0563
 6810SOL    HW132063   2.365   0.285  10.353 -0.0426  0.9589 -0.8585
 6810SOL    HW232064   2.441   0.154  10.343 -0.9301 -1.0960 -0.7683
 6811SOL     OW32065   3.959   1.012   9.929  0.8880 -0.1306 -0.0588
 6811SOL    HW132066   4.010   1.088   9.959 -3.2020  2.1697  1.0809
 6811SOL    HW232067   3.937   1.042   9.841 -0.5904  0.1481  0.3948
 6812SOL     OW32068   1.559   2.237   3.021 -0.0653  0.6910  1.1862
 6812SOL    HW132069   1.495   2.237   3.092 -0.8932  0.0692  0.4426
 6812SOL    HW232070   1.613   2.313   3.044 -2.0980  2.2443  0.8450
 6813SOL     OW32071   2.367   1.719   8.145 -0.2446  0.3660 -0.0179
 6813SOL    HW132072   2.423   1.786   8.183 -0.7083 -1.1852  3.4770
 6813SOL    HW232073   2.393   1.637   8.186 -0.6502  1.9923  3.5663
 6814SOL     OW32074   3.125   2.595   8.860  0.5312  0.4655 -0.3154
 6814SOL    HW132075   3.086   2.555   8.782  0.7589 -0.9852  0.3137
 6814SOL    HW232076   3.219   2.577   8.851  0.5135 -0.9738  2.4505
 6815SOL     OW32077   2.402   3.480   6.870  0.4319  0.4616  0.4437
 6815SOL    HW132078   2.387   3.406   6.929 -4.6105  0.5858 -0.6830
 6815SOL    HW232079   2.462   3.433   6.813 -0.8361 -1.1727  0.4415
 6816SOL     OW32080   3.344   1.992   6.852  0.3519  0.3330  0.4822
 6816SOL    HW132081   3.276   1.927   6.867  1.3734 -0.6091  1.0683
 6816SOL    HW232082   3.345   2.041   6.934  2.0060  1.3035 -0.0937
 6817SOL     OW32083   3.363   3.994   6.449  0.3176 -0.4470  0.3920
 6817SOL    HW132084   3.448   4.008   6.491  0.3077  1.1637 -0.1314
 6817SOL    HW232085   3.339   3.918   6.502 -1.9787 -0.2438 -0.3632
 6818SOL     OW32086   0.906   1.408   0.206 -0.2564 -0.2754  0.1436
 6818SOL    HW132087   0.926   1.500   0.219  0.0881 -0.7483  2.8517
 6818SOL    HW232088   0.876   1.408   0.115 -0.4530  2.7484  0.2100
 6819SOL     OW32089   0.879   4.183  11.711 -0.0904 -0.2613 -0.7578
 6819SOL    HW132090   0.856   4.090  11.714 -0.5491 -0.1849 -1.8453
 6819SOL    HW232091   0.857   4.211  11.622  0.5839  0.7424 -0.5965
 6820SOL     OW32092   3.509   2.212  11.531  0.0717 -0.1247  0.0552
 6820SOL    HW132093   3.419   2.188  11.509 -0.4377  0.2806  1.6680
 6820SOL    HW232094   3.540   2.240  11.445 -0.8040  0.7264  0.0204
 6821SOL     OW32095   4.681   0.771   5.805 -0.3855  0.0516 -0.6319
 6821SOL    HW132096   0.036   0.737   5.790 -0.4508  0.2348 -1.4515
 6821SOL    HW232097   4.622   0.696   5.802  0.1380 -0.3225 -1.9924
 6822SOL     OW32098   0.634   2.874   7.655  0.2260  0.5276  0.4592
 6822SOL    HW132099   0.633   2.904   7.565  0.8829  0.2946  0.3718
 6822SOL    HW232100   0.616   2.965   7.679  1.7226  0.0738  3.4085
 6823SOL     OW32101   2.343   1.664  11.894 -0.3601  0.0341  0.2637
 6823SOL    HW132102   2.306   1.737  11.844 -0.2943 -0.4339 -0.4602
 6823SOL    HW232103   2.426   1.654  11.849 -0.0157  2.4729  0.3264
 6824SOL     OW32104   0.425   1.566  11.730  0.0202  0.6378  0.3389
 6824SOL    HW132105   0.475   1.543  11.808 -0.5796 -0.8190  0.2977
 6824SOL    HW232106   0.474   1.644  11.704  0.3816  0.6154  0.9654
 6825SOL     OW32107   0.494   2.906  15.089  0.2153 -1.0189  0.2226
 6825SOL    HW132108   0.443   2.974  15.132 -1.3728 -3.3851  2.1205
 6825SOL    HW232109   0.518   2.848  15.161  1.8559  0.2774  0.6990
 6826SOL     OW32110   1.675   1.251  12.000 -0.3891  0.1321 -0.6013
 6826SOL    HW132111   1.705   1.174  11.953  2.3360  0.3588  0.7559
 6826SOL    HW232112   1.583   1.226  12.007  0.1836 -1.6685  0.5899
 6827SOL     OW32113   3.953   4.046   2.710 -0.6175 -0.0716  0.1027
 6827SOL    HW132114   3.910   4.131   2.705  0.6144  0.5098 -0.8744
 6827SOL    HW232115   3.890   3.989   2.754 -0.4430 -1.3282 -1.2670
 6828SOL     OW32116   1.785   3.501  10.740 -0.4028  0.5318 -0.5512
 6828SOL    HW132117   1.789   3.415  10.781  1.9333  1.0622  0.3437
 6828SOL    HW232118   1.879   3.523  10.737 -0.0808 -0.9672 -1.1275
 6829SOL     OW32119   0.147   4.394  11.299  0.1501  0.2761  0.0760
 6829SOL    HW132120   0.081   4.385  11.230  0.5471 -0.1147 -0.2456
 6829SOL    HW232121   0.092   4.402  11.378 -0.1132  1.7358 -0.2466
 6830SOL     OW32122   3.036   2.490   1.319  0.0797  0.2057 -0.0573
 6830SOL    HW132123   3.073   2.517   1.235  0.9373 -0.5200  0.0913
 6830SOL    HW232124   3.103   2.507   1.384 -0.1502 -2.1254  0.7870
 6831SOL     OW32125   0.282   2.439   9.141 -0.1794 -0.5231  0.4272
 6831SOL    HW132126   0.341   2.456   9.214 -1.7556 -0.4263  1.6787
 6831SOL    HW232127   0.288   2.344   9.133  0.0641 -0.3446 -1.4912
 6832SOL     OW32128   2.828   1.658   3.956 -0.2563 -1.2120 -0.6039
 6832SOL    HW132129   2.774   1.581   3.974 -0.6967 -0.7749 -0.0748
 6832SOL    HW232130   2.861   1.632   3.870  1.9575  4.4597 -1.5237
 6833SOL     OW32131   4.362   4.037   3.667  0.2313 -0.0747  0.1181
 6833SOL    HW132132   4.448   4.001   3.691  0.3290 -0.9582 -1.5346
 6833SOL    HW232133   4.350   4.098   3.740  2.4365 -0.9646  1.2360
 6834SOL     OW32134   0.138   3.728  16.232  0.3276  0.1472  0.1464
 6834SOL    HW132135   0.097   3.754  16.149  0.7986  3.5170  0.9732
 6834SOL    HW232136   0.056   3.711  16.279  1.9932 -2.3575  2.1200
 6835SOL     OW32137   1.241   1.320   4.595 -0.1307  0.0312  0.1494
 6835SOL    HW132138   1.211   1.272   4.517 -1.1962 -0.9313  1.1627
 6835SOL    HW232139   1.198   1.274   4.667  0.0139 -1.1638 -0.5173
 6836SOL     OW32140   0.745   0.179   7.156 -0.6713  0.2805 -0.1849
 6836SOL    HW132141   0.800   0.254   7.181 -1.7854  0.8455  0.5738
 6836SOL    HW232142   0.753   0.189   7.061  0.3401 -0.0695 -0.1349
 6837SOL     OW32143   4.584   1.760  13.426 -0.7415  0.1314 -0.2848
 6837SOL    HW132144   4.637   1.681  13.421 -1.8240 -0.6975  1.1291
 6837SOL    HW232145   4.652   1.817  13.460 -0.2911 -0.7856  0.3398
 6838SOL     OW32146   4.709   1.720   4.652  0.6999 -0.7422 -0.1768
 6838SOL    HW132147   4.694   1.811   4.625  0.5887 -0.7871 -0.2685
 6838SOL    HW232148   4.724   1.671   4.571 -1.0157 -0.6392 -0.5670
 6839SOL     OW32149   2.577   0.416  17.341  0.0283  0.8724  0.4700
 6839SOL    HW132150   2.609   0.498  17.379  0.4208  1.6094 -1.4278
 6839SOL    HW232151   2.526   0.377  17.412 -1.7004  2.2878  0.0128
 6840SOL     OW32152   3.997   0.744   7.116  0.1835 -0.0970 -0.3585
 6840SOL    HW132153   4.040   0.757   7.032 -0.1113 -0.4940 -0.5726
 6840SOL    HW232154   3.994   0.648   7.107  2.1861 -0.1665 -0.2297
 6841SOL     OW32155   4.107   2.299   7.485  0.4444  0.0660 -0.3414
 6841SOL    HW132156   4.189   2.252   7.471  0.5169 -0.6281  2.4982
 6841SOL    HW232157   4.063   2.282   7.402  0.7217 -1.3069 -0.2078
 6842SOL     OW32158   1.906   0.735   6.694  0.0444  0.2867 -0.3866
 6842SOL    HW132159   1.859   0.711   6.773  1.5752 -1.4509 -0.0240
 6842SOL    HW232160   1.932   0.824   6.718 -1.1135  0.3423  0.6333
 6843SOL     OW32161   1.019   3.376   7.381  0.1920 -0.0682  0.6632
 6843SOL    HW132162   1.102   3.347   7.343 -0.2429 -1.6418  0.9073
 6843SOL    HW232163   0.987   3.305   7.438 -0.7458 -1.7802 -1.9899
 6844SOL     OW32164   4.641   3.603   8.507 -0.0757 -0.0157 -0.1719
 6844SOL    HW132165   4.646   3.595   8.412  0.4838 -1.3920 -0.0365
 6844SOL    HW232166   4.590   3.681   8.528  0.1453  0.6714 -2.2691
 6845SOL     OW32167   0.619   1.516  14.820 -0.2787  0.2617 -0.3057
 6845SOL    HW132168   0.653   1.452  14.883 -0.8200  2.6918  2.4481
 6845SOL    HW232169   0.702   1.561  14.808  0.2077 -0.8370 -1.0685
 6846SOL     OW32170   3.375   1.986   2.504 -0.0314 -0.2197 -0.3536
 6846SOL    HW132171   3.299   1.928   2.500  0.7918 -1.0891 -4.4265
 6846SOL    HW232172   3.359   2.032   2.586  0.1345 -0.9750  0.0992
 6847SOL     OW32173   1.122   0.474   7.416 -0.2443  0.5759  0.7205
 6847SOL    HW132174   1.128   0.567   7.394  2.3539  0.3257  0.3633
 6847SOL    HW232175   1.208   0.457   7.455  1.1151 -0.0708 -2.5325
 6848SOL     OW32176   0.408   2.655   1.454  0.6893 -0.4070 -0.4068
 6848SOL    HW132177   0.335   2.639   1.514 -0.6463  0.9681 -1.6752
 6848SOL    HW232178   0.406   2.749   1.438  0.2873 -0.5009 -0.9154
 6849SOL     OW32179   1.512   1.264   2.803  0.5913 -0.1314 -0.8507
 6849SOL    HW132180   1.421   1.235   2.799  0.8976 -1.1288 -0.4175
 6849SOL    HW232181   1.522   1.274   2.898 -0.6609 -0.9500 -0.6363
 6850SOL     OW32182   0.955   4.439  13.908 -0.9099 -0.1428 -0.2193
 6850SOL    HW132183   0.958   4.390  13.991 -1.2884  0.4850  0.1620
 6850SOL    HW232184   0.929   4.522  13.948 -0.4280  0.6721 -1.6213
 6851SOL     OW32185   1.107   2.371  10.383 -0.1122  0.1915  0.5180
 6851SOL    HW132186   1.015   2.346  10.393 -0.0176  0.1887  1.4336
 6851SOL    HW232187   1.094   2.464  10.362  0.8561  0.2651  0.2590
 6852SOL     OW32188   4.108   1.185   2.565 -0.0643  0.3834 -0.9118
 6852SOL    HW132189   4.041   1.210   2.501 -0.2849  2.0596 -0.0034
 6852SOL    HW232190   4.162   1.264   2.557  0.8003  0.0481  1.7727
 6853SOL     OW32191   0.751   3.296  12.827  0.4771  0.0441  0.5597
 6853SOL    HW132192   0.715   3.321  12.912 -1.4060  1.1535 -0.5520
 6853SOL    HW232193   0.796   3.377  12.801 -0.0277 -0.1630 -0.9860
 6854SOL     OW32194   0.335   4.105   8.388  0.0299 -0.4125  0.5650
 6854SOL    HW132195   0.268   4.172   8.394 -1.4073 -1.8166  0.0716
 6854SOL    HW232196   0.305   4.052   8.314 -2.1067  1.6920 -0.0787
 6855SOL     OW32197   4.125   4.193   7.204 -0.0363  0.3463  0.0976
 6855SOL    HW132198   4.095   4.174   7.115  1.0030 -0.4098 -0.0952
 6855SOL    HW232199   4.053   4.251   7.228  1.0495  1.6677  0.1361
 6856SOL     OW32200   0.523   2.035   7.940 -0.2832  0.4397  0.2880
 6856SOL    HW132201   0.560   2.034   7.852  1.2590  2.8090  0.9082
 6856SOL    HW232202   0.579   1.984   7.999  2.2177  2.7594 -0.0679
 6857SOL     OW32203   2.301   3.863  11.888  0.0280 -0.2760  0.0891
 6857SOL    HW132204   2.211   3.882  11.911 -0.1817 -0.7446 -0.3417
 6857SOL    HW232205   2.326   3.806  11.961  3.4619 -1.8314 -2.2784
 6858SOL     OW32206   2.710   3.794   3.922  0.4995  0.1013 -0.2079
 6858SOL    HW132207   2.743   3.707   3.899 -0.4850 -0.0671 -0.9932
 6858SOL    HW232208   2.616   3.782   3.933  0.3070  2.0442  0.1513
 6859SOL     OW32209   2.668   0.941  17.380 -0.3730 -0.0266  0.2632
 6859SOL    HW132210   2.636   1.030  17.393  0.7545  0.4436 -0.1257
 6859SOL    HW232211   2.735   0.942  17.448 -0.8664  1.0293  0.7167
 6860SOL     OW32212   2.839   1.360  10.871  0.3573 -0.0829  0.6528
 6860SOL    HW132213   2.845   1.439  10.818 -0.0736 -0.1201  0.5474
 6860SOL    HW232214   2.826   1.293  10.804  0.6581  1.3520 -0.8244
 6861SOL     OW32215   1.890   0.199   5.552 -0.5660  0.3882  0.0256
 6861SOL    HW132216   1.934   0.136   5.495 -4.3877  0.5777 -3.1160
 6861SOL    HW232217   1.903   0.160   5.638  0.0464 -0.2644 -0.3581
 6862SOL     OW32218   4.675   1.088  13.043  0.1787  0.1851 -0.0259
 6862SOL    HW132219   4.733   1.135  12.983  2.1107 -0.0035  1.7073
 6862SOL    HW232220   4.727   1.094  13.123 -0.5903  0.8620  0.4291
 6863SOL     OW32221   1.784   3.796   7.549 -0.3581  0.6796 -0.0120
 6863SOL    HW132222   1.716   3.731   7.567 -0.1330  0.3324 -0.4114
 6863SOL    HW232223   1.728   3.872   7.534 -1.0424 -0.3584 -2.8017
 6864SOL     OW32224   1.648   0.126   0.679  0.7215 -0.1576 -0.4703
 6864SOL    HW132225   1.618   0.217   0.679  0.4474 -0.2478  2.3899
 6864SOL    HW232226   1.571   0.072   0.698  0.9080  0.2081  1.3237
 6865SOL     OW32227   0.700   2.395   8.056  0.4497  0.7176  0.0334
 6865SOL    HW132228   0.607   2.372   8.056  0.3821  0.9400 -2.9232
 6865SOL    HW232229   0.734   2.329   8.117  0.1844 -0.4577 -1.0871
 6866SOL     OW32230   2.129   1.382   9.054 -0.3790  0.2292  0.3125
 6866SOL    HW132231   2.066   1.439   9.099 -1.7309 -1.2049  0.2406
 6866SOL    HW232232   2.178   1.364   9.134  1.3429 -1.6311 -1.1799
 6867SOL     OW32233   3.692   3.710   3.291  0.0196 -0.3951  0.4942
 6867SOL    HW132234   3.666   3.735   3.202 -3.8052  1.7529  2.2187
 6867SOL    HW232235   3.606   3.684   3.324 -0.4813  0.1662 -0.3662
 6868SOL     OW32236   1.024   0.891   6.456  0.3279  0.0238  0.1290
 6868SOL    HW132237   0.945   0.943   6.447  2.1245  2.5848 -0.6607
 6868SOL    HW232238   1.014   0.854   6.544 -0.6058 -0.6705 -0.2654
 6869SOL     OW32239   1.021   0.320   1.594 -0.2053 -0.2493  0.1305
 6869SOL    HW132240   1.065   0.310   1.509  0.4666  0.8774  0.3506
 6869SOL    HW232241   1.064   0.250   1.643  1.0819  0.2162 -0.3386
 6870SOL     OW32242   1.255   0.152   3.735  0.0938 -0.0251  0.2963
 6870SOL    HW132243   1.187   0.093   3.704 -0.8249  0.1809  1.9087
 6870SOL    HW232244   1.334   0.117   3.696  0.6864  0.0716  1.4167
 6871SOL     OW32245   2.878   2.027   9.069 -0.0363  0.3487 -0.9477
 6871SOL    HW132246   2.940   1.970   9.115 -0.1049  0.8799 -0.2028
 6871SOL    HW232247   2.905   2.110   9.108 -0.7326 -0.1333  0.5396
 6872SOL     OW32248   3.952   4.395  11.295 -0.2058  0.0660 -0.2888
 6872SOL    HW132249   4.002   4.314  11.297  1.4148  1.1177  1.5840
 6872SOL    HW232250   3.900   4.385  11.215 -0.4760  0.1108 -0.1188
 6873SOL     OW32251   2.919   3.899   2.298 -0.0343 -0.0823  0.2210
 6873SOL    HW132252   2.957   3.820   2.336  0.0499 -0.1736 -0.0495
 6873SOL    HW232253   2.857   3.919   2.368  0.2355  1.2562  0.0771
 6874SOL     OW32254   2.414   2.398   2.020 -0.0019  0.6841 -0.4401
 6874SOL    HW132255   2.443   2.442   2.100  1.5535  0.0492 -0.6538
 6874SOL    HW232256   2.434   2.465   1.955  0.2990 -1.1788 -2.2741
 6875SOL     OW32257   0.861   1.191   7.039  0.3513  0.7568 -0.0862
 6875SOL    HW132258   0.787   1.245   7.011 -0.5987 -0.2053  0.5586
 6875SOL    HW232259   0.879   1.227   7.126  1.5289 -1.5699  0.6415
 6876SOL     OW32260   2.235   2.202   0.827 -0.2489 -0.7267  0.1811
 6876SOL    HW132261   2.160   2.256   0.851 -1.1025 -1.0060 -1.8722
 6876SOL    HW232262   2.247   2.159   0.912 -0.1934  0.9345  1.0046
 6877SOL     OW32263   2.924   0.348   4.646 -1.0525 -0.1662 -0.3050
 6877SOL    HW132264   2.912   0.397   4.565  0.4807  0.0498 -0.3902
 6877SOL    HW232265   3.004   0.297   4.635 -0.5684  0.2860  1.0859
 6878SOL     OW32266   2.643   2.491  11.517 -0.2018  0.2885  0.6720
 6878SOL    HW132267   2.692   2.431  11.461  2.2264  0.6368  2.4339
 6878SOL    HW232268   2.717   2.522  11.569 -0.5791  0.9533  0.8096
 6879SOL     OW32269   4.230   1.672   4.688 -1.0355  0.3698 -0.2520
 6879SOL    HW132270   4.268   1.616   4.621 -2.0291  1.4223 -1.6967
 6879SOL    HW232271   4.134   1.667   4.682 -1.2427  0.9891  2.8222
 6880SOL     OW32272   0.267   1.384  13.486  0.9018  0.1712 -0.3464
 6880SOL    HW132273   0.263   1.381  13.581 -0.9122 -0.6602 -0.4641
 6880SOL    HW232274   0.288   1.293  13.465 -1.6055  0.1394 -2.7045
 6881SOL     OW32275   1.446   1.128   5.010 -0.1108 -0.5773 -0.0728
 6881SOL    HW132276   1.472   1.048   4.963 -2.1532 -0.3099 -1.6412
 6881SOL    HW232277   1.372   1.092   5.059  1.3686 -4.4810 -0.7397
 6882SOL     OW32278   1.616   0.671   0.681 -0.5891  0.1210 -0.1861
 6882SOL    HW132279   1.669   0.749   0.692 -0.1515 -0.2436  0.2859
 6882SOL    HW232280   1.570   0.673   0.765 -0.6039  0.2738 -0.1986
 6883SOL     OW32281   4.067   0.638   9.388  0.0665  0.2789 -0.2783
 6883SOL    HW132282   3.984   0.597   9.362  1.6144 -3.0885  0.2143
 6883SOL    HW232283   4.128   0.565   9.392 -1.2047 -0.8578 -1.7217
 6884SOL     OW32284   1.822   3.846   0.690  0.1261  0.0144  0.2083
 6884SOL    HW132285   1.733   3.866   0.719  0.0162 -1.9941  1.2502
 6884SOL    HW232286   1.872   3.920   0.725  0.1101 -0.7677  1.8662
 6885SOL     OW32287   1.676   1.787   5.544 -0.5260 -0.4659  0.5116
 6885SOL    HW132288   1.644   1.856   5.487 -0.4041 -0.1535  0.8167
 6885SOL    HW232289   1.604   1.770   5.605 -1.5741 -0.5695 -0.7599
 6886SOL     OW32290   4.504   0.665  17.330 -0.4970  0.3082 -0.4557
 6886SOL    HW132291   4.598   0.677  17.321 -0.6363 -0.5117 -2.9079
 6886SOL    HW232292   4.506   0.637  17.422 -2.0694 -2.1112 -1.1752
 6887SOL     OW32293   0.873   0.075   9.212 -0.2916  0.3590 -0.3960
 6887SOL    HW132294   0.913   0.135   9.149  2.5261 -0.1180  0.9446
 6887SOL    HW232295   0.942   0.031   9.262 -1.4942 -0.5528  0.4538
 6888SOL     OW32296   2.466   1.260  13.189  0.1393 -0.2482  0.5015
 6888SOL    HW132297   2.422   1.175  13.193 -1.8592  0.7385 -0.3956
 6888SOL    HW232298   2.540   1.247  13.248  0.6953 -1.4690 -0.4717
 6889SOL     OW32299   2.346   4.589   8.342 -0.4861  0.2081  0.1283
 6889SOL    HW132300   2.341   4.684   8.341 -0.9194  0.1893  0.6408
 6889SOL    HW232301   2.386   4.576   8.429  0.7476 -1.1698 -0.6363
 6890SOL     OW32302   1.086   2.068   3.128 -0.0849  0.6158  0.2240
 6890SOL    HW132303   1.129   2.071   3.214  0.3723  0.1666  0.0107
 6890SOL    HW232304   1.158   2.033   3.075 -0.2202 -0.0665  0.4862
 6891SOL     OW32305   4.358   3.122   2.026  0.0227  0.3535 -0.6468
 6891SOL    HW132306   4.335   3.201   2.075  2.6964  0.8874 -0.2714
 6891SOL    HW232307   4.452   3.118   2.041 -0.4515  0.0940  2.2877
 6892SOL     OW32308   4.659   4.650  10.657 -0.3962  1.0445  0.8911
 6892SOL    HW132309   4.631   4.654  10.566  0.2342 -0.1984  0.6469
 6892SOL    HW232310   4.578   4.655  10.707 -1.4742 -1.2236 -0.6432
 6893SOL     OW32311   1.989   4.157   4.079  0.5579  0.1488 -0.0300
 6893SOL    HW132312   1.970   4.126   3.991 -0.4859  3.0725 -0.8428
 6893SOL    HW232313   1.903   4.172   4.118  0.0898 -1.8085 -0.3437
 6894SOL     OW32314   4.564   3.533   4.440  0.5203 -0.7397 -1.0849
 6894SOL    HW132315   4.530   3.556   4.353  1.8635 -0.5026 -1.5381
 6894SOL    HW232316   4.490   3.559   4.495  0.7432 -2.4985  0.0347
 6895SOL     OW32317   2.701   3.965   4.299 -0.3872 -0.0232 -0.2130
 6895SOL    HW132318   2.717   3.992   4.389  1.2442  0.8390 -0.7575
 6895SOL    HW232319   2.714   4.041   4.242  2.3458 -0.9497 -0.8267
 6896SOL     OW32320   3.851   2.347   8.074 -0.8570  0.4656 -0.2655
 6896SOL    HW132321   3.910   2.272   8.085 -0.7445  0.4362 -1.0143
 6896SOL    HW232322   3.919   2.414   8.079 -1.3535  0.9977 -0.6169
 6897SOL     OW32323   2.251   0.557   1.480 -0.0316 -0.1486  0.7384
 6897SOL    HW132324   2.251   0.469   1.443  0.3230  0.9504 -1.8905
 6897SOL    HW232325   2.323   0.597   1.431  1.1012  0.8540  3.1777
 6898SOL     OW32326   3.024   1.999   6.682 -0.1918  0.1818  0.1110
 6898SOL    HW132327   3.001   2.091   6.693  0.0981  0.2101  0.5248
 6898SOL    HW232328   3.119   1.990   6.675 -0.3062 -1.1945  0.3439
 6899SOL     OW32329   0.592   2.138  15.644 -0.0363  0.4919  0.4430
 6899SOL    HW132330   0.635   2.052  15.637 -0.6013  0.2204  0.3002
 6899SOL    HW232331   0.651   2.192  15.592 -3.3210  3.0810 -0.5444
 6900SOL     OW32332   4.117   4.474   0.314 -0.2524 -0.3641 -0.1170
 6900SOL    HW132333   4.107   4.403   0.250  0.6742 -0.7618  0.1830
 6900SOL    HW232334   4.160   4.425   0.384  1.0846  1.8235  0.5828
 6901SOL     OW32335   1.199   3.823   2.511 -0.4267  0.2603  0.1496
 6901SOL    HW132336   1.262   3.883   2.552 -0.8519  1.0303 -0.3359
 6901SOL    HW232337   1.129   3.881   2.481 -0.5188  0.1407  0.1360
 6902SOL     OW32338   2.733   0.460   3.789 -0.1872 -0.2335  0.5465
 6902SOL    HW132339   2.789   0.528   3.751 -0.2275  1.6796  3.9340
 6902SOL    HW232340   2.784   0.437   3.866 -1.6734 -0.8159  1.3350
 6903SOL     OW32341   3.674   1.497  12.397 -0.0208  0.0792 -0.2049
 6903SOL    HW132342   3.738   1.426  12.406  1.6048  1.4517 -1.0063
 6903SOL    HW232343   3.700   1.534  12.313  0.6900  0.9781  0.4158
 6904SOL     OW32344   1.939   4.685   8.133 -0.1939  0.0937  0.3454
 6904SOL    HW132345   1.890   4.673   8.051  1.2668  1.0509 -0.6624
 6904SOL    HW232346   1.899   4.610   8.178  1.3053 -0.5675  0.5911
 6905SOL     OW32347   4.593   3.005  10.429  0.0613 -0.3083  0.1262
 6905SOL    HW132348   4.649   3.057  10.372 -1.9439  0.2430 -1.3302
 6905SOL    HW232349   4.516   2.978  10.380  0.8635  0.3666 -1.5073
 6906SOL     OW32350   0.554   0.089   8.146 -0.8385  0.1021  0.7858
 6906SOL    HW132351   0.526   0.113   8.058  1.1151  3.0901  0.9516
 6906SOL    HW232352   0.476   0.041   8.172 -1.5300  0.3561 -0.8155
 6907SOL     OW32353   1.265   0.555   3.458  0.2550 -0.0443 -0.2005
 6907SOL    HW132354   1.188   0.502   3.474  1.4978 -2.1702 -1.2985
 6907SOL    HW232355   1.288   0.576   3.549 -0.7684 -1.0290  0.2761
 6908SOL     OW32356   1.453   4.311   9.853 -0.4592  0.2297 -0.2642
 6908SOL    HW132357   1.541   4.337   9.880 -0.3799 -1.1930  0.8281
 6908SOL    HW232358   1.454   4.337   9.761 -0.0350  2.3471  0.3382
 6909SOL     OW32359   3.201   1.571  13.198 -0.5689  0.6148 -0.3749
 6909SOL    HW132360   3.221   1.479  13.181 -2.3935 -0.2435  2.0368
 6909SOL    HW232361   3.264   1.592  13.267 -0.7662  1.9466 -0.5898
 6910SOL     OW32362   4.588   2.901   1.840 -0.3347  0.3420  0.3037
 6910SOL    HW132363   4.563   2.828   1.897 -0.8299  1.4415  1.4997
 6910SOL    HW232364   4.619   2.851   1.765 -0.1473 -1.2127  1.4221
 6911SOL     OW32365   4.549   2.450  15.432 -0.6394  0.3695 -0.0240
 6911SOL    HW132366   4.571   2.522  15.372 -1.5209 -0.1692 -1.0007
 6911SOL    HW232367   4.525   2.498  15.512 -0.0598 -1.6664  1.3501
 6912SOL     OW32368   1.599   0.996  15.843  0.2477 -0.0086 -1.0274
 6912SOL    HW132369   1.626   1.042  15.922 -1.5899 -0.0077 -0.3908
 6912SOL    HW232370   1.679   0.945  15.835 -0.4628 -1.0815 -1.3643
 6913SOL     OW32371   3.323   0.652   5.843 -0.0286  0.4105 -0.0727
 6913SOL    HW132372   3.305   0.741   5.872  1.3093 -0.3921  3.2809
 6913SOL    HW232373   3.356   0.621   5.928 -0.2454  1.6711  0.4764
 6914SOL     OW32374   3.116   4.713   1.971 -0.5254 -0.2767  0.7043
 6914SOL    HW132375   3.107   4.648   2.041  0.1906 -0.4741  0.6190
 6914SOL    HW232376   3.068   0.048   2.017  2.1754  2.3747 -0.4264
 6915SOL     OW32377   0.604   4.462   4.528  0.4924 -0.1939 -0.0761
 6915SOL    HW132378   0.654   4.543   4.529 -1.0826  0.7625  1.8072
 6915SOL    HW232379   0.656   4.413   4.465 -1.4552 -0.6906 -1.3001
 6916SOL     OW32380   3.323   4.219   1.487  0.0142 -0.1745 -0.1189
 6916SOL    HW132381   3.320   4.315   1.491  1.6273 -0.1860  1.0288
 6916SOL    HW232382   3.307   4.207   1.580 -0.2389 -0.5237 -0.2075
 6917SOL     OW32383   0.479   0.365  11.891 -0.1087  0.1254 -0.1446
 6917SOL    HW132384   0.512   0.407  11.811  2.8069 -3.0255 -0.5857
 6917SOL    HW232385   0.456   0.437  11.950 -1.5658 -0.0941 -0.4586
 6918SOL     OW32386   1.361   4.071   4.381 -0.2761  0.1695  1.0053
 6918SOL    HW132387   1.384   4.076   4.288  0.4043  0.8658  1.2103
 6918SOL    HW232388   1.349   3.977   4.388  1.3152  0.0301  1.9602
 6919SOL     OW32389   3.515   1.169   7.022 -0.2386  0.9784 -0.1966
 6919SOL    HW132390   3.591   1.219   7.050  0.5622 -0.7317  0.6939
 6919SOL    HW232391   3.482   1.139   7.106  2.2940  0.1386  0.5019
 6920SOL     OW32392   3.450   1.504   8.057 -0.7255 -0.6772  0.0381
 6920SOL    HW132393   3.431   1.482   8.148  1.5034 -2.0162  0.1788
 6920SOL    HW232394   3.386   1.451   8.010 -0.6049 -1.0897  0.3376
 6921SOL     OW32395   2.874   1.299  14.051  0.1921  0.4059 -0.1985
 6921SOL    HW132396   2.783   1.328  14.048  0.3466  0.8372 -0.7845
 6921SOL    HW232397   2.855   1.207  14.068  1.5001  0.4185  1.2751
 6922SOL     OW32398   3.572   4.497   8.864 -0.2474  0.1285  0.7021
 6922SOL    HW132399   3.484   4.533   8.852 -0.0177  0.3898 -0.2042
 6922SOL    HW232400   3.585   4.443   8.786 -1.4768 -1.5661  1.6753
 6923SOL     OW32401   2.997   4.732   3.442  1.0287 -0.7397  0.3762
 6923SOL    HW132402   3.085   4.717   3.476  0.2149 -1.8770  1.9949
 6923SOL    HW232403   3.014   4.678   3.364  1.7266  0.4591 -0.2857
 6924SOL     OW32404   1.357   3.745  13.499 -0.2235  0.1020  0.2401
 6924SOL    HW132405   1.429   3.687  13.525 -1.8236 -1.3056  1.4760
 6924SOL    HW232406   1.283   3.686  13.486  1.8885 -2.5953  0.4525
 6925SOL     OW32407   1.417   1.919   0.696  0.2218 -0.1778  0.4930
 6925SOL    HW132408   1.366   1.871   0.631 -0.4586 -1.7292  2.1691
 6925SOL    HW232409   1.486   1.954   0.640  0.6418 -1.4299  0.2442
 6926SOL     OW32410   0.495   3.697  14.110 -0.1014 -0.1767 -0.5607
 6926SOL    HW132411   0.497   3.731  14.020  0.3548 -0.8372 -0.8003
 6926SOL    HW232412   0.400   3.699  14.120  0.2004  1.4999  2.0398
 6927SOL     OW32413   4.092   4.238   5.721  0.3506 -0.0257  0.2991
 6927SOL    HW132414   4.110   4.146   5.738 -1.2918 -0.1108  1.5569
 6927SOL    HW232415   4.000   4.244   5.697  0.9349  0.8666 -1.7189
 6928SOL     OW32416   3.415   0.872  11.287 -0.0156  0.0275 -0.3373
 6928SOL    HW132417   3.380   0.945  11.339 -1.8245 -2.0431  1.3325
 6928SOL    HW232418   3.327   0.834  11.279 -0.5500  0.9779  0.9581
 6929SOL     OW32419   3.997   0.600  13.610  0.3924  0.1259  0.6512
 6929SOL    HW132420   3.934   0.583  13.541  0.8777  2.7652 -0.4426
 6929SOL    HW232421   4.052   0.666  13.567  0.6516 -0.4678  0.0781
 6930SOL     OW32422   2.922   2.566   3.382 -0.2119 -0.1207  0.0354
 6930SOL    HW132423   2.991   2.599   3.325  1.9271 -0.6111  2.3567
 6930SOL    HW232424   2.969   2.546   3.462  0.4559 -1.7793 -0.7684
 6931SOL     OW32425   4.136   1.903   2.832  0.3574 -0.6738 -0.0609
 6931SOL    HW132426   4.128   1.931   2.741  0.2900 -0.7757 -0.0864
 6931SOL    HW232427   4.132   1.990   2.872 -1.6498 -1.4901  1.5779
 6932SOL     OW32428   3.556   1.004   5.163  0.4826 -0.1569  0.3419
 6932SOL    HW132429   3.492   0.950   5.117  2.5595 -2.2450 -0.0839
 6932SOL    HW232430   3.583   0.946   5.234 -1.0966 -1.6198 -0.2667
 6933SOL     OW32431   3.297   1.160   2.050 -0.3343  0.4699  0.6636
 6933SOL    HW132432   3.360   1.088   2.056  1.5371  2.1372  1.0964
 6933SOL    HW232433   3.223   1.127   2.101 -0.6992  1.0917  0.5307
 6934SOL     OW32434   3.153   2.250   2.333  0.0232 -0.4209  0.0115
 6934SOL    HW132435   3.185   2.266   2.245  1.3025  0.7330  0.6878
 6934SOL    HW232436   3.113   2.164   2.322  0.0644 -0.3021 -1.0423
 6935SOL     OW32437   0.064   2.502   6.708 -0.0617  0.7647 -0.0802
 6935SOL    HW132438   0.083   2.573   6.646 -1.3341  1.5895  0.4807
 6935SOL    HW232439   4.727   2.457   6.663  0.9276 -0.6173 -0.2475
 6936SOL     OW32440   1.602   4.404  11.905 -0.5091  0.3401 -0.3888
 6936SOL    HW132441   1.545   4.415  11.829  1.6882 -1.3307 -2.2864
 6936SOL    HW232442   1.546   4.407  11.982  0.4377 -1.1202  0.3503
 6937SOL     OW32443   0.161   3.196  15.587 -0.1993  0.7229 -0.2660
 6937SOL    HW132444   0.080   3.203  15.536 -0.1895  1.6382 -0.1557
 6937SOL    HW232445   0.192   3.109  15.560  1.8637  0.5710  2.6720
 6938SOL     OW32446   2.636   3.218  16.839  0.1735  0.5066  0.2695
 6938SOL    HW132447   2.706   3.259  16.890 -1.6533  2.8195  0.9116
 6938SOL    HW232448   2.559   3.257  16.879  0.9912 -0.3138  2.6340
 6939SOL     OW32449   4.580   0.482  10.395 -0.0682  0.5726  0.3447
 6939SOL    HW132450   4.511   0.470  10.330 -0.6719  0.4039  1.0151
 6939SOL    HW232451   4.574   0.573  10.424  0.3091  1.2354 -1.6639
 6940SOL     OW32452   2.037   2.007  15.963  0.3263 -0.4263 -0.2676
 6940SOL    HW132453   2.050   2.023  16.057 -1.7785  1.4187 -0.2926
 6940SOL    HW232454   1.972   2.066  15.925 -1.2037 -1.4573  0.7310
 6941SOL     OW32455   4.426   3.589   2.744 -0.0235  0.9149  0.2323
 6941SOL    HW132456   4.365   3.644   2.696 -1.9978 -0.6117  0.9711
 6941SOL    HW232457   4.442   3.651   2.815  0.5155  0.2724  0.6810
 6942SOL     OW32458   1.544   0.371   0.774 -0.5242 -0.5468  0.8610
 6942SOL    HW132459   1.594   0.443   0.811  1.0637 -0.2106 -1.9219
 6942SOL    HW232460   1.457   0.394   0.808  0.0539  1.1720  1.1592
 6943SOL     OW32461   4.145   3.441   6.676 -0.4795  0.3578  0.0706
 6943SOL    HW132462   4.080   3.454   6.745 -0.0328 -0.0612  0.5718
 6943SOL    HW232463   4.090   3.429   6.598  0.7112  0.5548 -0.8062
 6944SOL     OW32464   1.863   3.323   3.317  0.5828  0.6651 -0.0905
 6944SOL    HW132465   1.954   3.326   3.288  0.2030 -0.9789 -1.4678
 6944SOL    HW232466   1.867   3.294   3.409 -0.7416 -1.2436 -0.6264
 6945SOL     OW32467   4.050   4.644   2.304 -0.1675  0.6252 -0.1371
 6945SOL    HW132468   4.021   4.553   2.307 -0.7596  0.8606  1.7421
 6945SOL    HW232469   4.069   4.651   2.211  0.1680 -3.5856 -0.3916
 6946SOL     OW32470   0.801   2.205   8.479 -0.0312 -0.2605 -1.0191
 6946SOL    HW132471   0.798   2.131   8.539  0.4445 -1.0624 -1.9905
 6946SOL    HW232472   0.720   2.248   8.507  1.7494  2.0140  0.5898
 6947SOL     OW32473   2.679   0.562   8.644 -0.1512 -0.3747  0.0396
 6947SOL    HW132474   2.764   0.604   8.642  0.5739 -1.6811  3.5158
 6947SOL    HW232475   2.626   0.639   8.663  1.3140  0.8706 -0.9760
 6948SOL     OW32476   4.247   1.079   5.593  0.0152  0.2567  0.4426
 6948SOL    HW132477   4.273   1.171   5.601  2.4299 -0.5318  1.6133
 6948SOL    HW232478   4.337   1.047   5.592  0.4197  1.4554 -0.9365
 6949SOL     OW32479   1.331   4.713   1.379 -0.4378 -0.1496  0.1379
 6949SOL    HW132480   1.415   4.726   1.335  0.3992 -0.0359  1.7804
 6949SOL    HW232481   1.333   0.048   1.445 -0.1201  0.8521 -0.9076
 6950SOL     OW32482   1.455   0.012   3.991 -0.0829  0.1681  0.0920
 6950SOL    HW132483   1.542   0.024   4.030  0.0872 -0.4880 -0.0871
 6950SOL    HW232484   1.456   4.651   4.000  0.7397  0.2132  0.5488
 6951SOL     OW32485   2.334   2.448   7.768 -0.5273  0.2123  0.0980
 6951SOL    HW132486   2.244   2.418   7.767 -0.2403 -0.6087 -0.8219
 6951SOL    HW232487   2.337   2.476   7.860  0.5664  2.3016 -0.5471
 6952SOL     OW32488   2.515   3.991  16.897  0.1990 -0.0573 -0.3165
 6952SOL    HW132489   2.582   3.924  16.892  0.2910  0.1530 -1.8510
 6952SOL    HW232490   2.500   4.010  16.805 -0.9534  0.8067  0.0357
 6953SOL     OW32491   0.653   2.695   1.076  0.0168  0.1048 -0.5596
 6953SOL    HW132492   0.586   2.626   1.075 -1.1045  1.1646  0.9949
 6953SOL    HW232493   0.694   2.681   0.991 -0.5369  2.2763 -1.2036
 6954SOL     OW32494   2.341   1.546   6.040 -0.1797  0.3003 -0.1175
 6954SOL    HW132495   2.409   1.488   6.006 -1.5821 -1.5451  0.2202
 6954SOL    HW232496   2.379   1.634   6.038  0.2851  0.0868 -0.5056
 6955SOL     OW32497   1.367   4.525   8.499 -0.0223 -0.0596 -0.0320
 6955SOL    HW132498   1.282   4.481   8.495 -0.0303 -0.0055 -0.3932
 6955SOL    HW232499   1.416   4.466   8.557 -0.3969 -0.4841 -0.1542
 6956SOL     OW32500   3.922   0.823   9.550 -0.4156 -0.3728  0.1083
 6956SOL    HW132501   3.835   0.798   9.520  0.3713 -1.6317 -1.1793
 6956SOL    HW232502   3.983   0.756   9.517  1.2669  1.5123 -0.5842
 6957SOL     OW32503   4.319   2.582   7.993 -0.1754  0.2323  0.3634
 6957SOL    HW132504   4.328   2.487   7.999 -0.1923  0.3381  1.9445
 6957SOL    HW232505   4.404   2.607   7.957 -1.4322  1.1252 -1.9610
 6958SOL     OW32506   3.552   1.731   2.555 -0.2366  0.3538  0.0599
 6958SOL    HW132507   3.498   1.810   2.565 -0.1885  0.0434  2.7580
 6958SOL    HW232508   3.494   1.655   2.545 -0.5268  0.2930  2.1247
 6959SOL     OW32509   1.975   4.495   4.579  0.3202  0.3970  0.7982
 6959SOL    HW132510   1.916   4.560   4.617 -1.7745 -0.3748 -1.1115
 6959SOL    HW232511   1.991   4.448   4.661  2.5871  0.0331  0.1415
 6960SOL     OW32512   3.508   4.075  17.430  0.2998  0.0798 -0.0786
 6960SOL    HW132513   3.535   4.037  17.513  0.5959 -2.6523 -1.4010
 6960SOL    HW232514   3.451   4.000  17.410 -0.5547  1.1406 -1.5749
 6961SOL     OW32515   2.005   1.628   8.308  0.2461 -0.2723  0.0989
 6961SOL    HW132516   2.042   1.543   8.286 -1.8510 -1.0941 -0.2722
 6961SOL    HW232517   1.914   1.597   8.310  0.5227 -0.9526  2.1516
 6962SOL     OW32518   2.123   0.628   3.545 -0.1752  0.0202 -0.3440
 6962SOL    HW132519   2.064   0.590   3.481 -0.6232 -0.7030  0.5154
 6962SOL    HW232520   2.167   0.550   3.578  1.9178  1.7293  1.0072
 6963SOL     OW32521   1.687   0.343   4.181  0.3365 -0.3713  0.2319
 6963SOL    HW132522   1.614   0.323   4.124  0.4594  1.7431 -0.6802
 6963SOL    HW232523   1.745   0.268   4.173 -1.3586 -1.6859  0.4503
 6964SOL     OW32524   2.892   1.495  17.405  0.1619 -0.0656  0.0183
 6964SOL    HW132525   2.802   1.507  17.434  0.1829  0.7945 -0.2830
 6964SOL    HW232526   2.891   1.547  17.324  0.1678  1.3761  0.9501
 6965SOL     OW32527   4.223   4.231   2.378  0.3783 -0.0211 -0.3241
 6965SOL    HW132528   4.128   4.238   2.374  0.4504  2.0572  1.4703
 6965SOL    HW232529   4.238   4.225   2.472  0.0605 -2.4188 -0.4352
 6966SOL     OW32530   4.571   1.811  12.524 -0.1110 -0.1595 -0.5371
 6966SOL    HW132531   4.590   1.777  12.611 -0.2571 -1.5808 -1.0650
 6966SOL    HW232532   4.556   1.904  12.539 -1.8355 -0.3867 -0.8379
 6967SOL     OW32533   1.945   0.065   7.179 -0.0534 -0.5340 -0.0967
 6967SOL    HW132534   1.997   0.038   7.255 -0.3381 -1.8167 -0.3563
 6967SOL    HW232535   1.885   0.128   7.220 -1.0437  0.5418 -3.2313
 6968SOL     OW32536   3.379   3.664   4.697 -0.5824  0.3062  0.1257
 6968SOL    HW132537   3.430   3.602   4.645 -1.3404 -1.4662  1.5026
 6968SOL    HW232538   3.370   3.751   4.658  1.1853 -0.5554 -2.1907
 6969SOL     OW32539   2.352   2.726   6.721  0.4087 -0.4605  0.2651
 6969SOL    HW132540   2.316   2.814   6.724  2.5500  0.3990  0.8584
 6969SOL    HW232541   2.383   2.701   6.808  0.7069 -2.4289 -0.3931
 6970SOL     OW32542   3.309   3.422  15.167  0.1183 -0.3839  0.2742
 6970SOL    HW132543   3.282   3.445  15.256  1.9162 -1.6129  1.1404
 6970SOL    HW232544   3.358   3.345  15.196 -1.6735 -1.6213  0.0529
 6971SOL     OW32545   2.416   0.246   3.859 -0.4143  0.4194  0.1317
 6971SOL    HW132546   2.483   0.232   3.791  0.1153  0.5160  0.6356
 6971SOL    HW232547   2.356   0.177   3.832  0.4087  0.1423 -1.0032
 6972SOL     OW32548   0.268   3.313  12.967 -0.0934 -0.3647 -0.3219
 6972SOL    HW132549   0.295   3.225  12.991  0.6443 -0.5045 -1.6550
 6972SOL    HW232550   0.245   3.347  13.053 -0.8285 -0.1041 -0.6223
 6973SOL     OW32551   0.168   4.539   3.385  0.0809  0.0854 -0.0598
 6973SOL    HW132552   0.112   4.462   3.376  1.8515 -1.3099  0.8935
 6973SOL    HW232553   0.225   4.529   3.309  0.6402  0.6426  0.2898
 6974SOL     OW32554   0.307   1.946  14.176 -0.8856  0.3504 -0.2364
 6974SOL    HW132555   0.346   1.916  14.093  0.6413 -0.5625  0.8237
 6974SOL    HW232556   0.244   1.875  14.187  0.4604 -0.8115  0.0229
 6975SOL     OW32557   2.973   3.245   5.398 -0.7380 -0.2768  0.1199
 6975SOL    HW132558   2.920   3.203   5.466 -2.4254  0.3888 -0.7919
 6975SOL    HW232559   2.969   3.336   5.427  0.1212 -0.7487  1.7267
 6976SOL     OW32560   3.478   1.228   7.297 -0.0437 -0.7500  0.1662
 6976SOL    HW132561   3.490   1.149   7.350  0.0235 -0.4218  0.6351
 6976SOL    HW232562   3.385   1.245   7.312  0.2925  0.0046  1.4212
 6977SOL     OW32563   1.597   1.369   4.751 -0.5158  0.2375 -0.1379
 6977SOL    HW132564   1.589   1.458   4.717  1.9168  0.6513  0.4173
 6977SOL    HW232565   1.512   1.365   4.795 -1.3465  0.3034 -1.7394
 6978SOL     OW32566   3.347   1.248   7.915 -0.4174  0.3576 -0.8356
 6978SOL    HW132567   3.412   1.182   7.940  1.4834  1.9279 -1.6314
 6978SOL    HW232568   3.260   1.215   7.939  0.0875 -0.4098 -0.0893
 6979SOL     OW32569   0.837   0.838   4.782  0.4696 -0.2920 -0.1109
 6979SOL    HW132570   0.881   0.754   4.783  0.4719 -0.2953 -0.5373
 6979SOL    HW232571   0.902   0.893   4.738  0.3386 -0.1639 -0.1465
 6980SOL     OW32572   2.499   3.115   4.159  0.3647  0.3563  0.3466
 6980SOL    HW132573   2.473   3.054   4.227 -0.1728  0.2260  0.0263
 6980SOL    HW232574   2.463   3.192   4.203 -0.6449 -0.8029  1.5305
 6981SOL     OW32575   2.930   1.211  11.252 -0.4236  0.8589  0.4617
 6981SOL    HW132576   2.852   1.265  11.267 -1.0339  0.0003  0.3369
 6981SOL    HW232577   2.988   1.237  11.323 -0.2819  1.4199  0.1483
 6982SOL     OW32578   4.694   1.403   5.860  0.2848 -0.1014  0.6372
 6982SOL    HW132579   0.033   1.415   5.799  0.3511 -0.4724  0.6402
 6982SOL    HW232580   4.627   1.382   5.795  0.5520 -1.4847  0.7924
 6983SOL     OW32581   2.050   0.943   5.961  0.5610 -0.4889 -0.1814
 6983SOL    HW132582   2.052   1.017   6.023  0.6858 -1.8122  1.4065
 6983SOL    HW232583   2.086   0.872   6.014  0.9774 -0.3970 -0.3443
 6984SOL     OW32584   2.205   4.730   8.091  0.0690 -0.3708 -0.2589
 6984SOL    HW132585   2.206   4.725   7.996  1.9778 -0.4459 -0.2470
 6984SOL    HW232586   2.119   4.695   8.112  1.3999 -3.0320  0.7942
 6985SOL     OW32587   2.590   0.078   9.402  0.0876 -0.5372 -0.1664
 6985SOL    HW132588   2.625   4.730   9.436  0.1621 -0.2462  0.4640
 6985SOL    HW232589   2.498   0.059   9.383 -0.8715  0.4672  3.5284
 6986SOL     OW32590   1.777   1.211  11.452 -0.6748  0.0967  0.2426
 6986SOL    HW132591   1.771   1.261  11.533 -0.4516  1.0466 -0.3259
 6986SOL    HW232592   1.729   1.133  11.481 -0.4450  0.3796  1.3903
 6987SOL     OW32593   2.959   4.659   0.517 -0.2460 -0.3058 -0.0274
 6987SOL    HW132594   3.033   4.630   0.570 -0.4193  0.6630  0.7633
 6987SOL    HW232595   2.995   4.665   0.429 -0.9228 -1.0343 -0.3544
 6988SOL     OW32596   0.623   0.141   7.867  0.3915 -0.6505 -0.1208
 6988SOL    HW132597   0.633   0.237   7.869  1.1408 -0.7560  1.0610
 6988SOL    HW232598   0.529   0.128   7.857  0.0030  2.9560 -1.2801
 6989SOL     OW32599   1.358   3.142   9.022 -0.2448  0.0769 -0.0470
 6989SOL    HW132600   1.330   3.144   8.931  2.2249  0.1584 -0.8026
 6989SOL    HW232601   1.399   3.057   9.039  0.5005  0.4021 -0.2119
 6990SOL     OW32602   1.590   4.475  12.869 -0.1404 -0.1623  0.2647
 6990SOL    HW132603   1.504   4.470  12.827  1.1616  0.8331 -2.5563
 6990SOL    HW232604   1.637   4.449  12.789 -0.2527  1.3768 -0.3099
 6991SOL     OW32605   2.529   3.199  13.491 -0.4325  0.1144  0.2966
 6991SOL    HW132606   2.457   3.136  13.499  1.5086 -2.2438 -0.8205
 6991SOL    HW232607   2.487   3.267  13.438  0.0602  0.4623  0.3492
 6992SOL     OW32608   0.108   1.001   9.904  0.0769  0.0236  0.1041
 6992SOL    HW132609   0.108   0.947   9.982  1.4833 -0.4784 -0.2531
 6992SOL    HW232610   0.094   1.091   9.935  1.1205  1.1191 -2.5863
 6993SOL     OW32611   2.681   0.711  16.341  0.2553  0.0801  0.5042
 6993SOL    HW132612   2.770   0.679  16.329  0.6077  1.4682 -0.5237
 6993SOL    HW232613   2.683   0.719  16.437 -0.9888 -0.0546  0.5420
 6994SOL     OW32614   0.198   1.707   2.591  0.6969 -0.2456 -0.0314
 6994SOL    HW132615   0.233   1.794   2.607 -0.3590  0.3104 -0.7425
 6994SOL    HW232616   0.151   1.702   2.674 -0.5670 -1.5249 -0.8062
 6995SOL     OW32617   2.085   4.120  17.495  0.8404 -0.2134 -0.0589
 6995SOL    HW132618   2.115   4.097  17.583  0.7864  0.9394  0.2536
 6995SOL    HW232619   2.051   4.038  17.459 -1.6084  0.4817  0.6493
 6996SOL     OW32620   2.827   3.805   0.411  0.0399  0.1224  0.4314
 6996SOL    HW132621   2.753   3.862   0.390  0.2478  0.2154 -0.0634
 6996SOL    HW232622   2.885   3.858   0.467  0.6459 -0.1309  0.0493
 6997SOL     OW32623   2.084   3.375   7.111 -0.1826  0.2762 -0.0209
 6997SOL    HW132624   2.032   3.295   7.098 -2.0742  1.4573  0.2687
 6997SOL    HW232625   2.040   3.435   7.051 -1.1793  0.0548  0.4948
 6998SOL     OW32626   0.061   2.765  15.028  0.5623  0.4783 -0.0053
 6998SOL    HW132627   0.148   2.739  15.000  0.7127  0.7250  0.2353
 6998SOL    HW232628   0.060   2.843  14.973  0.7275 -0.4233 -1.2839
 6999SOL     OW32629   1.972   2.810  16.011  0.1643  0.6142  0.9876
 6999SOL    HW132630   1.932   2.863  15.942  1.5612  0.6932  0.2405
 6999SOL    HW232631   2.024   2.873  16.060 -0.2700  1.6396  0.1215
 7000SOL     OW32632   1.411   1.114   6.807  0.1210 -0.2804  0.1385
 7000SOL    HW132633   1.325   1.138   6.772  0.1737  0.5484  0.5854
 7000SOL    HW232634   1.384   1.055   6.877 -0.4399 -1.6591 -1.2296
 7001SOL     OW32635   3.701   3.751  16.321 -0.0535 -0.1407 -0.7846
 7001SOL    HW132636   3.739   3.734  16.407 -1.8356 -2.4144 -0.4325
 7001SOL    HW232637   3.789   3.767  16.287 -0.8546 -1.3926 -3.4140
 7002SOL     OW32638   0.643   3.373   3.752  0.2830 -0.4873  0.5554
 7002SOL    HW132639   0.648   3.357   3.847  3.4622 -1.2880  0.2659
 7002SOL    HW232640   0.582   3.303   3.731 -1.9192  1.6409 -0.0536
 7003SOL     OW32641   1.764   3.404   7.834 -0.0492  0.3954 -0.2474
 7003SOL    HW132642   1.848   3.444   7.815 -0.5413  1.9395  0.7891
 7003SOL    HW232643   1.791   3.370   7.920 -0.5358 -2.0543 -1.0775
 7004SOL     OW32644   2.130   3.961   7.216 -0.0201  0.1643 -0.1827
 7004SOL    HW132645   2.151   4.027   7.281  1.1942  0.2441 -0.6595
 7004SOL    HW232646   2.035   3.954   7.230  0.1366  0.0034  0.7782
 7005SOL     OW32647   3.632   0.548   1.918  0.3806 -0.0706 -0.1068
 7005SOL    HW132648   3.658   0.538   2.009  1.9750  0.4795 -0.5040
 7005SOL    HW232649   3.695   0.486   1.881 -1.5904 -1.1030 -1.7693
 7006SOL     OW32650   1.932   3.052  11.905  0.0885  0.5509 -0.0010
 7006SOL    HW132651   1.913   3.124  11.846 -1.7629 -0.2361 -0.3676
 7006SOL    HW232652   2.027   3.039  11.898  0.2431  1.8840 -0.3365
 7007SOL     OW32653   1.560   2.509   2.713 -0.2265 -0.0815 -0.2137
 7007SOL    HW132654   1.483   2.503   2.657 -0.4542 -1.2363  0.2275
 7007SOL    HW232655   1.550   2.434   2.772 -0.9968 -1.8858 -2.6688
 7008SOL     OW32656   3.454   4.363  17.560 -0.1073 -0.3535 -0.1424
 7008SOL    HW132657   3.482   4.342  17.471 -1.0371 -2.5125  0.0884
 7008SOL    HW232658   3.513   4.313  17.617 -0.6844  0.1386  0.8708
 7009SOL     OW32659   2.790   0.584   7.982  0.6454  0.1878  0.5358
 7009SOL    HW132660   2.794   0.620   7.893 -0.1069 -0.0353  0.4132
 7009SOL    HW232661   2.716   0.638   8.011  1.0317  0.6087  0.7496
 7010SOL     OW32662   1.924   2.084   4.667 -0.0822  0.0349  0.2616
 7010SOL    HW132663   1.910   2.131   4.749 -1.3173  0.6495 -0.3028
 7010SOL    HW232664   1.850   2.121   4.618  0.1251  0.7936  0.5257
 7011SOL     OW32665   0.918   3.969   8.379 -0.3717  0.3122 -0.1095
 7011SOL    HW132666   0.962   3.890   8.346 -0.7495 -0.1698  0.5423
 7011SOL    HW232667   0.846   3.984   8.318 -0.9964 -2.1021  0.0093
 7012SOL     OW32668   1.110   1.977  16.140  0.5895  0.1960  0.0994
 7012SOL    HW132669   1.049   2.036  16.184 -0.2531 -1.9549  1.7859
 7012SOL    HW232670   1.156   1.934  16.212 -1.0859 -3.1244 -0.8132
 7013SOL     OW32671   0.083   4.004  13.773  0.1020  0.2445 -0.0622
 7013SOL    HW132672   0.061   3.913  13.752 -0.2037  0.3861 -0.3546
 7013SOL    HW232673   0.170   4.015  13.735 -0.1595 -2.1560 -1.3339
 7014SOL     OW32674   4.170   3.854   5.339 -0.2066  0.0362  0.0832
 7014SOL    HW132675   4.175   3.819   5.428 -0.7431  0.3705  0.2421
 7014SOL    HW232676   4.213   3.789   5.283  2.3892  0.0859  1.9956
 7015SOL     OW32677   1.490   3.536  10.392  0.9745  0.7508 -0.4865
 7015SOL    HW132678   1.525   3.522  10.480 -0.5196  1.0978  0.1723
 7015SOL    HW232679   1.408   3.583  10.413 -0.1518 -2.0300  1.3243
 7016SOL     OW32680   1.444   1.368   9.576  0.7733 -0.4987 -0.2527
 7016SOL    HW132681   1.442   1.462   9.595 -0.5703 -0.5389 -0.2245
 7016SOL    HW232682   1.497   1.340   9.651  0.3458 -0.0207  0.2298
 7017SOL     OW32683   2.349   1.995  12.837 -0.0845  0.1761 -0.8315
 7017SOL    HW132684   2.358   1.923  12.773 -2.8293 -0.5870 -0.3885
 7017SOL    HW232685   2.318   1.956  12.919  1.1735  0.3582 -0.2800
 7018SOL     OW32686   3.133   4.508   6.153 -0.0558 -0.5686  0.5795
 7018SOL    HW132687   3.197   4.443   6.124 -0.3671 -1.4204  1.8015
 7018SOL    HW232688   3.187   4.587   6.153 -2.0392  0.7890 -0.7795
 7019SOL     OW32689   4.416   1.126   5.919 -0.0203 -0.3681 -0.1179
 7019SOL    HW132690   4.452   1.185   5.853 -0.5715  0.4062  0.2735
 7019SOL    HW232691   4.457   1.043   5.892 -2.1303 -2.1108  2.0216
 7020SOL     OW32692   1.902   2.181   8.432 -0.2416 -0.2629 -0.0816
 7020SOL    HW132693   1.905   2.233   8.512 -0.7270  0.1857 -0.3516
 7020SOL    HW232694   1.808   2.168   8.419 -0.5596  1.6513  0.3108
 7021SOL     OW32695   1.854   2.928   2.891 -0.5511  0.1317  0.4507
 7021SOL    HW132696   1.894   2.853   2.848 -1.7007 -0.4478  0.3931
 7021SOL    HW232697   1.903   2.931   2.973  0.5654  0.4786 -0.2289
 7022SOL     OW32698   0.686   1.301   0.339  0.1344 -0.0748  0.1719
 7022SOL    HW132699   0.644   1.344   0.413  1.2630 -0.3227  0.9540
 7022SOL    HW232700   0.750   1.368   0.312  0.2058 -1.2014 -2.4351
 7023SOL     OW32701   3.125   0.258   6.113  0.4593  0.1547  0.8708
 7023SOL    HW132702   3.133   0.171   6.074  0.5700  1.2785 -1.5999
 7023SOL    HW232703   3.185   0.248   6.187  2.2823 -0.4271 -0.6803
 7024SOL     OW32704   0.606   2.502   8.326  0.3520  0.4510 -0.2832
 7024SOL    HW132705   0.536   2.551   8.283  0.9249 -0.1264 -1.8536
 7024SOL    HW232706   0.558   2.426   8.359  0.7581  0.8259  1.1683
 7025SOL     OW32707   1.895   2.034  13.790 -0.0112 -0.0803 -0.3077
 7025SOL    HW132708   1.829   2.029  13.721 -1.9531 -0.2794  1.5801
 7025SOL    HW232709   1.859   2.098  13.852  0.6337  0.2866 -0.3100
 7026SOL     OW32710   2.814   2.817   3.990 -0.1875 -0.4671 -0.3019
 7026SOL    HW132711   2.877   2.887   3.972 -0.9832 -0.5832 -3.6271
 7026SOL    HW232712   2.773   2.800   3.905  0.0399 -0.2344 -0.4615
 7027SOL     OW32713   0.728   3.814  15.088  0.2627 -0.7032 -0.1311
 7027SOL    HW132714   0.809   3.774  15.056  0.9931  0.8226 -0.1983
 7027SOL    HW232715   0.732   3.790  15.180 -2.7719  1.8400  0.6704
 7028SOL     OW32716   0.252   0.971   2.550 -0.0074 -0.6326 -0.1532
 7028SOL    HW132717   0.175   0.918   2.572  0.4932 -1.1318  0.4051
 7028SOL    HW232718   0.216   1.055   2.523  2.1835  0.5986  0.7568
 7029SOL     OW32719   3.480   1.017   7.989 -0.3469 -0.4854 -0.1355
 7029SOL    HW132720   3.512   1.031   8.078 -0.1291  0.4194 -0.3565
 7029SOL    HW232721   3.485   0.923   7.971 -2.7998 -0.3404 -1.5167
 7030SOL     OW32722   3.568   0.841   3.711  0.5292 -0.0236 -0.5826
 7030SOL    HW132723   3.511   0.809   3.781 -0.7029 -1.5313 -2.2548
 7030SOL    HW232724   3.556   0.769   3.649  0.9406 -0.8284  0.2711
 7031SOL     OW32725   3.853   2.048   5.791  0.2307  0.3176 -0.0317
 7031SOL    HW132726   3.870   2.130   5.839  1.3594  0.6032 -0.9235
 7031SOL    HW232727   3.781   2.074   5.735 -2.7796 -1.9540  2.7678
 7032SOL     OW32728   0.448   2.700  15.285 -0.4037  0.4038 -0.2717
 7032SOL    HW132729   0.444   2.731  15.376 -0.7540 -0.9220  0.1640
 7032SOL    HW232730   0.484   2.614  15.303 -0.4158  0.2897 -0.8041
 7033SOL     OW32731   1.244   3.408   4.630  0.5522  0.3829  0.0165
 7033SOL    HW132732   1.286   3.460   4.561  1.9765 -1.1905 -0.2997
 7033SOL    HW232733   1.273   3.321   4.603  0.7270  0.8320 -1.2509
 7034SOL     OW32734   4.490   2.665   1.960  0.2642 -0.6035 -0.0050
 7034SOL    HW132735   4.407   2.628   1.988 -0.6973  1.8011  0.3200
 7034SOL    HW232736   4.529   2.590   1.915 -1.4391 -0.3617 -1.8486
 7035SOL     OW32737   4.398   1.805   3.934 -0.4100 -0.4022  0.2376
 7035SOL    HW132738   4.389   1.883   3.988 -1.3842 -0.2826 -0.0835
 7035SOL    HW232739   4.317   1.799   3.883 -1.0138  1.1754  1.0224
 7036SOL     OW32740   2.183   0.867   0.872 -0.2839 -0.0429 -0.4707
 7036SOL    HW132741   2.254   0.930   0.861  0.2559 -0.4363  0.7414
 7036SOL    HW232742   2.158   0.849   0.782  0.0735  0.4420 -0.6692
 7037SOL     OW32743   4.503   2.055   2.000 -0.8165  0.2125  0.2345
 7037SOL    HW132744   4.566   1.985   2.020 -0.3768  0.1663 -1.3052
 7037SOL    HW232745   4.462   2.022   1.920 -0.8984 -1.1101  0.8242
 7038SOL     OW32746   1.021   0.996   2.674 -0.0604 -0.8703  0.3113
 7038SOL    HW132747   1.078   1.063   2.712 -1.1620  0.7160 -0.8437
 7038SOL    HW232748   1.054   0.919   2.721  0.4116 -1.3826 -0.8796
 7039SOL     OW32749   2.766   2.249  12.586  0.0631  0.2653  0.1047
 7039SOL    HW132750   2.740   2.157  12.587  0.4538  0.1737  1.7686
 7039SOL    HW232751   2.852   2.241  12.626  0.2923 -2.3535 -0.9256
 7040SOL     OW32752   0.656   2.535  16.485  0.0653  0.4247 -0.7400
 7040SOL    HW132753   0.633   2.466  16.547  2.3100 -0.7300 -1.1878
 7040SOL    HW232754   0.566   2.553  16.459  0.4622  3.6535  0.1642
 7041SOL     OW32755   2.126   2.714   2.411 -0.4297 -0.1740  0.7130
 7041SOL    HW132756   2.059   2.760   2.361 -1.9649 -2.0142  1.0730
 7041SOL    HW232757   2.168   2.659   2.345  0.5516  1.1264  0.2462
 7042SOL     OW32758   4.582   1.459  15.003 -0.4183 -0.3861 -0.1359
 7042SOL    HW132759   4.664   1.477  14.958  0.1548 -1.8544  0.3338
 7042SOL    HW232760   4.520   1.502  14.944  0.2131 -1.5246 -1.6216
 7043SOL     OW32761   3.949   2.237   3.489 -1.1175  0.2126  0.0861
 7043SOL    HW132762   3.926   2.146   3.468 -1.3483 -0.1059  1.7549
 7043SOL    HW232763   3.921   2.275   3.405  1.3306 -0.7676 -1.1838
 7044SOL     OW32764   0.160   3.144   8.700  0.2789  0.0484  0.1946
 7044SOL    HW132765   0.102   3.157   8.624  0.9076 -0.0737 -0.3061
 7044SOL    HW232766   0.108   3.093   8.763  0.7052  0.5112  0.9193
 7045SOL     OW32767   0.688   0.055  17.371 -0.2747  0.2553  0.1736
 7045SOL    HW132768   0.597   0.040  17.395  0.7747 -0.4081  3.6841
 7045SOL    HW232769   0.682   0.148  17.346  0.0500 -0.1749 -1.4914
 7046SOL     OW32770   0.595   2.149   4.543 -0.0619  0.5204  0.5912
 7046SOL    HW132771   0.559   2.222   4.593  1.2382  0.0492  2.2281
 7046SOL    HW232772   0.614   2.088   4.615 -0.7994  0.7045  0.9454
 7047SOL     OW32773   3.879   0.038   3.998  0.1020 -0.3469  0.0906
 7047SOL    HW132774   3.908   4.693   4.043  0.4566 -0.6853 -0.7341
 7047SOL    HW232775   3.862   0.094   4.074  0.4081 -0.0824 -0.0357
 7048SOL     OW32776   1.831   4.726  13.566 -0.5001 -0.0622  0.1419
 7048SOL    HW132777   1.895   0.023  13.502 -1.8323  0.6898 -0.8275
 7048SOL    HW232778   1.797   4.646  13.526  2.7180 -0.9970 -0.7573
 7049SOL     OW32779   3.157   3.572   9.398  0.2289 -0.5069 -0.0861
 7049SOL    HW132780   3.249   3.578   9.374  0.3996  0.8375  0.9062
 7049SOL    HW232781   3.151   3.525   9.481  0.0496  1.6125  1.1075
 7050SOL     OW32782   0.667   2.351   2.519  0.2761  0.1834 -0.2324
 7050SOL    HW132783   0.573   2.365   2.515  0.0122 -1.4916 -0.0861
 7050SOL    HW232784   0.697   2.399   2.441  1.0005  0.0720 -0.0205
 7051SOL     OW32785   3.152   4.197   6.353 -0.2211  0.0697  0.3011
 7051SOL    HW132786   3.122   4.235   6.435 -1.5607  0.5105 -0.3919
 7051SOL    HW232787   3.206   4.123   6.383  0.3453  1.2134  2.0910
 7052SOL     OW32788   4.694   1.482   0.451 -0.6574  0.9105 -0.2573
 7052SOL    HW132789   4.697   1.505   0.359 -1.5180 -2.5273 -1.1653
 7052SOL    HW232790   4.604   1.498   0.480 -0.8567  1.1859 -1.0528
 7053SOL     OW32791   0.051   1.794   1.722 -0.0502 -0.5811 -0.2324
 7053SOL    HW132792   4.697   1.760   1.739 -0.0736 -0.0324  0.7392
 7053SOL    HW232793   0.034   1.856   1.651  1.9655 -1.6944 -1.6886
 7054SOL     OW32794   2.841   1.029   2.250  0.0956 -0.2028 -0.1188
 7054SOL    HW132795   2.810   0.940   2.267 -1.8511  0.4881 -0.0544
 7054SOL    HW232796   2.769   1.082   2.283 -0.1422 -0.4332 -0.2679
 7055SOL     OW32797   2.142   4.301   8.833  0.2047 -0.6133 -0.5326
 7055SOL    HW132798   2.175   4.352   8.908  0.5959 -0.6216 -0.7014
 7055SOL    HW232799   2.130   4.370   8.768 -1.2557 -0.2748  0.0928
 7056SOL     OW32800   4.675   0.224  10.880  0.0915 -0.3495  0.4879
 7056SOL    HW132801   4.671   0.230  10.785  0.9480  2.6203  0.6169
 7056SOL    HW232802   4.696   0.316  10.897 -0.9421  0.0776 -0.5855
 7057SOL     OW32803   0.677   3.766   4.151  0.0777 -0.2209  0.0078
 7057SOL    HW132804   0.684   3.672   4.164 -2.1494 -0.4814 -0.7823
 7057SOL    HW232805   0.583   3.780   4.166  0.1504 -0.6755  0.9152
 7058SOL     OW32806   0.810   1.870   1.349 -0.8944 -0.0460  0.2196
 7058SOL    HW132807   0.826   1.863   1.443 -0.6009  0.6612  0.2178
 7058SOL    HW232808   0.732   1.925   1.347 -1.8021 -1.2697  1.7089
 7059SOL     OW32809   2.956   2.620   9.066  0.7177 -0.1659 -0.7335
 7059SOL    HW132810   3.023   2.597   9.002  2.8553  0.1155  1.3853
 7059SOL    HW232811   3.011   2.676   9.121 -1.3619 -1.0143  2.2333
 7060SOL     OW32812   3.970   3.461  10.572  0.3955 -0.5138  0.3469
 7060SOL    HW132813   3.945   3.514  10.648  0.3485 -1.0448  0.7050
 7060SOL    HW232814   3.924   3.381  10.600  1.9743 -1.4065  0.4045
 7061SOL     OW32815   3.989   1.817   9.335 -0.3790  0.3947 -0.0950
 7061SOL    HW132816   3.949   1.902   9.315 -1.5174 -0.5946 -2.0280
 7061SOL    HW232817   3.910   1.786   9.380  0.1091 -3.2170 -1.7985
 7062SOL     OW32818   2.645   4.269   4.404 -0.5772 -0.2109  0.3627
 7062SOL    HW132819   2.706   4.215   4.453 -0.0404  0.1485  0.0863
 7062SOL    HW232820   2.559   4.229   4.421 -1.1465  1.1507  0.7188
 7063SOL     OW32821   0.313   3.341   6.393 -0.1638  0.0198 -0.2914
 7063SOL    HW132822   0.332   3.326   6.300  0.6879 -4.4357  0.5960
 7063SOL    HW232823   0.400   3.323   6.428 -1.6022 -2.1262  2.1613
 7064SOL     OW32824   1.747   1.036   6.847  0.2749 -0.2539 -0.1460
 7064SOL    HW132825   1.683   1.062   6.781 -0.9856  0.4524  1.3496
 7064SOL    HW232826   1.823   1.063   6.795  0.3635  0.1750  0.2072
 7065SOL     OW32827   1.650   0.327   5.571 -0.5196 -0.4359 -0.7436
 7065SOL    HW132828   1.737   0.287   5.564  0.5894  1.7032  0.6900
 7065SOL    HW232829   1.631   0.349   5.479  0.2078 -1.4345 -1.1405
 7066SOL     OW32830   3.785   1.327   2.053  0.5899  0.2062 -0.1482
 7066SOL    HW132831   3.745   1.330   2.140 -0.5785 -1.5353 -0.6264
 7066SOL    HW232832   3.717   1.363   1.995  0.8985 -1.6394 -1.6447
 7067SOL     OW32833   2.975   3.265   7.250 -0.8323 -0.1275  0.0013
 7067SOL    HW132834   3.020   3.218   7.181  0.0126  0.4402  0.1562
 7067SOL    HW232835   2.926   3.189   7.280  2.8957 -1.6432  2.2867
 7068SOL     OW32836   4.536   2.532  14.936 -0.3051 -0.1588  0.4746
 7068SOL    HW132837   4.560   2.603  14.876  0.0926 -0.5102  0.2161
 7068SOL    HW232838   4.445   2.509  14.919 -0.2646 -1.6094  2.1906
 7069SOL     OW32839   3.297   3.647   1.628 -0.0943 -0.1117  0.5722
 7069SOL    HW132840   3.243   3.727   1.630 -1.5577 -1.0731 -0.0574
 7069SOL    HW232841   3.378   3.697   1.630  0.2060 -0.5391 -0.9778
 7070SOL     OW32842   4.036   1.254  10.013  0.0745  0.6297  0.3171
 7070SOL    HW132843   3.975   1.292   9.950 -0.2105  1.3176  1.0079
 7070SOL    HW232844   3.985   1.264  10.094 -0.4630  0.8665 -0.0475
 7071SOL     OW32845   3.783   1.866   6.248  0.5685 -0.1326 -0.3571
 7071SOL    HW132846   3.771   1.870   6.153  0.2396 -3.1037 -0.4302
 7071SOL    HW232847   3.868   1.823   6.234  0.4446 -0.4238 -0.2072
 7072SOL     OW32848   3.025   2.645   4.046 -0.4557  0.3565  0.4551
 7072SOL    HW132849   3.002   2.593   4.123  1.0085 -1.6722 -0.4797
 7072SOL    HW232850   2.938   2.677   4.025 -1.2139 -1.5522  0.7044
 7073SOL     OW32851   0.134   0.718  11.488  1.0136  0.3852 -0.2822
 7073SOL    HW132852   0.040   0.735  11.490  0.6472 -1.7990  1.1193
 7073SOL    HW232853   0.151   0.702  11.581  3.4836  0.9097 -0.6435
 7074SOL     OW32854   3.563   4.155   8.484  0.3227  0.1766 -0.0784
 7074SOL    HW132855   3.480   4.114   8.508  0.1404  1.3973  1.3896
 7074SOL    HW232856   3.618   4.082   8.456 -1.0230  0.0565 -2.4500
 7075SOL     OW32857   3.596   0.248   4.303  0.5092 -0.1286  0.1796
 7075SOL    HW132858   3.514   0.223   4.261  0.4409  0.5871 -0.1074
 7075SOL    HW232859   3.576   0.326   4.355  0.0534 -1.7485  2.4204
 7076SOL     OW32860   3.572   0.754   7.951  0.0687  0.2442 -0.3459
 7076SOL    HW132861   3.663   0.761   7.923  0.2848  1.4598  0.6355
 7076SOL    HW232862   3.573   0.682   8.015  2.3299  0.5219 -0.0876
 7077SOL     OW32863   2.563   4.182   5.997 -0.6388  0.0584  0.3511
 7077SOL    HW132864   2.493   4.120   6.019 -1.4375 -0.1776 -2.8357
 7077SOL    HW232865   2.636   4.121   5.991 -0.7590  0.0395 -0.9090
 7078SOL     OW32866   3.789   3.487   4.884  0.1292 -0.7034  0.1597
 7078SOL    HW132867   3.754   3.471   4.972  0.7345 -2.8462  0.0092
 7078SOL    HW232868   3.743   3.568   4.862 -0.8978 -1.2026  0.4961
 7079SOL     OW32869   3.373   3.409   9.682  0.0872 -0.6062 -0.1690
 7079SOL    HW132870   3.464   3.401   9.713  0.7523 -0.8587 -2.1890
 7079SOL    HW232871   3.332   3.410   9.768 -1.3934  1.2649 -0.9103
 7080SOL     OW32872   1.268   2.812   4.986 -0.3702 -0.5555 -0.4374
 7080SOL    HW132873   1.209   2.885   5.008  0.2535  0.2073 -1.2901
 7080SOL    HW232874   1.303   2.795   5.073  0.3011  0.9908 -0.4057
 7081SOL     OW32875   1.864   1.228   1.178 -0.1978  0.4595 -0.2081
 7081SOL    HW132876   1.769   1.234   1.188  0.2050  3.0961  1.8554
 7081SOL    HW232877   1.892   1.299   1.235 -0.7931  0.5071  0.0189
 7082SOL     OW32878   2.270   0.631  17.282  0.0716 -1.0165  0.1402
 7082SOL    HW132879   2.257   0.648  17.375  0.4506  0.0902 -0.0143
 7082SOL    HW232880   2.184   0.610  17.245 -0.3942  0.5740  0.3499
 7083SOL     OW32881   2.310   0.399   4.062  0.2952  0.4056  0.0723
 7083SOL    HW132882   2.270   0.454   3.995 -0.2820  2.2255  1.8975
 7083SOL    HW232883   2.340   0.336   3.997 -0.9528 -0.8126  0.7026
 7084SOL     OW32884   4.211   3.622  12.243 -0.3372  0.2238 -0.0774
 7084SOL    HW132885   4.169   3.549  12.197  0.2156 -0.0636 -0.1295
 7084SOL    HW232886   4.140   3.683  12.262 -0.9584 -1.0276  1.6817
 7085SOL     OW32887   2.338   3.728   0.130  0.8017  0.1483  0.8011
 7085SOL    HW132888   2.268   3.673   0.166  0.2080 -0.1648 -0.7892
 7085SOL    HW232889   2.366   3.781   0.204 -1.7111  0.6628  1.3887
 7086SOL     OW32890   1.616   0.097   7.104  0.5920  0.4596 -0.1490
 7086SOL    HW132891   1.535   0.117   7.057 -0.2893 -0.9188  0.7666
 7086SOL    HW232892   1.678   0.155   7.061 -1.0617  2.1512 -0.2606
 7087SOL     OW32893   1.710   1.597   1.829 -0.5121 -0.2470 -0.0155
 7087SOL    HW132894   1.655   1.536   1.779 -0.7424 -1.1269  1.2995
 7087SOL    HW232895   1.691   1.674   1.775 -4.2728 -0.5870  0.8007
 7088SOL     OW32896   0.084   4.002   5.591 -0.5941  0.3669 -0.6155
 7088SOL    HW132897   0.055   4.055   5.517 -1.2558 -1.2099 -1.4721
 7088SOL    HW232898   4.732   3.992   5.633 -0.5101  0.4916 -0.4112
 7089SOL     OW32899   3.831   3.882   6.773 -0.1737 -0.1531 -0.3696
 7089SOL    HW132900   3.820   3.932   6.854 -0.6184 -0.1770 -0.4106
 7089SOL    HW232901   3.839   3.797   6.814 -1.4187  0.4606  1.1745
 7090SOL     OW32902   3.597   4.318   4.076 -0.4583 -0.6565  0.0903
 7090SOL    HW132903   3.560   4.403   4.055 -1.1840 -0.7971  0.8274
 7090SOL    HW232904   3.524   4.261   4.053 -1.3942 -0.1301  1.7838
 7091SOL     OW32905   0.111   3.251   2.876  0.1702 -0.1905 -0.2929
 7091SOL    HW132906   0.044   3.213   2.933  0.8783 -3.5462 -1.7341
 7091SOL    HW232907   0.151   3.320   2.929  0.8926 -0.3421 -0.6441
 7092SOL     OW32908   2.038   3.575  15.715 -0.8142 -0.1115  0.3341
 7092SOL    HW132909   1.979   3.605  15.646 -0.7319 -1.6642 -0.4026
 7092SOL    HW232910   2.112   3.534  15.670  0.0857  0.7500  1.0163
 7093SOL     OW32911   3.158   3.790   0.472  0.6356  0.4729  0.1317
 7093SOL    HW132912   3.087   3.824   0.526  0.0434 -0.1067 -0.2688
 7093SOL    HW232913   3.148   3.698   0.496 -0.0716  1.0652  2.1061
 7094SOL     OW32914   1.940   3.176  14.497  0.4150 -0.5825 -0.5688
 7094SOL    HW132915   1.962   3.135  14.581 -1.2133 -1.0377 -0.3613
 7094SOL    HW232916   1.875   3.238  14.529 -1.0400 -0.9679 -2.8084
 7095SOL     OW32917   4.617   4.345  11.993  0.0143 -0.5752  0.3324
 7095SOL    HW132918   4.560   4.270  11.974 -0.3484 -0.3307  0.4600
 7095SOL    HW232919   4.701   4.323  11.952 -0.8677 -0.1460 -1.6964
 7096SOL     OW32920   1.505   1.865  12.361 -0.0463  0.3253  0.0978
 7096SOL    HW132921   1.538   1.948  12.327  0.8353 -0.5644 -1.2221
 7096SOL    HW232922   1.429   1.867  12.303 -1.3873  3.0861  1.9538
 7097SOL     OW32923   2.527   0.620  15.583 -0.0680  0.2248 -0.5539
 7097SOL    HW132924   2.486   0.639  15.667 -3.3227  0.1610 -2.1324
 7097SOL    HW232925   2.593   0.559  15.614 -2.6211 -0.8548  2.6743
 7098SOL     OW32926   1.947   3.939   1.744  0.8198  0.2848 -0.4166
 7098SOL    HW132927   2.009   3.963   1.813 -0.5610 -0.0901  0.9675
 7098SOL    HW232928   1.926   4.026   1.710  0.6424  0.0092 -1.0012
 7099SOL     OW32929   2.519   0.824   9.174  0.3741 -0.0813  0.0706
 7099SOL    HW132930   2.604   0.793   9.204  0.9146  1.2706 -0.1035
 7099SOL    HW232931   2.480   0.861   9.254  0.6975  3.0461 -1.2400
 7100SOL     OW32932   1.566   4.136   5.273 -0.4795 -0.1107 -0.3436
 7100SOL    HW132933   1.592   4.061   5.326 -1.8655 -1.3321 -1.3740
 7100SOL    HW232934   1.513   4.103   5.200  0.5067 -0.8437 -0.7477
 7101SOL     OW32935   3.223   2.891  11.018 -0.0651 -0.1012 -0.1152
 7101SOL    HW132936   3.284   2.857  10.953  0.9829  2.1594 -0.3067
 7101SOL    HW232937   3.232   2.986  11.027 -1.1331 -0.3768  3.6838
 7102SOL     OW32938   4.245   0.840   8.506 -0.7763 -0.2918  0.1112
 7102SOL    HW132939   4.244   0.913   8.568  1.2174  0.2366 -0.5042
 7102SOL    HW232940   4.338   0.821   8.496 -0.5865 -0.1686  1.6206
 7103SOL     OW32941   0.276   4.522   6.494 -0.2440 -0.0203  0.4827
 7103SOL    HW132942   0.224   4.596   6.523  3.0612  2.2404  0.6725
 7103SOL    HW232943   0.367   4.545   6.513 -0.6189  1.9524 -0.1261
 7104SOL     OW32944   2.632   1.344   3.009 -0.0000 -0.0117 -0.0688
 7104SOL    HW132945   2.666   1.412   2.951 -4.6536  1.7050 -0.8000
 7104SOL    HW232946   2.638   1.389   3.094 -2.2509  0.3447 -0.1065
 7105SOL     OW32947   3.255   3.430   7.840  0.3745 -0.6274  0.0714
 7105SOL    HW132948   3.182   3.490   7.858  1.5236  0.9547 -0.5456
 7105SOL    HW232949   3.264   3.422   7.745  0.1844  0.4584 -0.0325
 7106SOL     OW32950   3.857   1.202  10.999 -0.1641  0.0873 -0.0175
 7106SOL    HW132951   3.846   1.176  11.091 -1.1353  1.8124  0.3593
 7106SOL    HW232952   3.790   1.143  10.963  1.9509 -1.2219 -1.8214
 7107SOL     OW32953   3.064   0.494   4.881  0.4143  0.3229 -0.1522
 7107SOL    HW132954   3.034   0.434   4.813  1.3776  0.1166 -0.3999
 7107SOL    HW232955   3.001   0.566   4.879 -0.5681 -0.5467 -0.4763
 7108SOL     OW32956   4.729   1.140   3.796 -0.1682  0.5637 -0.9734
 7108SOL    HW132957   0.061   1.097   3.850 -0.1853  1.0610 -0.5584
 7108SOL    HW232958   4.670   1.067   3.778  0.8432 -0.6085  0.4140
 7109SOL     OW32959   0.913   2.485   1.314  0.2520  0.1035 -0.5559
 7109SOL    HW132960   0.823   2.505   1.342  0.2803 -1.3506  0.6097
 7109SOL    HW232961   0.944   2.454   1.399 -1.7296  1.0253  0.5202
 7110SOL     OW32962   1.236   1.256   5.359  0.5178  0.3496 -0.2542
 7110SOL    HW132963   1.204   1.285   5.274 -0.7067  0.9979  0.4251
 7110SOL    HW232964   1.326   1.249   5.328  0.2425 -1.5471 -0.6139
 7111SOL     OW32965   1.956   1.777  16.367 -0.2437 -0.0455  0.0488
 7111SOL    HW132966   1.965   1.775  16.462 -1.8681 -0.5714  0.1995
 7111SOL    HW232967   2.017   1.709  16.339 -1.3680 -2.1474  2.6518
 7112SOL     OW32968   3.693   1.159   2.644  0.2652  0.4540  0.1060
 7112SOL    HW132969   3.738   1.083   2.681 -0.2216  0.3540  0.4965
 7112SOL    HW232970   3.609   1.116   2.631  1.0885  0.0253 -3.6189
 7113SOL     OW32971   1.345   1.879  12.162  0.1941  0.3850  0.1328
 7113SOL    HW132972   1.386   1.838  12.085  1.4762  0.3028  0.8674
 7113SOL    HW232973   1.257   1.868  12.125  0.6481  1.4017 -1.2523
 7114SOL     OW32974   0.316   0.802   7.025 -0.4390 -0.1085 -0.2897
 7114SOL    HW132975   0.231   0.809   7.068 -1.0176 -1.7303 -1.1678
 7114SOL    HW232976   0.281   0.760   6.946 -2.9118  3.1428 -0.9273
 7115SOL     OW32977   3.769   0.791   4.072  0.0742 -0.3778  0.5178
 7115SOL    HW132978   3.786   0.772   4.164 -1.3752  0.2832  0.9305
 7115SOL    HW232979   3.715   0.714   4.053 -0.8155 -0.0919  1.8133
 7116SOL     OW32980   1.494   1.269   4.128 -0.3805 -0.0970  0.1067
 7116SOL    HW132981   1.421   1.324   4.154  0.4950  0.3629  1.5943
 7116SOL    HW232982   1.477   1.244   4.037  1.5021 -1.4508  0.1044
 7117SOL     OW32983   4.368   1.069  10.797 -0.1781  0.4766 -0.4224
 7117SOL    HW132984   4.279   1.063  10.834 -0.1717 -1.8248 -0.7796
 7117SOL    HW232985   4.417   0.995  10.832 -0.8694  0.5484  0.7185
 7118SOL     OW32986   0.703   2.805   1.747 -0.0381  0.3878  0.1924
 7118SOL    HW132987   0.762   2.730   1.737 -0.4131 -0.2495  2.6659
 7118SOL    HW232988   0.685   2.799   1.841  0.6698  1.4229  0.3978
 7119SOL     OW32989   4.433   2.028  12.625  0.0913  0.1155 -0.1452
 7119SOL    HW132990   4.419   1.984  12.709 -0.2490  0.1562 -0.1781
 7119SOL    HW232991   4.366   2.097  12.634 -0.6683 -0.3682 -2.0498
 7120SOL     OW32992   3.071   3.162  11.261 -0.1933  0.2721 -0.1895
 7120SOL    HW132993   3.010   3.226  11.223 -1.5380 -1.4175 -0.9083
 7120SOL    HW232994   3.016   3.083  11.269  0.7917 -0.5294 -1.3140
 7121SOL     OW32995   4.325   4.250  10.313  0.5060  0.1547 -0.4578
 7121SOL    HW132996   4.312   4.156  10.328  0.4586  0.2642  0.1727
 7121SOL    HW232997   4.377   4.269  10.391  1.9003 -2.0339 -0.8512
 7122SOL     OW32998   4.626   1.096   8.872 -0.4208 -0.3265 -0.1822
 7122SOL    HW132999   4.574   1.016   8.862  0.4398 -1.1214  1.5338
 7122SOL    HW233000   4.678   1.093   8.792  0.8232 -1.8161  0.6684
 7123SOL     OW33001   0.069   2.379  13.504  0.3989  0.9100  0.0549
 7123SOL    HW133002   0.054   2.398  13.597  1.4739  0.8414  0.2446
 7123SOL    HW233003   0.005   2.307  13.504 -1.0485  2.1827  0.1405
 7124SOL     OW33004   4.160   3.584   7.991 -0.4444  0.1116  0.0125
 7124SOL    HW133005   4.223   3.608   8.059 -0.7996 -0.2838  0.4839
 7124SOL    HW233006   4.199   3.503   7.959 -1.0730 -0.6076  1.0556
 7125SOL     OW33007   4.298   2.056   4.818 -0.0426  0.4052 -0.0088
 7125SOL    HW133008   4.330   2.052   4.728  1.2494  0.9885  0.4172
 7125SOL    HW233009   4.334   2.140   4.846  0.8194 -0.4571  1.5414
 7126SOL     OW33010   3.612   3.432  10.761 -0.0773  0.3388  0.6208
 7126SOL    HW133011   3.549   3.465  10.825 -1.4333 -1.9835  0.4761
 7126SOL    HW233012   3.669   3.508  10.758  1.1418 -0.7111 -2.3739
 7127SOL     OW33013   1.870   1.140   2.500  0.4994  0.1559 -0.6659
 7127SOL    HW133014   1.932   1.128   2.572  0.4364 -0.5328 -0.7208
 7127SOL    HW233015   1.793   1.113   2.549  1.0148 -1.6315 -0.8355
 7128SOL     OW33016   1.931   2.738   6.339 -0.5266 -0.2724  0.5741
 7128SOL    HW133017   1.960   2.712   6.252 -2.4193  0.0716 -0.1764
 7128SOL    HW233018   2.013   2.723   6.385 -0.5434 -0.2141  0.6236
 7129SOL     OW33019   3.368   3.371  14.844 -0.2610  0.4226  0.2214
 7129SOL    HW133020   3.401   3.366  14.754  0.4035 -0.4921  0.5117
 7129SOL    HW233021   3.437   3.421  14.888  1.2872 -1.4292 -0.0618
 7130SOL     OW33022   3.830   4.571   8.358  0.2586 -0.2271  0.4793
 7130SOL    HW133023   3.752   4.617   8.389  1.0478  1.2478  0.2589
 7130SOL    HW233024   3.842   4.608   8.271  3.9135  2.0205  1.9625
 7131SOL     OW33025   3.005   1.176   8.943  0.0772  0.0582  0.1304
 7131SOL    HW133026   3.044   1.145   9.024 -0.3713  1.6310  0.9370
 7131SOL    HW233027   2.942   1.240   8.977  0.2890 -0.4046  1.3742
 7132SOL     OW33028   4.701   3.484  16.329 -0.0779  0.1293 -0.1114
 7132SOL    HW133029   4.648   3.415  16.369 -1.1762  1.1965  0.2867
 7132SOL    HW233030   4.712   3.545  16.402 -0.4703 -2.5811  2.2213
 7133SOL     OW33031   0.474   3.689   2.389 -0.0111  0.4961  0.1137
 7133SOL    HW133032   0.389   3.717   2.424 -0.4278  1.3251 -1.5861
 7133SOL    HW233033   0.525   3.725   2.462  0.4705  0.8667 -0.4066
 7134SOL     OW33034   1.068   0.075  11.126  0.5163  0.7268  0.4300
 7134SOL    HW133035   1.134   0.134  11.162  2.3248 -1.9714  1.5665
 7134SOL    HW233036   1.005   0.136  11.087  0.1746 -1.1404 -1.9674
 7135SOL     OW33037   2.386   0.272   6.787  0.0322  0.1108 -0.2872
 7135SOL    HW133038   2.315   0.326   6.753 -1.0738 -0.8727  0.5019
 7135SOL    HW233039   2.350   0.245   6.871 -1.2072  0.7855 -0.5983
 7136SOL     OW33040   2.154   4.395   8.304  0.6951 -0.3207 -0.5197
 7136SOL    HW133041   2.224   4.458   8.289 -0.2387  1.1125  1.3359
 7136SOL    HW233042   2.096   4.463   8.337  1.9420 -0.4480  1.8970
 7137SOL     OW33043   3.935   4.419  13.775 -0.0690  0.1168 -0.1490
 7137SOL    HW133044   3.941   4.464  13.859 -0.1789 -2.0655  1.0498
 7137SOL    HW233045   4.002   4.474  13.735 -0.3073 -0.9719 -2.0321
 7138SOL     OW33046   3.004   1.022   3.050 -0.2272  0.1790 -0.0347
 7138SOL    HW133047   3.052   0.994   3.128  1.3640  2.6916 -0.1342
 7138SOL    HW233048   3.086   1.042   3.004  1.3079 -0.1437  2.5708
 7139SOL     OW33049   3.887   3.642   9.920  0.0262  0.8796 -0.1048
 7139SOL    HW133050   3.844   3.558   9.937  1.0851  0.1276 -1.1362
 7139SOL    HW233051   3.963   3.634   9.978 -0.0388  3.0574  0.2784
 7140SOL     OW33052   0.999   2.297  12.255 -0.3271 -0.4502  1.1666
 7140SOL    HW133053   1.014   2.236  12.183  0.5466 -0.5272  1.4044
 7140SOL    HW233054   1.083   2.343  12.254  0.2678 -1.5811 -0.2582
 7141SOL     OW33055   1.819   0.456   9.797  0.1904 -0.0301  0.0181
 7141SOL    HW133056   1.853   0.520   9.735 -0.5068 -0.7403 -1.1177
 7141SOL    HW233057   1.730   0.491   9.804  0.3322  0.2363  0.4325
 7142SOL     OW33058   1.698   1.955   5.091 -0.3567 -0.3729 -0.0027
 7142SOL    HW133059   1.790   1.975   5.072 -0.3953  0.1247  0.3019
 7142SOL    HW233060   1.677   1.882   5.033 -0.8211 -1.1813  1.1860
 7143SOL     OW33061   4.679   1.325   3.230 -0.2847  0.7106  0.1482
 7143SOL    HW133062   0.019   1.313   3.290 -0.7877  0.4732  0.7180
 7143SOL    HW233063   4.628   1.382   3.287 -0.6464  1.0499 -0.5115
 7144SOL     OW33064   4.045   1.982   2.087 -0.0381  0.2558  0.6104
 7144SOL    HW133065   4.135   1.962   2.110  0.3982  0.3705 -1.0354
 7144SOL    HW233066   4.051   2.075   2.065  1.8433  0.2065  0.9954
 7145SOL     OW33067   3.484   4.643   2.705  0.2552 -0.5428 -0.0952
 7145SOL    HW133068   3.498   4.583   2.632 -0.8869 -0.4011 -0.4320
 7145SOL    HW233069   3.490   4.728   2.662  1.5413 -0.1056  0.9505
 7146SOL     OW33070   0.927   3.112  17.699 -0.1220 -0.2050 -0.7603
 7146SOL    HW133071   1.019   3.127  17.679 -0.1447 -0.8330 -1.3368
 7146SOL    HW233072   0.920   3.174   0.037 -2.7283 -0.8964 -0.4319
 7147SOL     OW33073   0.581   2.521  10.570 -0.0449 -0.1640  0.1672
 7147SOL    HW133074   0.501   2.548  10.525  0.7507  0.2652 -0.9918
 7147SOL    HW233075   0.584   2.429  10.544  0.8903 -0.3154  0.8198
 7148SOL     OW33076   2.246   1.947   7.750  0.4754  0.0338  0.0129
 7148SOL    HW133077   2.190   1.975   7.677 -1.4149  1.1518  1.8909
 7148SOL    HW233078   2.308   1.889   7.706  0.2612 -0.6863  0.6722
 7149SOL     OW33079   1.156   4.564   4.013  0.1226  0.2811 -0.5230
 7149SOL    HW133080   1.159   4.536   4.104 -0.3624  1.1929 -0.2285
 7149SOL    HW233081   1.140   4.658   4.025 -1.7154 -0.1097  0.0301
 7150SOL     OW33082   0.643   2.450   2.277 -0.0160 -0.6019 -0.1854
 7150SOL    HW133083   0.696   2.491   2.208  0.5761 -0.5621  0.2989
 7150SOL    HW233084   0.566   2.414   2.232 -0.1835 -2.2780  1.4758
 7151SOL     OW33085   2.360   0.411   4.457  0.1894 -0.2617  0.1890
 7151SOL    HW133086   2.289   0.350   4.476  1.3599 -1.5821  0.3618
 7151SOL    HW233087   2.417   0.394   4.531  0.7614  1.3918  0.1308
 7152SOL     OW33088   4.535   0.231   4.512 -0.4335  0.6376 -0.4730
 7152SOL    HW133089   4.526   0.161   4.447  1.6463 -0.6462  0.6569
 7152SOL    HW233090   4.629   0.237   4.528 -0.2689  0.0707 -1.2166
 7153SOL     OW33091   2.599   2.319   5.362  0.2286 -0.7790  0.3715
 7153SOL    HW133092   2.653   2.328   5.283 -1.6538 -0.6935 -0.9051
 7153SOL    HW233093   2.518   2.277   5.332 -1.3330  1.3773  1.5750
 7154SOL     OW33094   0.475   0.028  12.407 -0.3143  0.3134 -0.1908
 7154SOL    HW133095   0.438   0.116  12.404  1.4036  0.9881 -1.7018
 7154SOL    HW233096   0.428   4.722  12.334  0.4620 -1.8318  0.4659
 7155SOL     OW33097   0.023   0.930   8.550 -0.6971 -0.2483 -0.4139
 7155SOL    HW133098   0.028   0.864   8.619  0.4524  0.2948  0.0179
 7155SOL    HW233099   0.116   0.951   8.546 -0.8471  0.5214  0.2606
 7156SOL     OW33100   4.697   4.318   2.371  0.0832  0.6589  0.0942
 7156SOL    HW133101   0.003   4.377   2.307 -0.6946  0.9961 -0.0861
 7156SOL    HW233102   0.022   4.321   2.446  0.0186  0.5340  0.1507
 7157SOL     OW33103   2.600   2.028   5.900  0.3987  0.0912  0.0818
 7157SOL    HW133104   2.582   1.952   5.845 -0.8980  0.1925  0.3640
 7157SOL    HW233105   2.666   1.983   5.954  0.4686  1.8396  1.4880
 7158SOL     OW33106   1.511   0.890   7.386 -0.2761 -0.1175 -0.1643
 7158SOL    HW133107   1.459   0.816   7.355 -1.2591 -0.1832  1.6845
 7158SOL    HW233108   1.457   0.965   7.361 -0.3578 -0.1560 -0.1020
 7159SOL     OW33109   1.888   3.149   9.188  0.0114 -1.0518  0.1618
 7159SOL    HW133110   1.804   3.128   9.148 -1.0294  1.5717  0.9735
 7159SOL    HW233111   1.859   3.181   9.273 -1.6718  1.2031 -1.2460
 7160SOL     OW33112   1.799   0.581  17.657 -0.3033 -0.2254 -0.8471
 7160SOL    HW133113   1.776   0.510  17.717 -1.4468 -0.1303 -1.1814
 7160SOL    HW233114   1.823   0.646  17.723 -0.4287 -0.2758 -0.7518
 7161SOL     OW33115   3.296   2.215   3.984 -0.3895  0.1682  0.4019
 7161SOL    HW133116   3.356   2.141   3.984 -0.4799  0.0965 -2.6580
 7161SOL    HW233117   3.332   2.287   4.036 -0.3838  0.5787 -0.1636
 7162SOL     OW33118   2.808   1.149  12.461  0.4387 -0.2623  0.3106
 7162SOL    HW133119   2.826   1.055  12.465 -0.4167 -0.4115  0.7599
 7162SOL    HW233120   2.735   1.170  12.520  0.9091  0.3512  0.6743
 7163SOL     OW33121   3.704   2.817   9.039 -0.5559  0.2302  0.3855
 7163SOL    HW133122   3.746   2.900   9.017  1.1632 -0.2170  2.0825
 7163SOL    HW233123   3.668   2.842   9.124 -2.3334 -1.7333  0.2317
 7164SOL     OW33124   1.820   4.298   8.513 -0.6051  0.0465  0.1332
 7164SOL    HW133125   1.770   4.370   8.552 -0.9563 -1.1517  1.8844
 7164SOL    HW233126   1.849   4.251   8.591  0.6400  0.1159 -0.2737
 7165SOL     OW33127   1.474   1.881  15.324  0.5242  0.8141 -0.1150
 7165SOL    HW133128   1.542   1.867  15.258 -0.7237  2.0137 -1.6729
 7165SOL    HW233129   1.523   1.846  15.398 -1.7055 -2.0701 -0.0525
 7166SOL     OW33130   0.870   2.336   6.857 -0.7276  0.2419 -0.1337
 7166SOL    HW133131   0.901   2.253   6.892  0.1019  0.9552  0.8223
 7166SOL    HW233132   0.799   2.370   6.912  1.3708 -1.3004  3.5137
 7167SOL     OW33133   4.506   3.844   8.581 -0.2944 -0.4277 -0.1843
 7167SOL    HW133134   4.574   3.910   8.575  0.1662 -0.9271 -0.4922
 7167SOL    HW233135   4.502   3.822   8.675 -0.2987  0.8998  0.1242
 7168SOL     OW33136   0.943   0.613   3.375  0.3966  0.5727 -0.3267
 7168SOL    HW133137   0.851   0.639   3.374 -0.1598 -1.5260 -1.7363
 7168SOL    HW233138   0.978   0.701   3.388 -1.3629  1.5483 -2.1815
 7169SOL     OW33139   1.341   3.469   8.646 -0.1398 -0.6518 -0.1960
 7169SOL    HW133140   1.385   3.489   8.729 -0.3834  1.8096 -0.6511
 7169SOL    HW233141   1.271   3.534   8.650  0.0373 -0.3406 -2.4306
 7170SOL     OW33142   1.335   2.937   0.193 -0.0836  0.2689  0.3062
 7170SOL    HW133143   1.275   2.864   0.182  1.0180 -0.4159 -1.1243
 7170SOL    HW233144   1.408   2.886   0.227 -0.2592  0.0481  0.3522
 7171SOL     OW33145   2.791   2.429   5.149  0.6651  0.5001 -0.2865
 7171SOL    HW133146   2.740   2.457   5.073  0.2760  1.1518  0.2147
 7171SOL    HW233147   2.825   2.341   5.129 -1.2471  0.1690 -2.1355
 7172SOL     OW33148   4.288   0.840   3.380  0.5515 -0.3750  0.2391
 7172SOL    HW133149   4.232   0.804   3.449  0.6509  0.2289  0.6319
 7172SOL    HW233150   4.328   0.914   3.424 -2.6746  1.0712  0.7462
 7173SOL     OW33151   2.762   3.656   6.313 -0.5564 -0.6502 -0.4167
 7173SOL    HW133152   2.772   3.734   6.367  2.2765  0.2382 -2.2117
 7173SOL    HW233153   2.671   3.629   6.304 -0.7475 -0.7260  1.7622
 7174SOL     OW33154   0.442   3.976   9.985  0.9058 -0.6958  0.2558
 7174SOL    HW133155   0.479   4.013  10.066 -0.3316  0.1632  0.4293
 7174SOL    HW233156   0.504   3.996   9.916  0.0496  0.9590 -0.0331
 7175SOL     OW33157   0.181   4.720  10.683 -1.2351  0.4752 -0.5333
 7175SOL    HW133158   0.222   4.675  10.610 -0.2466 -0.4020  0.5536
 7175SOL    HW233159   0.086   4.712  10.669 -1.3587 -2.1664  1.7880
 7176SOL     OW33160   3.597   2.912   0.407 -0.6219 -0.4314  1.0408
 7176SOL    HW133161   3.510   2.949   0.419 -0.4587  0.4497 -0.5944
 7176SOL    HW233162   3.593   2.892   0.314 -2.7407 -1.8729  1.4402
 7177SOL     OW33163   4.457   2.844   0.496  0.5619  0.6343 -0.1095
 7177SOL    HW133164   4.367   2.875   0.487 -0.3510 -1.8859  0.1215
 7177SOL    HW233165   4.487   2.857   0.406 -0.0345  0.5016 -0.3259
 7178SOL     OW33166   2.548   3.186  17.418 -0.2443 -0.1597 -0.0209
 7178SOL    HW133167   2.617   3.216  17.476 -1.5295 -1.0744  1.9968
 7178SOL    HW233168   2.594   3.190  17.334  0.7758  0.4293  0.5684
 7179SOL     OW33169   4.111   4.430  16.872  0.0491 -0.8646  0.0396
 7179SOL    HW133170   4.093   4.501  16.932  0.4889 -0.4264 -0.3498
 7179SOL    HW233171   4.091   4.461  16.784 -0.7304  1.5414  1.0678
 7180SOL     OW33172   3.228   3.079   3.597 -0.4008 -0.1917  0.3477
 7180SOL    HW133173   3.188   3.008   3.647 -1.2065 -0.9200 -1.3044
 7180SOL    HW233174   3.227   3.045   3.507  0.8790 -3.7313  1.6730
 7181SOL     OW33175   0.596   4.091   5.935 -0.4506 -0.6625  0.1409
 7181SOL    HW133176   0.575   4.002   5.964  3.7797 -0.9853  2.2647
 7181SOL    HW233177   0.524   4.102   5.872 -0.0672  1.9847  0.1778
 7182SOL     OW33178   1.958   3.194  13.924  0.2266 -0.0925  0.2452
 7182SOL    HW133179   1.991   3.155  13.843 -1.3672 -1.0942  0.0704
 7182SOL    HW233180   1.977   3.118  13.981 -0.5661 -0.9090 -0.5859
 7183SOL     OW33181   3.260   1.049  11.423  0.3851 -0.1915  0.0041
 7183SOL    HW133182   3.248   1.141  11.448  2.3413  0.1460 -0.2755
 7183SOL    HW233183   3.201   0.995  11.475 -0.2484 -0.8156 -1.3521
 7184SOL     OW33184   1.045   2.575   9.288  0.0640 -0.0580 -0.8577
 7184SOL    HW133185   1.025   2.483   9.275 -1.1547  0.1853 -0.7214
 7184SOL    HW233186   0.995   2.593   9.367  0.5811  1.2181 -0.8193
 7185SOL     OW33187   3.823   2.860   6.832  0.2684  0.1833 -0.0277
 7185SOL    HW133188   3.891   2.927   6.834 -1.4453  1.8780  1.9487
 7185SOL    HW233189   3.761   2.883   6.901 -1.4578  0.7309 -1.7872
 7186SOL     OW33190   4.468   4.472   3.363  0.1759 -0.6581  0.1297
 7186SOL    HW133191   4.375   4.457   3.348  0.3736 -1.8355  0.0920
 7186SOL    HW233192   4.474   4.565   3.337 -1.5509 -0.5432  0.1471
 7187SOL     OW33193   1.254   1.955   1.230  0.2281  0.0969 -0.0442
 7187SOL    HW133194   1.246   1.901   1.150  0.7536 -0.9674  0.6226
 7187SOL    HW233195   1.224   1.893   1.297 -1.7310  1.4600  0.3486
 7188SOL     OW33196   4.255   1.386   9.087 -0.8545  0.0971 -0.5562
 7188SOL    HW133197   4.312   1.441   9.034 -1.4429  1.1161 -0.1429
 7188SOL    HW233198   4.204   1.443   9.145 -0.7776 -0.7165  0.3069
 7189SOL     OW33199   4.681   1.389   1.442  0.0139  0.6203  0.0312
 7189SOL    HW133200   4.685   1.332   1.366  2.5602  0.7375  0.1000
 7189SOL    HW233201   4.663   1.326   1.511  2.2151 -1.6571 -1.4933
 7190SOL     OW33202   0.393   3.261  14.821  0.1440  0.1050 -0.1257
 7190SOL    HW133203   0.327   3.196  14.846  1.4665 -1.1714  0.0537
 7190SOL    HW233204   0.345   3.338  14.854 -1.3023  0.1190 -2.2490
 7191SOL     OW33205   3.607   0.173   6.876 -0.0402 -0.1312 -0.2361
 7191SOL    HW133206   3.576   0.202   6.962  0.7136  0.1445 -0.0543
 7191SOL    HW233207   3.651   0.091   6.897 -1.2435 -1.2529 -2.1359
 7192SOL     OW33208   0.482   0.916   9.807 -0.0436 -0.7110 -0.1109
 7192SOL    HW133209   0.418   0.849   9.785 -1.2518 -0.1075  1.4707
 7192SOL    HW233210   0.534   0.869   9.872 -1.7651  0.0088  1.8130
 7193SOL     OW33211   2.446   2.776   4.374  0.5564  0.0952  0.7081
 7193SOL    HW133212   2.508   2.747   4.307  2.3284  0.9217  1.9844
 7193SOL    HW233213   2.405   2.690   4.372 -2.3502  1.4702  2.3010
 7194SOL     OW33214   3.918   3.202  10.143  0.1500  0.2917  0.0109
 7194SOL    HW133215   3.835   3.175  10.102  0.2013  0.5341 -0.2552
 7194SOL    HW233216   3.880   3.252  10.215  0.8578 -1.2390  1.4289
 7195SOL     OW33217   4.700   2.987   4.187 -0.1938 -0.4918  0.0653
 7195SOL    HW133218   4.669   3.052   4.250  1.2087  2.6376 -2.5412
 7195SOL    HW233219   4.696   3.043   4.110  2.0525 -1.2061 -0.5772
 7196SOL     OW33220   1.897   2.621   1.394 -0.4579 -0.7010 -0.1179
 7196SOL    HW133221   1.806   2.649   1.385 -0.6556 -1.6874 -1.0991
 7196SOL    HW233222   1.907   2.597   1.487  1.2175 -0.9608 -0.3536
 7197SOL     OW33223   4.417   2.764   4.610 -0.4281  0.6203  0.1838
 7197SOL    HW133224   4.475   2.822   4.660  1.9363 -0.6981 -1.0151
 7197SOL    HW233225   4.466   2.746   4.530 -1.2592 -0.6412 -0.0432
 7198SOL     OW33226   3.983   1.385  14.667  0.0264  0.0865 -0.3658
 7198SOL    HW133227   3.933   1.445  14.611 -1.9572  0.0449  1.3397
 7198SOL    HW233228   4.050   1.358  14.604  2.2167 -0.7610  2.3320
 7199SOL     OW33229   2.031   1.935   8.499 -0.3875 -0.7549 -0.0922
 7199SOL    HW133230   1.989   2.020   8.516  1.1612  0.4052 -2.0977
 7199SOL    HW233231   2.060   1.941   8.408  0.4275 -1.3142  0.1241
 7200SOL     OW33232   3.695   3.126   0.883  0.0444 -0.6013 -0.5453
 7200SOL    HW133233   3.720   3.057   0.945  2.3140  2.5988  2.1178
 7200SOL    HW233234   3.700   3.085   0.797 -0.2522 -0.5780 -0.5734
 7201SOL     OW33235   4.344   1.020   4.156 -0.1725  0.2422 -0.1397
 7201SOL    HW133236   4.311   1.083   4.092  0.0774  0.7470  0.2259
 7201SOL    HW233237   4.408   1.072   4.205 -0.2687  1.5917 -1.4537
 7202SOL     OW33238   2.979   1.383   9.408 -0.5029 -0.2429  0.0140
 7202SOL    HW133239   2.889   1.388   9.376 -0.4061  3.5455  0.2762
 7202SOL    HW233240   2.979   1.294   9.441 -1.5913  0.1439  1.0595
 7203SOL     OW33241   4.537   4.275  16.893  0.3400 -0.0610 -0.3558
 7203SOL    HW133242   4.631   4.257  16.891  0.2816 -0.3543 -0.4379
 7203SOL    HW233243   4.508   4.185  16.884  0.4936 -0.2720  1.2331
 7204SOL     OW33244   2.431   1.425   8.740 -0.0458 -0.4003 -0.4547
 7204SOL    HW133245   2.337   1.441   8.727 -0.1893 -0.6546  0.2962
 7204SOL    HW233246   2.456   1.508   8.781 -0.2892  0.1542 -1.4193
 7205SOL     OW33247   0.769   2.988   3.658 -0.5775  0.2992  0.0101
 7205SOL    HW133248   0.733   3.051   3.595 -0.9267  1.9156  1.8545
 7205SOL    HW233249   0.695   2.928   3.659 -0.5719  0.3453  2.0450
 7206SOL     OW33250   3.665   0.125   5.499  0.8069  0.2731 -0.2456
 7206SOL    HW133251   3.586   0.089   5.459  0.2975  0.4904  0.5532
 7206SOL    HW233252   3.623   0.168   5.574 -0.7180  2.1466 -2.1898
 7207SOL     OW33253   4.265   2.194   6.628  0.7491 -0.0530 -0.4466
 7207SOL    HW133254   4.279   2.289   6.624 -0.0987  0.2205  2.4590
 7207SOL    HW233255   4.317   2.166   6.703 -1.5791  0.1622  1.2635
 7208SOL     OW33256   4.508   2.321   9.150 -0.6884  0.3759 -0.3806
 7208SOL    HW133257   4.511   2.236   9.193 -2.0519  0.0481 -0.9321
 7208SOL    HW233258   4.414   2.339   9.151 -0.8507 -0.5620  1.3134
 7209SOL     OW33259   2.075   0.208   1.635 -0.3431 -0.2256  0.4919
 7209SOL    HW133260   2.147   0.253   1.680 -1.3070 -0.5521  2.3860
 7209SOL    HW233261   2.025   0.279   1.596  1.4126  1.5455  1.4885
 7210SOL     OW33262   4.193   3.794  17.157 -0.0148  0.3119  0.4515
 7210SOL    HW133263   4.259   3.738  17.115  0.7342  2.0619 -0.7099
 7210SOL    HW233264   4.195   3.870  17.099  0.7446 -1.6537 -2.1077
 7211SOL     OW33265   0.077   2.366   8.002  0.2855  0.4721  0.2809
 7211SOL    HW133266   0.008   2.312   7.962 -0.3085  0.5327  1.2103
 7211SOL    HW233267   0.138   2.377   7.930  1.4183  0.9836  1.3269
 7212SOL     OW33268   3.251   0.719   1.557 -0.2293  0.1797 -0.2265
 7212SOL    HW133269   3.293   0.692   1.638 -3.8067 -1.7779  0.9842
 7212SOL    HW233270   3.328   0.728   1.500 -0.1171 -0.2957 -0.1509
 7213SOL     OW33271   0.044   1.883   9.568 -0.2488  0.1125 -0.0351
 7213SOL    HW133272   4.728   1.874   9.487 -0.3502 -0.8905  0.1405
 7213SOL    HW233273   0.098   1.958   9.540 -0.6688  0.3650 -0.1636
 7214SOL     OW33274   3.114   3.654   5.836 -0.7067 -0.3919  0.4437
 7214SOL    HW133275   3.099   3.566   5.801  3.0032 -1.4707  1.5283
 7214SOL    HW233276   3.204   3.638   5.864 -0.8049 -0.9381  0.4450
 7215SOL     OW33277   3.871   1.151   8.605  0.0226  0.0823 -0.0914
 7215SOL    HW133278   3.787   1.132   8.647 -0.5276 -1.1322 -1.7366
 7215SOL    HW233279   3.842   1.209   8.535 -0.1471  0.1465  0.0327
 7216SOL     OW33280   0.979   3.699   6.742 -0.1203 -0.0265  0.3237
 7216SOL    HW133281   1.027   3.664   6.666 -1.2349  0.5510 -0.6412
 7216SOL    HW233282   1.024   3.783   6.752 -0.1248  0.0211 -0.0602
 7217SOL     OW33283   4.022   4.554   2.864 -0.1705  0.0363  0.0550
 7217SOL    HW133284   3.929   4.576   2.872 -0.2831  0.5380 -2.6528
 7217SOL    HW233285   4.054   4.522   2.948  1.4438  3.2182  0.6367
 7218SOL     OW33286   3.645   1.639   7.389  0.1434  0.1710  0.2379
 7218SOL    HW133287   3.682   1.710   7.441 -0.5878 -1.4985  3.1032
 7218SOL    HW233288   3.599   1.583   7.453 -2.3161  0.6272 -1.1201
 7219SOL     OW33289   0.902   3.175   2.619  0.4140 -0.4303  0.3557
 7219SOL    HW133290   0.827   3.129   2.657 -1.2243  1.4426 -0.6061
 7219SOL    HW233291   0.861   3.261   2.608 -1.1957 -1.1693  0.5412
 7220SOL     OW33292   0.395   3.951   9.504 -0.4644  0.4913 -0.6631
 7220SOL    HW133293   0.319   3.893   9.511  0.8593 -1.4849 -2.7167
 7220SOL    HW233294   0.348   4.034   9.497 -1.7505 -0.4600 -3.4759
 7221SOL     OW33295   0.466   4.444   6.976  0.3513  0.1027 -0.2390
 7221SOL    HW133296   0.509   4.495   7.045  0.9519 -0.2800 -0.3292
 7221SOL    HW233297   0.493   4.487   6.895  0.8938  0.3272  0.0607
 7222SOL     OW33298   3.458   2.721   6.453  0.1357  0.1044 -0.7010
 7222SOL    HW133299   3.544   2.740   6.491 -0.3102  0.1224  0.2998
 7222SOL    HW233300   3.473   2.631   6.426 -0.9911 -0.2508 -0.1315
 7223SOL     OW33301   0.320   1.558  12.571  0.2164  0.4565 -0.2017
 7223SOL    HW133302   0.416   1.559  12.568  0.1472  0.9143 -1.8957
 7223SOL    HW233303   0.302   1.598  12.486  2.1094 -2.4117 -1.9713
 7224SOL     OW33304   1.261   2.727   7.990 -0.6071  0.2769 -0.3080
 7224SOL    HW133305   1.209   2.793   7.944  0.1551  0.8356 -0.3630
 7224SOL    HW233306   1.193   2.666   8.018 -0.3781  0.5016  0.7080
 7225SOL     OW33307   0.069   4.730   8.762 -0.6688  0.0452 -0.3020
 7225SOL    HW133308   0.001   0.059   8.737 -0.6427  0.7731  1.4608
 7225SOL    HW233309   0.017   4.674   8.820  0.8516 -0.5149  0.5103
 7226SOL     OW33310   0.460   1.243   3.826  0.0001  0.1766 -0.4987
 7226SOL    HW133311   0.437   1.249   3.733 -1.7456 -0.0691 -0.0744
 7226SOL    HW233312   0.449   1.149   3.821 -0.5805  0.0997  2.1969
 7227SOL     OW33313   2.772   3.308   2.501  0.2162  0.4135  0.3990
 7227SOL    HW133314   2.697   3.292   2.558  1.1980  1.6217  2.0644
 7227SOL    HW233315   2.729   3.352   2.428  0.2996 -0.8046 -0.3761
 7228SOL     OW33316   1.409   4.597  15.448  0.2533  0.1017  0.1831
 7228SOL    HW133317   1.369   4.684  15.440  1.5385  0.8898  2.2681
 7228SOL    HW233318   1.501   4.625  15.444  0.1097  0.7293  1.3175
 7229SOL     OW33319   1.124   1.539   5.372 -0.4548  0.9136 -0.6222
 7229SOL    HW133320   1.197   1.532   5.434  0.4766 -0.3321 -1.8779
 7229SOL    HW233321   1.053   1.510   5.429  0.2232  0.2180 -0.1381
 7230SOL     OW33322   2.198   3.038   1.542  0.3956  0.3850 -0.1396
 7230SOL    HW133323   2.116   3.071   1.506  0.7777  2.0476  0.5111
 7230SOL    HW233324   2.230   2.986   1.467 -1.4942  0.3938 -0.9394
 7231SOL     OW33325   0.692   1.372   6.665 -0.0131  0.2601  0.2478
 7231SOL    HW133326   0.651   1.378   6.579 -1.5959  2.3544  1.1204
 7231SOL    HW233327   0.650   1.439   6.719  2.8531  0.9162  1.6874
 7232SOL     OW33328   3.892   4.296   4.607  0.1697  0.4196 -0.5336
 7232SOL    HW133329   3.823   4.251   4.558 -1.6409  1.2847  1.2265
 7232SOL    HW233330   3.875   4.386   4.581  0.8449  0.2202 -1.6633
 7233SOL     OW33331   0.294   2.847  14.919 -0.6478 -0.0610 -0.8101
 7233SOL    HW133332   0.359   2.828  14.851  1.7487 -0.5722  1.5992
 7233SOL    HW233333   0.353   2.851  14.994 -2.0400 -0.0628  0.2815
 7234SOL     OW33334   3.059   2.982  16.080 -0.3315 -0.1808 -0.1860
 7234SOL    HW133335   3.145   3.010  16.112  0.2520  0.7900 -2.5980
 7234SOL    HW233336   3.006   3.046  16.127 -0.2899 -0.3092  0.0344
 7235SOL     OW33337   2.818   1.299   1.523 -0.0688  0.3214 -0.3262
 7235SOL    HW133338   2.851   1.211   1.503  0.3971  1.6012 -5.1480
 7235SOL    HW233339   2.739   1.289   1.470 -0.1321 -0.9155  0.0037
 7236SOL     OW33340   2.357   3.945   2.068 -0.3423 -0.2765  0.5601
 7236SOL    HW133341   2.406   4.016   2.111  1.5091  0.1202 -2.1768
 7236SOL    HW233342   2.423   3.878   2.049 -0.4991  0.6086 -3.1720
 7237SOL     OW33343   2.991   2.772   7.452  0.2732 -0.1820 -0.5075
 7237SOL    HW133344   3.086   2.762   7.460  0.4499  0.5363 -1.7408
 7237SOL    HW233345   2.972   2.678   7.451 -0.2336 -0.0803  0.3805
 7238SOL     OW33346   0.150   4.145   8.851 -0.8768  0.3234  0.7422
 7238SOL    HW133347   0.194   4.124   8.934  1.3133 -1.1223 -0.7976
 7238SOL    HW233348   0.221   4.199   8.817  2.2355 -2.0283  3.6280
 7239SOL     OW33349   2.981   0.713  16.690  0.8379  0.4924 -0.3261
 7239SOL    HW133350   3.040   0.733  16.617  1.5856 -0.5184 -0.0051
 7239SOL    HW233351   2.972   0.798  16.733 -0.6684 -0.6646  1.6399
 7240SOL     OW33352   4.252   4.375  14.793 -0.8086 -0.2966  0.1972
 7240SOL    HW133353   4.220   4.285  14.784 -1.5469  0.0424 -0.5971
 7240SOL    HW233354   4.304   4.383  14.713 -2.1142 -0.8859 -0.7034
 7241SOL     OW33355   2.190   4.174   0.425  0.0675 -0.2825  0.2066
 7241SOL    HW133356   2.150   4.094   0.460  0.5753 -1.0911 -1.0504
 7241SOL    HW233357   2.116   4.233   0.440  1.4485  1.6443 -0.5853
 7242SOL     OW33358   1.147   2.363   6.830  0.2517 -0.4105  0.2086
 7242SOL    HW133359   1.175   2.454   6.821 -1.0267 -0.2650 -2.4779
 7242SOL    HW233360   1.052   2.367   6.840  0.3082  3.1209 -0.5839
 7243SOL     OW33361   0.667   1.362   7.008 -0.4954 -0.4515  0.0536
 7243SOL    HW133362   0.572   1.372   7.006 -0.2456  1.8226 -0.3896
 7243SOL    HW233363   0.699   1.451   7.024 -0.0311 -0.6615  0.2733
 7244SOL     OW33364   3.676   0.231   7.501 -0.0379  0.1009 -0.4072
 7244SOL    HW133365   3.722   0.174   7.563 -2.7212 -0.2066  1.2814
 7244SOL    HW233366   3.731   0.308   7.487 -0.9624  0.8610  0.1445
 7245SOL     OW33367   3.311   2.512   7.540  0.0817  0.3681  0.3060
 7245SOL    HW133368   3.284   2.439   7.595  2.4949  0.4821  1.6649
 7245SOL    HW233369   3.399   2.478   7.522 -0.1102  0.0398 -0.0036
 7246SOL     OW33370   2.198   1.019   8.473  0.6772 -0.8287  0.5060
 7246SOL    HW133371   2.141   0.952   8.436 -1.3031  1.1400 -0.0213
 7246SOL    HW233372   2.270   1.012   8.411  0.3685  1.8729 -0.1631
 7247SOL     OW33373   3.885   1.821   8.468  0.2543  0.7206  0.0744
 7247SOL    HW133374   3.844   1.744   8.430  3.7231 -1.0072 -0.0823
 7247SOL    HW233375   3.873   1.883   8.396  2.2770  2.1819  0.9995
 7248SOL     OW33376   1.996   0.625   2.978 -0.1022  0.3342  0.0232
 7248SOL    HW133377   2.074   0.623   2.922 -0.2440  0.3452 -0.1774
 7248SOL    HW233378   1.980   0.531   2.982  0.3370  0.3352  1.4434
 7249SOL     OW33379   1.277   3.162   7.003  0.4842 -0.2048  0.0630
 7249SOL    HW133380   1.274   3.125   6.915  3.1735 -1.6868  0.6030
 7249SOL    HW233381   1.348   3.225   6.991 -0.6796  0.6884 -2.0817
 7250SOL     OW33382   2.119   4.724  10.373  0.5381  0.3201  0.5134
 7250SOL    HW133383   2.077   4.664  10.434 -3.8758  1.1202 -1.7414
 7250SOL    HW233384   2.133   0.072  10.421  2.4176  0.9714 -1.1093
 7251SOL     OW33385   1.248   0.621   1.192  0.0687  0.3460  0.4369
 7251SOL    HW133386   1.175   0.586   1.141  0.2900  0.5507 -0.0159
 7251SOL    HW233387   1.214   0.709   1.208  2.4458  1.5614 -1.2996
 7252SOL     OW33388   0.911   3.617   3.919  0.0339  0.4944  0.3842
 7252SOL    HW133389   0.932   3.546   3.859 -0.2243  0.4565  0.3372
 7252SOL    HW233390   0.912   3.571   4.003  0.5146  0.0162  0.1109
 7253SOL     OW33391   2.716   0.094  17.669  0.3860  0.3035  0.3145
 7253SOL    HW133392   2.762   0.044  17.602  0.1926 -0.8936  1.0811
 7253SOL    HW233393   2.760   0.179  17.674 -0.5156  0.8448 -0.7668
 7254SOL     OW33394   1.862   1.516   5.961  0.3472  0.0278 -0.0380
 7254SOL    HW133395   1.868   1.589   5.899 -3.6616 -0.1293 -0.6130
 7254SOL    HW233396   1.768   1.518   5.982  0.3891 -2.6174  0.4039
 7255SOL     OW33397   3.497   0.822   4.658  0.2546 -0.3046 -0.1467
 7255SOL    HW133398   3.413   0.778   4.645 -0.0936  0.8354 -1.7319
 7255SOL    HW233399   3.479   0.905   4.615 -2.3799 -0.8916 -0.1735
 7256SOL     OW33400   0.498   1.600   9.860 -0.1903  0.3255 -0.1774
 7256SOL    HW133401   0.558   1.526   9.870 -1.0185 -0.2734  0.3514
 7256SOL    HW233402   0.424   1.548   9.829  0.4261 -1.1991  0.9347
 7257SOL     OW33403   2.684   3.789   3.399  0.4486 -0.8837 -0.7046
 7257SOL    HW133404   2.642   3.791   3.485 -1.5438 -0.0777 -1.6698
 7257SOL    HW233405   2.678   3.697   3.372 -1.0476 -1.0532  0.2237
 7258SOL     OW33406   0.173   2.972   5.130 -0.9578 -1.0343 -0.0493
 7258SOL    HW133407   0.125   2.975   5.047  0.0928  0.8502 -0.6036
 7258SOL    HW233408   0.144   3.055   5.169 -2.6359 -1.7565  0.2602
 7259SOL     OW33409   4.247   4.455   4.045  0.1184  0.5121  0.4319
 7259SOL    HW133410   4.284   4.537   4.078 -0.3572  0.0916  2.0128
 7259SOL    HW233411   4.156   4.483   4.037 -0.5067 -0.8976  2.5742
 7260SOL     OW33412   0.464   1.510  16.388 -0.6399  0.6291  0.1464
 7260SOL    HW133413   0.514   1.479  16.463 -0.7319 -3.6284 -1.5400
 7260SOL    HW233414   0.394   1.553  16.437 -0.1245 -1.3242  2.6399
 7261SOL     OW33415   3.603   1.265   5.888  0.2521 -0.2470 -0.5816
 7261SOL    HW133416   3.697   1.273   5.906  0.0773  0.7565 -0.1169
 7261SOL    HW233417   3.586   1.352   5.853  0.6323  1.2189  2.9513
 7262SOL     OW33418   4.029   0.934   2.331 -0.6062 -0.3755 -0.3443
 7262SOL    HW133419   4.055   0.898   2.416 -4.2144 -1.3354  0.3742
 7262SOL    HW233420   3.998   1.021   2.355  3.9588  1.1121  0.0860
 7263SOL     OW33421   3.925   0.537  16.823  0.0658  0.2409 -0.2967
 7263SOL    HW133422   3.935   0.442  16.815 -1.2244 -0.0330  1.3816
 7263SOL    HW233423   3.955   0.559  16.912  0.8081 -0.5680 -0.3491
 7264SOL     OW33424   2.369   2.532   4.993  0.0503 -0.1585  0.2415
 7264SOL    HW133425   2.333   2.474   4.925  1.8235 -1.7460  0.6451
 7264SOL    HW233426   2.462   2.518   4.977 -0.1048 -2.6521  1.4203
 7265SOL     OW33427   0.815   4.051   3.162  0.4002 -0.1597  0.5228
 7265SOL    HW133428   0.734   4.060   3.112  0.8686  2.1671  0.1735
 7265SOL    HW233429   0.842   4.143   3.163 -0.4765  0.1049 -0.6995
 7266SOL     OW33430   0.474   4.418   4.070  0.3330  0.3074  0.1998
 7266SOL    HW133431   0.564   4.450   4.075 -0.2555  2.2991 -1.6025
 7266SOL    HW233432   0.474   4.354   3.999  0.4687  1.0625 -0.4814
 7267SOL     OW33433   2.950   3.502   4.133 -0.5199 -0.7446 -0.0273
 7267SOL    HW133434   2.890   3.557   4.183  0.4380  0.0537  0.2496
 7267SOL    HW233435   2.990   3.569   4.077 -1.2501 -0.5169 -0.2786
 7268SOL     OW33436   4.023   3.616   5.192 -0.4579 -0.3119 -0.5889
 7268SOL    HW133437   4.070   3.533   5.201  1.4235  0.8208  0.0304
 7268SOL    HW233438   4.101   3.671   5.178 -0.7558  0.2490 -0.0635
 7269SOL     OW33439   3.071   0.226  12.550 -0.0553  0.4787 -0.0397
 7269SOL    HW133440   3.068   0.311  12.505  0.6787  0.7995  0.5323
 7269SOL    HW233441   3.152   0.186  12.518  0.4985  2.4042 -1.0493
 7270SOL     OW33442   3.705   3.379   3.584 -0.4925 -0.1203 -0.0454
 7270SOL    HW133443   3.728   3.297   3.542 -2.5624 -1.4998  1.4929
 7270SOL    HW233444   3.611   3.369   3.597 -0.5405 -0.9774 -1.1281
 7271SOL     OW33445   2.845   4.547   0.927  0.3559  0.7640 -0.0747
 7271SOL    HW133446   2.897   4.590   0.859  1.2799  1.8471  1.3085
 7271SOL    HW233447   2.788   4.619   0.952 -0.3751 -0.5505  2.0199
 7272SOL     OW33448   0.833   1.438  15.330 -0.4484  0.0543 -0.1452
 7272SOL    HW133449   0.781   1.496  15.275 -2.1072 -0.9051  0.4175
 7272SOL    HW233450   0.918   1.479  15.314  0.3867 -1.3709  0.6376
 7273SOL     OW33451   0.474   2.512   9.324  0.1969 -0.2432 -0.2827
 7273SOL    HW133452   0.529   2.533   9.249 -1.5723  0.1692 -1.4882
 7273SOL    HW233453   0.446   2.602   9.341  2.1946  0.2233  0.5145
 7274SOL     OW33454   3.055   0.439  12.364 -0.7459 -0.5366  0.5342
 7274SOL    HW133455   3.115   0.513  12.361 -3.2470  1.4839  0.3155
 7274SOL    HW233456   2.977   0.474  12.321 -0.4936  0.0895  0.5914
 7275SOL     OW33457   3.398   1.684   9.537 -0.6644 -0.5544  0.0763
 7275SOL    HW133458   3.308   1.684   9.504 -1.7982  2.7009  3.1515
 7275SOL    HW233459   3.445   1.621   9.482  2.0768  1.5131  0.0321
 7276SOL     OW33460   1.073   1.346   3.618  0.2448 -0.1128  0.0207
 7276SOL    HW133461   1.144   1.358   3.681  0.3676  2.8123 -0.6959
 7276SOL    HW233462   1.015   1.415   3.649  0.0766 -1.0810  1.8186
 7277SOL     OW33463   3.461   0.330   6.227 -0.2797  0.1499  0.2826
 7277SOL    HW133464   3.426   0.247   6.261  3.1855 -0.8030  1.4913
 7277SOL    HW233465   3.460   0.380   6.308  0.4195 -0.0288  0.3970
 7278SOL     OW33466   2.071   1.229   9.443 -0.2445  0.2787 -0.0827
 7278SOL    HW133467   2.164   1.240   9.423  0.1457  0.7898  2.0008
 7278SOL    HW233468   2.061   1.285   9.520  0.3929 -2.5401  2.0364
 7279SOL     OW33469   4.200   0.480   4.661 -0.2593 -0.3295 -0.2621
 7279SOL    HW133470   4.158   0.557   4.623 -0.5867 -0.0797  0.6106
 7279SOL    HW233471   4.164   0.496   4.748  1.1490  0.5036  0.1703
 7280SOL     OW33472   2.197   1.518   8.664 -0.2327  0.5532  0.1784
 7280SOL    HW133473   2.157   1.556   8.742 -0.3257  0.2304  0.2880
 7280SOL    HW233474   2.110   1.500   8.629 -1.0942  2.1670  1.4515
 7281SOL     OW33475   0.388   2.329  10.208 -0.0346  0.0774 -0.1295
 7281SOL    HW133476   0.334   2.399  10.245 -0.5055  1.9210 -4.3014
 7281SOL    HW233477   0.376   2.344  10.114 -0.9847 -1.2118 -0.2171
 7282SOL     OW33478   3.791   2.344   0.706 -0.0279  0.6717  0.1907
 7282SOL    HW133479   3.788   2.332   0.801  0.2698  1.1616  0.2637
 7282SOL    HW233480   3.732   2.273   0.683  1.9821 -1.5000  1.7547
 7283SOL     OW33481   1.983   1.244  14.516  0.3286  0.4006  0.1923
 7283SOL    HW133482   2.072   1.270  14.494  0.2768  0.4930  0.0896
 7283SOL    HW233483   1.977   1.161  14.468  0.5036 -0.5480  1.8165
 7284SOL     OW33484   1.499   4.017   2.135 -0.3482  0.3263  0.1555
 7284SOL    HW133485   1.573   4.069   2.168  0.1011  0.7425 -1.4952
 7284SOL    HW233486   1.456   4.081   2.078  1.5555  1.9372  0.5291
 7285SOL     OW33487   3.892   2.100   2.528  0.0778  0.4508 -0.7015
 7285SOL    HW133488   3.974   2.056   2.549 -1.9270 -2.3147  1.4105
 7285SOL    HW233489   3.870   2.050   2.449 -1.5223 -0.7289  0.4863
 7286SOL     OW33490   4.522   2.177   2.572 -0.0119 -0.0167 -0.3602
 7286SOL    HW133491   4.534   2.136   2.486 -0.1173 -1.5680  0.3747
 7286SOL    HW233492   4.530   2.269   2.548  0.1660  0.0100 -0.1914
 7287SOL     OW33493   4.713   0.885   6.194 -0.2782 -0.2033 -0.7490
 7287SOL    HW133494   4.694   0.970   6.234  1.2833  0.1665 -0.7718
 7287SOL    HW233495   4.636   0.836   6.223  1.7030 -1.4109  2.4782
 7288SOL     OW33496   2.606   1.895   7.309 -0.0079  0.8610 -0.0034
 7288SOL    HW133497   2.547   1.826   7.339  0.3020  1.4378  1.9574
 7288SOL    HW233498   2.575   1.904   7.219  0.1852  0.9527 -0.0608
 7289SOL     OW33499   2.508   1.260   6.137  0.2644 -0.1072 -0.3727
 7289SOL    HW133500   2.518   1.287   6.046  1.8800  1.7904  0.3504
 7289SOL    HW233501   2.603   1.264   6.153  0.4287 -3.0596 -0.7100
 7290SOL     OW33502   1.688   1.123   7.898 -0.4952 -0.3331  0.1512
 7290SOL    HW133503   1.641   1.111   7.815  0.4782  0.2484 -0.4809
 7290SOL    HW233504   1.613   1.129   7.958  0.8382  0.3739  1.7303
 7291SOL     OW33505   4.274   4.412  15.601 -0.3861 -0.0914  0.8802
 7291SOL    HW133506   4.268   4.499  15.561 -1.5109  0.1168  1.4920
 7291SOL    HW233507   4.327   4.436  15.676  1.1431 -1.7475  0.3278
 7292SOL     OW33508   1.427   0.901   4.674  0.1660 -0.1335 -0.3530
 7292SOL    HW133509   1.466   0.880   4.590  0.5987  0.2420 -0.2433
 7292SOL    HW233510   1.432   0.996   4.672 -3.1188  0.0469  0.0452
 7293SOL     OW33511   3.634   0.579   3.932 -0.0272 -0.1889 -0.0057
 7293SOL    HW133512   3.665   0.612   3.848 -1.7833 -0.4659 -0.7524
 7293SOL    HW233513   3.660   0.487   3.938  1.4273  0.2687  0.7504
 7294SOL     OW33514   3.597   3.179   1.594 -0.1385  0.0539 -0.2596
 7294SOL    HW133515   3.680   3.167   1.548 -0.0514  2.2005 -0.6539
 7294SOL    HW233516   3.585   3.273   1.609  1.8168  0.2988 -0.3177
 7295SOL     OW33517   0.609   1.527  16.921 -0.1225  0.2455 -0.0181
 7295SOL    HW133518   0.606   1.623  16.923 -0.4515  0.2185  0.6295
 7295SOL    HW233519   0.526   1.508  16.966 -0.6158 -0.0040 -1.0294
 7296SOL     OW33520   0.890   1.508  16.910 -0.2168  0.2528 -0.3067
 7296SOL    HW133521   0.794   1.503  16.915 -0.2091 -0.0923 -0.4754
 7296SOL    HW233522   0.889   1.564  16.833  3.2684  2.3364  1.1573
 7297SOL     OW33523   2.319   3.312  16.012 -0.4150 -0.9529 -0.1462
 7297SOL    HW133524   2.332   3.322  15.918  0.7744 -1.8039 -0.0772
 7297SOL    HW233525   2.306   3.405  16.028  0.8408 -0.4407 -2.1636
 7298SOL     OW33526   1.771   4.493   4.201 -0.1133 -0.4875  0.5809
 7298SOL    HW133527   1.772   4.402   4.229  1.8217  0.2022  2.8079
 7298SOL    HW233528   1.768   4.542   4.284 -1.8556  0.9231 -0.2971
 7299SOL     OW33529   2.344   1.350   6.783 -0.2681  0.6678 -0.0033
 7299SOL    HW133530   2.306   1.402   6.854  1.1693 -0.7002  1.7883
 7299SOL    HW233531   2.312   1.394   6.705  0.0663  0.6337 -0.1611
 7300SOL     OW33532   3.432   3.080  17.377 -0.2041  0.5825 -0.2393
 7300SOL    HW133533   3.437   3.142  17.304  1.1484 -0.0646 -0.6948
 7300SOL    HW233534   3.376   3.021  17.327 -0.4332 -1.0610  1.9368
 7301SOL     OW33535   3.450   4.267   3.064  0.3878  0.3707 -0.3653
 7301SOL    HW133536   3.437   4.361   3.060 -0.0138  0.3076 -0.4805
 7301SOL    HW233537   3.508   4.255   2.988 -0.7247  1.4276 -1.3645
 7302SOL     OW33538   1.072   2.646   2.088  0.1522  0.3687 -0.3408
 7302SOL    HW133539   0.984   2.609   2.083  0.6268 -1.0498  1.5740
 7302SOL    HW233540   1.092   2.665   2.180 -1.8266  1.1896 -0.0778
 7303SOL     OW33541   1.256   2.443   4.560  0.3716 -0.4282 -0.3504
 7303SOL    HW133542   1.230   2.357   4.593  2.4065 -1.1949 -0.7062
 7303SOL    HW233543   1.182   2.472   4.508  1.8920  0.5341 -1.9843
 7304SOL     OW33544   1.282   3.237  12.192 -0.2450 -0.0716  0.1936
 7304SOL    HW133545   1.255   3.184  12.267 -1.0958 -0.6797 -0.5474
 7304SOL    HW233546   1.373   3.262  12.208  1.0352 -3.9133 -1.0287
 7305SOL     OW33547   0.240   0.820   9.751  0.0896 -0.2774  0.0783
 7305SOL    HW133548   0.229   0.866   9.667  0.0892  2.0017  1.3183
 7305SOL    HW233549   0.205   0.888   9.809 -0.8204  1.0311 -1.9931
 7306SOL     OW33550   2.891   0.220   4.897  0.0277 -0.6227  0.3947
 7306SOL    HW133551   2.886   0.278   4.822 -0.5241 -2.1667 -0.7450
 7306SOL    HW233552   2.827   0.154   4.872 -1.6937  0.6550  1.3672
 7307SOL     OW33553   3.491   1.084   0.580  0.0780 -0.3922  0.3547
 7307SOL    HW133554   3.449   1.160   0.540  0.9548 -0.6715 -1.0868
 7307SOL    HW233555   3.475   1.105   0.672 -2.8234 -1.6440  0.1612
 7308SOL     OW33556   4.574   2.643   7.956  0.8861  0.9689  0.2628
 7308SOL    HW133557   4.662   2.681   7.958  1.9387 -1.4026 -0.9971
 7308SOL    HW233558   4.580   2.612   7.866 -0.6754  2.8091 -0.4711
 7309SOL     OW33559   1.073   4.450   8.434 -0.2887 -0.2486 -0.0063
 7309SOL    HW133560   1.021   4.379   8.397  0.2609 -0.8539  0.3955
 7309SOL    HW233561   1.085   4.426   8.525  1.0950  0.3488 -0.0347
 7310SOL     OW33562   3.412   2.438  15.165  0.0924 -0.2718 -0.0379
 7310SOL    HW133563   3.440   2.386  15.089 -2.7690 -3.1447  0.8590
 7310SOL    HW233564   3.335   2.477  15.124 -0.1493  1.8719  2.4844
 7311SOL     OW33565   2.907   2.623   0.216  0.1956 -0.7796  0.6043
 7311SOL    HW133566   2.941   2.710   0.236 -1.6572 -0.1842  1.0864
 7311SOL    HW233567   2.813   2.634   0.204  0.2087 -0.2490  0.9892
 7312SOL     OW33568   3.114   2.575   7.810 -0.1703  0.2714 -0.4166
 7312SOL    HW133569   3.104   2.560   7.715 -0.4368 -1.3652 -0.1423
 7312SOL    HW233570   3.128   2.487   7.845  1.2682  0.7232  0.1336
 7313SOL     OW33571   3.381   3.161   0.913 -0.4881  0.5675  0.2081
 7313SOL    HW133572   3.369   3.198   1.001 -1.4657 -0.7792  0.6465
 7313SOL    HW233573   3.476   3.168   0.911 -0.4720 -0.6683 -2.8888
 7314SOL     OW33574   2.501   0.468   9.664  0.1283 -0.1174 -0.4004
 7314SOL    HW133575   2.579   0.432   9.706 -0.8726 -2.0468 -0.1985
 7314SOL    HW233576   2.437   0.412   9.708 -0.6004 -0.0106 -1.3204
 7315SOL     OW33577   3.281   4.060  11.390  0.3513  0.2717  0.2123
 7315SOL    HW133578   3.346   4.074  11.459  1.2176  0.7167 -0.6820
 7315SOL    HW233579   3.202   4.074  11.442 -0.2358 -2.1180  0.0019
 7316SOL     OW33580   1.437   1.037   1.391  0.6547  0.2111 -0.2406
 7316SOL    HW133581   1.495   1.082   1.452  0.1133 -0.2662  0.6316
 7316SOL    HW233582   1.371   1.106   1.402  0.8871  0.2887  0.6511
 7317SOL     OW33583   2.990   4.294  13.142 -0.1221 -0.4892 -0.1938
 7317SOL    HW133584   2.944   4.337  13.214 -0.4496  0.4866 -0.9814
 7317SOL    HW233585   3.013   4.208  13.175  1.2038 -0.4557 -0.9919
 7318SOL     OW33586   2.501   0.653   5.748  0.3134  0.1551  0.0426
 7318SOL    HW133587   2.473   0.578   5.695  0.9545  1.3281 -1.9664
 7318SOL    HW233588   2.528   0.710   5.675 -1.2657  0.4956 -0.2843
 7319SOL     OW33589   0.535   2.571   9.749 -0.0611 -0.5808  0.1881
 7319SOL    HW133590   0.620   2.547   9.788 -0.3095 -0.6621  0.6762
 7319SOL    HW233591   0.496   2.499   9.700 -0.8439 -0.2008  0.2517
 7320SOL     OW33592   3.554   4.413  15.415 -0.6957 -0.3153  0.0296
 7320SOL    HW133593   3.645   4.383  15.406 -0.5398 -0.3097  1.6726
 7320SOL    HW233594   3.549   4.478  15.345 -0.6681 -0.2952  0.0462
 7321SOL     OW33595   4.218   1.861   8.240  0.2613 -0.1224  0.2343
 7321SOL    HW133596   4.203   1.885   8.331  0.2309 -1.8941  0.6967
 7321SOL    HW233597   4.135   1.818   8.218  1.3155 -2.6635  1.2781
 7322SOL     OW33598   0.888   2.413  16.323 -0.1801  0.7470  0.4324
 7322SOL    HW133599   0.894   2.427  16.417 -0.6377  2.9790  0.1314
 7322SOL    HW233600   0.855   2.498  16.292  1.9720  0.5406 -2.5132
 7323SOL     OW33601   3.522   2.352  17.542 -0.4723 -0.1340  0.0483
 7323SOL    HW133602   3.571   2.331  17.621  1.6266  1.3145 -0.8750
 7323SOL    HW233603   3.483   2.437  17.563  1.1715  0.4521  0.6974
 7324SOL     OW33604   0.230   0.335   8.429  0.4529  0.6828 -0.1517
 7324SOL    HW133605   0.254   0.423   8.401 -1.1516  0.9255 -0.7734
 7324SOL    HW233606   0.136   0.324   8.410  0.7376 -0.9526 -0.6172
 7325SOL     OW33607   3.997   2.411   8.862 -0.2250  0.0403  0.5163
 7325SOL    HW133608   3.949   2.360   8.797 -0.1487  1.0140 -0.3184
 7325SOL    HW233609   4.020   2.487   8.808  0.2901 -1.5448 -1.4901
 7326SOL     OW33610   1.698   2.079  11.563 -0.8382 -0.7729 -0.0019
 7326SOL    HW133611   1.661   2.077  11.475 -2.5295  1.9585  0.6550
 7326SOL    HW233612   1.734   2.167  11.566 -0.9038 -0.6586 -2.4310
 7327SOL     OW33613   2.233   2.587  11.541  0.2212  0.0206 -0.3092
 7327SOL    HW133614   2.207   2.498  11.567  0.4630  0.3480  1.0449
 7327SOL    HW233615   2.312   2.617  11.584 -0.7694 -0.0267  1.5230
 7328SOL     OW33616   1.358   0.170   8.066  0.3459  0.3454  0.2288
 7328SOL    HW133617   1.299   0.245   8.075  1.6887  1.5103 -0.5755
 7328SOL    HW233618   1.400   0.182   8.151 -0.6560  2.0482  0.4902
 7329SOL     OW33619   2.426   2.323   4.117 -0.7059  0.5266  0.0957
 7329SOL    HW133620   2.350   2.354   4.069 -1.3863  0.2712  1.0121
 7329SOL    HW233621   2.449   2.244   4.067  0.9683  0.3410  1.1598
 7330SOL     OW33622   3.599   3.604   9.638 -0.4387  0.4615 -0.0944
 7330SOL    HW133623   3.618   3.537   9.704  2.8250  0.2813 -1.2029
 7330SOL    HW233624   3.545   3.668   9.683  0.1741  1.7031 -1.1077
 7331SOL     OW33625   0.250   3.190  16.249  0.3593  0.7203 -0.1226
 7331SOL    HW133626   0.235   3.250  16.322 -0.0369  0.4639  0.0087
 7331SOL    HW233627   0.271   3.108  16.294 -0.9280 -0.4268 -1.6091
 7332SOL     OW33628   0.538   4.527   6.548 -0.0701 -0.1761  0.1481
 7332SOL    HW133629   0.591   4.450   6.568  1.3111  0.5499 -0.7326
 7332SOL    HW233630   0.540   4.574   6.632 -1.3702 -0.6692  0.4585
 7333SOL     OW33631   3.665   3.748  13.441  0.4029  0.3194  0.1991
 7333SOL    HW133632   3.598   3.708  13.385 -0.6743 -2.4151  3.4137
 7333SOL    HW233633   3.739   3.694  13.415  0.8423  1.1785 -0.3361
 7334SOL     OW33634   1.553   3.650   1.953  0.0007  0.4668 -0.1153
 7334SOL    HW133635   1.629   3.659   1.895 -0.9568  1.1308 -1.2894
 7334SOL    HW233636   1.513   3.735   1.934 -0.8511  0.5328  2.0190
 7335SOL     OW33637   1.248   3.403   2.582  0.1488 -0.0841 -0.0431
 7335SOL    HW133638   1.322   3.449   2.544  0.9694 -0.6953  0.8124
 7335SOL    HW233639   1.186   3.474   2.600 -1.8804 -1.5894 -1.1502
 7336SOL     OW33640   0.024   3.115   3.934  0.1843 -0.1489 -0.9318
 7336SOL    HW133641   0.101   3.058   3.930  0.0264 -0.4116 -0.1014
 7336SOL    HW233642   0.061   3.202   3.915 -0.5764  0.0066 -1.6865
 7337SOL     OW33643   3.363   0.177   4.151 -0.0589 -0.8651  0.5540
 7337SOL    HW133644   3.392   0.167   4.061  1.1295 -1.0024  0.9472
 7337SOL    HW233645   3.324   0.090   4.162  1.3223 -1.3229  1.8258
 7338SOL     OW33646   1.322   1.074   2.023 -1.0197  0.7115 -0.0184
 7338SOL    HW133647   1.416   1.085   2.038 -1.0839  0.2455  0.7009
 7338SOL    HW233648   1.296   1.163   2.043 -1.9683 -0.0812  2.2270
 7339SOL     OW33649   1.332   4.581   1.786  0.0653 -0.2525  0.2687
 7339SOL    HW133650   1.270   4.634   1.735  1.1714 -0.4363 -1.2511
 7339SOL    HW233651   1.409   4.590   1.729 -1.0194  1.1486 -0.9868
 7340SOL     OW33652   3.570   2.363  14.922 -0.0206 -0.4771 -0.3756
 7340SOL    HW133653   3.575   2.440  14.865  0.1962 -1.2234 -1.3691
 7340SOL    HW233654   3.538   2.306  14.853  0.0946 -0.4766 -0.4291
 7341SOL     OW33655   2.814   1.988   5.501  0.0431  0.2185  0.2827
 7341SOL    HW133656   2.722   2.009   5.489 -0.0455 -0.7110 -0.6940
 7341SOL    HW233657   2.861   2.070   5.483 -2.2143  1.0111 -1.8159
 7342SOL     OW33658   0.099   2.123   5.078 -0.2627  0.0866  0.0771
 7342SOL    HW133659   0.053   2.201   5.108  0.7742  0.2305  1.3030
 7342SOL    HW233660   0.171   2.125   5.142  0.1953  1.3142 -0.4569
 7343SOL     OW33661   4.072   0.138   3.086 -0.0100  0.3028 -0.2171
 7343SOL    HW133662   4.097   0.190   3.162 -2.7713  0.7535  0.3924
 7343SOL    HW233663   4.140   0.150   3.019 -1.1134  1.1526 -1.1882
 7344SOL     OW33664   3.724   2.861   5.915 -0.7250 -0.1445 -0.0538
 7344SOL    HW133665   3.658   2.815   5.966 -2.4137  0.3185 -1.7970
 7344SOL    HW233666   3.796   2.888   5.973 -0.5797  0.1351 -0.3617
 7345SOL     OW33667   3.637   3.380   9.781 -0.2516  0.1517  0.0745
 7345SOL    HW133668   3.674   3.371   9.869 -0.2047 -0.2493  0.0133
 7345SOL    HW233669   3.616   3.288   9.768 -0.4763 -0.0455  1.7590
 7346SOL     OW33670   3.285   1.028   6.812  0.3202 -0.4420  0.2653
 7346SOL    HW133671   3.253   1.072   6.733  0.1563 -0.4418  0.3319
 7346SOL    HW233672   3.341   1.100   6.842  1.5140 -1.0284 -0.5930
 7347SOL     OW33673   2.803   2.784   2.446 -0.5567 -0.2868 -0.0614
 7347SOL    HW133674   2.811   2.866   2.396  2.7903 -1.4627 -1.4929
 7347SOL    HW233675   2.767   2.824   2.525 -0.3204 -2.5166  1.1601
 7348SOL     OW33676   2.923   3.704   5.240  0.0868 -0.1015 -0.4604
 7348SOL    HW133677   2.934   3.609   5.236  0.5127 -0.0289 -1.0036
 7348SOL    HW233678   3.014   3.731   5.231  0.5116 -1.5686 -0.4971
 7349SOL     OW33679   3.917   2.169  14.466 -0.0891 -0.1321  0.0859
 7349SOL    HW133680   3.926   2.231  14.538  0.1555  0.2136 -0.2423
 7349SOL    HW233681   3.847   2.111  14.497  0.5088 -0.3725  0.9990
 7350SOL     OW33682   0.748   3.608   3.689  0.2577  0.3910  0.2290
 7350SOL    HW133683   0.722   3.517   3.705  0.7279  0.1841 -0.1669
 7350SOL    HW233684   0.791   3.640   3.768 -0.9397 -0.4322  1.2177
 7351SOL     OW33685   0.652   4.437  12.438  0.0106 -0.4623 -0.0383
 7351SOL    HW133686   0.738   4.407  12.408  0.1893  0.3886 -0.3691
 7351SOL    HW233687   0.667   4.429  12.532 -0.8839  0.5534  0.1841
 7352SOL     OW33688   1.157   4.553  10.054 -0.3552  0.1156  0.2961
 7352SOL    HW133689   1.242   4.511  10.067 -0.5166  0.0968  1.3569
 7352SOL    HW233690   1.120   4.533  10.140 -1.4380 -2.1478 -0.7005
 7353SOL     OW33691   1.066   1.874   2.017  0.8417 -0.6512 -0.0208
 7353SOL    HW133692   0.978   1.883   2.054  0.2750  0.0679 -1.5332
 7353SOL    HW233693   1.090   1.966   2.007  1.0013 -0.8381 -1.4055
 7354SOL     OW33694   1.421   1.038  15.230 -0.3649 -0.3332  0.7401
 7354SOL    HW133695   1.398   1.055  15.321 -0.7574  0.6709  0.4540
 7354SOL    HW233696   1.517   1.041  15.232 -0.4217  2.6751 -0.8819
 7355SOL     OW33697   4.677   2.331  17.494 -0.2530 -0.2342  0.6934
 7355SOL    HW133698   4.672   2.369  17.582 -0.6691  0.7827  0.2192
 7355SOL    HW233699   4.687   2.404  17.434 -1.4240 -1.2120 -0.6739
 7356SOL     OW33700   1.792   0.112   6.683  0.3084  0.0546  0.2589
 7356SOL    HW133701   1.867   0.130   6.627 -1.9047  1.2060 -2.3663
 7356SOL    HW233702   1.736   0.187   6.663  0.3644  0.0940  0.2516
 7357SOL     OW33703   2.678   1.137   5.860 -0.7756 -0.1539 -0.2039
 7357SOL    HW133704   2.712   1.111   5.774 -1.8686 -1.6827 -0.1820
 7357SOL    HW233705   2.643   1.051   5.883  1.0254 -0.7560  0.2946
 7358SOL     OW33706   2.915   1.599   0.838  0.3664  0.1390 -0.3623
 7358SOL    HW133707   2.938   1.568   0.751 -0.0972 -1.4694  0.0768
 7358SOL    HW233708   2.826   1.567   0.851  0.6672 -2.0028 -3.7553
 7359SOL     OW33709   4.466   1.555   7.839  0.5319 -0.1090  0.3601
 7359SOL    HW133710   4.408   1.480   7.828 -0.5693  0.6509  0.9188
 7359SOL    HW233711   4.512   1.552   7.756  2.2548 -2.2482  1.3942
 7360SOL     OW33712   2.558   2.630   6.268  0.1891  0.0977 -0.4734
 7360SOL    HW133713   2.478   2.581   6.248 -0.2637  1.2412 -1.4485
 7360SOL    HW233714   2.592   2.652   6.181 -0.4808 -1.7049 -1.1927
 7361SOL     OW33715   0.078   0.010   3.532  0.4611 -0.0531 -0.3091
 7361SOL    HW133716   0.095   4.661   3.487 -0.6355 -0.0496 -0.7200
 7361SOL    HW233717   0.088   4.729   3.626  0.1798  0.4475 -0.2035
 7362SOL     OW33718   0.554   2.561   2.730 -0.1057  0.7629 -0.3091
 7362SOL    HW133719   0.622   2.495   2.736 -2.3818 -1.5596 -0.0088
 7362SOL    HW233720   0.485   2.505   2.765 -0.5592  1.7005  0.3252
 7363SOL     OW33721   3.332   2.642   0.980 -0.1293 -0.0693 -0.2070
 7363SOL    HW133722   3.284   2.715   1.018 -2.0877 -1.2485 -0.4251
 7363SOL    HW233723   3.305   2.576   1.044 -1.5507 -0.0701 -0.7958
 7364SOL     OW33724   0.912   1.872   8.575  0.0409  0.1683 -0.5736
 7364SOL    HW133725   0.893   1.872   8.481  0.2096  2.6299 -0.6029
 7364SOL    HW233726   0.822   1.879   8.608  0.7100 -3.0641  1.9346
 7365SOL     OW33727   3.450   2.424   4.111  0.4154  0.3955  0.1582
 7365SOL    HW133728   3.538   2.464   4.113  0.8693 -0.5959 -0.1933
 7365SOL    HW233729   3.396   2.479   4.167 -1.1914 -0.7434 -0.2788
 7366SOL     OW33730   2.523   1.248   4.803  0.3998 -0.6299  0.2554
 7366SOL    HW133731   2.494   1.336   4.779  0.3902 -0.7403 -0.1293
 7366SOL    HW233732   2.487   1.197   4.731  3.7228 -0.8470 -1.2220
 7367SOL     OW33733   0.509   1.847   6.334 -0.0599 -0.6700 -0.1913
 7367SOL    HW133734   0.596   1.872   6.367 -0.2454 -0.1889 -0.0689
 7367SOL    HW233735   0.459   1.896   6.399 -0.1770  2.3641 -2.5514
 7368SOL     OW33736   2.303   3.111   8.555 -0.1675  0.0547  0.8182
 7368SOL    HW133737   2.362   3.088   8.626  0.1965 -1.1543  0.1230
 7368SOL    HW233738   2.216   3.087   8.588  0.0810 -1.3975  0.4112
 7369SOL     OW33739   3.050   4.143  15.324 -0.1122  0.0640  0.3672
 7369SOL    HW133740   3.069   4.218  15.268  3.0168 -1.3902 -0.4995
 7369SOL    HW233741   2.959   4.164  15.344 -0.4378  0.9534 -1.9855
 7370SOL     OW33742   0.464   0.119  12.007 -0.3402  0.3294  0.2050
 7370SOL    HW133743   0.424   0.135  12.093 -1.2907 -0.5015 -0.0943
 7370SOL    HW233744   0.493   0.203  11.970 -0.4285  0.3383  0.1561
 7371SOL     OW33745   3.922   2.251   0.447  0.6736  0.4186  0.0583
 7371SOL    HW133746   3.956   2.335   0.417  1.0504  0.4295  0.5076
 7371SOL    HW233747   3.887   2.280   0.532  0.6549  0.8428 -0.0958
 7372SOL     OW33748   0.333   1.863   3.652 -0.6246  0.2159 -0.1603
 7372SOL    HW133749   0.346   1.768   3.648  3.0029  0.7508 -0.5188
 7372SOL    HW233750   0.418   1.883   3.690 -0.9490 -0.6504  1.0514
 7373SOL     OW33751   0.454   2.963   5.233  0.1520  0.4020  0.9645
 7373SOL    HW133752   0.496   2.878   5.218 -0.3888  0.0511  1.4553
 7373SOL    HW233753   0.364   2.939   5.211 -0.1660  0.4289  2.2938
 7374SOL     OW33754   2.901   3.589   8.722 -0.1230 -0.3119  0.3136
 7374SOL    HW133755   2.924   3.682   8.727 -1.7581  0.1320 -0.2400
 7374SOL    HW233756   2.968   3.550   8.778  0.5308  2.4287  1.4405
 7375SOL     OW33757   0.301   2.883   1.827  0.3447 -0.0008  0.1832
 7375SOL    HW133758   0.312   2.960   1.884  1.6914 -0.9953  1.2622
 7375SOL    HW233759   0.289   2.818   1.896 -2.8298  1.2920  0.8372
 7376SOL     OW33760   3.085   1.575  10.401  0.8064 -0.4309  0.5222
 7376SOL    HW133761   3.105   1.610  10.488  0.3708  1.1297 -0.0113
 7376SOL    HW233762   2.993   1.590  10.379  0.8857 -0.4423  0.1954
 7377SOL     OW33763   2.512   1.129   5.125 -0.2347 -0.3633  0.0693
 7377SOL    HW133764   2.517   1.155   5.034  0.5732  0.5516  0.3834
 7377SOL    HW233765   2.584   1.177   5.166  0.0555 -1.0989  0.4341
 7378SOL     OW33766   1.421   4.204   8.434  0.7254  0.1908  0.0285
 7378SOL    HW133767   1.435   4.260   8.511 -1.5560  1.6133 -0.5941
 7378SOL    HW233768   1.331   4.172   8.427  1.0957 -1.2243  1.7414
 7379SOL     OW33769   0.816   0.949  10.773  0.0909 -0.9527  0.4677
 7379SOL    HW133770   0.724   0.935  10.796  0.1365 -3.0130 -0.5245
 7379SOL    HW233771   0.839   0.865  10.733  0.4576 -0.9063  0.5870
 7380SOL     OW33772   0.513   2.001   1.152  0.2431  0.2058  0.9431
 7380SOL    HW133773   0.466   1.946   1.214 -0.7539  0.3667  0.3108
 7380SOL    HW233774   0.515   1.941   1.078  0.2534  1.3795  0.0007
 7381SOL     OW33775   0.595   1.401   2.856  0.5262  0.0062  0.2049
 7381SOL    HW133776   0.568   1.352   2.934  0.2008 -1.6253 -0.9336
 7381SOL    HW233777   0.567   1.336   2.791 -0.8638  1.5294 -0.7329
 7382SOL     OW33778   1.162   4.166  11.278 -0.2474 -0.4787  0.1276
 7382SOL    HW133779   1.250   4.162  11.314 -0.7730 -3.2798  1.0886
 7382SOL    HW233780   1.153   4.073  11.259 -2.0951 -0.0038 -1.4277
 7383SOL     OW33781   0.395   4.302   7.789  0.4041  1.2218  0.4457
 7383SOL    HW133782   0.404   4.270   7.700 -1.1651  3.3290 -0.4835
 7383SOL    HW233783   0.344   4.234   7.835  1.4925 -0.2836 -0.5752
 7384SOL     OW33784   4.395   1.968   7.737  0.3211 -0.1346  0.8099
 7384SOL    HW133785   4.369   1.990   7.827  0.2765  0.6350  0.6093
 7384SOL    HW233786   4.338   1.892   7.723  1.4274 -0.6417 -0.8403
 7385SOL     OW33787   4.541   1.728   6.222  0.3831  0.0510 -0.5253
 7385SOL    HW133788   4.553   1.636   6.242 -1.5899  0.0751  0.8008
 7385SOL    HW233789   4.539   1.716   6.127 -0.6360 -0.8606 -0.3801
 7386SOL     OW33790   4.307   2.111   3.551  0.6019  0.5770 -0.4289
 7386SOL    HW133791   4.307   2.016   3.545  0.2825  0.6804 -2.3126
 7386SOL    HW233792   4.376   2.131   3.487  1.5331  0.0258  0.4053
 7387SOL     OW33793   3.879   1.659   4.621  0.1603 -0.0626 -0.0991
 7387SOL    HW133794   3.890   1.636   4.528  2.5554 -1.5831  0.5720
 7387SOL    HW233795   3.788   1.686   4.613  0.5451  1.0540 -0.7727
 7388SOL     OW33796   1.218   2.846   5.819 -0.1102 -0.2409  0.2805
 7388SOL    HW133797   1.291   2.907   5.831 -0.2688 -0.1188  0.6150
 7388SOL    HW233798   1.274   2.774   5.791  1.6587  1.9806 -1.9097
 7389SOL     OW33799   0.043   2.716  13.744  0.3184  1.0101 -0.2868
 7389SOL    HW133800   0.042   2.755  13.831 -0.3304 -1.2102  0.6867
 7389SOL    HW233801   0.032   2.794  13.689  1.6261  0.2439 -1.6561
 7390SOL     OW33802   1.911   3.451  13.849 -0.0564  0.8056 -0.4050
 7390SOL    HW133803   1.939   3.502  13.925 -0.1983  1.5779 -0.8713
 7390SOL    HW233804   1.936   3.362  13.875  0.5795  1.5585  1.5851
 7391SOL     OW33805   3.779   3.526   4.508  0.0620  0.1777  0.3450
 7391SOL    HW133806   3.696   3.490   4.477  1.5436 -2.0453 -1.0102
 7391SOL    HW233807   3.748   3.607   4.549 -2.4375 -0.2870 -0.6123
 7392SOL     OW33808   1.552   3.543   3.604 -1.2226 -0.4696 -0.0887
 7392SOL    HW133809   1.579   3.451   3.602 -1.0942 -0.4343  0.0073
 7392SOL    HW233810   1.590   3.574   3.522  1.7440  0.3008  1.5725
 7393SOL     OW33811   4.390   1.166  14.655 -0.0675  0.3638 -0.6029
 7393SOL    HW133812   4.469   1.113  14.643  1.0186  1.7455  0.3458
 7393SOL    HW233813   4.331   1.100  14.691 -0.7244 -0.0619 -2.4396
 7394SOL     OW33814   0.481   0.421   3.207 -0.0325  0.1249 -0.2501
 7394SOL    HW133815   0.546   0.491   3.211 -0.4959  0.5380 -0.0120
 7394SOL    HW233816   0.405   0.477   3.191 -0.1042 -0.5949 -2.4600
 7395SOL     OW33817   0.173   3.065   5.477  0.1988 -0.5538 -0.4117
 7395SOL    HW133818   0.260   3.102   5.463 -0.2782  0.2369 -1.2496
 7395SOL    HW233819   0.145   3.110   5.558 -0.9816  1.1295 -1.7565
 7396SOL     OW33820   2.938   0.977  15.279  0.5135 -0.1624  0.6817
 7396SOL    HW133821   2.936   0.950  15.371 -1.9314 -0.1483  0.6329
 7396SOL    HW233822   2.927   0.887  15.246 -0.3167 -0.3176  1.3847
 7397SOL     OW33823   1.151   0.985   8.149 -0.5130  0.8683  0.5523
 7397SOL    HW133824   1.180   1.004   8.238  1.3903 -0.1111  0.1189
 7397SOL    HW233825   1.173   0.893   8.135 -0.7909  0.8044  0.5237
 7398SOL     OW33826   2.321   2.796   7.987 -0.2547  0.4356  0.2374
 7398SOL    HW133827   2.400   2.810   7.934 -0.8821  1.0569 -0.5331
 7398SOL    HW233828   2.264   2.849   7.931  0.5277  1.6238  0.5682
 7399SOL     OW33829   1.814   4.169   0.151 -0.2407 -0.5167 -0.2406
 7399SOL    HW133830   1.802   4.224   0.228  0.6044  2.3361 -2.1600
 7399SOL    HW233831   1.726   4.134   0.141 -0.4428  0.2894 -1.2346
 7400SOL     OW33832   0.482   1.287   6.117 -0.4145 -0.0865  0.0256
 7400SOL    HW133833   0.487   1.370   6.164  2.3813  1.3810 -2.8099
 7400SOL    HW233834   0.573   1.257   6.115  0.5633  2.9356 -1.9983
 7401SOL     OW33835   4.702   2.679   3.452  0.5695  0.0977  0.2810
 7401SOL    HW133836   4.655   2.595   3.456  0.1718  0.2602 -0.9092
 7401SOL    HW233837   0.023   2.668   3.375  1.4615  1.5384  0.7295
 7402SOL     OW33838   1.878   2.937   5.333 -0.0793  0.3417  0.2647
 7402SOL    HW133839   1.815   2.939   5.405 -0.3244  2.5899 -0.0174
 7402SOL    HW233840   1.870   2.845   5.309  1.5438 -0.1639  1.7455
 7403SOL     OW33841   2.415   2.346   2.838 -0.5524  0.5684  0.5196
 7403SOL    HW133842   2.354   2.325   2.910 -0.3718  0.4158  0.6264
 7403SOL    HW233843   2.366   2.330   2.758 -1.9639  0.2602  1.4392
 7404SOL     OW33844   0.090   0.979   5.950 -0.0386 -0.2999  0.0595
 7404SOL    HW133845   0.040   0.959   6.029  0.4405  1.2192  0.7484
 7404SOL    HW233846   0.043   0.927   5.884  0.3981  0.0826 -0.5593
 7405SOL     OW33847   0.833   4.360  15.771  0.5378 -0.0456 -0.0635
 7405SOL    HW133848   0.768   4.404  15.716  0.2582 -0.6032 -0.1866
 7405SOL    HW233849   0.784   4.285  15.805 -0.2462  1.2827  1.7266
 7406SOL     OW33850   3.337   3.274   9.176  0.3058 -0.1193 -0.7958
 7406SOL    HW133851   3.430   3.251   9.180  0.5008  0.7285 -0.5420
 7406SOL    HW233852   3.350   3.367   9.193  1.0210 -0.7583  2.1114
 7407SOL     OW33853   0.997   2.682   9.923  0.3468 -0.5633 -0.0214
 7407SOL    HW133854   0.941   2.610   9.955 -1.8524  0.3608 -1.7523
 7407SOL    HW233855   0.946   2.758   9.951 -0.2244 -1.3165  1.0156
 7408SOL     OW33856   2.090   4.452   7.308 -0.4688  0.0423  0.4836
 7408SOL    HW133857   2.183   4.430   7.310 -0.5392 -0.3000 -0.0553
 7408SOL    HW233858   2.087   4.540   7.345  0.5661  0.3147 -0.0886
 7409SOL     OW33859   0.301   0.432   4.650 -0.4728  0.3512 -0.2698
 7409SOL    HW133860   0.351   0.471   4.578  1.1926 -1.4151 -0.0511
 7409SOL    HW233861   0.210   0.442   4.623 -0.9969  0.3903  1.5312
 7410SOL     OW33862   1.443   1.144  12.087 -0.5355 -0.1610 -0.0342
 7410SOL    HW133863   1.510   1.138  12.154  0.9382  0.2347 -1.4744
 7410SOL    HW233864   1.405   1.056  12.092 -2.1851  0.5127 -0.6403
 7411SOL     OW33865   4.126   4.175   6.219  0.1035  0.2969  0.3886
 7411SOL    HW133866   4.177   4.213   6.290 -0.9140  0.0394  1.2398
 7411SOL    HW233867   4.041   4.159   6.259 -0.4576  0.7688 -0.6127
 7412SOL     OW33868   0.161   3.905   3.321 -0.5379 -0.0393  0.5567
 7412SOL    HW133869   0.187   3.991   3.354  0.3800  0.1584 -0.6892
 7412SOL    HW233870   0.175   3.858   3.403 -2.3686 -0.0378  0.8790
 7413SOL     OW33871   0.139   4.715   6.602  1.0481  0.4842  0.0054
 7413SOL    HW133872   0.177   0.068   6.594 -1.3894  1.3803 -2.1655
 7413SOL    HW233873   0.049   0.013   6.601  0.5234 -0.9994 -1.3253
 7414SOL     OW33874   2.643   4.121   5.043 -0.1737 -0.5072 -0.0514
 7414SOL    HW133875   2.612   4.069   4.969 -2.0214  0.0400  0.3292
 7414SOL    HW233876   2.622   4.058   5.112 -2.6659 -0.0321 -0.3844
 7415SOL     OW33877   4.281   1.793   9.761  0.1868  0.6473  0.1830
 7415SOL    HW133878   4.227   1.781   9.683  0.3945  0.2276  0.1028
 7415SOL    HW233879   4.366   1.780   9.721 -0.1186 -2.0641  0.4279
 7416SOL     OW33880   0.199   0.865   3.686  0.6530  0.3912 -0.0696
 7416SOL    HW133881   0.177   0.867   3.779 -0.8680 -1.1652 -0.3842
 7416SOL    HW233882   0.275   0.923   3.679  0.5099  0.6983  0.9787
 7417SOL     OW33883   3.952   0.852  14.514  0.1614  0.5802 -0.0698
 7417SOL    HW133884   3.990   0.933  14.547  2.3577 -1.1739  1.7200
 7417SOL    HW233885   3.911   0.878  14.431  1.4356 -0.0827 -0.9121
 7418SOL     OW33886   3.449   3.968   2.924  0.1284 -0.2607 -0.5989
 7418SOL    HW133887   3.398   4.008   2.995  0.7765 -2.4229  1.0856
 7418SOL    HW233888   3.410   4.001   2.844 -0.9845  0.2880  0.1723
 7419SOL     OW33889   2.636   2.232   2.847  0.7514 -0.2142  0.2271
 7419SOL    HW133890   2.556   2.284   2.853  2.2667  2.0652  0.7153
 7419SOL    HW233891   2.639   2.180   2.927 -1.5396  0.0158  0.4473
 7420SOL     OW33892   2.460   3.098   1.574 -0.1068 -0.1347 -0.3105
 7420SOL    HW133893   2.472   3.112   1.480 -1.0268 -0.0853 -0.4192
 7420SOL    HW233894   2.367   3.078   1.572 -0.1670  0.1615 -0.3943
 7421SOL     OW33895   3.991   0.224   6.278  0.4094  0.3818  0.2892
 7421SOL    HW133896   4.017   0.313   6.257  0.0099  0.1770 -1.0786
 7421SOL    HW233897   3.967   0.187   6.193 -0.1239 -1.7893  1.3854
 7422SOL     OW33898   0.044   4.031   0.181 -0.2656  1.1438 -0.1443
 7422SOL    HW133899   0.044   4.107   0.239 -1.5880  1.1492 -0.1486
 7422SOL    HW233900   0.046   3.963   0.249  1.3879  0.3498 -0.9907
 7423SOL     OW33901   1.364   0.789  14.036 -0.3556 -0.4699  0.5982
 7423SOL    HW133902   1.365   0.693  14.032  2.1369 -0.3587 -1.3000
 7423SOL    HW233903   1.382   0.803  14.129 -1.0462  0.1257  0.6375
 7424SOL     OW33904   2.511   2.006   5.503  0.6785  0.1532  0.0906
 7424SOL    HW133905   2.459   1.927   5.488 -2.4599  1.6005  3.3526
 7424SOL    HW233906   2.462   2.049   5.573 -1.6164  1.8831 -2.5491
 7425SOL     OW33907   0.382   1.367   2.374  0.6952  0.1231  0.1138
 7425SOL    HW133908   0.313   1.391   2.312 -0.1025 -1.8235  0.2521
 7425SOL    HW233909   0.430   1.449   2.385  0.6565  0.4257 -1.9067
 7426SOL     OW33910   1.426   1.040  12.892 -0.0743 -0.1059 -0.4311
 7426SOL    HW133911   1.415   0.945  12.884 -0.3544  0.0771 -2.2412
 7426SOL    HW233912   1.400   1.083  12.811  2.2142  0.0754 -1.0670
 7427SOL     OW33913   1.824   2.288   2.816  0.5341 -0.7109 -0.3604
 7427SOL    HW133914   1.789   2.214   2.866 -0.0372 -0.5581 -0.5359
 7427SOL    HW233915   1.912   2.300   2.852  0.2554  0.5733 -0.1101
 7428SOL     OW33916   2.742   0.293   2.085 -0.1402  0.4656  0.2865
 7428SOL    HW133917   2.724   0.353   2.012  1.2128  0.3798 -0.1232
 7428SOL    HW233918   2.681   0.327   2.150 -0.7461 -0.0624 -0.0024
 7429SOL     OW33919   3.922   3.454   7.878  0.1107 -0.7374  0.1332
 7429SOL    HW133920   4.011   3.481   7.899 -0.2386  0.8501 -0.4214
 7429SOL    HW233921   3.930   3.358   7.881 -1.6086 -0.8330  1.7490
 7430SOL     OW33922   1.197   4.290   2.747 -0.7078  0.0800 -0.7632
 7430SOL    HW133923   1.245   4.287   2.664  0.0345 -3.2010 -0.1922
 7430SOL    HW233924   1.210   4.202   2.781  0.7197  0.8621  0.7603
 7431SOL     OW33925   1.199   0.037   0.869 -0.2745 -0.2919  0.2942
 7431SOL    HW133926   1.232   4.683   0.853  2.3553  0.2294  2.7737
 7431SOL    HW233927   1.197   0.037   0.965  1.5115  1.8712  0.3437
 7432SOL     OW33928   4.546   3.366   3.486  0.3048  0.8281  0.3372
 7432SOL    HW133929   4.548   3.277   3.519  0.7919  0.4530 -0.6962
 7432SOL    HW233930   4.596   3.415   3.552  2.7715  1.1808 -1.7790
 7433SOL     OW33931   0.778   2.646   7.999 -0.0747 -0.0715 -0.1142
 7433SOL    HW133932   0.739   2.563   8.026  0.5180 -0.2760  0.1230
 7433SOL    HW233933   0.861   2.627   8.043  0.8276 -0.6340 -2.0781
 7434SOL     OW33934   1.223   4.068   7.882  0.2693 -0.1508 -0.4763
 7434SOL    HW133935   1.175   4.087   7.963  1.4582  0.2582  0.1364
 7434SOL    HW233936   1.301   4.122   7.894  1.0807 -1.7127  1.3470
 7435SOL     OW33937   1.299   2.301  15.755  0.0217  0.2783 -0.3508
 7435SOL    HW133938   1.274   2.332  15.668 -4.7376 -2.4890  0.0794
 7435SOL    HW233939   1.382   2.346  15.771 -1.2041  2.3395  0.2785
 7436SOL     OW33940   4.712   1.075   7.937  0.6156  0.5655  0.5244
 7436SOL    HW133941   4.699   1.164   7.906  0.3046  0.0141 -0.9081
 7436SOL    HW233942   0.050   1.096   7.996 -0.4546  0.0392  2.0093
 7437SOL     OW33943   1.483   2.553  13.378  0.0369 -0.3352  0.1827
 7437SOL    HW133944   1.552   2.522  13.436  0.0831  1.1216  0.9036
 7437SOL    HW233945   1.523   2.551  13.291  0.9932  1.1963  0.5799
 7438SOL     OW33946   1.223   2.460  12.107 -0.5039 -0.2766  0.1670
 7438SOL    HW133947   1.190   2.447  12.018 -0.7370 -0.4171  0.2718
 7438SOL    HW233948   1.206   2.552  12.126  1.1878 -0.1805  1.1595
 7439SOL     OW33949   3.218   2.917   6.727 -0.0340 -0.2264  0.2005
 7439SOL    HW133950   3.233   2.893   6.818  1.7637  0.4293  0.0608
 7439SOL    HW233951   3.122   2.921   6.730  0.0363  2.1846 -0.8048
 7440SOL     OW33952   1.914   4.213   3.581 -0.2873 -0.6368 -0.6584
 7440SOL    HW133953   1.871   4.277   3.524 -1.5444 -1.1108 -0.2397
 7440SOL    HW233954   1.931   4.275   3.652 -0.7914  0.4540 -1.4806
 7441SOL     OW33955   2.755   1.263  14.367  0.0657  0.7762  0.2938
 7441SOL    HW133956   2.721   1.208  14.438  1.7438 -0.0684  0.4372
 7441SOL    HW233957   2.842   1.224  14.368  0.2113  1.0745 -0.7325
 7442SOL     OW33958   1.854   2.661   8.855 -0.4269  0.1063  0.3047
 7442SOL    HW133959   1.789   2.688   8.919  0.5411  2.1083  0.4278
 7442SOL    HW233960   1.799   2.681   8.779 -1.4121 -1.7375  0.5227
 7443SOL     OW33961   4.010   3.041  13.816 -0.3098  0.5497 -0.4901
 7443SOL    HW133962   3.914   3.047  13.813 -0.4818 -1.8388  0.1537
 7443SOL    HW233963   4.020   3.013  13.906  1.7551 -0.2728 -0.9874
 7444SOL     OW33964   0.746   0.490   1.984 -0.2170  0.3051 -0.1344
 7444SOL    HW133965   0.810   0.444   2.039 -0.2208 -0.6512 -0.9350
 7444SOL    HW233966   0.667   0.472   2.035 -1.7208  1.2566 -2.1163
 7445SOL     OW33967   0.767   1.445  16.031  0.0477  0.0089 -0.4364
 7445SOL    HW133968   0.699   1.421  16.094  1.4475  0.2293  1.1834
 7445SOL    HW233969   0.821   1.485  16.100  2.0838 -0.9514 -1.4693
 7446SOL     OW33970   0.449   2.882   8.979 -0.1162  0.3069  0.0932
 7446SOL    HW133971   0.441   2.926   8.894 -0.8107 -0.5050 -0.2633
 7446SOL    HW233972   0.423   2.953   9.038 -0.9772 -1.3313  1.6884
 7447SOL     OW33973   0.241   0.470   5.113  0.0813 -0.1750  0.0103
 7447SOL    HW133974   0.164   0.414   5.102 -0.2079  0.2046  0.1308
 7447SOL    HW233975   0.293   0.451   5.034 -0.6658 -2.1399 -0.0178
 7448SOL     OW33976   2.808   1.442   7.796 -0.2935 -0.4996  0.2386
 7448SOL    HW133977   2.874   1.374   7.791  0.4945  0.2053  1.0235
 7448SOL    HW233978   2.733   1.401   7.839 -0.5340  0.2760  0.5606
 7449SOL     OW33979   2.343   0.845   6.462 -0.2788 -0.4022 -0.0408
 7449SOL    HW133980   2.383   0.919   6.417  1.4129 -1.3774 -0.1239
 7449SOL    HW233981   2.299   0.796   6.393 -0.0527  1.0275 -1.2099
 7450SOL     OW33982   3.888   2.788   1.442  0.0001  0.3217  0.2919
 7450SOL    HW133983   3.876   2.880   1.418  0.9997  0.3603 -0.0622
 7450SOL    HW233984   3.940   2.795   1.522 -2.8305 -0.1415  2.1691
 7451SOL     OW33985   0.757   2.872   2.518  0.1793  0.1939 -0.3317
 7451SOL    HW133986   0.809   2.927   2.459 -0.2281 -0.3255 -1.1831
 7451SOL    HW233987   0.824   2.805   2.530  1.5128  2.3093  3.7468
 7452SOL     OW33988   3.283   0.445   5.589  0.2864  0.4802 -0.1653
 7452SOL    HW133989   3.204   0.392   5.593  0.9767 -0.3422  2.2448
 7452SOL    HW233990   3.330   0.407   5.514 -0.0964  3.1546 -1.7714
 7453SOL     OW33991   4.600   0.077   5.730 -0.3624  0.1783 -0.0926
 7453SOL    HW133992   4.595   4.718   5.709 -0.0866  0.4738 -1.4671
 7453SOL    HW233993   4.556   0.112   5.652  1.8326 -0.4278 -1.6341
 7454SOL     OW33994   1.026   4.685   9.411 -0.1546  0.0118  0.7174
 7454SOL    HW133995   0.988   4.615   9.463 -0.5763 -0.4541 -0.2290
 7454SOL    HW233996   0.974   0.023   9.448  1.3575  0.0344  2.8552
 7455SOL     OW33997   0.244   0.324  12.825  0.7243 -0.2925  0.7929
 7455SOL    HW133998   0.173   0.269  12.857  0.1202  1.1469  1.9239
 7455SOL    HW233999   0.187   0.398  12.845  0.7789 -1.0362  3.5997
 7456SOL     OW34000   1.068   0.506   6.829 -0.1524  0.4045 -0.1379
 7456SOL    HW134001   1.068   0.573   6.897 -1.6898  1.1655 -0.8671
 7456SOL    HW234002   1.157   0.473   6.836 -0.2484  0.5631  1.6333
 7457SOL     OW34003   1.956   4.717   0.231  0.2982 -0.2866  0.1372
 7457SOL    HW134004   1.874   0.015   0.270 -0.0462 -1.9088  0.7438
 7457SOL    HW234005   1.972   0.049   0.164  1.2847  0.1464  0.8031
 7458SOL     OW34006   4.420   2.795   2.706 -0.2098  0.2822  0.3880
 7458SOL    HW134007   4.420   2.816   2.613 -0.9192  1.3590  0.6383
 7458SOL    HW234008   4.430   2.884   2.741 -1.0825  0.7853 -0.6761
 7459SOL     OW34009   4.547   3.565  15.043  0.2916 -0.6241  0.4043
 7459SOL    HW134010   4.532   3.531  15.131 -0.0057  2.5419  1.5849
 7459SOL    HW234011   4.556   3.483  14.996  0.0182  0.7355 -2.0204
 7460SOL     OW34012   3.117   2.887   4.868  0.2372  0.1324 -0.3433
 7460SOL    HW134013   3.195   2.890   4.812  0.4059 -0.3010 -0.1339
 7460SOL    HW234014   3.160   2.933   4.940  0.0155 -0.3608  0.1067
 7461SOL     OW34015   2.533   1.779   5.833  0.0958 -0.2443 -0.8562
 7461SOL    HW134016   2.562   1.716   5.898 -1.7743 -0.9804 -0.7185
 7461SOL    HW234017   2.553   1.732   5.752  2.7434 -0.5262 -0.0326
 7462SOL     OW34018   2.551   0.801   3.681  0.2961  0.1154  0.2633
 7462SOL    HW134019   2.493   0.818   3.607 -1.5041 -2.4091  1.0993
 7462SOL    HW234020   2.629   0.852   3.658 -0.9183  1.7738 -0.1955
 7463SOL     OW34021   1.752   4.257   2.798  0.3828 -0.1469  0.2726
 7463SOL    HW134022   1.736   4.309   2.719 -1.3181  0.2145  0.8725
 7463SOL    HW234023   1.758   4.330   2.861 -1.7738  1.3877 -1.3286
 7464SOL     OW34024   2.603   1.262   3.911 -0.3050 -0.5015 -0.1797
 7464SOL    HW134025   2.693   1.231   3.905 -0.0309  0.7087 -2.5503
 7464SOL    HW234026   2.575   1.217   3.832 -0.7993 -1.7825  0.7216
 7465SOL     OW34027   4.706   0.494  16.128 -0.7276  0.3340  0.1832
 7465SOL    HW134028   4.679   0.544  16.050  1.9583  2.3477  0.5508
 7465SOL    HW234029   0.049   0.542  16.157 -1.3458  0.8860  0.9355
 7466SOL     OW34030   1.162   4.248  11.635 -0.6561 -0.2205  0.4676
 7466SOL    HW134031   1.104   4.285  11.702 -2.6230 -3.3325  0.4504
 7466SOL    HW234032   1.105   4.255  11.559  0.4286  1.6540 -0.1919
 7467SOL     OW34033   2.033   2.427   7.102 -0.1391 -0.0492  0.2804
 7467SOL    HW134034   1.952   2.407   7.147 -0.5391 -0.5226 -0.6444
 7467SOL    HW234035   2.067   2.342   7.073 -1.5375  0.5213 -3.0352
 7468SOL     OW34036   1.495   4.531   6.480 -0.9715 -0.3162 -0.5744
 7468SOL    HW134037   1.472   4.623   6.492  1.9189  0.2280  0.7889
 7468SOL    HW234038   1.471   4.522   6.388 -0.0217  0.5594 -0.9197
 7469SOL     OW34039   4.170   3.052   1.343 -0.2955 -0.2320 -0.0425
 7469SOL    HW134040   4.164   2.959   1.323 -2.3320 -0.0064 -0.4984
 7469SOL    HW234041   4.196   3.046   1.434 -0.8745 -1.4749  0.0394
 7470SOL     OW34042   4.316   1.131  13.900  0.2719  0.0939  0.1745
 7470SOL    HW134043   4.338   1.188  13.974  1.2392  0.5587 -0.4641
 7470SOL    HW234044   4.319   1.200  13.834  0.6300 -1.7463 -1.7231
 7471SOL     OW34045   1.221   0.219   7.691  0.1299  0.1199  0.5140
 7471SOL    HW134046   1.200   0.290   7.630 -0.7003 -1.6632 -1.3060
 7471SOL    HW234047   1.284   0.262   7.748  0.0945  0.1705  0.5143
 7472SOL     OW34048   1.688   0.144  13.703  0.3500 -0.3704 -0.3539
 7472SOL    HW134049   1.683   0.208  13.633  0.8390  0.0371 -0.0195
 7472SOL    HW234050   1.740   0.076  13.661 -0.4729 -1.2473  0.0304
 7473SOL     OW34051   0.487   3.629   3.034 -0.2789  0.3801  1.0649
 7473SOL    HW134052   0.405   3.677   3.047 -0.2803  0.7908 -0.4353
 7473SOL    HW234053   0.556   3.672   3.083  1.1705 -3.2360  2.1343
 7474SOL     OW34054   0.125   3.299   1.972 -0.0612  0.1053  0.7429
 7474SOL    HW134055   0.109   3.205   1.984 -0.2912 -0.2182 -2.1611
 7474SOL    HW234056   0.177   3.287   1.893  0.1789 -0.5748  1.0073
 7475SOL     OW34057   3.321   2.572   1.989  0.5779  0.4215 -0.0281
 7475SOL    HW134058   3.267   2.645   2.018  2.0763  0.6993  2.0607
 7475SOL    HW234059   3.376   2.615   1.923  0.2021 -0.1373 -0.7024
 7476SOL     OW34060   1.063   1.635   4.684  0.1468  0.1410  0.0701
 7476SOL    HW134061   1.110   1.635   4.767 -0.7013 -1.3289  0.5415
 7476SOL    HW234062   1.131   1.613   4.621  0.1674 -0.0169  0.1479
 7477SOL     OW34063   1.695   3.056   6.083 -0.2092 -0.3116  0.5874
 7477SOL    HW134064   1.689   2.963   6.105 -1.2793 -0.6814 -1.2551
 7477SOL    HW234065   1.789   3.074   6.090 -0.1010 -1.5411  2.2393
 7478SOL     OW34066   2.885   3.066   3.874 -0.2497 -0.2192  0.0468
 7478SOL    HW134067   2.792   3.046   3.877 -0.5774  1.6450  2.0795
 7478SOL    HW234068   2.887   3.133   3.805 -0.1038 -0.9617 -0.6711
 7479SOL     OW34069   4.073   0.143  16.319  0.6446  0.8054  0.3097
 7479SOL    HW134070   4.126   0.119  16.395  0.5402  1.4435  0.5849
 7479SOL    HW234071   4.091   0.237  16.313 -1.1789  1.0315 -1.5121
 7480SOL     OW34072   0.661   0.755   2.252 -1.0386 -0.1649 -0.2520
 7480SOL    HW134073   0.717   0.830   2.232  0.1633 -1.6589 -2.4169
 7480SOL    HW234074   0.588   0.797   2.299 -1.3107 -0.2829 -0.5677
 7481SOL     OW34075   3.388   3.910   3.235  0.3083  0.1830 -0.2503
 7481SOL    HW134076   3.374   3.876   3.323 -0.4155  0.7986 -0.1323
 7481SOL    HW234077   3.426   3.997   3.250  2.3415 -0.8877  0.7893
 7482SOL     OW34078   2.715   2.003   4.814 -0.2329  0.4973 -0.1553
 7482SOL    HW134079   2.644   2.037   4.870 -2.0444 -1.5668 -1.1833
 7482SOL    HW234080   2.779   2.074   4.821  0.8089 -0.2432 -2.2555
 7483SOL     OW34081   3.684   2.607   3.658  0.0716  0.1012 -0.5258
 7483SOL    HW134082   3.599   2.590   3.699  0.2420 -1.0496 -0.6319
 7483SOL    HW234083   3.744   2.551   3.709  0.3376 -0.9319 -1.9623
 7484SOL     OW34084   3.214   1.324   4.931  0.1558  0.2140  0.9044
 7484SOL    HW134085   3.193   1.247   4.879  0.5805  0.7718 -0.0862
 7484SOL    HW234086   3.178   1.324   5.020  0.8807  0.0106  1.1990
 7485SOL     OW34087   1.626   2.191   7.780 -0.2212 -0.1640 -0.7351
 7485SOL    HW134088   1.692   2.221   7.718  1.7610 -1.4923  0.7792
 7485SOL    HW234089   1.543   2.202   7.733 -0.9486  2.1839  1.0827
 7486SOL     OW34090   1.905   3.962   9.219 -0.0814 -0.0903 -0.3065
 7486SOL    HW134091   1.905   4.045   9.170  0.4716  0.2759  0.3079
 7486SOL    HW234092   1.994   3.932   9.201 -0.1383  0.6574 -1.7867
 7487SOL     OW34093   4.578   2.744   5.030 -0.1761 -0.0210 -0.1510
 7487SOL    HW134094   4.668   2.756   5.001  0.0347 -2.4788 -0.5582
 7487SOL    HW234095   4.583   2.737   5.125 -2.4795 -0.9426 -0.0841
 7488SOL     OW34096   4.450   3.950  10.961  0.2780 -0.5010  0.1518
 7488SOL    HW134097   4.448   3.856  10.981 -3.3854  0.1125  2.6169
 7488SOL    HW234098   4.544   3.951  10.942  0.5342  3.7134  1.7427
 7489SOL     OW34099   2.326   0.392   3.049  0.1134  0.6167 -0.2211
 7489SOL    HW134100   2.419   0.409   3.031 -0.6315  2.4306 -2.4275
 7489SOL    HW234101   2.330   0.382   3.144 -0.4138  0.6502 -0.1975
 7490SOL     OW34102   1.120   2.359   2.011 -0.4166 -0.2174 -0.2497
 7490SOL    HW134103   1.122   2.346   1.916  1.4314  1.4607 -0.4258
 7490SOL    HW234104   1.117   2.452   2.032 -1.4802 -0.1328 -0.7811
 7491SOL     OW34105   2.719   1.282   5.231  0.3669  0.5407  0.1372
 7491SOL    HW134106   2.799   1.303   5.278  1.5779 -2.4539 -0.5919
 7491SOL    HW234107   2.670   1.364   5.242 -0.9951 -0.2014 -0.4170
 7492SOL     OW34108   0.451   0.880   0.859 -0.3923 -0.7391  0.1048
 7492SOL    HW134109   0.379   0.922   0.906  0.9196 -0.0897  1.5414
 7492SOL    HW234110   0.472   0.955   0.803  4.0674 -1.5795  0.6704
 7493SOL     OW34111   2.242   1.635   1.607 -0.0659  0.0621 -0.2901
 7493SOL    HW134112   2.213   1.546   1.589  1.5859 -0.3440 -0.9998
 7493SOL    HW234113   2.331   1.629   1.572 -0.1607  1.9709 -0.8639
 7494SOL     OW34114   3.715   0.408   5.984 -0.4273 -0.1313 -0.1257
 7494SOL    HW134115   3.768   0.382   5.909 -0.8331  0.4862 -0.6196
 7494SOL    HW234116   3.718   0.324   6.030  0.1355 -0.5763 -0.9855
 7495SOL     OW34117   3.056   3.901   8.083  0.4896  0.3150  0.4532
 7495SOL    HW134118   3.018   3.984   8.055  1.6628  0.9610  0.7867
 7495SOL    HW234119   3.136   3.907   8.030 -0.1571 -0.2909 -0.5805
 7496SOL     OW34120   4.615   2.539   9.330 -0.3075  0.1673 -0.5708
 7496SOL    HW134121   4.593   2.489   9.251 -0.7005 -1.1300  0.3685
 7496SOL    HW234122   4.540   2.521   9.386  0.5458 -0.9069  0.2304
 7497SOL     OW34123   1.264   4.453   3.773  0.4828  0.0293 -0.0147
 7497SOL    HW134124   1.273   4.365   3.809 -0.6555  0.7509  2.0383
 7497SOL    HW234125   1.242   4.501   3.852 -1.7300 -2.4245  0.8753
 7498SOL     OW34126   4.237   2.743   0.667 -0.3745 -0.7664  0.1114
 7498SOL    HW134127   4.320   2.786   0.647 -1.3722  0.8087 -0.6418
 7498SOL    HW234128   4.180   2.820   0.659 -0.2053 -0.8586 -1.9998
 7499SOL     OW34129   2.482   3.030   2.534  0.1692 -0.2744  0.1342
 7499SOL    HW134130   2.388   3.021   2.542  0.3196 -1.1178  0.9744
 7499SOL    HW234131   2.495   2.972   2.459 -1.2574 -0.1422 -0.2058
 7500SOL     OW34132   2.690   1.083   6.718 -0.2511 -0.3197  0.1835
 7500SOL    HW134133   2.786   1.079   6.720 -0.3257 -2.9723 -2.3029
 7500SOL    HW234134   2.679   1.156   6.657  3.1221  1.1456  1.3281
 7501SOL     OW34135   4.029   3.566   2.158  0.3627  0.0395  0.0513
 7501SOL    HW134136   4.047   3.492   2.100  0.7808 -0.1949  0.4764
 7501SOL    HW234137   4.112   3.611   2.143  0.9120 -0.8389  0.4556
 7502SOL     OW34138   2.710   4.198   9.407 -0.6322  0.0791 -0.4762
 7502SOL    HW134139   2.674   4.283   9.434 -0.8693 -0.3333  0.5135
 7502SOL    HW234140   2.706   4.153   9.491  1.6209 -1.2652 -1.0972
 7503SOL     OW34141   4.468   0.748   6.234  0.0407  0.0537 -0.0304
 7503SOL    HW134142   4.405   0.765   6.164 -1.7812  0.6826  1.7950
 7503SOL    HW234143   4.503   0.667   6.196 -1.0480 -1.4707  2.2742
 7504SOL     OW34144   1.406   2.875   8.137 -0.5256 -0.4262  0.2036
 7504SOL    HW134145   1.360   2.807   8.088 -1.1439 -0.3576  0.6842
 7504SOL    HW234146   1.496   2.872   8.106 -0.2016  2.1473  0.8823
 7505SOL     OW34147   2.630   3.585   2.311 -0.0465 -0.0544 -0.1798
 7505SOL    HW134148   2.671   3.579   2.398 -0.5356  0.4997  0.0925
 7505SOL    HW234149   2.684   3.525   2.261  0.4989 -0.2442  0.6454
 7506SOL     OW34150   3.843   0.088   6.474  0.1882 -0.1770  0.1349
 7506SOL    HW134151   3.796   0.166   6.503 -0.8057 -0.6879 -0.0981
 7506SOL    HW234152   3.898   0.129   6.407 -1.0911  2.6940  0.8532
 7507SOL     OW34153   3.529   3.903   1.768  0.1070 -0.5930  0.3485
 7507SOL    HW134154   3.523   3.876   1.676  0.7770 -1.3648  0.5334
 7507SOL    HW234155   3.604   3.851   1.798 -0.0604  1.0384  3.5820
 7508SOL     OW34156   1.206   3.195  14.390 -0.2875 -0.2097  0.1409
 7508SOL    HW134157   1.219   3.202  14.296  1.2553 -1.4719  0.2735
 7508SOL    HW234158   1.198   3.287  14.416  1.3510 -0.0116 -0.0465
 7509SOL     OW34159   4.529   0.782   0.616 -0.3331 -0.7597  0.3311
 7509SOL    HW134160   4.598   0.824   0.668 -0.4882 -0.8383  0.6016
 7509SOL    HW234161   4.509   0.838   0.541  1.0300 -0.7634 -0.0309
 7510SOL     OW34162   2.325   3.935   2.786 -0.6845 -0.3324 -0.4655
 7510SOL    HW134163   2.230   3.947   2.780 -0.8920 -2.1446 -0.8528
 7510SOL    HW234164   2.329   3.857   2.842 -2.5700  1.4611  2.1513
 7511SOL     OW34165   2.293   3.332   2.617  0.2080  0.2631  0.9712
 7511SOL    HW134166   2.220   3.340   2.679 -1.8828 -3.0698 -1.0509
 7511SOL    HW234167   2.336   3.412   2.649 -0.6168  1.6219 -1.2957
 7512SOL     OW34168   2.723   1.066   2.995 -0.3279  0.2134 -0.4136
 7512SOL    HW134169   2.730   1.161   3.000 -0.2060  0.0819  1.8737
 7512SOL    HW234170   2.813   1.045   3.021 -0.4817  1.0722  0.7747
 7513SOL     OW34171   1.207   4.087   2.362 -0.2376  0.0459 -0.4990
 7513SOL    HW134172   1.263   4.162   2.343  1.0148 -0.6368  0.4807
 7513SOL    HW234173   1.250   4.059   2.442 -2.6449  1.9416  1.4872
 7514SOL     OW34174   4.594   1.738  10.034  0.1241  0.1668  0.0372
 7514SOL    HW134175   4.654   1.746   9.960  0.4336  0.6439  0.3420
 7514SOL    HW234176   4.523   1.692   9.990 -0.4367 -2.1245  3.3320
 7515SOL     OW34177   2.330   4.670   3.996 -0.1698  0.1799  0.0963
 7515SOL    HW134178   2.274   4.690   3.921 -2.6647 -0.3853  1.7748
 7515SOL    HW234179   2.295   4.582   4.013 -0.9449  0.9143  2.3053
 7516SOL     OW34180   3.852   2.406  11.119  0.0203  0.5750 -0.3533
 7516SOL    HW134181   3.908   2.350  11.172 -0.0054 -0.5839 -1.5615
 7516SOL    HW234182   3.909   2.443  11.052 -0.9346 -0.1938 -1.5849
 7517SOL     OW34183   3.819   0.998   5.450  0.0371  0.0491  0.2353
 7517SOL    HW134184   3.842   0.964   5.536 -1.2448 -0.1456  0.5080
 7517SOL    HW234185   3.898   0.990   5.397  1.6657  2.1507  2.3757
 7518SOL     OW34186   3.783   4.687   8.870 -0.0793  0.2750 -0.2321
 7518SOL    HW134187   3.816   4.668   8.782  1.0543 -0.6677  0.4001
 7518SOL    HW234188   3.716   4.619   8.863 -1.6592  1.8042  0.0365
 7519SOL     OW34189   2.997   1.224   7.821  0.0990 -0.2536  0.5784
 7519SOL    HW134190   3.042   1.269   7.893 -0.9553  1.9732 -0.1462
 7519SOL    HW234191   2.970   1.143   7.865 -0.4536 -0.4370 -0.0952
 7520SOL     OW34192   4.433   3.968   5.451  0.2705  0.9882  0.2053
 7520SOL    HW134193   4.339   3.963   5.433  0.3534  1.3155 -0.3309
 7520SOL    HW234194   4.462   3.877   5.465  3.4204  1.5974 -2.3609
 7521SOL     OW34195   4.586   0.877  10.806  0.3109  0.1220 -0.0244
 7521SOL    HW134196   4.633   0.794  10.798  0.5743  0.2218  0.5071
 7521SOL    HW234197   4.644   0.943  10.767 -0.4163  0.2327 -0.9320
 7522SOL     OW34198   3.893   1.295   5.914  0.0862 -0.3513  0.2708
 7522SOL    HW134199   3.989   1.292   5.912  0.0287 -2.3417  0.1672
 7522SOL    HW234200   3.869   1.246   5.992  0.0934 -1.6253 -0.5158
 7523SOL     OW34201   3.542   4.636  15.226  0.0901 -0.2650 -0.0775
 7523SOL    HW134202   3.568   4.724  15.251  1.4112 -0.7878  0.3946
 7523SOL    HW234203   3.581   4.633  15.139 -0.8592 -1.3395 -0.4721
 7524SOL     OW34204   3.528   2.221  11.830 -0.0958 -0.1053 -0.0625
 7524SOL    HW134205   3.499   2.133  11.857 -0.8844  0.1121 -0.2061
 7524SOL    HW234206   3.546   2.217  11.736  0.3894  0.8014 -0.0062
 7525SOL     OW34207   1.997   3.394   7.973  0.0248 -0.6135  0.0116
 7525SOL    HW134208   2.008   3.380   8.067 -1.4284  3.2419  0.7866
 7525SOL    HW234209   2.078   3.356   7.939  0.2591  0.7801 -0.9976
 7526SOL     OW34210   1.474   3.221   7.803 -0.6078  0.0504  0.3459
 7526SOL    HW134211   1.552   3.275   7.815  1.4926 -2.6917 -0.8687
 7526SOL    HW234212   1.443   3.234   7.893 -0.5168  0.7180  0.2769
 7527SOL     OW34213   1.744   1.272   0.505  0.6955  0.0389  0.1998
 7527SOL    HW134214   1.701   1.188   0.521  0.6646 -0.3240 -1.7822
 7527SOL    HW234215   1.714   1.316   0.585 -3.2388  0.2801 -1.4317
 7528SOL     OW34216   1.047   4.158  12.968  0.1504 -0.3094  0.1559
 7528SOL    HW134217   1.082   4.087  12.915  1.2569 -0.5464  1.2127
 7528SOL    HW234218   1.095   4.147  13.050 -2.1117 -2.4145  1.1719
 7529SOL     OW34219   0.549   2.400   8.947  0.3449  0.0441 -0.0453
 7529SOL    HW134220   0.596   2.409   9.030  0.1521  0.4960  0.0104
 7529SOL    HW234221   0.541   2.304   8.949 -0.5533  0.1429  1.5015
 7530SOL     OW34222   3.480   3.153  11.186  0.3366  0.8499  0.3242
 7530SOL    HW134223   3.569   3.169  11.155  0.5540  0.5189  0.7612
 7530SOL    HW234224   3.493   3.167  11.280 -1.1151 -1.2194  0.8464
 7531SOL     OW34225   3.828   2.918  16.482 -0.0529  0.1228 -0.4621
 7531SOL    HW134226   3.807   2.855  16.413 -1.1438 -2.3419  2.1234
 7531SOL    HW234227   3.741   2.958  16.481 -0.4942 -0.8472 -1.5023
 7532SOL     OW34228   2.988   4.336   2.549  0.1208  0.4114 -1.0104
 7532SOL    HW134229   3.065   4.389   2.567 -0.1351  0.7134 -0.8135
 7532SOL    HW234230   3.025   4.253   2.517  0.1383 -1.1439  3.0552
 7533SOL     OW34231   3.455   0.784   6.170 -0.2010  0.4944  0.2996
 7533SOL    HW134232   3.467   0.869   6.127 -0.0690  0.7161  0.7786
 7533SOL    HW234233   3.472   0.713   6.108  0.7547  2.7512 -1.9921
 7534SOL     OW34234   1.804   1.319  14.250  0.1280 -0.4225 -0.5516
 7534SOL    HW134235   1.872   1.375  14.288  0.4610 -1.7221  0.7435
 7534SOL    HW234236   1.826   1.314  14.157 -1.7011  2.5087 -1.1480
 7535SOL     OW34237   3.111   1.471  11.686 -0.9075  0.0015 -0.5335
 7535SOL    HW134238   3.157   1.555  11.681  0.4514 -0.7521 -0.6430
 7535SOL    HW234239   3.038   1.477  11.748 -1.9769 -2.6210 -1.5485
 7536SOL     OW34240   3.895   3.484   2.917  0.0516  0.2087  0.1269
 7536SOL    HW134241   3.818   3.448   2.962  2.4721 -0.7355  3.4887
 7536SOL    HW234242   3.960   3.486   2.987 -1.8708 -3.6255  2.0197
 7537SOL     OW34243   0.037   0.753   7.075 -0.2726  0.1393 -0.1262
 7537SOL    HW134244   0.001   0.841   7.085 -0.6363 -0.0619  0.3474
 7537SOL    HW234245   4.726   0.698   7.138  0.0845 -0.1413 -0.1104
 7538SOL     OW34246   3.945   3.065   4.137 -0.0429 -0.2832 -0.7521
 7538SOL    HW134247   3.918   3.141   4.188 -0.8731 -1.4940  0.6109
 7538SOL    HW234248   3.869   3.011   4.156 -0.5026  0.4482 -0.5024
 7539SOL     OW34249   3.253   0.366  16.390  0.2540 -0.6274 -0.0448
 7539SOL    HW134250   3.231   0.430  16.322 -1.2256  0.2642  1.2847
 7539SOL    HW234251   3.332   0.320  16.360 -0.1548 -0.8146 -0.8493
 7540SOL     OW34252   4.271   3.114   3.722  0.0819  0.3650 -0.3143
 7540SOL    HW134253   4.255   3.046   3.787 -0.1608  0.5573 -0.1691
 7540SOL    HW234254   4.363   3.132   3.740 -0.7755  2.7250  1.7462
 7541SOL     OW34255   1.037   0.376   3.473  0.2997 -0.1418  0.2454
 7541SOL    HW134256   0.972   0.310   3.450  0.8405 -0.8632  0.7954
 7541SOL    HW234257   0.990   0.457   3.455 -1.2386 -0.8816  1.0021
 7542SOL     OW34258   4.375   0.058   7.212 -0.1294 -0.2828 -0.0209
 7542SOL    HW134259   4.317   4.724   7.179 -0.8273  0.5071 -0.4458
 7542SOL    HW234260   4.451   0.003   7.228  0.1700  0.1951  0.2129
 7543SOL     OW34261   4.037   1.132   9.144  0.2274 -0.1519 -0.1467
 7543SOL    HW134262   4.123   1.117   9.183 -0.3072 -1.5284  0.4836
 7543SOL    HW234263   4.027   1.049   9.098  1.0469 -0.3628  0.0644
 7544SOL     OW34264   3.342   3.639   4.241 -0.2561 -0.4949  0.0431
 7544SOL    HW134265   3.431   3.657   4.211 -0.6598  0.5396 -0.5640
 7544SOL    HW234266   3.324   3.546   4.224 -1.4948 -0.8395  3.2583
 7545SOL     OW34267   1.814   0.810   8.476  0.4850  0.4526  0.0881
 7545SOL    HW134268   1.734   0.795   8.427  0.3519 -2.6455  1.2504
 7545SOL    HW234269   1.800   0.902   8.498 -1.9306 -0.0070  0.4258
 7546SOL     OW34270   0.823   0.423   5.637 -0.1926  0.4924  0.1329
 7546SOL    HW134271   0.745   0.400   5.588  0.9011  0.2186 -1.4665
 7546SOL    HW234272   0.820   0.517   5.620  1.7833  0.8678  1.8074
 7547SOL     OW34273   3.722   0.821   9.161  0.4737  0.4935 -0.1831
 7547SOL    HW134274   3.674   0.898   9.130  1.2394  0.3269 -1.7578
 7547SOL    HW234275   3.641   0.773   9.179  0.6967  0.0068 -0.4799
 7548SOL     OW34276   3.385   2.117   5.397 -0.5630  0.3150  0.7846
 7548SOL    HW134277   3.339   2.104   5.314 -0.1991  0.3441  0.5796
 7548SOL    HW234278   3.436   2.197   5.390  1.0633 -0.6850  1.1352
 7549SOL     OW34279   1.328   4.395   7.144 -0.3629 -0.0832  0.4801
 7549SOL    HW134280   1.241   4.360   7.123 -0.3384  0.6789 -0.8896
 7549SOL    HW234281   1.319   4.488   7.125 -0.9145 -0.1234  0.5316
 7550SOL     OW34282   2.410   2.872   4.739  0.3611  0.3398  0.5124
 7550SOL    HW134283   2.451   2.879   4.825  0.4940  1.9018  0.3333
 7550SOL    HW234284   2.388   2.965   4.727 -1.8431 -0.2968 -0.3897
 7551SOL     OW34285   4.587   4.642   7.233 -0.6033 -0.0211  0.3339
 7551SOL    HW134286   4.570   4.575   7.167  0.7340 -0.0639  0.0283
 7551SOL    HW234287   4.681   4.651   7.216 -0.0769 -4.7358  0.8850
 7552SOL     OW34288   3.716   1.763   5.732  0.5214 -0.1311  0.0066
 7552SOL    HW134289   3.666   1.780   5.653  1.7344 -2.2333 -1.2241
 7552SOL    HW234290   3.771   1.693   5.695  0.8084 -1.2765  2.6155
 7553SOL     OW34291   2.307   1.421  16.204  0.2415 -0.2216  0.2537
 7553SOL    HW134292   2.361   1.439  16.128 -2.3980  2.6519 -0.9138
 7553SOL    HW234293   2.369   1.395  16.272 -0.6700 -0.6084  0.9422
 7554SOL     OW34294   3.016   1.746  15.254 -0.4999 -0.0304 -0.2712
 7554SOL    HW134295   3.017   1.659  15.294  1.6768  0.4872  0.7920
 7554SOL    HW234296   3.072   1.794  15.314  0.0918 -0.6043 -0.3626
 7555SOL     OW34297   3.713   0.602   4.934  0.1823 -0.2663  0.0171
 7555SOL    HW134298   3.632   0.559   4.961 -0.6915  0.6366 -1.2041
 7555SOL    HW234299   3.732   0.662   5.006  0.5029 -0.4106  0.0536
 7556SOL     OW34300   3.103   3.167  15.222  0.3911 -0.0115  0.4325
 7556SOL    HW134301   3.193   3.156  15.191  0.1012  0.8300 -0.6884
 7556SOL    HW234302   3.118   3.211  15.306  0.9343  0.8210 -0.1011
 7557SOL     OW34303   3.152   0.065   9.988  0.3820 -0.3288 -0.6480
 7557SOL    HW134304   3.090   0.086   9.919 -1.1605 -3.3787 -0.1983
 7557SOL    HW234305   3.198   4.720   9.960  2.9368  1.6688 -2.0687
 7558SOL     OW34306   3.233   4.659  15.660 -0.8121  0.3180 -0.0096
 7558SOL    HW134307   3.193   0.003  15.620 -4.3887 -0.8821  1.2731
 7558SOL    HW234308   3.324   4.657  15.629 -0.1907  1.0955  1.7508
 7559SOL     OW34309   0.783   2.816   4.828  0.1227  0.1799  0.1954
 7559SOL    HW134310   0.788   2.791   4.920 -1.0346 -0.7064  0.0118
 7559SOL    HW234311   0.687   2.815   4.825  0.0339  2.5365  2.2534
 7560SOL     OW34312   1.099   2.502   5.696 -0.5211 -0.2897  0.3149
 7560SOL    HW134313   1.106   2.572   5.630 -2.2101  2.5224  3.0940
 7560SOL    HW234314   1.126   2.429   5.641 -3.1326 -0.8322 -0.2303
 7561SOL     OW34315   3.110   4.100   2.456 -0.1552 -0.1488 -0.3878
 7561SOL    HW134316   3.204   4.116   2.443 -0.2811 -1.7942 -3.2929
 7561SOL    HW234317   3.094   4.048   2.377 -1.6514 -0.4124  0.0874
 7562SOL     OW34318   1.938   2.814   8.017  0.2664 -0.7521  0.1232
 7562SOL    HW134319   1.974   2.800   8.105  1.6820  2.3160  0.0553
 7562SOL    HW234320   2.016   2.849   7.974 -0.7881  0.0804 -1.1005
 7563SOL     OW34321   0.630   4.701   8.420  0.4349  0.5005 -0.0267
 7563SOL    HW134322   0.627   4.710   8.325 -1.0658 -1.0885 -0.1290
 7563SOL    HW234323   0.592   0.051   8.444  1.1274  1.2448 -1.6063
 7564SOL     OW34324   0.537   0.764  16.713 -0.2442 -0.6264 -0.5859
 7564SOL    HW134325   0.621   0.780  16.755 -1.0541  1.0223  0.3810
 7564SOL    HW234326   0.525   0.852  16.679 -1.2985 -0.5064  0.0775
 7565SOL     OW34327   1.914   0.327   0.355 -0.5065  0.1248  0.6054
 7565SOL    HW134328   1.975   0.397   0.378  1.0848 -0.6918 -1.1986
 7565SOL    HW234329   1.839   0.385   0.339 -0.3618  0.1339 -0.0476
 7566SOL     OW34330   1.914   0.884   0.484 -0.2196  0.4554 -0.2728
 7566SOL    HW134331   1.903   0.902   0.390  0.4695 -1.1869 -0.6622
 7566SOL    HW234332   1.849   0.941   0.524  1.6335  0.1678  3.1607
 7567SOL     OW34333   4.160   1.719   1.943  0.4496  0.3211  0.1549
 7567SOL    HW134334   4.189   1.637   1.904 -4.0016 -0.0908 -2.2961
 7567SOL    HW234335   4.243   1.764   1.962 -0.2914  1.8407 -0.1524
 7568SOL     OW34336   2.722   0.684   7.415  0.2570  0.1641  0.2249
 7568SOL    HW134337   2.802   0.736   7.404 -0.9904  1.8207 -1.0701
 7568SOL    HW234338   2.749   0.612   7.358  0.2574 -0.7635  1.4216
 7569SOL     OW34339   3.138   3.494   5.128 -0.1073 -0.4170 -0.0279
 7569SOL    HW134340   3.203   3.441   5.174  1.2425 -0.5388 -2.0807
 7569SOL    HW234341   3.160   3.582   5.158 -2.6670  1.2981 -3.1414
 7570SOL     OW34342   2.549   2.223   2.561 -0.3317  0.5483 -0.1500
 7570SOL    HW134343   2.620   2.261   2.510  0.3261  0.4506  0.6937
 7570SOL    HW234344   2.587   2.240   2.647 -0.5735 -0.9671  0.2588
 7571SOL     OW34345   0.198   2.084   8.871 -0.2573  0.0694  0.6544
 7571SOL    HW134346   0.188   1.996   8.835  0.5212  0.8707 -1.5349
 7571SOL    HW234347   0.233   2.126   8.792 -3.3634  1.4785  0.0036
 7572SOL     OW34348   4.589   1.703   7.186 -0.2028  0.0074  0.1006
 7572SOL    HW134349   4.494   1.689   7.182 -0.2375  0.1209  0.6189
 7572SOL    HW234350   4.618   1.618   7.219  0.7188  0.6165  0.8613
 7573SOL     OW34351   2.622   1.674   6.850  0.1634 -0.0898  0.1262
 7573SOL    HW134352   2.644   1.608   6.784 -0.7606 -0.8447  0.5779
 7573SOL    HW234353   2.693   1.738   6.843 -1.3395  1.8830  2.9331
 7574SOL     OW34354   0.095   3.501   4.773 -0.1035 -0.0690  0.0262
 7574SOL    HW134355   0.094   3.595   4.789  0.2803 -0.0180 -0.2387
 7574SOL    HW234356   0.010   3.475   4.809  0.3300 -1.5562 -0.0119
 7575SOL     OW34357   0.347   2.962   4.381 -0.0910 -0.3159 -0.3121
 7575SOL    HW134358   0.338   3.011   4.300 -2.0291  0.8762  0.6260
 7575SOL    HW234359   0.424   3.008   4.414  0.4770 -0.0915 -1.9651
 7576SOL     OW34360   4.283   0.307   2.538  0.0135 -0.6159  0.0572
 7576SOL    HW134361   4.313   0.246   2.470  0.0972  0.8950 -1.2753
 7576SOL    HW234362   4.188   0.303   2.539 -0.1013  1.6520 -1.7794
 7577SOL     OW34363   0.608   3.747   7.381  0.0296 -0.5193 -0.0417
 7577SOL    HW134364   0.607   3.653   7.403  0.0970 -0.4232  0.3730
 7577SOL    HW234365   0.630   3.777   7.469  1.2662 -1.8282  0.0935
 7578SOL     OW34366   1.203   2.753   8.302 -0.4108 -0.1811  0.1364
 7578SOL    HW134367   1.138   2.820   8.324 -0.6119  0.1501 -1.4633
 7578SOL    HW234368   1.280   2.811   8.298 -0.9153  0.3972 -1.2346
 7579SOL     OW34369   3.280   2.708   5.320  0.4498  0.0805 -0.3001
 7579SOL    HW134370   3.283   2.727   5.226  0.5269 -2.6068 -0.8280
 7579SOL    HW234371   3.216   2.638   5.329  0.7297 -0.1403 -0.0665
 7580SOL     OW34372   0.234   1.655   9.547  0.0222  1.3174 -0.4077
 7580SOL    HW134373   0.155   1.605   9.570  0.2217  1.0088 -0.3892
 7580SOL    HW234374   0.198   1.701   9.472  2.1838  2.4891 -0.7262
 7581SOL     OW34375   0.102   1.600   6.456  0.2509  0.0320  0.5892
 7581SOL    HW134376   0.062   1.531   6.509  1.4670 -2.3368 -1.5797
 7581SOL    HW234377   0.191   1.568   6.471  0.1872 -0.6785 -0.4972
 7582SOL     OW34378   2.178   2.128   5.284 -0.1246  0.0223  0.0880
 7582SOL    HW134379   2.200   2.221   5.280  0.9821 -0.2472 -0.0966
 7582SOL    HW234380   2.134   2.130   5.369 -0.4579 -0.4348 -0.0700
 7583SOL     OW34381   1.520   1.981   7.521 -0.3437 -0.2756 -0.2626
 7583SOL    HW134382   1.548   1.920   7.453  2.5061  1.2253 -0.4534
 7583SOL    HW234383   1.541   2.066   7.482 -1.3613 -0.0896 -0.3837
 7584SOL     OW34384   3.468   1.347   3.901 -0.1462 -0.3757 -0.1581
 7584SOL    HW134385   3.459   1.266   3.951 -1.0783  1.2775  2.3795
 7584SOL    HW234386   3.375   1.363   3.885 -0.2786 -0.7892  0.2027
 7585SOL     OW34387   0.980   3.167   7.849 -0.2741 -0.1944 -0.2965
 7585SOL    HW134388   0.937   3.175   7.934 -1.2334  1.2900 -0.9273
 7585SOL    HW234389   1.022   3.253   7.845 -0.3781 -0.2384 -2.3049
 7586SOL     OW34390   0.097   4.407   4.645  0.2788 -0.5958  0.6092
 7586SOL    HW134391   0.182   4.429   4.607 -0.9221  1.2509 -1.0138
 7586SOL    HW234392   0.054   4.492   4.635  2.3518  0.1650 -1.7689
 7587SOL     OW34393   2.033   4.375  16.018 -0.5172  0.3377  0.0936
 7587SOL    HW134394   1.987   4.351  15.937 -2.1940  0.8432  0.8942
 7587SOL    HW234395   1.973   4.340  16.084 -0.8326 -0.3652 -0.5610
 7588SOL     OW34396   1.686   2.770   6.029 -0.1547 -0.6514  0.3795
 7588SOL    HW134397   1.634   2.728   5.961 -0.6809 -0.1840  0.4941
 7588SOL    HW234398   1.762   2.714   6.046  0.6894 -0.3001 -2.2730
 7589SOL     OW34399   4.584   3.718   3.509 -0.2005 -0.0319  0.3737
 7589SOL    HW134400   4.491   3.708   3.486 -0.3615  0.3641  0.8565
 7589SOL    HW234401   4.578   3.792   3.569  1.1252 -1.0961  1.8247
 7590SOL     OW34402   0.980   0.751  15.624  0.3743  0.1144  0.2370
 7590SOL    HW134403   1.065   0.750  15.667  0.5057 -0.9222 -0.0447
 7590SOL    HW234404   0.955   0.663  15.653  3.7252 -1.2288 -1.0053
 7591SOL     OW34405   3.079   3.485   4.827 -0.5471  0.6699  0.0589
 7591SOL    HW134406   3.018   3.413   4.816  1.0075 -0.7823  1.0002
 7591SOL    HW234407   3.094   3.487   4.922 -1.4419  0.0190  0.2072
 7592SOL     OW34408   2.022   4.243   3.168 -0.6661 -0.4732  0.3557
 7592SOL    HW134409   2.039   4.235   3.074  1.1804 -2.1409  0.8213
 7592SOL    HW234410   2.001   4.150   3.180 -0.4732 -0.8496 -2.2669
 7593SOL     OW34411   0.040   1.622  12.116  0.0909  0.2317 -0.1648
 7593SOL    HW134412   0.022   1.571  12.037  0.0010  0.3725 -0.2340
 7593SOL    HW234413   4.706   1.687  12.098 -3.0086 -2.7351  0.8263
 7594SOL     OW34414   2.921   2.206   4.797  0.1044  0.0426 -0.0981
 7594SOL    HW134415   2.900   2.218   4.704 -0.8978  0.5288  0.1922
 7594SOL    HW234416   2.949   2.296   4.815  2.7012 -0.8195  0.1869
 7595SOL     OW34417   1.277   0.171   5.685 -0.4676  0.4364  0.3498
 7595SOL    HW134418   1.335   0.242   5.713 -1.5358  1.6763 -0.6082
 7595SOL    HW234419   1.346   0.105   5.695 -0.3812  0.6099  0.9092
 7596SOL     OW34420   0.872   3.713   8.870  0.5553  0.3202 -0.3039
 7596SOL    HW134421   0.852   3.775   8.800  1.3155 -0.4242 -1.1783
 7596SOL    HW234422   0.807   3.646   8.849  1.6028 -0.4852 -0.9229
 7597SOL     OW34423   1.347   0.985  14.458  0.4990 -0.1919 -0.0358
 7597SOL    HW134424   1.260   1.017  14.435  0.8478 -0.2314 -1.4015
 7597SOL    HW234425   1.376   1.058  14.514  0.3148 -0.8733  0.9414
 7598SOL     OW34426   4.682   2.193   3.334 -0.0263 -0.0425  0.0324
 7598SOL    HW134427   0.021   2.138   3.362  0.2403  2.3239  3.9888
 7598SOL    HW234428   4.621   2.132   3.291 -0.1228  0.1394 -0.0891
 7599SOL     OW34429   1.322   1.918   1.831 -0.2475  0.1963 -0.0942
 7599SOL    HW134430   1.274   1.880   1.904  0.3743  0.6131  0.5337
 7599SOL    HW234431   1.338   2.007   1.864  0.1555  0.5356 -1.1836
 7600SOL     OW34432   3.581   1.874   8.342 -0.1670 -0.0800 -0.0974
 7600SOL    HW134433   3.616   1.950   8.389  0.9365 -0.2766 -0.6001
 7600SOL    HW234434   3.557   1.808   8.406 -1.7977  0.4743 -0.1261
 7601SOL     OW34435   0.932   4.033   6.100 -0.2422 -0.1694  0.2542
 7601SOL    HW134436   0.942   4.020   6.005 -1.8998 -1.9334  0.3216
 7601SOL    HW234437   0.974   4.115   6.126  2.8310 -1.2871 -1.1699
 7602SOL     OW34438   0.166   1.567   3.790  0.0426  0.5245  0.1150
 7602SOL    HW134439   0.159   1.644   3.734  1.6676 -1.9026 -3.3523
 7602SOL    HW234440   0.207   1.595   3.872  2.2141 -0.7924 -0.5153
 7603SOL     OW34441   2.117   2.945   3.784  0.0300 -0.0409 -0.2496
 7603SOL    HW134442   2.103   2.963   3.877 -0.7220 -1.9756  0.0071
 7603SOL    HW234443   2.202   2.986   3.768 -0.3175  1.2786  1.2298
 7604SOL     OW34444   2.541   3.730   6.658  0.4564  0.5101  0.3306
 7604SOL    HW134445   2.557   3.645   6.617 -0.0232  1.0339 -0.9146
 7604SOL    HW234446   2.617   3.781   6.630  0.9253 -0.1626  0.3736
 7605SOL     OW34447   2.940   3.096   8.930 -0.0998  0.2108  0.7917
 7605SOL    HW134448   3.030   3.069   8.950  0.5810  2.7469  1.1065
 7605SOL    HW234449   2.911   3.008   8.905  1.0696 -0.6249  2.3345
 7606SOL     OW34450   4.002   4.555   5.882 -0.3515 -0.3873  0.6956
 7606SOL    HW134451   4.014   4.488   5.949  0.9318  1.4087  2.2550
 7606SOL    HW234452   3.983   4.497   5.808 -1.7200 -0.0404  0.7584
 7607SOL     OW34453   2.265   2.476   3.957  0.3661 -0.3285 -0.3297
 7607SOL    HW134454   2.236   2.564   3.983  0.9017 -0.3028  0.2022
 7607SOL    HW234455   2.309   2.497   3.875  2.7853  1.1743  1.3387
 7608SOL     OW34456   4.479   2.772   6.049 -0.0718 -0.5291 -0.1152
 7608SOL    HW134457   4.545   2.710   6.082  1.5847  1.5833  0.5103
 7608SOL    HW234458   4.483   2.843   6.113 -0.9144  0.3476 -1.0325
 7609SOL     OW34459   2.388   1.476   2.574 -0.3193  0.3471  0.3619
 7609SOL    HW134460   2.395   1.562   2.615 -0.6452 -0.0782  1.3023
 7609SOL    HW234461   2.447   1.487   2.500 -1.6812  4.6529 -0.0628
 7610SOL     OW34462   1.359   4.707  15.938 -0.1374 -0.0183 -0.5844
 7610SOL    HW134463   1.277   4.714  15.890 -0.9917 -1.3532  0.6960
 7610SOL    HW234464   1.412   4.641  15.893  0.8104  0.7451 -0.6018
 7611SOL     OW34465   2.796   3.106   8.277  0.7620  0.2926 -0.2414
 7611SOL    HW134466   2.709   3.067   8.271  0.7422  0.3087 -0.0841
 7611SOL    HW234467   2.848   3.056   8.214 -1.2335 -1.9460 -0.0726
 7612SOL     OW34468   0.174   3.769   8.452 -0.1051  0.2324  0.3642
 7612SOL    HW134469   0.243   3.823   8.491  2.4426 -2.9919  0.3431
 7612SOL    HW234470   0.146   3.712   8.523  0.8686  0.3459  0.8487
 7613SOL     OW34471   2.975   4.051  14.829 -0.2427  0.3497  0.1210
 7613SOL    HW134472   2.996   4.073  14.738 -1.1430 -1.4904 -0.5288
 7613SOL    HW234473   3.056   4.012  14.862 -0.5344 -1.0244 -0.8019
 7614SOL     OW34474   3.122   3.706   7.540  0.4419  0.4418  0.2479
 7614SOL    HW134475   3.054   3.721   7.606  0.2998  2.0447 -0.2532
 7614SOL    HW234476   3.104   3.615   7.517 -1.7155  0.3558  2.2886
 7615SOL     OW34477   3.135   3.046   3.107  0.2350  0.1738 -0.4818
 7615SOL    HW134478   3.080   3.056   3.030  0.1730 -0.4086 -0.5138
 7615SOL    HW234479   3.218   3.015   3.068 -0.7536 -1.5802 -1.2184
 7616SOL     OW34480   0.186   2.124   7.720 -0.1648  0.5012  0.0652
 7616SOL    HW134481   0.108   2.069   7.712 -0.5019  1.3730 -2.8993
 7616SOL    HW234482   0.262   2.066   7.727  0.7358  1.3388 -2.8614
 7617SOL     OW34483   0.383   0.178   3.671 -0.2938  0.1927  0.3473
 7617SOL    HW134484   0.347   0.263   3.646  0.7876  0.8253  0.9286
 7617SOL    HW234485   0.327   0.156   3.746 -1.2418  0.0699 -0.4016
 7618SOL     OW34486   1.303   0.383  15.083 -0.3484 -0.4261  0.2098
 7618SOL    HW134487   1.221   0.339  15.062  0.2849 -2.1248  1.3592
 7618SOL    HW234488   1.301   0.451  15.015 -0.3721 -0.2473  0.3882
 7619SOL     OW34489   2.402   3.608   4.863  0.1515  0.1013 -0.0323
 7619SOL    HW134490   2.343   3.680   4.886 -1.5601 -1.7074  1.2438
 7619SOL    HW234491   2.335   3.541   4.851 -0.4010  0.5923  0.3186
 7620SOL     OW34492   3.589   0.928   2.271 -0.1025  0.1466  0.6342
 7620SOL    HW134493   3.559   0.838   2.282  1.8581 -0.4696  1.0557
 7620SOL    HW234494   3.654   0.923   2.341 -1.5800  1.2706  2.0639
 7621SOL     OW34495   0.820   1.147  13.795 -0.2277  0.3710  0.1385
 7621SOL    HW134496   0.742   1.121  13.746  0.5158 -1.3654 -0.1210
 7621SOL    HW234497   0.885   1.161  13.726  0.0961 -0.9606  0.1733
 7622SOL     OW34498   0.307   4.416   5.649  0.7159 -0.2373 -0.2820
 7622SOL    HW134499   0.388   4.422   5.699 -0.2868  1.3604  1.1854
 7622SOL    HW234500   0.262   4.500   5.660  0.9519 -0.2950  1.0706
 7623SOL     OW34501   2.145   4.129   2.503 -0.0973  0.3172 -0.0060
 7623SOL    HW134502   2.108   4.176   2.577  1.0350 -1.2163  1.5085
 7623SOL    HW234503   2.194   4.054   2.537 -2.8532 -2.2617 -1.6642
 7624SOL     OW34504   3.410   1.300   6.789 -0.5903  0.0883 -0.3302
 7624SOL    HW134505   3.446   1.276   6.874 -2.5398 -0.4266  0.3543
 7624SOL    HW234506   3.367   1.385   6.796  0.2658  0.4805  0.1045
 7625SOL     OW34507   1.885   3.987   3.189  0.4423  0.1744 -0.9160
 7625SOL    HW134508   1.860   3.915   3.131 -0.4223  0.0706 -0.4009
 7625SOL    HW234509   1.796   4.015   3.210  0.4712  1.1423 -2.0620
 7626SOL     OW34510   0.966   0.743   7.320  0.0035  0.5372  0.6824
 7626SOL    HW134511   0.954   0.736   7.414  0.9468  0.5242  0.8027
 7626SOL    HW234512   0.916   0.824   7.303  1.1068  1.2492  0.8262
 7627SOL     OW34513   1.313   3.978   0.872 -0.1501  0.0382  0.0284
 7627SOL    HW134514   1.230   3.936   0.852 -0.1343 -0.5207  1.1549
 7627SOL    HW234515   1.327   4.039   0.799  0.2692  0.4799  0.4768
 7628SOL     OW34516   4.045   1.853   5.093 -0.3465  0.4473  0.5919
 7628SOL    HW134517   4.029   1.760   5.079  1.7661 -0.1955  2.4704
 7628SOL    HW234518   4.080   1.858   5.182  2.6431 -1.4829 -0.4834
 7629SOL     OW34519   1.336   1.753   4.106  0.5882  0.5450 -0.8060
 7629SOL    HW134520   1.312   1.688   4.172  0.6498 -0.3426 -1.6589
 7629SOL    HW234521   1.343   1.835   4.155 -0.2952 -1.1174  2.1087
 7630SOL     OW34522   1.378   0.383   1.468  0.5298 -0.3196 -0.2314
 7630SOL    HW134523   1.352   0.308   1.522  1.8791  0.7318  1.8629
 7630SOL    HW234524   1.302   0.399   1.412  0.8701 -0.9170 -0.8701
 7631SOL     OW34525   4.325   1.806   5.864  0.3633  0.0143 -0.4648
 7631SOL    HW134526   4.238   1.766   5.861 -0.8626  2.6039 -0.2122
 7631SOL    HW234527   4.325   1.868   5.938  2.6180  1.0304 -1.3335
 7632SOL     OW34528   4.643   1.662   5.247 -0.2222  0.1137  0.9376
 7632SOL    HW134529   4.557   1.675   5.207  0.5186  0.5328 -0.5030
 7632SOL    HW234530   4.629   1.681   5.340  1.9153 -2.0146  1.6919
 7633SOL     OW34531   4.129   3.495   1.271  0.4028  0.1511 -0.6417
 7633SOL    HW134532   4.141   3.562   1.338  0.6986  0.6195 -1.1601
 7633SOL    HW234533   4.125   3.413   1.320 -2.0670  0.7839  0.2382
 7634SOL     OW34534   2.963   2.282   5.385  0.0462  0.1446 -0.8133
 7634SOL    HW134535   2.922   2.368   5.377  0.9238  0.6095 -0.4788
 7634SOL    HW234536   2.961   2.245   5.298 -3.4686 -2.3932  0.3796
 7635SOL     OW34537   3.158   4.106   6.024  0.0661 -0.3425  0.0807
 7635SOL    HW134538   3.181   4.058   6.104 -0.9885 -0.4211  0.3306
 7635SOL    HW234539   3.139   4.033   5.964 -2.0680 -0.7542  1.2483
 7636SOL     OW34540   2.309   3.542   7.805  0.4728 -0.8766  0.6255
 7636SOL    HW134541   2.242   3.553   7.873  1.0350 -1.6548  1.3024
 7636SOL    HW234542   2.250   3.506   7.739  1.4181  1.2429 -1.3676
 7637SOL     OW34543   0.048   3.723  16.669  0.0690  0.6015  0.5071
 7637SOL    HW134544   0.126   3.750  16.620 -1.0780 -1.6116 -2.5460
 7637SOL    HW234545   0.062   3.770  16.751  2.3854  1.3242 -0.3125
 7638SOL     OW34546   3.047   2.685   2.792  0.3668  0.0285 -0.5201
 7638SOL    HW134547   3.003   2.601   2.775  4.2638 -2.6958  2.8799
 7638SOL    HW234548   3.086   2.702   2.706  1.6748 -2.5784 -0.4409
 7639SOL     OW34549   2.662   4.479  17.302 -0.1629  0.4341 -0.0939
 7639SOL    HW134550   2.575   4.518  17.295 -0.7865 -0.9609 -0.1273
 7639SOL    HW234551   2.645   4.388  17.278 -2.5402  0.3918  1.7368
 7640SOL     OW34552   3.370   3.782   6.887  0.6676 -0.5752 -0.1375
 7640SOL    HW134553   3.325   3.719   6.943 -0.1748  1.2534  1.2238
 7640SOL    HW234554   3.456   3.774   6.929  1.5887  1.4533 -1.6561
 7641SOL     OW34555   2.699   2.219  17.333  0.2142 -0.4410  0.0817
 7641SOL    HW134556   2.725   2.128  17.318  3.2541  0.6147 -0.9292
 7641SOL    HW234557   2.692   2.250  17.243 -0.7477  0.0228  0.3141
 7642SOL     OW34558   3.412   0.711   5.603 -0.3443  0.3411 -0.3699
 7642SOL    HW134559   3.401   0.618   5.584 -1.8869  0.0069  2.1076
 7642SOL    HW234560   3.388   0.715   5.696  0.4487  1.7746 -0.2273
 7643SOL     OW34561   3.543   2.728   5.461 -0.6523  0.4406  0.3457
 7643SOL    HW134562   3.494   2.807   5.438 -1.2422 -0.5383 -1.7442
 7643SOL    HW234563   3.596   2.755   5.535 -1.9059  0.1480  1.3606
 7644SOL     OW34564   1.059   0.712   2.745  0.2360 -0.0180 -0.1930
 7644SOL    HW134565   1.053   0.645   2.813  1.8619  1.5627  1.5138
 7644SOL    HW234566   0.998   0.672   2.684 -0.9495  0.3630  0.7454
 7645SOL     OW34567   2.106   1.698   7.691  0.5227 -0.0898 -0.2296
 7645SOL    HW134568   2.138   1.725   7.605  1.7534 -3.2168 -0.7522
 7645SOL    HW234569   2.180   1.644   7.718 -0.2063 -2.7608 -3.6283
 7646SOL     OW34570   4.565   1.757   4.879 -0.3569  0.5537 -0.2248
 7646SOL    HW134571   4.567   1.852   4.890 -1.2841  0.4021  1.2924
 7646SOL    HW234572   4.614   1.737   4.799 -1.5355  0.0647 -0.8135
 7647SOL     OW34573   2.434   0.513  17.085 -0.1902 -0.2021 -0.0856
 7647SOL    HW134574   2.422   0.541  17.176 -0.8607 -1.6676  0.2788
 7647SOL    HW234575   2.424   0.418  17.092  1.3333 -0.1910  2.4664
 7648SOL     OW34576   1.274   2.616   9.730  0.4537 -0.4462  0.1866
 7648SOL    HW134577   1.281   2.580   9.642 -1.8482  0.8625 -0.5177
 7648SOL    HW234578   1.355   2.667   9.737 -0.8403  1.9896 -2.5665
 7649SOL     OW34579   2.014   2.984   4.337  0.4931  0.7799  0.2726
 7649SOL    HW134580   1.934   2.935   4.356  1.1483  0.1549  1.4023
 7649SOL    HW234581   2.084   2.935   4.380  1.4386  0.9471 -1.0950
 7650SOL     OW34582   0.348   2.743   9.355  0.3503  0.3341 -0.1595
 7650SOL    HW134583   0.371   2.836   9.355  0.7480  0.2375 -0.2784
 7650SOL    HW234584   0.262   2.737   9.396  0.1295  0.3608 -0.6165
 7651SOL     OW34585   2.646   1.497  12.582 -0.3551  0.3317  0.5681
 7651SOL    HW134586   2.570   1.493  12.640 -0.5869  0.2673  0.2627
 7651SOL    HW234587   2.604   1.528  12.501  3.7946  0.8602 -1.3975
 7652SOL     OW34588   4.716   2.929  12.282 -0.0492 -0.1220 -0.1821
 7652SOL    HW134589   4.682   2.985  12.351 -0.8210  1.0527 -1.5143
 7652SOL    HW234590   0.070   2.911  12.316 -0.3999 -0.1799  0.6862
 7653SOL     OW34591   1.563   1.161  13.965  0.4339  0.5153 -0.0817
 7653SOL    HW134592   1.606   1.076  13.963  1.7357  1.2077 -1.3531
 7653SOL    HW234593   1.633   1.226  13.951  0.6216  0.5778  1.2026
 7654SOL     OW34594   1.199   1.345   1.645  0.5404 -0.0496  0.1261
 7654SOL    HW134595   1.119   1.322   1.598  0.1356  0.0254  0.7640
 7654SOL    HW234596   1.186   1.439   1.658 -3.4979 -0.6451  0.5157
 7655SOL     OW34597   2.511   0.651   8.901 -0.1831  0.1419  0.2267
 7655SOL    HW134598   2.496   0.686   8.989  4.4811  0.1094  1.0485
 7655SOL    HW234599   2.535   0.559   8.910  1.4938  0.5968  0.3005
 7656SOL     OW34600   2.838   4.719   8.454 -0.0280  0.1993 -0.4202
 7656SOL    HW134601   2.805   0.074   8.467  0.2984  0.2745 -0.1069
 7656SOL    HW234602   2.757   4.667   8.457 -0.2543  0.6100  0.6196
 7657SOL     OW34603   2.763   3.908   5.714 -0.4197  0.5322  0.6095
 7657SOL    HW134604   2.760   3.852   5.636  2.0855  2.0860 -0.5801
 7657SOL    HW234605   2.850   3.947   5.705  0.2040 -0.7647  1.0189
 7658SOL     OW34606   1.939   1.924   2.302  0.0665 -0.1792  0.1827
 7658SOL    HW134607   2.020   1.911   2.251  0.6654 -2.3447  1.6642
 7658SOL    HW234608   1.964   1.910   2.394  0.0464  2.5920  0.6020
 7659SOL     OW34609   2.815   3.609   7.462 -0.4109 -0.0345  0.0860
 7659SOL    HW134610   2.851   3.649   7.541  1.4744 -1.3782 -0.0786
 7659SOL    HW234611   2.730   3.583   7.498 -1.3317  0.0121 -2.0495
 7660SOL     OW34612   0.977   2.077  17.559 -0.1756  0.6052 -0.2043
 7660SOL    HW134613   0.890   2.040  17.568 -0.7969  1.8420 -1.1764
 7660SOL    HW234614   1.026   2.010  17.606 -0.2952  0.3220 -0.4816
 7661SOL     OW34615   0.675   4.345  12.081  0.1931 -0.0381 -0.2489
 7661SOL    HW134616   0.634   4.313  12.001  0.9428  0.2079 -0.7233
 7661SOL    HW234617   0.605   4.397  12.123  0.4835 -0.3304  0.6054
 7662SOL     OW34618   1.790   1.568   3.566 -0.3574 -0.2914 -0.1655
 7662SOL    HW134619   1.779   1.514   3.645  0.3544 -2.3693 -1.4966
 7662SOL    HW234620   1.885   1.564   3.570 -0.3290  0.7685  0.1913
 7663SOL     OW34621   0.571   1.661   1.072 -0.3124 -0.0136 -0.3377
 7663SOL    HW134622   0.485   1.630   1.101  0.1566 -1.2803 -0.3070
 7663SOL    HW234623   0.543   1.728   1.009 -4.2303 -0.4542  0.9043
 7664SOL     OW34624   3.176   0.372   2.827  0.0665  0.0347  0.4630
 7664SOL    HW134625   3.173   0.289   2.874 -2.0383 -0.5300 -0.6752
 7664SOL    HW234626   3.136   0.348   2.743 -0.1909  0.9479  0.3213
 7665SOL     OW34627   1.575   0.175   1.022  0.0169 -0.3305 -0.5525
 7665SOL    HW134628   1.597   0.236   0.952  0.0165  0.6387  0.2835
 7665SOL    HW234629   1.493   0.215   1.050 -0.3730 -0.3143 -1.7378
 7666SOL     OW34630   2.268   1.703   6.731 -0.1380  0.1515  0.0529
 7666SOL    HW134631   2.299   1.764   6.663  0.8964 -1.3141 -0.7772
 7666SOL    HW234632   2.202   1.649   6.687  1.1945 -0.4328 -1.2330
 7667SOL     OW34633   1.874   1.265   3.917  0.0620  0.5602 -0.1414
 7667SOL    HW134634   1.847   1.196   3.978 -1.5416  2.2436  1.0557
 7667SOL    HW234635   1.793   1.312   3.897 -2.1881 -2.9923  0.4971
 7668SOL     OW34636   3.814   0.611  15.714 -0.3348  0.0324  0.0536
 7668SOL    HW134637   3.869   0.544  15.753  0.5037  0.3639 -0.5445
 7668SOL    HW234638   3.835   0.686  15.770  1.2256 -1.4021  1.3826
 7669SOL     OW34639   3.557   2.459   7.484  0.0283  0.0538 -0.5081
 7669SOL    HW134640   3.630   2.488   7.538 -0.5968  0.7860 -0.0542
 7669SOL    HW234641   3.598   2.445   7.399  1.0430  1.8739 -0.3173
 7670SOL     OW34642   0.999   1.228  14.205 -0.5513  0.0700  0.1099
 7670SOL    HW134643   1.003   1.170  14.129  3.2370  0.3917  0.0627
 7670SOL    HW234644   0.979   1.165  14.274 -0.3919 -0.6913 -0.5413
 7671SOL     OW34645   3.030   0.959  10.421  0.4922  0.1062  0.1263
 7671SOL    HW134646   3.061   0.956  10.511 -0.2660  0.2214  0.3921
 7671SOL    HW234647   3.040   0.866  10.402 -2.5775 -0.1720 -0.0910
 7672SOL     OW34648   1.465   4.655   4.851 -0.3106 -0.0354  0.1131
 7672SOL    HW134649   1.547   4.691   4.885 -1.7556  0.6290  2.9176
 7672SOL    HW234650   1.476   4.560   4.857  0.2690 -0.0450 -1.1321
 7673SOL     OW34651   1.289   3.481   6.653 -1.0078  0.3262 -0.4146
 7673SOL    HW134652   1.292   3.544   6.724 -1.1173  2.4565 -2.2842
 7673SOL    HW234653   1.379   3.484   6.622 -0.6029 -1.7402  0.5631
 7674SOL     OW34654   4.249   3.424   6.305 -0.1221  0.2110  0.5299
 7674SOL    HW134655   4.344   3.426   6.302 -0.1347  0.4522  0.2684
 7674SOL    HW234656   4.232   3.418   6.211 -0.4532  0.2751  0.5849
 7675SOL     OW34657   4.001   3.324   5.516 -0.7132  0.4452 -0.0446
 7675SOL    HW134658   4.024   3.353   5.428  2.2424  1.7836  1.1731
 7675SOL    HW234659   3.920   3.374   5.531 -1.4711 -0.4739 -1.0724
 7676SOL     OW34660   2.330   3.261   1.937 -0.5980 -0.6059  0.1388
 7676SOL    HW134661   2.361   3.335   1.885 -1.0398 -0.5165  0.0060
 7676SOL    HW234662   2.238   3.287   1.949 -0.8506 -0.1218 -3.0272
 7677SOL     OW34663   3.901   3.659   6.905  0.1058  0.1013  0.3240
 7677SOL    HW134664   3.891   3.564   6.904 -0.1071  0.1394 -0.6962
 7677SOL    HW234665   3.939   3.671   6.992  0.6066 -0.9288  0.2449
 7678SOL     OW34666   2.975   2.936  14.587  1.3880 -0.4136 -0.2104
 7678SOL    HW134667   2.922   2.905  14.660  1.4969 -2.3024 -0.9330
 7678SOL    HW234668   2.918   2.946  14.511 -0.5175  0.9105  1.3967
 7679SOL     OW34669   1.642   4.138   6.925  0.0103 -0.6333 -0.0705
 7679SOL    HW134670   1.665   4.230   6.913  1.3386 -1.1246 -1.3172
 7679SOL    HW234671   1.554   4.128   6.887  1.4546 -0.4204 -3.5349
 7680SOL     OW34672   3.260   1.386   9.267 -0.5508  0.5130 -0.1457
 7680SOL    HW134673   3.287   1.365   9.356  0.9616  2.3708 -0.1582
 7680SOL    HW234674   3.187   1.328   9.245 -0.5711 -0.1665  1.7615
 7681SOL     OW34675   3.531   3.910  16.187 -0.2782  0.0774  0.2135
 7681SOL    HW134676   3.502   3.828  16.146 -0.2475 -0.8540  2.0586
 7681SOL    HW234677   3.599   3.879  16.247 -0.4164 -1.5613 -0.4608
 7682SOL     OW34678   4.585   0.023  15.234 -0.1578  0.0272  0.0864
 7682SOL    HW134679   4.606   0.104  15.189 -1.5220  0.7342  0.7165
 7682SOL    HW234680   4.588   4.684  15.171 -2.2642  0.0047  0.0154
 7683SOL     OW34681   0.884   1.644  14.854  0.9206  0.3252  0.0385
 7683SOL    HW134682   0.917   1.596  14.777 -1.7536 -0.4162 -0.6247
 7683SOL    HW234683   0.927   1.614  14.934  1.3335  0.3961 -0.1576
 7684SOL     OW34684   1.931   3.650   2.032 -0.6788  0.2439 -0.1824
 7684SOL    HW134685   1.945   3.594   2.109 -1.1457  1.5728  0.8660
 7684SOL    HW234686   2.008   3.706   2.039  0.2272 -0.6678 -2.9103
 7685SOL     OW34687   4.481   2.976  15.287 -0.1606 -0.1949 -0.1031
 7685SOL    HW134688   4.440   2.907  15.340  1.4229  0.2132  1.6472
 7685SOL    HW234689   4.404   3.029  15.269  0.8664  0.5128 -2.4976
 7686SOL     OW34690   3.902   3.914  12.960  0.9832  0.0369  0.1079
 7686SOL    HW134691   3.855   3.957  12.889  0.4662 -1.1050 -0.2533
 7686SOL    HW234692   3.899   3.825  12.924 -2.0406  0.2905 -0.2782
 7687SOL     OW34693   0.919   0.644  15.276  0.1886 -1.0631 -0.1620
 7687SOL    HW134694   0.982   0.700  15.319 -2.8100  2.5144 -0.4577
 7687SOL    HW234695   0.898   0.584  15.348  1.2835 -2.2964 -0.8676
 7688SOL     OW34696   3.347   2.656   0.605  0.2519  0.6009 -0.1030
 7688SOL    HW134697   3.257   2.637   0.633  0.5830 -2.0497 -0.8076
 7688SOL    HW234698   3.364   2.692   0.691  0.3980  2.0301 -0.7383
 7689SOL     OW34699   0.106   2.060   6.701 -0.3903 -0.1486  0.2307
 7689SOL    HW134700   0.137   1.977   6.736 -3.2646 -0.5175  1.9477
 7689SOL    HW234701   0.148   2.055   6.615 -1.5032  0.7836 -0.3852
 7690SOL     OW34702   4.369   4.247   1.256 -0.1065  0.7106 -0.5610
 7690SOL    HW134703   4.452   4.293   1.271 -0.3229  1.1755 -0.7606
 7690SOL    HW234704   4.379   4.168   1.308  2.0169  1.3413 -0.0007
 7691SOL     OW34705   0.960   0.938   6.985 -0.7529 -0.1910 -0.3089
 7691SOL    HW134706   0.911   0.891   7.052 -1.8085 -0.1563 -1.0520
 7691SOL    HW234707   0.938   1.027   7.011 -1.0415 -0.8577  1.7558
 7692SOL     OW34708   4.210   3.966  10.305 -0.4061 -0.5126  0.0917
 7692SOL    HW134709   4.127   3.952  10.258 -1.0219  0.6512  0.8367
 7692SOL    HW234710   4.273   3.913  10.256 -0.7016 -1.1075  0.3650
 7693SOL     OW34711   2.778   1.547   8.390 -0.4631 -0.4463 -0.8714
 7693SOL    HW134712   2.727   1.519   8.467 -0.6400 -2.2562 -1.6364
 7693SOL    HW234713   2.772   1.642   8.392  0.1942 -0.4631  1.7129
 7694SOL     OW34714   4.377   4.116   6.132 -0.6820  0.9576  0.4591
 7694SOL    HW134715   4.382   4.021   6.145 -0.7499  0.9126  0.1615
 7694SOL    HW234716   4.288   4.145   6.150 -1.3167 -0.4098 -0.5126
 7695SOL     OW34717   3.397   4.455  12.517  0.3996  0.2433 -0.5377
 7695SOL    HW134718   3.347   4.380  12.484 -0.1407  0.0143  0.7968
 7695SOL    HW234719   3.463   4.471  12.449  0.7004 -0.7720 -0.4893
 7696SOL     OW34720   3.078   0.784  13.076  0.1899  0.3922  1.0423
 7696SOL    HW134721   3.072   0.842  13.000  1.7122  2.2129  2.3109
 7696SOL    HW234722   3.155   0.810  13.127  1.2300  2.0022 -1.3265
 7697SOL     OW34723   1.332   3.826   6.708 -0.2342 -0.0053  0.2538
 7697SOL    HW134724   1.427   3.839   6.713  0.3892 -3.2719 -3.1638
 7697SOL    HW234725   1.312   3.856   6.619 -2.5730 -0.3030  0.6745
 7698SOL     OW34726   3.484   2.332   0.784 -0.1150  0.8483  0.5901
 7698SOL    HW134727   3.413   2.332   0.720  0.3212  1.2786  0.1048
 7698SOL    HW234728   3.485   2.237   0.794  1.1530  0.7492 -0.5446
 7699SOL     OW34729   4.705   3.919   8.310  0.0425 -0.4832 -0.3081
 7699SOL    HW134730   0.032   3.863   8.358  1.9654 -0.4032 -2.7004
 7699SOL    HW234731   4.622   3.874   8.323 -0.8479  1.4118  0.6206
 7700SOL     OW34732   1.227   2.720  12.966 -0.1772 -0.2260 -0.6868
 7700SOL    HW134733   1.240   2.792  12.904  0.1920  1.1714  0.9890
 7700SOL    HW234734   1.238   2.641  12.915 -1.3230 -0.7727 -0.0826
 7701SOL     OW34735   3.428   0.368   8.806 -0.0171  0.1976 -0.0821
 7701SOL    HW134736   3.354   0.375   8.746  0.4375 -0.1592 -0.6778
 7701SOL    HW234737   3.383   0.353   8.889 -0.1670 -2.0402 -0.5614
 7702SOL     OW34738   0.088   4.111   6.920 -0.5447  0.3030 -0.0192
 7702SOL    HW134739   0.138   4.192   6.922  0.2163 -0.2044  1.4521
 7702SOL    HW234740   0.153   4.067   6.865  0.7770  2.4107 -0.1315
 7703SOL     OW34741   1.788   4.360   6.619 -0.2178  0.4740 -0.0961
 7703SOL    HW134742   1.729   4.425   6.580  1.0996  1.6861 -0.0321
 7703SOL    HW234743   1.745   4.347   6.704  1.4842 -2.0890  0.3796
 7704SOL     OW34744   2.205   2.629   2.164 -0.3273  0.6730 -0.4493
 7704SOL    HW134745   2.154   2.683   2.104 -1.2169 -2.2699 -2.3206
 7704SOL    HW234746   2.288   2.633   2.117  0.7097 -0.9317  1.2453
 7705SOL     OW34747   2.034   4.237   2.746 -0.5375  0.1265 -0.2765
 7705SOL    HW134748   1.939   4.232   2.753 -0.6217  0.3113 -1.2824
 7705SOL    HW234749   2.058   4.156   2.791  0.8127  0.8469  0.2960
 7706SOL     OW34750   0.412   3.859   8.980  0.3334  0.7003 -0.1529
 7706SOL    HW134751   0.463   3.889   8.905 -2.1086  3.9305 -0.5003
 7706SOL    HW234752   0.468   3.799   9.029  0.4266  3.9949  3.7904
 7707SOL     OW34753   1.916   3.707   5.382 -0.0918  0.4769 -0.7933
 7707SOL    HW134754   1.971   3.755   5.445  0.3847 -1.0918 -0.0132
 7707SOL    HW234755   1.982   3.652   5.341  0.7368 -0.5086  1.8365
 7708SOL     OW34756   1.624   1.998   1.824  0.0364  0.0474 -0.0360
 7708SOL    HW134757   1.642   2.022   1.733  2.2148 -0.0520  0.3659
 7708SOL    HW234758   1.533   2.028   1.823  0.0121 -0.0553 -0.8865
 7709SOL     OW34759   4.118   1.238  17.265 -0.3933  0.2530  0.2082
 7709SOL    HW134760   4.041   1.292  17.246  1.2162  2.7719  0.8988
 7709SOL    HW234761   4.168   1.259  17.186  2.0281 -0.1795  1.6162
 7710SOL     OW34762   3.857   2.040   9.248  0.8252  0.0933  0.1838
 7710SOL    HW134763   3.822   2.091   9.175  1.5111  0.2799 -0.0145
 7710SOL    HW234764   3.774   1.998   9.271 -0.7154  0.9724 -3.7193
 7711SOL     OW34765   2.575   3.109  12.148  0.1380  0.1420 -0.1997
 7711SOL    HW134766   2.577   3.043  12.218  3.1993 -0.1871 -0.5906
 7711SOL    HW234767   2.660   3.151  12.156  0.8465 -1.4838  0.8487
 7712SOL     OW34768   1.998   2.186   7.548  0.2447  0.0537  0.2727
 7712SOL    HW134769   1.982   2.098   7.581 -3.1799  1.0062  1.0737
 7712SOL    HW234770   2.065   2.161   7.484 -1.1773 -1.6212 -0.5556
 7713SOL     OW34771   2.456   1.965   0.246  0.2040 -0.2307 -0.2869
 7713SOL    HW134772   2.470   2.010   0.330  0.2309 -0.1954 -0.3099
 7713SOL    HW234773   2.388   2.024   0.214  0.1636 -0.2401 -0.2188
 7714SOL     OW34774   0.115   1.617   9.077 -0.8045 -0.0751 -0.3514
 7714SOL    HW134775   0.069   1.534   9.066  0.9977 -0.8983 -1.6014
 7714SOL    HW234776   0.124   1.643   8.985 -0.4802  2.4356  0.3791
 7715SOL     OW34777   0.764   0.328  15.941 -0.0067 -0.0427  0.0092
 7715SOL    HW134778   0.857   0.324  15.961 -0.0190 -1.8988 -0.3283
 7715SOL    HW234779   0.745   0.395  16.008 -1.9450 -0.7053  0.1114
 7716SOL     OW34780   4.555   0.637   3.374  0.0656 -0.5842  0.4400
 7716SOL    HW134781   4.607   0.636   3.454  1.5152 -3.2406 -0.5726
 7716SOL    HW234782   4.599   0.569   3.324 -1.6912 -0.3739 -1.3769
 7717SOL     OW34783   4.003   0.459   0.672  0.6012 -0.1589 -0.0748
 7717SOL    HW134784   4.027   0.515   0.746  0.4898 -1.0524  0.6429
 7717SOL    HW234785   4.066   0.485   0.605 -0.4828 -1.4480 -1.5909
 7718SOL     OW34786   2.836   1.025   5.314 -0.1278 -0.6566 -0.2728
 7718SOL    HW134787   2.911   1.064   5.358 -0.9572  0.5816  0.0542
 7718SOL    HW234788   2.764   1.051   5.372 -0.9393 -3.0031 -0.1974
 7719SOL     OW34789   4.462   2.886   2.416  0.5016 -0.4775 -0.1206
 7719SOL    HW134790   4.386   2.833   2.390  0.1292  0.2879 -0.5979
 7719SOL    HW234791   4.527   2.865   2.350  0.6450  0.8327 -0.3886
 7720SOL     OW34792   3.555   2.762   1.869  0.4284 -0.3444  0.2877
 7720SOL    HW134793   3.613   2.687   1.855 -0.7637 -1.0621 -0.7627
 7720SOL    HW234794   3.495   2.758   1.795  2.5273 -3.4088 -1.2451
 7721SOL     OW34795   3.773   1.979   1.465 -0.3711  0.4275 -0.0619
 7721SOL    HW134796   3.765   1.899   1.413 -0.6895  1.3962 -1.4903
 7721SOL    HW234797   3.717   2.042   1.420 -1.0758  0.6051  1.0796
 7722SOL     OW34798   3.434   0.453  10.188 -0.0161 -0.2085 -0.3097
 7722SOL    HW134799   3.399   0.540  10.205  1.1198  0.1966 -0.0825
 7722SOL    HW234800   3.456   0.427  10.277 -2.0556 -1.2814 -0.1064
 7723SOL     OW34801   1.790   0.158   2.501  0.1231 -0.4480 -0.3039
 7723SOL    HW134802   1.720   0.135   2.563  0.5106 -0.1259  0.2567
 7723SOL    HW234803   1.738   0.205   2.436  0.3251  3.3594  2.3128
 7724SOL     OW34804   0.614   3.456   6.973  0.3875  0.1677 -0.2245
 7724SOL    HW134805   0.651   3.419   6.893  0.9430  1.5326 -0.6077
 7724SOL    HW234806   0.620   3.384   7.035 -1.2009  1.2079  1.1339
 7725SOL     OW34807   1.498   4.046   0.184  0.1971 -0.0382 -0.0028
 7725SOL    HW134808   1.515   4.015   0.273 -0.4513 -1.7124 -0.4603
 7725SOL    HW234809   1.548   3.974   0.145  0.3808 -0.7334  1.5368
 7726SOL     OW34810   2.741   2.135   1.576  0.6070  0.0907 -0.1893
 7726SOL    HW134811   2.666   2.134   1.636 -0.8547  1.6239 -2.0134
 7726SOL    HW234812   2.743   2.045   1.544 -0.0930 -0.9642  2.6341
 7727SOL     OW34813   2.140   0.001   6.550 -0.5179  0.0674  0.6156
 7727SOL    HW134814   2.217   4.699   6.506 -0.7917  1.8214 -1.2640
 7727SOL    HW234815   2.148   4.703   6.640  2.1205 -1.0542 -0.0212
 7728SOL     OW34816   4.267   1.391  15.129  0.2850 -0.4202 -0.0578
 7728SOL    HW134817   4.281   1.298  15.116 -0.5642 -0.3282 -1.6785
 7728SOL    HW234818   4.173   1.404  15.113  0.5447  1.1691 -0.3766
 7729SOL     OW34819   4.361   2.975  14.430  0.2323  0.1014  0.4162
 7729SOL    HW134820   4.344   3.009  14.518 -0.1684  0.8560  0.0423
 7729SOL    HW234821   4.452   3.003  14.415 -0.3589  1.5745 -0.4109
 7730SOL     OW34822   4.042   2.263   7.204 -0.3679 -0.3030 -0.1963
 7730SOL    HW134823   4.121   2.257   7.151  0.0488  0.7686  0.3061
 7730SOL    HW234824   4.023   2.356   7.190  0.1670 -0.0138  0.9999
 7731SOL     OW34825   4.098   4.144  11.313 -0.7660  0.1871 -0.1403
 7731SOL    HW134826   4.128   4.102  11.232 -0.1166  1.2559 -0.4630
 7731SOL    HW234827   4.133   4.073  11.367 -0.7143  2.0408  2.2612
 7732SOL     OW34828   1.170   2.755  10.835 -0.0362  0.5827 -0.2974
 7732SOL    HW134829   1.157   2.724  10.745  0.2625  0.9109 -0.4548
 7732SOL    HW234830   1.197   2.677  10.882 -1.1155 -1.0320 -2.3720
 7733SOL     OW34831   3.884   3.052   2.562 -0.1227 -0.2498 -0.0273
 7733SOL    HW134832   3.808   3.035   2.506  1.7335 -0.1493 -2.5644
 7733SOL    HW234833   3.861   3.139   2.595  0.4844 -0.8578  1.9716
 7734SOL     OW34834   0.887   2.555   7.387  0.0842  0.0942  0.4867
 7734SOL    HW134835   0.936   2.620   7.336  2.3127 -1.6055  0.4576
 7734SOL    HW234836   0.805   2.604   7.393 -0.9535 -1.9897  3.4442
 7735SOL     OW34837   1.741   0.295   6.974  0.0893  0.1649  0.5142
 7735SOL    HW134838   1.835   0.283   6.964 -0.0825 -0.4828 -0.3173
 7735SOL    HW234839   1.720   0.350   6.898 -0.2133 -1.3843 -0.5122
 7736SOL     OW34840   0.626   4.229  11.829  0.4991 -0.3848  0.1952
 7736SOL    HW134841   0.683   4.154  11.843 -1.3959 -1.5526  1.7685
 7736SOL    HW234842   0.693   4.286  11.793  0.1570 -1.1324 -1.6332
 7737SOL     OW34843   4.600   2.924   4.722 -0.1860 -0.2815  0.6126
 7737SOL    HW134844   4.684   2.881   4.711 -0.0941  0.1724 -0.5410
 7737SOL    HW234845   4.597   2.925   4.818 -0.4381  2.4630  0.5898
 7738SOL     OW34846   3.719   3.903  13.670 -0.8714  0.6225 -0.7108
 7738SOL    HW134847   3.698   3.975  13.611 -1.3172 -0.3659 -1.7514
 7738SOL    HW234848   3.741   3.833  13.609 -0.8229  0.5095 -0.5630
 7739SOL     OW34849   2.741   0.488  12.776 -0.4260  0.1117  0.0243
 7739SOL    HW134850   2.826   0.443  12.764  0.2804  1.7725 -1.1499
 7739SOL    HW234851   2.745   0.490  12.872 -2.9140 -0.1714  0.1396
 7740SOL     OW34852   3.500   2.059   3.802  0.2722  0.0753 -0.1135
 7740SOL    HW134853   3.409   2.063   3.771 -0.3314 -0.0293  1.6629
 7740SOL    HW234854   3.550   2.112   3.740 -0.9299 -0.2691 -1.3782
 7741SOL     OW34855   1.543   0.381   9.291 -0.7680  0.3714  0.5185
 7741SOL    HW134856   1.578   0.417   9.373  0.5789 -4.1410  1.9497
 7741SOL    HW234857   1.549   0.454   9.230 -0.4692  0.9586  1.2468
 7742SOL     OW34858   4.586   0.250  12.918 -0.2356 -0.3550  0.1698
 7742SOL    HW134859   4.523   0.322  12.922 -1.4647 -1.5358  2.0199
 7742SOL    HW234860   4.617   0.248  13.009 -1.8905 -0.3065  0.7336
 7743SOL     OW34861   4.067   3.589   3.228  0.0598  0.0588  0.4017
 7743SOL    HW134862   4.063   3.495   3.210 -0.4076 -0.1070  1.3893
 7743SOL    HW234863   4.008   3.591   3.303 -3.3025  3.6844 -2.3780
 7744SOL     OW34864   1.230   0.730   6.670  0.3534  0.0829  0.9935
 7744SOL    HW134865   1.249   0.637   6.665  2.1746  0.5572 -0.5921
 7744SOL    HW234866   1.134   0.730   6.679 -0.0057 -0.5233 -2.6874
 7745SOL     OW34867   1.593   2.557   5.864 -0.3926 -0.4863 -0.3714
 7745SOL    HW134868   1.556   2.470   5.878 -0.8333 -0.3173 -0.4726
 7745SOL    HW234869   1.678   2.520   5.841  0.8215  1.4642  0.9820
 7746SOL     OW34870   3.032   1.212   2.341 -0.5020 -0.2781  0.2646
 7746SOL    HW134871   2.979   1.279   2.385  0.1587  1.2888 -1.3397
 7746SOL    HW234872   2.968   1.140   2.335 -2.9327  1.9346 -0.4114
 7747SOL     OW34873   3.599   1.629   1.691 -0.0719  0.1932 -0.3130
 7747SOL    HW134874   3.635   1.630   1.602 -1.0315 -0.0080 -0.7125
 7747SOL    HW234875   3.666   1.576   1.734  1.4885  2.0090 -0.5101
 7748SOL     OW34876   3.432   3.057  13.070  0.3462 -0.1737 -0.5691
 7748SOL    HW134877   3.378   2.983  13.042 -1.2065  0.4983  0.6841
 7748SOL    HW234878   3.419   3.059  13.165 -0.3997  0.5169 -0.6834
 7749SOL     OW34879   3.546   0.648   0.607  0.0987  0.4310  0.6784
 7749SOL    HW134880   3.480   0.631   0.673 -0.5349 -0.1445 -0.1018
 7749SOL    HW234881   3.546   0.560   0.570  1.4643  0.6518  0.1544
 7750SOL     OW34882   3.817   4.245   8.072 -0.3494  0.5101  0.0648
 7750SOL    HW134883   3.741   4.296   8.044 -0.4359 -0.7811 -2.1226
 7750SOL    HW234884   3.807   4.260   8.166 -0.5398 -3.8089  0.7564
 7751SOL     OW34885   0.797   3.251   7.639 -0.1163 -0.3343  0.5876
 7751SOL    HW134886   0.730   3.318   7.645 -0.7391 -0.8244 -0.9156
 7751SOL    HW234887   0.826   3.234   7.729  2.2457  0.1530 -0.0684
 7752SOL     OW34888   0.090   3.276  14.705  0.2758  0.2217  0.2117
 7752SOL    HW134889   0.134   3.340  14.760 -0.2392  0.0254  0.8486
 7752SOL    HW234890   0.059   3.210  14.767  0.5067 -0.1224 -0.0392
 7753SOL     OW34891   0.841   1.020   6.181 -0.3432  0.2784 -0.5759
 7753SOL    HW134892   0.860   1.065   6.264 -0.4914 -1.8561  0.6218
 7753SOL    HW234893   0.896   0.942   6.194  1.4233  1.8471  1.4240
 7754SOL     OW34894   4.634   3.564   8.228  0.2803 -0.8198  0.0702
 7754SOL    HW134895   4.657   3.618   8.151 -1.2267  0.8079  0.7511
 7754SOL    HW234896   4.705   3.500   8.230 -0.0863 -1.3648 -3.1442
 7755SOL     OW34897   4.259   3.286   9.998  0.0831 -0.3847  0.3645
 7755SOL    HW134898   4.285   3.344  10.070  0.0671 -2.1561  1.7946
 7755SOL    HW234899   4.176   3.332   9.988  0.1658 -0.6267 -1.4003
 7756SOL     OW34900   0.188   2.643   2.694 -0.9012  0.4013 -0.4362
 7756SOL    HW134901   0.165   2.594   2.774 -0.6467  1.8354  0.5084
 7756SOL    HW234902   0.181   2.572   2.631 -0.4773  0.8122 -0.9457
 7757SOL     OW34903   3.219   1.463  14.368  0.2617  0.5671  0.2777
 7757SOL    HW134904   3.247   1.493  14.454  1.0647  1.6497 -0.3645
 7757SOL    HW234905   3.221   1.543  14.316  1.3390  0.2723 -0.1345
 7758SOL     OW34906   4.207   4.531   4.386  0.5778  0.3199  0.0755
 7758SOL    HW134907   4.278   4.466   4.381  1.5475  1.4469 -0.7521
 7758SOL    HW234908   4.252   4.595   4.331 -1.3162  0.4499 -1.3236
 7759SOL     OW34909   2.060   1.855  12.929  0.1708  0.5450 -0.9471
 7759SOL    HW134910   1.967   1.838  12.945  0.3835 -1.0848 -1.5037
 7759SOL    HW234911   2.094   1.789  12.990  2.2220  0.6239 -2.0025
 7760SOL     OW34912   3.332   1.909   3.195  0.1691  0.0995  0.0770
 7760SOL    HW134913   3.418   1.948   3.203  0.7493 -0.6842 -2.2342
 7760SOL    HW234914   3.350   1.837   3.134  0.1740 -0.6744  0.9792
 7761SOL     OW34915   2.561   2.339   7.124 -0.2283  0.0900 -0.3146
 7761SOL    HW134916   2.610   2.313   7.046  2.1836  1.1835  0.8537
 7761SOL    HW234917   2.626   2.321   7.192 -0.0460 -0.9107 -0.7477
 7762SOL     OW34918   1.174   4.400  11.935  0.2114  0.2009 -0.3289
 7762SOL    HW134919   1.257   4.446  11.947 -0.7655  1.2276  2.5191
 7762SOL    HW234920   1.136   4.466  11.878 -2.1550 -0.4729  0.4716
 7763SOL     OW34921   1.481   3.985   9.060  0.0289 -0.3574  0.2756
 7763SOL    HW134922   1.542   3.912   9.070 -0.3868 -0.9469 -1.5520
 7763SOL    HW234923   1.407   3.936   9.023 -1.5269  0.5200  2.2098
 7764SOL     OW34924   0.292   4.140   6.201  0.0263 -0.0735 -0.1990
 7764SOL    HW134925   0.363   4.166   6.260 -0.5704 -0.3130  0.6200
 7764SOL    HW234926   0.322   4.049   6.192 -1.0253 -0.4125 -0.2292
 7765SOL     OW34927   3.059   2.422   4.879 -0.0898 -0.0293  0.3530
 7765SOL    HW134928   3.136   2.409   4.935  0.3278  0.6096 -0.0632
 7765SOL    HW234929   3.105   2.441   4.797 -0.2947  1.8634  0.6754
 7766SOL     OW34930   2.585   0.861  14.582 -0.3389  0.3065  0.0858
 7766SOL    HW134931   2.556   0.933  14.525  1.8753  0.6848 -0.5596
 7766SOL    HW234932   2.503   0.812  14.594  0.0237  0.1035  1.6879
 7767SOL     OW34933   0.939   1.145   8.055  0.0455  0.6402  0.0475
 7767SOL    HW134934   1.011   1.093   8.092  0.1353  0.0047 -1.0197
 7767SOL    HW234935   0.924   1.088   7.979 -0.3113 -1.7683  1.9085
 7768SOL     OW34936   2.433   0.630   2.230  0.3435  0.0159  0.0432
 7768SOL    HW134937   2.455   0.598   2.143  1.6159  0.7437  0.1004
 7768SOL    HW234938   2.366   0.695   2.212 -0.3061 -0.2574  1.4900
 7769SOL     OW34939   1.603   4.460  13.645 -0.3137 -0.2522  0.1353
 7769SOL    HW134940   1.539   4.393  13.625  1.3766 -1.7798 -0.1352
 7769SOL    HW234941   1.646   4.477  13.561 -0.0242  2.5111  0.8343
 7770SOL     OW34942   2.991   4.010   1.846  0.3743  0.7059 -0.1753
 7770SOL    HW134943   3.043   4.079   1.887 -1.9290  1.4436  1.4771
 7770SOL    HW234944   2.903   4.022   1.882 -1.0980 -0.5198 -3.2961
 7771SOL     OW34945   1.873   0.122   8.383 -0.0751 -0.4171 -0.5256
 7771SOL    HW134946   1.795   0.134   8.437 -0.2504 -0.7226 -0.7138
 7771SOL    HW234947   1.919   0.206   8.388 -1.6348  0.3267  1.2408
 7772SOL     OW34948   0.994   4.117   4.247  0.4647  0.2671 -0.4461
 7772SOL    HW134949   1.001   4.071   4.163  0.3835  0.9931 -0.8486
 7772SOL    HW234950   0.916   4.069   4.275  1.2479 -0.6459  0.1675
 7773SOL     OW34951   3.386   2.835   9.034 -0.0537 -0.2884  0.2650
 7773SOL    HW134952   3.455   2.851   9.099  0.1626  2.2557 -0.5757
 7773SOL    HW234953   3.435   2.820   8.953 -0.5479 -2.1197  0.3224
 7774SOL     OW34954   2.033   0.203   6.385  0.4995 -0.4595  0.5076
 7774SOL    HW134955   2.000   0.255   6.458  0.4446  0.5730 -0.2498
 7774SOL    HW234956   2.071   0.138   6.443 -0.1636 -0.1010  1.3373
 7775SOL     OW34957   1.516   3.374   9.338  0.3756 -0.2032  0.1169
 7775SOL    HW134958   1.462   3.406   9.410 -1.3277  0.7261 -1.5791
 7775SOL    HW234959   1.500   3.280   9.352 -1.1179  0.0679  0.1944
 7776SOL     OW34960   0.441   2.612  14.049 -0.4431  0.1085 -0.3646
 7776SOL    HW134961   0.412   2.685  13.994  1.2377  0.1540 -1.2192
 7776SOL    HW234962   0.372   2.549  14.031 -0.4885  0.3628 -1.0559
 7777SOL     OW34963   3.685   3.498   4.238 -0.3843  0.2672  0.0388
 7777SOL    HW134964   3.727   3.532   4.159  1.5459 -0.2593  0.8298
 7777SOL    HW234965   3.663   3.579   4.283  0.8160 -0.4501  1.9518
 7778SOL     OW34966   2.151   3.932   6.406 -0.0393 -0.2543  0.1622
 7778SOL    HW134967   2.154   3.875   6.483 -1.3049  1.9894  1.8715
 7778SOL    HW234968   2.238   3.922   6.368  0.2466  0.0294  0.7251
 7779SOL     OW34969   4.142   0.308   7.185 -0.0499 -0.2983 -0.3160
 7779SOL    HW134970   4.143   0.392   7.232 -0.0333 -0.6975  0.3995
 7779SOL    HW234971   4.229   0.280   7.158  0.9119  1.6155  0.7848
 7780SOL     OW34972   1.479   0.068  13.899 -0.1192 -0.2921 -0.3135
 7780SOL    HW134973   1.403   0.107  13.857  2.7079  0.4607 -4.7079
 7780SOL    HW234974   1.556   0.083  13.844 -0.4438  0.9279 -0.4173
 7781SOL     OW34975   1.571   1.262   9.794 -0.4945  0.0760 -0.2257
 7781SOL    HW134976   1.507   1.218   9.851 -0.5162 -0.2103 -0.4688
 7781SOL    HW234977   1.653   1.266   9.842 -0.1756 -0.7922 -0.7029
 7782SOL     OW34978   2.137   4.292   7.701  0.3305 -0.5932  0.0173
 7782SOL    HW134979   2.082   4.370   7.699 -0.9616 -1.5238 -0.5757
 7782SOL    HW234980   2.097   4.235   7.767  1.4491  0.5644  1.6974
 7783SOL     OW34981   1.777   0.637   4.879 -0.1832  0.2620  0.4598
 7783SOL    HW134982   1.858   0.671   4.841  0.5091  0.2908  1.9710
 7783SOL    HW234983   1.756   0.572   4.812 -1.2372 -2.3562  3.2948
 7784SOL     OW34984   3.584   2.913   0.130  0.4148 -0.2744  0.0010
 7784SOL    HW134985   3.494   2.926   0.099 -0.6691 -3.3926  1.9359
 7784SOL    HW234986   3.578   2.818   0.128  0.7800 -0.3227  1.4662
 7785SOL     OW34987   1.552   3.013   0.380  0.0991  0.0920 -0.2291
 7785SOL    HW134988   1.646   2.995   0.377  0.0536  0.5350 -3.5405
 7785SOL    HW234989   1.519   2.981   0.464  0.6433 -1.0697 -0.4630
 7786SOL     OW34990   1.047   1.513   9.150  0.2639 -0.5434  0.3421
 7786SOL    HW134991   1.107   1.565   9.205  1.0099  0.3277 -1.3024
 7786SOL    HW234992   1.020   1.588   9.097 -0.0470 -0.8774  0.0367
 7787SOL     OW34993   2.934   2.097   6.146  0.1895  0.2145  0.8976
 7787SOL    HW134994   2.946   2.161   6.217 -0.9719  0.6094  0.7348
 7787SOL    HW234995   2.912   2.163   6.080 -0.5156  0.6243  1.5459
 7788SOL     OW34996   1.673   2.360  16.182 -0.1674  0.6471  0.2004
 7788SOL    HW134997   1.693   2.375  16.274 -0.2494  2.7356 -0.1064
 7788SOL    HW234998   1.637   2.446  16.160  0.5746  0.5031 -1.5684
 7789SOL     OW34999   2.964   2.259   9.190 -0.4748 -0.4679  0.2752
 7789SOL    HW135000   2.968   2.275   9.284 -1.1070 -0.6569  0.3357
 7789SOL    HW235001   2.876   2.295   9.173  0.6450  1.6881 -0.9513
 7790SOL     OW35002   0.682   3.150   3.486  0.2221 -0.2705  0.0201
 7790SOL    HW135003   0.640   3.096   3.419  0.0240  0.6583 -0.5955
 7790SOL    HW235004   0.656   3.239   3.463  1.3476  0.2261  0.6748
 7791SOL     OW35005   1.763   2.392   7.250 -0.4604  0.5401  0.4582
 7791SOL    HW135006   1.796   2.462   7.307 -1.0570 -1.6075  3.4216
 7791SOL    HW235007   1.696   2.441   7.202  0.2805 -0.0208 -1.1374
 7792SOL     OW35008   0.059   4.157  16.881  0.3551 -0.2522 -0.2560
 7792SOL    HW135009   0.098   4.091  16.938  0.9136 -0.6876 -1.1346
 7792SOL    HW235010   0.116   4.155  16.804 -0.7460  1.3858 -1.1186
 7793SOL     OW35011   2.484   1.125   3.131 -0.1666 -0.1373  0.3596
 7793SOL    HW135012   2.514   1.213   3.153 -1.0076  0.5039 -1.0181
 7793SOL    HW235013   2.570   1.092   3.104 -0.5757 -0.6936 -0.2838
 7794SOL     OW35014   0.439   2.712   8.239 -0.0754 -0.0615  0.6349
 7794SOL    HW135015   0.358   2.665   8.258 -1.9324  3.3910  1.0946
 7794SOL    HW235016   0.429   2.803   8.266  0.5639  0.4985 -0.9934
 7795SOL     OW35017   3.386   4.305   6.819  0.6256 -0.3072 -0.3555
 7795SOL    HW135018   3.398   4.325   6.912 -0.7481 -0.1027 -0.2238
 7795SOL    HW235019   3.357   4.214   6.827  2.2330 -1.0366 -2.7744
 7796SOL     OW35020   0.482   1.070   3.306 -0.1929  0.3994 -0.3176
 7796SOL    HW135021   0.565   1.065   3.353 -0.1948 -1.4710 -0.4913
 7796SOL    HW235022   0.457   0.978   3.317 -1.8316  0.7224 -1.3328
 7797SOL     OW35023   2.727   1.778   3.164  0.3891 -0.5422 -0.2492
 7797SOL    HW135024   2.651   1.735   3.204  0.6838 -1.7444 -0.9796
 7797SOL    HW235025   2.768   1.797   3.248  2.0022  0.9404 -1.3894
 7798SOL     OW35026   0.671   0.529   4.972  0.4095 -0.3967 -0.2793
 7798SOL    HW135027   0.628   0.565   4.894 -2.2304 -1.2027  0.7811
 7798SOL    HW235028   0.650   0.435   4.974 -1.1161 -0.0663 -1.0164
 7799SOL     OW35029   2.477   3.034   3.463  0.5067  0.1004 -0.0149
 7799SOL    HW135030   2.433   3.031   3.548 -2.4799  0.3769 -1.5556
 7799SOL    HW235031   2.401   3.027   3.405 -0.0044 -1.1129  0.8090
 7800SOL     OW35032   1.143   4.616   3.595 -0.1240  0.1552 -0.6241
 7800SOL    HW135033   1.084   4.663   3.654 -1.0968 -1.6959 -0.1312
 7800SOL    HW235034   1.176   4.552   3.658 -0.7433  0.0427 -0.4090
 7801SOL     OW35035   0.858   0.950   1.209 -0.3197 -0.1033  0.0741
 7801SOL    HW135036   0.817   0.949   1.123 -1.7380  0.5365  0.7494
 7801SOL    HW235037   0.783   0.976   1.263 -2.3311  0.1920 -2.8676
 7802SOL     OW35038   2.579   2.078  13.844 -0.3009 -0.0692 -0.2138
 7802SOL    HW135039   2.486   2.057  13.836 -0.2412 -0.9608  1.3685
 7802SOL    HW235040   2.590   2.173  13.842 -0.8536 -0.0168 -0.6750
 7803SOL     OW35041   2.923   2.182   5.127 -0.4836 -0.0704 -0.3306
 7803SOL    HW135042   2.880   2.100   5.151 -1.9721  0.9522  0.4744
 7803SOL    HW235043   2.984   2.149   5.061  1.3059  0.5317  1.0441
 7804SOL     OW35044   1.845   2.497   4.703 -0.3171  0.2295  0.0988
 7804SOL    HW135045   1.886   2.523   4.621  0.0193  0.2984  0.2883
 7804SOL    HW235046   1.759   2.538   4.710 -0.4066 -0.3470  2.4299
 7805SOL     OW35047   2.169   1.145   6.441 -0.1676  0.2406 -0.2663
 7805SOL    HW135048   2.256   1.139   6.402 -0.1298  1.6495 -0.3751
 7805SOL    HW235049   2.197   1.120   6.529 -2.2470 -1.3904 -0.0652
 7806SOL     OW35050   3.295   4.324   8.284  0.0365  0.6182 -0.7968
 7806SOL    HW135051   3.328   4.395   8.227  1.7380  2.1208  2.0570
 7806SOL    HW235052   3.350   4.252   8.252 -3.6707 -1.2716 -2.8876
 7807SOL     OW35053   1.478   3.147   5.162 -0.5041  0.0362 -0.8874
 7807SOL    HW135054   1.403   3.160   5.104 -1.4695  0.2565  0.4170
 7807SOL    HW235055   1.515   3.065   5.129  1.0498 -0.7734  2.8512
 7808SOL     OW35056   3.569   4.630   3.142 -1.2298  0.1172 -0.4964
 7808SOL    HW135057   3.604   4.706   3.095  0.0288 -0.5152 -0.5769
 7808SOL    HW235058   3.526   4.587   3.068 -0.6531  0.5367 -1.0779
 7809SOL     OW35059   1.193   3.840   4.462 -0.5300  0.9216  0.3122
 7809SOL    HW135060   1.164   3.926   4.433  0.7932  2.3927  3.2953
 7809SOL    HW235061   1.121   3.792   4.421  0.4268  0.0646 -0.3540
 7810SOL     OW35062   4.232   1.434   2.609 -0.2572  0.3640  0.5143
 7810SOL    HW135063   4.275   1.482   2.680  2.4607  1.0836 -1.6544
 7810SOL    HW235064   4.165   1.497   2.582 -2.0486 -2.0903 -0.8737
 7811SOL     OW35065   2.540   0.730  10.368  0.4852  0.3612 -0.7069
 7811SOL    HW135066   2.575   0.802  10.421  0.5868  0.5973 -1.0928
 7811SOL    HW235067   2.579   0.755  10.284 -4.6951  0.1746 -3.1725
 7812SOL     OW35068   0.679   1.065  15.667  0.3764 -0.2366 -0.3034
 7812SOL    HW135069   0.738   1.134  15.638  0.1638 -0.3211 -0.9459
 7812SOL    HW235070   0.594   1.096  15.634 -1.4319 -2.0838  2.6324
 7813SOL     OW35071   0.107   1.703  12.662 -0.2956 -0.0075 -0.0948
 7813SOL    HW135072   0.167   1.652  12.609  1.0928  0.2097  1.2485
 7813SOL    HW235073   0.087   1.768  12.594 -1.0799 -1.4169 -1.1985
 7814SOL     OW35074   1.252   4.030   6.302 -0.3281 -0.7474 -0.6230
 7814SOL    HW135075   1.187   4.089   6.264 -0.7266 -1.0886 -0.4637
 7814SOL    HW235076   1.332   4.047   6.252 -0.2600  1.6096  0.2568
 7815SOL     OW35077   3.539   0.477   4.423 -0.0970 -0.3079  0.4217
 7815SOL    HW135078   3.469   0.540   4.409  0.8858  0.6469 -0.1474
 7815SOL    HW235079   3.608   0.542   4.435 -0.2096 -0.2779  0.9273
 7816SOL     OW35080   4.532   3.851  14.934  0.1819  0.4433  0.1254
 7816SOL    HW135081   4.523   3.812  14.848 -1.0840  1.3099 -0.1325
 7816SOL    HW235082   4.538   3.780  14.998 -0.2872  0.6757  0.4247
 7817SOL     OW35083   1.766   4.276   0.828 -0.8825 -0.0794 -0.2557
 7817SOL    HW135084   1.825   4.347   0.856  0.6915 -1.8492  0.9094
 7817SOL    HW235085   1.801   4.200   0.875 -1.5623  1.1459  2.2226
 7818SOL     OW35086   3.337   2.077  10.552 -0.1322 -0.3612 -0.0235
 7818SOL    HW135087   3.369   2.162  10.524  1.1542 -1.5643 -2.2227
 7818SOL    HW235088   3.389   2.059  10.630 -0.0573  0.9441  0.2265
 7819SOL     OW35089   2.417   3.972  13.085  0.2742 -0.6161  0.1759
 7819SOL    HW135090   2.383   4.056  13.116  0.8078 -0.6026  0.7277
 7819SOL    HW235091   2.403   3.908  13.154 -3.2271  0.2336  0.2315
 7820SOL     OW35092   2.446   1.759   9.270  0.0062  0.2798  0.5534
 7820SOL    HW135093   2.490   1.837   9.236 -0.4871  1.7271  3.2405
 7820SOL    HW235094   2.507   1.757   9.344  1.2085 -0.6345 -0.4573
 7821SOL     OW35095   0.690   4.407  12.975 -0.6561 -0.6512 -0.1495
 7821SOL    HW135096   0.688   4.312  12.981  0.9894 -0.5786  1.4292
 7821SOL    HW235097   0.622   4.427  13.039  0.2745 -1.2135  1.0079
 7822SOL     OW35098   1.631   4.631   6.786 -0.2149 -0.1251 -0.0297
 7822SOL    HW135099   1.573   4.680   6.845 -2.2183 -2.0845 -0.4002
 7822SOL    HW235100   1.680   4.701   6.742 -2.0983  0.1854 -1.6646
 7823SOL     OW35101   4.630   2.321   4.281  0.1585 -0.6024 -0.1656
 7823SOL    HW135102   4.625   2.230   4.253  0.3962 -0.4939 -0.5575
 7823SOL    HW235103   4.581   2.361   4.209  1.1639 -2.7779 -2.0497
 7824SOL     OW35104   3.337   0.122   6.340 -0.5446  0.1594  0.1543
 7824SOL    HW135105   3.330   0.078   6.425 -3.2243 -0.0760 -0.2053
 7824SOL    HW235106   3.334   0.046   6.282 -0.8373  1.5218 -1.6116
 7825SOL     OW35107   2.312   3.635  12.628 -0.1900  0.0113  0.0581
 7825SOL    HW135108   2.246   3.681  12.576  1.0647  2.1657  0.4165
 7825SOL    HW235109   2.251   3.606  12.696 -1.5555 -0.9567 -1.5613
 7826SOL     OW35110   1.983   0.380  13.300 -0.1001 -0.0808 -0.0759
 7826SOL    HW135111   1.998   0.435  13.223 -2.3598 -1.5433 -1.5771
 7826SOL    HW235112   1.888   0.390  13.303 -0.0298  0.9967 -1.6920
 7827SOL     OW35113   2.162   3.137   2.806  0.3237  0.0758 -0.0687
 7827SOL    HW135114   2.185   3.127   2.714  0.6002 -1.2289  0.1377
 7827SOL    HW235115   2.160   3.046   2.837  0.4003  0.2617  0.4835
 7828SOL     OW35116   0.693   2.475  14.776  0.2653 -0.2092 -0.0937
 7828SOL    HW135117   0.744   2.551  14.803  0.9384 -0.5856 -0.2885
 7828SOL    HW235118   0.608   2.506  14.805 -1.1176 -2.4847 -1.7680
 7829SOL     OW35119   4.603   1.833   9.351 -0.1110 -0.0150  0.0456
 7829SOL    HW135120   4.569   1.920   9.333  1.3299  0.8050  1.3029
 7829SOL    HW235121   4.545   1.779   9.297 -0.7592  0.2329  0.5011
 7830SOL     OW35122   1.815   4.546   7.874 -0.3576 -0.5838  0.2878
 7830SOL    HW135123   1.853   4.469   7.916  1.0928  0.1216  0.2592
 7830SOL    HW235124   1.725   4.517   7.856 -0.9291  1.4036 -0.0646
 7831SOL     OW35125   0.012   4.396   8.601  0.1156 -0.2436  0.4567
 7831SOL    HW135126   4.720   4.389   8.693 -5.5157 -1.0713 -1.2015
 7831SOL    HW235127   4.676   4.457   8.580 -0.6669 -1.0324  0.7657
 7832SOL     OW35128   1.592   0.077   9.405 -0.1626 -0.5694  0.2358
 7832SOL    HW135129   1.579   0.149   9.343  1.4624  0.5703  1.2247
 7832SOL    HW235130   1.636   0.113   9.482 -0.3975  0.4399 -0.0987
 7833SOL     OW35131   3.120   4.475  11.230 -0.4181  1.0029  0.2231
 7833SOL    HW135132   3.088   4.551  11.281 -1.3612  0.2574  0.7409
 7833SOL    HW235133   3.215   4.486  11.238 -0.0578 -2.4917  0.5543
 7834SOL     OW35134   2.404   2.969  15.368  0.1838  0.3007  0.1399
 7834SOL    HW135135   2.486   2.965  15.320  0.0304 -0.9113 -0.0262
 7834SOL    HW235136   2.356   2.899  15.323 -3.1215  2.3360  0.5312
 7835SOL     OW35137   0.413   3.915  16.778 -0.1874  0.1014 -0.4577
 7835SOL    HW135138   0.448   4.003  16.792 -2.6474  0.9484  0.3479
 7835SOL    HW235139   0.484   3.865  16.819 -0.0455  2.4651  2.1696
 7836SOL     OW35140   2.364   4.247   7.586  0.0345  0.2569  0.0329
 7836SOL    HW135141   2.282   4.254   7.635 -0.3607 -3.4903 -0.0936
 7836SOL    HW235142   2.394   4.161   7.615 -1.0344 -0.7135 -1.7413
 7837SOL     OW35143   2.470   3.608   8.281  0.3297 -0.0692  0.6015
 7837SOL    HW135144   2.503   3.604   8.191  2.5212 -1.3236  1.4580
 7837SOL    HW235145   2.444   3.517   8.300 -0.9956  0.0759 -0.5051
 7838SOL     OW35146   0.240   1.477   2.183 -0.0038  0.2434  0.3958
 7838SOL    HW135147   0.307   1.438   2.127  0.1259  1.4301 -0.2802
 7838SOL    HW235148   0.179   1.510   2.116  2.8976  2.3282 -1.2352
 7839SOL     OW35149   0.226   2.457  13.300  0.0427 -0.4525 -0.3171
 7839SOL    HW135150   0.246   2.541  13.342  1.6547 -0.5429 -0.9229
 7839SOL    HW235151   0.160   2.423  13.360  0.9805  0.3044  1.1326
 7840SOL     OW35152   4.715   3.567   5.557 -0.4579  0.2926 -0.2314
 7840SOL    HW135153   0.036   3.507   5.507  0.5980  1.1111 -0.0480
 7840SOL    HW235154   0.042   3.611   5.616 -1.2485 -0.5996  1.2658
 7841SOL     OW35155   1.235   3.355  12.772  0.1393  0.4964  0.6887
 7841SOL    HW135156   1.221   3.395  12.859 -0.4678  0.8964  0.4100
 7841SOL    HW235157   1.330   3.347  12.777 -0.1036 -2.2674  0.5455
 7842SOL     OW35158   4.381   3.770   0.840 -0.0180 -0.8706 -0.5456
 7842SOL    HW135159   4.332   3.743   0.763  1.1622  0.4516 -1.7660
 7842SOL    HW235160   4.328   3.739   0.913  0.5696 -0.1588  0.1967
 7843SOL     OW35161   0.504   1.709   9.132  0.5868  0.3180 -0.7999
 7843SOL    HW135162   0.466   1.797   9.131 -1.6716 -0.6273  2.2209
 7843SOL    HW235163   0.479   1.685   9.221 -1.4731  0.9411 -1.2180
 7844SOL     OW35164   3.570   2.302   5.457 -0.2512 -0.5729 -0.1206
 7844SOL    HW135165   3.631   2.355   5.508  1.0239 -1.8209 -0.3385
 7844SOL    HW235166   3.501   2.366   5.473 -1.0350 -1.2485 -0.7785
 7845SOL     OW35167   3.403   0.797   9.588  0.3914  0.3646  0.3253
 7845SOL    HW135168   3.381   0.772   9.678 -1.0746  1.9608  0.4147
 7845SOL    HW235169   3.344   0.737   9.543 -0.7963  1.3200  0.6050
 7846SOL     OW35170   1.286   1.076   9.734 -0.6712  0.2403 -0.3125
 7846SOL    HW135171   1.350   1.081   9.805 -1.9476 -0.6868  0.9069
 7846SOL    HW235172   1.217   1.019   9.767  1.2297 -1.1708  1.2007
 7847SOL     OW35173   1.576   2.667   5.113  0.3033  0.0464 -0.0273
 7847SOL    HW135174   1.601   2.681   5.204  4.7281 -0.4388 -1.1885
 7847SOL    HW235175   1.582   2.755   5.076 -1.3870 -0.7703 -2.2402
 7848SOL     OW35176   3.512   2.904  11.366 -0.6273  0.2148  0.2490
 7848SOL    HW135177   3.529   2.828  11.420  0.7095 -0.5686 -1.2778
 7848SOL    HW235178   3.524   2.866  11.279 -0.2817 -0.2555  0.5027
 7849SOL     OW35179   3.597   2.484   2.474 -0.5028 -0.3414  0.5974
 7849SOL    HW135180   3.556   2.470   2.388 -0.2496  1.0837  0.2510
 7849SOL    HW235181   3.524   2.486   2.536 -0.8110 -0.8778  0.2587
 7850SOL     OW35182   3.866   0.061  17.206 -0.0065 -0.4469 -0.4597
 7850SOL    HW135183   3.960   0.062  17.221 -0.1015 -0.8403  0.1913
 7850SOL    HW235184   3.841   0.151  17.226  1.4948  0.0117 -0.6687
 7851SOL     OW35185   3.858   1.249   6.370 -0.0816 -0.8059 -0.1342
 7851SOL    HW135186   3.793   1.318   6.359  0.5129 -0.6059 -2.2828
 7851SOL    HW235187   3.926   1.306   6.405 -0.3422 -0.1753 -0.6598
 7852SOL     OW35188   1.927   4.625   5.235 -0.3093  0.9037 -0.6093
 7852SOL    HW135189   2.012   4.654   5.203  0.0107 -1.5489 -1.9173
 7852SOL    HW235190   1.886   4.581   5.160 -0.2569 -0.7478  0.3313
 7853SOL     OW35191   1.892   3.612   6.060 -0.4141  0.2692  1.0941
 7853SOL    HW135192   1.947   3.673   6.011  0.5899  0.3026  2.2804
 7853SOL    HW235193   1.927   3.640   6.144  1.1058 -0.2387  0.6376
 7854SOL     OW35194   0.326   3.698   1.460 -0.1744 -0.1770  0.4862
 7854SOL    HW135195   0.414   3.683   1.425  0.6785  2.6457  1.4137
 7854SOL    HW235196   0.280   3.627   1.416 -1.4970  0.7280  0.4007
 7855SOL     OW35197   2.581   0.715   4.151 -0.1142  0.1860 -0.8873
 7855SOL    HW135198   2.566   0.756   4.066 -0.2256 -0.7246 -1.3165
 7855SOL    HW235199   2.495   0.687   4.183 -0.6128  0.8416 -1.6559
 7856SOL     OW35200   1.538   0.679   0.942 -0.2682  0.0757 -0.1512
 7856SOL    HW135201   1.560   0.772   0.955 -0.6737  0.2146 -0.4457
 7856SOL    HW235202   1.604   0.638   0.998 -0.1505  1.2346  0.5750
 7857SOL     OW35203   4.286   2.331   2.189  0.1318  0.5564  0.1990
 7857SOL    HW135204   4.228   2.390   2.141 -0.2899 -0.5396 -0.6466
 7857SOL    HW235205   4.276   2.365   2.278 -2.4373 -0.5484  0.3501
 7858SOL     OW35206   0.381   2.249   5.097 -0.1349 -0.2190  0.2631
 7858SOL    HW135207   0.473   2.239   5.075 -0.1253 -1.4940  0.8587
 7858SOL    HW235208   0.338   2.247   5.012 -1.0338 -1.1914  0.7300
 7859SOL     OW35209   3.371   2.671   7.820  0.1031  0.1400  0.2285
 7859SOL    HW135210   3.276   2.669   7.829 -0.1257  0.0689 -2.2544
 7859SOL    HW235211   3.376   2.631   7.733  0.1225  2.5758 -0.8737
 7860SOL     OW35212   3.528   1.966  11.123 -0.0147 -0.3092 -0.1745
 7860SOL    HW135213   3.573   1.954  11.206  2.5551  2.8436 -1.1300
 7860SOL    HW235214   3.442   1.926  11.138  0.2560 -1.5062 -1.8648
 7861SOL     OW35215   1.391   4.233  16.689  0.1930 -0.7249 -0.0717
 7861SOL    HW135216   1.360   4.177  16.760  0.2741  1.1161  1.4094
 7861SOL    HW235217   1.389   4.176  16.612 -1.6890  0.3620 -0.8210
 7862SOL     OW35218   2.837   3.491  10.127  0.1062 -0.4154 -0.1338
 7862SOL    HW135219   2.919   3.538  10.109  0.5847 -1.3772 -0.4237
 7862SOL    HW235220   2.846   3.413  10.073 -1.7622 -0.1439 -0.8450
 7863SOL     OW35221   4.515   3.930   3.102  0.1399 -0.5558  0.7680
 7863SOL    HW135222   4.450   3.982   3.055  0.1665 -0.0734  1.2705
 7863SOL    HW235223   4.494   3.850   3.053 -0.0014 -0.8585  1.3169
 7864SOL     OW35224   3.159   1.706   0.506 -0.0678  0.0620  0.4592
 7864SOL    HW135225   3.247   1.720   0.544  0.1679  0.3772 -0.2066
 7864SOL    HW235226   3.183   1.709   0.414 -1.5883 -0.5121  0.0614
 7865SOL     OW35227   3.432   3.681   8.769 -0.2514 -0.1935  0.0701
 7865SOL    HW135228   3.425   3.714   8.680  1.7610 -1.9973 -0.7726
 7865SOL    HW235229   3.402   3.754   8.823 -1.1085 -0.0267 -0.6337
 7866SOL     OW35230   1.529   3.782  11.301 -0.4434  0.0272 -0.1295
 7866SOL    HW135231   1.617   3.820  11.304 -1.0891  1.4459  0.4128
 7866SOL    HW235232   1.515   3.763  11.208  0.5632 -0.2250 -0.2295
 7867SOL     OW35233   0.296   1.567   3.001 -0.1123 -0.5908  0.0990
 7867SOL    HW135234   0.391   1.575   2.999 -0.0267 -1.7491 -0.3232
 7867SOL    HW235235   0.284   1.558   3.095  2.9915  0.2833  0.5716
 7868SOL     OW35236   3.322   4.011   5.180  0.4186 -0.0030 -0.2756
 7868SOL    HW135237   3.342   4.047   5.267 -3.2165 -0.0722  0.5765
 7868SOL    HW235238   3.381   3.936   5.191  1.0461  0.7324  1.4273
 7869SOL     OW35239   4.639   0.558  14.076 -0.3688  0.2325 -0.1416
 7869SOL    HW135240   4.583   0.556  14.154  0.5899  0.5991  0.5603
 7869SOL    HW235241   4.593   0.628  14.031  1.3507  0.6711 -1.2001
 7870SOL     OW35242   0.309   3.528   6.665 -0.2930 -0.0265  0.0301
 7870SOL    HW135243   0.403   3.514   6.680 -0.1852 -0.1691 -0.7942
 7870SOL    HW235244   0.304   3.585   6.588  0.9290 -0.2687 -0.2264
 7871SOL     OW35245   2.607   4.428   3.312 -0.4188 -0.6212 -0.3801
 7871SOL    HW135246   2.535   4.372   3.340 -0.6499  0.6645  1.6043
 7871SOL    HW235247   2.617   4.484   3.389  0.5816  0.3121 -1.1885
 7872SOL     OW35248   2.360   1.094  13.723  0.3329 -0.4386  0.0480
 7872SOL    HW135249   2.350   1.189  13.728 -1.8011 -0.7031  0.7926
 7872SOL    HW235250   2.391   1.072  13.811  0.7566 -1.2064 -0.2904
 7873SOL     OW35251   4.250   0.720  13.500  0.1182 -0.2517 -0.7227
 7873SOL    HW135252   4.310   0.765  13.560  0.3677 -0.0930 -1.0930
 7873SOL    HW235253   4.273   0.626  13.502 -0.3487 -0.3264  1.0041
 7874SOL     OW35254   1.753   1.350  13.937 -0.0124 -0.0359  0.1449
 7874SOL    HW135255   1.726   1.439  13.960 -1.0621 -0.7664  1.7967
 7874SOL    HW235256   1.830   1.378  13.888  0.7247  1.4462  2.1691
 7875SOL     OW35257   1.322   1.751   8.242 -0.7497 -0.1241 -0.8916
 7875SOL    HW135258   1.266   1.816   8.199 -2.9261 -3.1473 -2.5954
 7875SOL    HW235259   1.410   1.781   8.216  0.0515 -0.0750  1.8536
 7876SOL     OW35260   2.166   1.374   1.569  0.0453  0.1320 -0.3765
 7876SOL    HW135261   2.073   1.382   1.589  0.4784  2.3648  0.7369
 7876SOL    HW235262   2.193   1.309   1.634 -1.1653 -0.2211 -0.2284
 7877SOL     OW35263   4.556   4.078  13.860  0.1416  0.2560  0.3569
 7877SOL    HW135264   4.643   4.047  13.837  0.2216 -1.1533  2.6116
 7877SOL    HW235265   4.494   4.029  13.806  1.2111 -0.1415 -0.4993
 7878SOL     OW35266   3.618   4.477   3.367 -0.4128  0.6803 -0.4752
 7878SOL    HW135267   3.634   4.530   3.446 -0.8503  0.8487 -0.5007
 7878SOL    HW235268   3.610   4.547   3.302  1.4305  2.1181  0.8346
 7879SOL     OW35269   0.859   4.059  13.597  0.7850 -0.0024 -0.1368
 7879SOL    HW135270   0.894   4.143  13.628  3.2252 -0.9783 -0.3290
 7879SOL    HW235271   0.922   4.031  13.531 -0.2546  2.5241 -2.2672
 7880SOL     OW35272   1.581   3.474   8.494 -0.0956 -0.1188 -0.0482
 7880SOL    HW135273   1.502   3.464   8.547  0.0521 -0.4334  0.1117
 7880SOL    HW235274   1.551   3.555   8.454  1.0964  0.0706 -0.5539
 7881SOL     OW35275   0.991   0.104   7.523 -0.5253  0.2119  0.8514
 7881SOL    HW135276   0.944   0.186   7.512  0.1629  0.4575 -0.2307
 7881SOL    HW235277   0.958   0.051   7.450 -0.2106  0.4078  0.5685
 7882SOL     OW35278   0.701   3.290  16.409  0.0912  0.3617 -0.1595
 7882SOL    HW135279   0.726   3.256  16.323 -0.3029  1.7438 -0.8131
 7882SOL    HW235280   0.631   3.348  16.378 -0.1338  0.0186 -0.2937
 7883SOL     OW35281   1.082   0.329   4.371  0.0661 -0.1538 -0.0504
 7883SOL    HW135282   1.162   0.312   4.321 -0.0540  0.9615 -0.6217
 7883SOL    HW235283   1.099   0.295   4.459  0.4349 -0.1436 -0.1159
 7884SOL     OW35284   4.709   0.431   7.787  0.1455  0.1239 -0.4257
 7884SOL    HW135285   4.614   0.422   7.784  0.0477  0.4469  1.9745
 7884SOL    HW235286   4.725   0.347   7.744  1.1259 -0.3305  0.8194
 7885SOL     OW35287   0.532   4.134   1.040  0.0965  0.1735  0.1272
 7885SOL    HW135288   0.606   4.171   0.991 -3.2125  1.1081 -4.1674
 7885SOL    HW235289   0.527   4.041   1.017  2.6994 -0.3727  1.8397
 7886SOL     OW35290   4.536   0.954   9.346 -0.7023 -0.0518  0.3764
 7886SOL    HW135291   4.500   1.029   9.298  0.8255 -1.6243 -3.1925
 7886SOL    HW235292   4.463   0.892   9.357  0.0654 -1.7560 -4.1417
 7887SOL     OW35293   4.639   2.267  14.125  0.4315 -0.2280  0.3846
 7887SOL    HW135294   4.591   2.297  14.202  0.7155 -1.0172  0.8740
 7887SOL    HW235295   4.579   2.196  14.103  0.8528  0.0041 -1.4812
 7888SOL     OW35296   2.788   4.423  11.821  0.4260 -0.6565  0.8565
 7888SOL    HW135297   2.698   4.398  11.844  0.8912 -3.3794 -0.2039
 7888SOL    HW235298   2.794   4.518  11.815  0.6343 -0.7531 -0.4356
 7889SOL     OW35299   0.890   1.179  13.499  0.0878  0.7454 -0.0197
 7889SOL    HW135300   0.893   1.167  13.404 -1.4681 -0.5253  0.0934
 7889SOL    HW235301   0.799   1.156  13.520  1.3352 -3.2382  1.0708
 7890SOL     OW35302   2.821   0.859   8.896  0.8594 -0.2351 -0.4754
 7890SOL    HW135303   2.774   0.810   8.963 -0.1426  0.4993 -0.6453
 7890SOL    HW235304   2.762   0.927   8.864 -1.2373 -1.5247  0.6979
 7891SOL     OW35305   4.287   3.175  15.363 -0.3940  1.0428 -0.5191
 7891SOL    HW135306   4.194   3.155  15.376  0.2950 -1.2216  0.8329
 7891SOL    HW235307   4.301   3.234  15.437  1.2765  1.1539 -0.9205
 7892SOL     OW35308   0.945   4.573   7.731  0.0841  0.0671 -0.7464
 7892SOL    HW135309   0.893   4.533   7.662 -2.0872  0.2167  0.7890
 7892SOL    HW235310   0.891   4.544   7.805  3.0911  0.9925  1.8441
 7893SOL     OW35311   0.388   4.563   6.079 -0.0394 -0.2134  0.5091
 7893SOL    HW135312   0.323   4.617   6.034 -0.6217  1.5356  3.4678
 7893SOL    HW235313   0.335   4.493   6.117  1.4767 -1.1596  0.8537
 7894SOL     OW35314   0.366   2.176  13.954  0.1090  0.5886  0.5434
 7894SOL    HW135315   0.419   2.098  13.971 -0.0655  0.4128  0.2718
 7894SOL    HW235316   0.293   2.134  13.908  0.8447  0.3914 -0.4565
 7895SOL     OW35317   3.394   3.370   3.242 -0.0561  0.0331 -0.3733
 7895SOL    HW135318   3.413   3.278   3.261 -3.3755 -0.5826  0.0204
 7895SOL    HW235319   3.366   3.357   3.151 -0.6916  0.6622 -0.2645
 7896SOL     OW35320   3.192   1.792   6.961 -0.3602  0.2883 -0.2366
 7896SOL    HW135321   3.105   1.775   6.996 -0.9422 -0.0286 -1.8148
 7896SOL    HW235322   3.239   1.769   7.041  0.0238 -0.0137 -0.5482
 7897SOL     OW35323   0.509   1.327  11.295  0.2103  0.0722 -0.1699
 7897SOL    HW135324   0.528   1.418  11.315  0.5071 -0.1745  0.6570
 7897SOL    HW235325   0.418   1.330  11.322  0.1105  0.9987 -0.6280
 7898SOL     OW35326   4.708   2.378  12.884 -0.1938  0.6600  0.1714
 7898SOL    HW135327   0.016   2.437  12.820 -1.5071  3.2174  1.6577
 7898SOL    HW235328   0.042   2.379  12.952  1.6618 -1.9825 -1.6527
 7899SOL     OW35329   2.987   2.802   9.555 -0.3635 -0.5708 -0.1339
 7899SOL    HW135330   2.999   2.827   9.464 -1.5217  2.9873  0.7089
 7899SOL    HW235331   3.056   2.736   9.552  2.3616  2.2482  1.3227
 7900SOL     OW35332   3.456   0.171   2.609 -0.7872 -0.1487  0.5170
 7900SOL    HW135333   3.368   0.145   2.581  1.1143 -0.6474 -4.9990
 7900SOL    HW235334   3.485   0.230   2.540  0.7221 -0.5280  0.8328
 7901SOL     OW35335   0.437   2.010   1.788 -0.0748 -0.0329  0.1338
 7901SOL    HW135336   0.421   2.052   1.873  4.1403  0.0733  0.8884
 7901SOL    HW235337   0.350   2.026   1.751  0.0612 -3.0645 -1.4735
 7902SOL     OW35338   2.759   2.696   8.262  0.2091  0.2164  0.3319
 7902SOL    HW135339   2.704   2.647   8.323  0.5932  0.5872  0.9786
 7902SOL    HW235340   2.722   2.782   8.278 -0.5537  0.3881 -2.3290
 7903SOL     OW35341   3.898   3.227  17.598 -0.7458 -0.4661  0.6261
 7903SOL    HW135342   3.942   3.281  17.532 -0.6251  0.0437  1.1200
 7903SOL    HW235343   3.961   3.240  17.669 -0.1267 -2.2727  0.3980
 7904SOL     OW35344   0.902   1.517   3.743  0.2102  0.1825 -1.0495
 7904SOL    HW135345   0.844   1.476   3.807 -1.3290  0.1018 -2.5156
 7904SOL    HW235346   0.964   1.569   3.795  0.8298  0.8972 -2.4934
 7905SOL     OW35347   1.550   1.167   6.340  1.0536  0.1755 -0.1664
 7905SOL    HW135348   1.643   1.165   6.318  0.8610 -0.7382 -0.8981
 7905SOL    HW235349   1.526   1.259   6.344 -0.2781 -0.2030  0.5140
 7906SOL     OW35350   0.935   2.806   1.457  0.1978 -0.6993  0.9433
 7906SOL    HW135351   0.890   2.875   1.507  1.0287 -0.0534  0.7921
 7906SOL    HW235352   0.864   2.749   1.428 -0.6494  0.5086  0.6331
 7907SOL     OW35353   1.904   3.660  15.483  0.3712 -0.2367 -0.2561
 7907SOL    HW135354   1.937   3.610  15.408  3.3483  1.2168  0.0695
 7907SOL    HW235355   1.811   3.663  15.460 -0.2996 -1.1300  2.3127
 7908SOL     OW35356   0.361   0.528   8.991  0.1164 -0.0404  0.2610
 7908SOL    HW135357   0.403   0.504   9.074 -1.0592 -2.1441  0.2255
 7908SOL    HW235358   0.322   0.614   9.011  0.9852  0.6635 -1.0973
 7909SOL     OW35359   4.212   0.461   6.246  0.0759 -0.3040  0.3351
 7909SOL    HW135360   4.143   0.489   6.186 -1.0256  0.3699  1.9070
 7909SOL    HW235361   4.263   0.540   6.266 -1.9398  1.7126 -2.5087
 7910SOL     OW35362   4.421   2.242   5.639  0.5028  0.0369  0.4472
 7910SOL    HW135363   4.361   2.307   5.601 -0.4105 -0.8719  0.3199
 7910SOL    HW235364   4.497   2.261   5.585 -0.2715  1.3632 -0.1768
 7911SOL     OW35365   2.335   2.539  10.995 -0.7753  0.4952 -0.0579
 7911SOL    HW135366   2.398   2.506  11.059 -0.4403  0.7013 -0.2795
 7911SOL    HW235367   2.322   2.629  11.024 -1.5631 -0.5369  2.7824
 7912SOL     OW35368   2.067   2.493   7.693 -0.1162  0.1427  0.2836
 7912SOL    HW135369   1.978   2.466   7.715 -0.1135 -1.5269 -1.7042
 7912SOL    HW235370   2.069   2.569   7.751 -3.3314  0.3525  0.1366
 7913SOL     OW35371   1.949   1.131   7.947 -0.0198  0.0587  0.2293
 7913SOL    HW135372   1.856   1.152   7.935 -0.3278 -1.5932 -0.2462
 7913SOL    HW235373   1.972   1.042   7.918  0.9193 -0.1715  1.6778
 7914SOL     OW35374   1.231   2.090   2.067 -0.0408 -0.4714 -0.3885
 7914SOL    HW135375   1.196   2.173   2.037  1.1611 -0.1427 -0.8673
 7914SOL    HW235376   1.312   2.127   2.101  1.4395 -2.3854 -1.8339
 7915SOL     OW35377   2.966   0.073   2.407  0.0402 -0.3704  0.1431
 7915SOL    HW135378   2.931   4.720   2.425  0.8966 -0.7573 -0.0861
 7915SOL    HW235379   2.982   0.110   2.494  3.1671  2.1312 -1.4518
 7916SOL     OW35380   3.055   1.307   4.594 -0.1911  0.2735 -0.5669
 7916SOL    HW135381   3.060   1.393   4.552 -3.1317  0.4544 -0.5461
 7916SOL    HW235382   2.961   1.291   4.586 -0.3646  0.4039  1.2197
 7917SOL     OW35383   1.468   4.550  15.773 -0.1669 -0.0539  0.1846
 7917SOL    HW135384   1.525   4.588  15.706  0.8379 -0.9712  0.5153
 7917SOL    HW235385   1.426   4.474  15.731 -1.5958  0.8257  0.0293
 7918SOL     OW35386   3.269   2.383   5.294 -0.0082 -0.7696 -0.2357
 7918SOL    HW135387   3.186   2.390   5.342 -0.4976  0.5841 -1.2653
 7918SOL    HW235388   3.263   2.324   5.219 -2.1259 -1.8460  0.7874
 7919SOL     OW35389   3.553   2.917  12.467  0.3589 -0.0542  0.6212
 7919SOL    HW135390   3.513   2.899  12.552  1.2374  0.1597  1.0882
 7919SOL    HW235391   3.529   2.842  12.412 -1.3182  1.8186 -1.1699
 7920SOL     OW35392   3.961   0.603   4.572  0.0399  0.0285 -0.4219
 7920SOL    HW135393   3.924   0.515   4.560 -1.2956  0.4321  0.7471
 7920SOL    HW235394   3.877   0.636   4.604  0.2426 -2.2200  2.4506
 7921SOL     OW35395   4.152   3.791   3.781 -0.2673  1.1513 -0.1855
 7921SOL    HW135396   4.125   3.725   3.846  1.0099 -0.4427 -1.2733
 7921SOL    HW235397   4.140   3.735   3.704  1.7951  0.4082  0.0275
 7922SOL     OW35398   3.090   1.059   8.485 -0.2154 -0.0257  0.7426
 7922SOL    HW135399   3.011   1.007   8.487 -1.0274  1.1892  0.1858
 7922SOL    HW235400   3.102   1.080   8.577  1.3333 -0.9643  0.7622
 7923SOL     OW35401   3.688   0.960   6.936  0.2744 -0.1142 -1.0138
 7923SOL    HW135402   3.680   0.910   6.856  0.0939  0.7705 -1.5508
 7923SOL    HW235403   3.595   0.977   6.950 -0.0648 -1.0261 -2.2130
 7924SOL     OW35404   2.474   2.623   2.782  0.2715 -0.0917 -0.5169
 7924SOL    HW135405   2.441   2.644   2.870  0.8189  1.5872 -0.7061
 7924SOL    HW235406   2.457   2.530   2.771 -2.0877  0.4163 -1.0414
 7925SOL     OW35407   1.847   1.817   8.027  0.4614 -0.3536  0.4408
 7925SOL    HW135408   1.857   1.909   8.004 -1.7613  0.2998  2.0527
 7925SOL    HW235409   1.933   1.806   8.068 -0.7377  0.1970  3.1567
 7926SOL     OW35410   0.666   4.683   5.281  0.1088 -0.1906  0.0585
 7926SOL    HW135411   0.758   4.691   5.307  0.0405 -0.0711  0.2652
 7926SOL    HW235412   0.643   4.609   5.337 -0.1697 -0.3938 -0.3257
 7927SOL     OW35413   1.171   0.054   2.940  0.1513 -0.2679 -0.6546
 7927SOL    HW135414   1.200   0.023   2.854  1.3625 -1.4658  0.1729
 7927SOL    HW235415   1.095   4.732   2.951 -0.6191  0.5109 -2.0248
 7928SOL     OW35416   4.058   0.662   2.058  0.5176  0.1922 -0.1696
 7928SOL    HW135417   4.081   0.571   2.078  2.2857  0.5918 -0.3694
 7928SOL    HW235418   4.007   0.683   2.136 -0.7448  1.9972 -1.4682
 7929SOL     OW35419   2.423   2.118   8.550  0.4352 -0.0001 -0.1791
 7929SOL    HW135420   2.511   2.087   8.572 -0.2846 -1.8441  0.0980
 7929SOL    HW235421   2.374   2.036   8.559  1.2224 -0.2400  1.9080
 7930SOL     OW35422   3.241   2.601   2.316  0.7339  0.7607 -0.2278
 7930SOL    HW135423   3.155   2.605   2.359  0.7995 -0.2831 -0.0084
 7930SOL    HW235424   3.204   2.593   2.228  1.8995 -0.1212 -0.6355
 7931SOL     OW35425   4.543   0.008  10.971 -0.1754 -0.2403  0.0952
 7931SOL    HW135426   4.455   0.046  10.976 -0.0033 -0.0797  1.8235
 7931SOL    HW235427   4.592   0.086  10.945 -0.8603  0.1744  0.0285
 7932SOL     OW35428   2.092   0.613   9.001  0.3978 -0.0069 -1.0271
 7932SOL    HW135429   2.177   0.588   9.035 -1.1639 -0.6598  2.3422
 7932SOL    HW235430   2.095   0.708   9.010  0.1541  0.1128 -2.2122
 7933SOL     OW35431   2.962   0.787   2.865  0.1288 -0.6369  0.0270
 7933SOL    HW135432   2.980   0.871   2.909 -2.5980  0.0829 -0.2389
 7933SOL    HW235433   2.981   0.810   2.774  3.3231  1.9800  1.3421
 7934SOL     OW35434   4.421   3.466  16.593  0.1924 -0.7950 -0.1898
 7934SOL    HW135435   4.395   3.557  16.577  0.5186 -0.6881 -0.1111
 7934SOL    HW235436   4.334   3.431  16.613  0.6266 -2.2980 -0.9458
 7935SOL     OW35437   0.960   1.714   8.974  0.3500  0.3107  0.0983
 7935SOL    HW135438   0.867   1.737   8.967  0.6144  1.4187  0.3050
 7935SOL    HW235439   0.988   1.796   8.935 -2.0943 -0.0197 -2.3324
 7936SOL     OW35440   2.927   3.047  16.697  0.1314 -0.5971  0.3107
 7936SOL    HW135441   3.013   3.046  16.656 -0.1534 -0.8931 -0.2806
 7936SOL    HW235442   2.864   3.061  16.626  0.8252 -0.1080 -0.2053
 7937SOL     OW35443   0.269   0.858   1.604  0.5661  1.2314  0.0861
 7937SOL    HW135444   0.255   0.765   1.617  1.3591  1.0581 -0.3046
 7937SOL    HW235445   0.354   0.876   1.644 -0.4033  1.7141  1.9117
 7938SOL     OW35446   1.733   3.061   4.466  0.9707  0.6109 -0.1642
 7938SOL    HW135447   1.647   3.046   4.507  3.4068 -1.1818  4.3393
 7938SOL    HW235448   1.713   3.033   4.377 -0.6780 -1.0161  0.7122
 7939SOL     OW35449   3.769   0.261  13.727 -0.9583 -0.4075 -0.2002
 7939SOL    HW135450   3.740   0.338  13.679 -2.6996 -2.1515 -1.9948
 7939SOL    HW235451   3.704   0.253  13.797  0.0901  0.4009  0.8614
 7940SOL     OW35452   3.388   1.083   4.571 -0.0793 -0.5023  0.0537
 7940SOL    HW135453   3.418   1.173   4.582  0.7728 -0.8635  0.6815
 7940SOL    HW235454   3.325   1.099   4.641  0.9987 -0.6907  1.0579
 7941SOL     OW35455   3.030   2.378   0.041  0.5356 -0.1157 -0.7410
 7941SOL    HW135456   2.938   2.386   0.066  1.3017  0.2464  1.9493
 7941SOL    HW235457   3.059   2.469   0.043  2.6163 -0.7404 -2.1687
 7942SOL     OW35458   1.326   3.949   3.151 -0.0103  0.2074  0.0311
 7942SOL    HW135459   1.257   3.886   3.169  0.1548  0.1890  0.6039
 7942SOL    HW235460   1.406   3.898   3.167 -0.7207 -0.5075  1.3395
 7943SOL     OW35461   4.179   4.213   0.470 -0.2048 -0.5362 -0.1196
 7943SOL    HW135462   4.098   4.170   0.444 -0.4642 -0.2709  0.2525
 7943SOL    HW235463   4.237   4.138   0.461 -0.6372 -1.1155  2.0833
 7944SOL     OW35464   1.828   4.697   8.992 -0.2507 -0.3723 -0.0851
 7944SOL    HW135465   1.818   4.643   9.070  1.1972  0.2844  0.5445
 7944SOL    HW235466   1.755   0.025   8.998 -0.4018 -0.3343 -2.3333
 7945SOL     OW35467   0.422   2.008   8.364  0.1107  0.4409  0.1671
 7945SOL    HW135468   0.330   2.035   8.370 -0.5339 -1.3376 -1.6791
 7945SOL    HW235469   0.471   2.090   8.361  0.3041  0.3074 -0.2963
 7946SOL     OW35470   3.359   1.387   4.634 -0.2252 -0.3515  0.6856
 7946SOL    HW135471   3.263   1.389   4.641 -0.2362  0.8260  0.1875
 7946SOL    HW235472   3.378   1.463   4.689 -0.7212  1.2203 -1.3196
 7947SOL     OW35473   3.923   3.633  17.478 -0.0205 -0.0902 -0.5530
 7947SOL    HW135474   3.970   3.550  17.485  3.5466  2.1578  2.7257
 7947SOL    HW235475   3.995   3.696  17.476 -0.3962  0.4232  1.5452
 7948SOL     OW35476   0.123   3.120   9.033 -0.8425 -0.7143  0.3984
 7948SOL    HW135477   0.213   3.139   9.008 -0.9775 -0.7965 -0.1665
 7948SOL    HW235478   0.132   3.048   9.095 -0.0704 -0.4226  0.6133
 7949SOL     OW35479   2.498   2.046   4.964  0.4495  0.1418 -0.2852
 7949SOL    HW135480   2.511   2.061   5.057  0.8554 -1.3770 -0.0924
 7949SOL    HW235481   2.415   2.091   4.950  1.2685  1.8440  0.4324
 7950SOL     OW35482   1.461   1.175   2.358  0.7268 -0.7166  0.8018
 7950SOL    HW135483   1.396   1.137   2.417  0.1483  0.7796  1.1410
 7950SOL    HW235484   1.420   1.262   2.357  0.8875 -0.6597 -0.5397
 7951SOL     OW35485   2.274   2.868   8.406  0.2791  0.2138  0.1912
 7951SOL    HW135486   2.260   2.953   8.449 -0.0581 -0.2961  1.0826
 7951SOL    HW235487   2.272   2.805   8.477  1.8632  1.3637  1.2386
 7952SOL     OW35488   0.200   1.705   1.975 -1.1946  0.0182  0.2178
 7952SOL    HW135489   0.129   1.657   2.018 -1.9237  2.2353  1.4666
 7952SOL    HW235490   0.159   1.717   1.889 -1.5521  3.0291  0.8074
 7953SOL     OW35491   4.535   1.383   9.483 -0.3256  0.4186  0.3107
 7953SOL    HW135492   4.602   1.324   9.519  1.0875  2.0093  0.3287
 7953SOL    HW235493   4.457   1.328   9.486  0.5790 -0.8657  0.4564
 7954SOL     OW35494   1.538   0.215  16.390  0.2896 -0.1057 -0.0146
 7954SOL    HW135495   1.507   0.261  16.312 -1.1127 -1.8533 -0.4915
 7954SOL    HW235496   1.589   0.278  16.442  2.2081 -1.4394 -0.3129
 7955SOL     OW35497   4.224   0.086  16.529 -0.1603  0.4607  0.2743
 7955SOL    HW135498   4.238   0.007  16.581 -0.4270  0.1167 -0.1833
 7955SOL    HW235499   4.306   0.133  16.541  0.2964 -0.3036  0.1502
 7956SOL     OW35500   1.480   2.016   7.972 -0.0992 -0.0234  0.4471
 7956SOL    HW135501   1.521   2.101   7.989 -2.6516  1.0477  1.2170
 7956SOL    HW235502   1.447   2.031   7.884  3.6229 -1.6347 -1.1986
 7957SOL     OW35503   0.027   2.367   5.142  0.3883 -0.1917 -0.0852
 7957SOL    HW135504   0.018   2.406   5.229 -0.9372 -0.6740 -0.0150
 7957SOL    HW235505   4.675   2.386   5.106 -0.4648 -1.4503  1.2954
 7958SOL     OW35506   3.372   1.194   5.702 -0.3455 -0.0769 -0.0703
 7958SOL    HW135507   3.379   1.258   5.632 -1.0359 -0.7568 -0.7718
 7958SOL    HW235508   3.429   1.233   5.768 -0.7090 -0.3956  0.4385
 7959SOL     OW35509   0.568   2.958   8.035 -0.5292  0.6856 -0.9414
 7959SOL    HW135510   0.551   3.006   7.953  1.1944 -0.7205 -2.1161
 7959SOL    HW235511   0.484   2.914   8.046 -0.2171  0.6308  1.0956
 7960SOL     OW35512   1.153   4.551   6.616 -0.1068  0.1610 -0.0696
 7960SOL    HW135513   1.182   4.604   6.541 -2.1504  1.2217 -0.0868
 7960SOL    HW235514   1.220   4.569   6.681 -0.8773 -0.4554  0.8855
 7961SOL     OW35515   0.639   0.752   8.638 -0.1574  0.4713 -0.3114
 7961SOL    HW135516   0.673   0.742   8.549  0.7005 -1.4894  0.2507
 7961SOL    HW235517   0.676   0.837   8.662 -0.0103 -0.2536  1.9614
 7962SOL     OW35518   2.720   3.016   6.599 -0.6224  0.8263 -0.2725
 7962SOL    HW135519   2.782   3.040   6.530  0.3390 -0.3982  0.1529
 7962SOL    HW235520   2.695   2.930   6.566 -0.6487  0.8747 -0.3782
 7963SOL     OW35521   1.626   4.325  15.520 -0.1170  0.4956 -0.1631
 7963SOL    HW135522   1.654   4.235  15.538  0.4731  0.4881 -1.1430
 7963SOL    HW235523   1.654   4.368  15.601  1.6094  1.1076 -1.1024
 7964SOL     OW35524   1.625   0.677   8.313  0.2204  0.3468 -0.0055
 7964SOL    HW135525   1.714   0.644   8.303 -0.3635 -1.0345 -0.5916
 7964SOL    HW235526   1.603   0.669   8.220  1.6605  0.6122 -0.3810
 7965SOL     OW35527   0.266   1.743   8.558  0.0499 -0.5900  0.0510
 7965SOL    HW135528   0.275   1.719   8.466  0.3651 -0.6147  0.0863
 7965SOL    HW235529   0.180   1.705   8.577  1.1059 -2.8655  0.3785
 7966SOL     OW35530   2.300   1.770  16.258  0.1632 -0.6880  0.3326
 7966SOL    HW135531   2.270   1.687  16.295  0.3473 -0.9762 -0.1652
 7966SOL    HW235532   2.286   1.829  16.332  0.4869  3.6564 -3.0528
 7967SOL     OW35533   3.829   3.057   6.408  0.1893  0.4626 -0.3174
 7967SOL    HW135534   3.905   3.030   6.460  0.0186 -1.3006 -0.9679
 7967SOL    HW235535   3.811   3.143   6.444 -0.7121  0.1192  0.0431
 7968SOL     OW35536   2.518   0.538   6.854  0.3913  0.7720  0.1787
 7968SOL    HW135537   2.440   0.589   6.834  0.8576  1.4834  0.1695
 7968SOL    HW235538   2.498   0.449   6.823  0.8498  0.2930  1.2413
 7969SOL     OW35539   2.481   2.331   1.304 -0.7243 -0.0851  0.0053
 7969SOL    HW135540   2.498   2.337   1.398 -2.1566 -0.2863  0.2709
 7969SOL    HW235541   2.567   2.301   1.275 -0.4752  1.2061 -0.5955
 7970SOL     OW35542   1.644   3.009   7.835  0.5550 -1.1693  0.2008
 7970SOL    HW135543   1.585   3.086   7.834  1.2085 -0.6743 -0.2465
 7970SOL    HW235544   1.662   2.995   7.927 -1.2820 -0.1092  0.7422
 7971SOL     OW35545   2.142   1.866  14.522 -0.7780 -0.1298  0.6397
 7971SOL    HW135546   2.198   1.912  14.585  2.1731 -1.6814 -0.8211
 7971SOL    HW235547   2.134   1.929  14.451 -0.1758 -0.3960  0.3331
 7972SOL     OW35548   4.075   2.582   4.972 -0.1987 -0.1603  0.2076
 7972SOL    HW135549   4.052   2.514   4.909 -1.4477  1.1246 -0.7265
 7972SOL    HW235550   3.992   2.588   5.019 -0.8511 -1.9733 -0.7518
 7973SOL     OW35551   2.529   1.695   8.897  0.2418  0.2943  0.1497
 7973SOL    HW135552   2.572   1.728   8.818 -1.5414  1.5117 -0.3053
 7973SOL    HW235553   2.584   1.725   8.969 -0.8142 -0.1517  1.1499
 7974SOL     OW35554   2.288   0.426   8.740  0.0878 -0.0019  0.3604
 7974SOL    HW135555   2.382   0.446   8.744  0.1110 -0.4373  2.0082
 7974SOL    HW235556   2.252   0.513   8.720  0.6162  0.1990  0.2798
 7975SOL     OW35557   1.583   2.803   8.425  0.3035 -0.2184  0.3504
 7975SOL    HW135558   1.603   2.810   8.332  0.1649  2.6053  0.5168
 7975SOL    HW235559   1.512   2.867   8.431  2.0082  1.7663 -0.4740
 7976SOL     OW35560   0.368   0.165   7.927  0.2083 -0.5306 -0.0230
 7976SOL    HW135561   0.313   0.172   7.849 -1.1405  0.1238  0.9956
 7976SOL    HW235562   0.304   0.172   7.998  0.4303 -0.4162  0.1686
 7977SOL     OW35563   2.181   3.613   8.054  0.7617  0.3953 -0.0174
 7977SOL    HW135564   2.142   3.531   8.085 -0.7534  1.2357  0.2798
 7977SOL    HW235565   2.246   3.633   8.121 -0.0304 -0.9927  1.1710
 7978SOL     OW35566   1.592   2.845   3.592 -0.7998  0.1993 -0.2624
 7978SOL    HW135567   1.595   2.795   3.673  1.2854  0.4946 -0.1539
 7978SOL    HW235568   1.506   2.824   3.556 -1.3616  2.1715 -0.0293
 7979SOL     OW35569   3.091   3.909   5.578 -0.5224 -0.1135 -0.1024
 7979SOL    HW135570   3.164   3.869   5.530  0.9939  0.6010  1.6398
 7979SOL    HW235571   3.062   3.975   5.515 -0.7873  0.7186  0.9007
 7980SOL     OW35572   3.553   0.115   8.629 -0.0570 -0.5210  0.1489
 7980SOL    HW135573   3.601   0.146   8.706  1.0756 -1.0715 -0.3280
 7980SOL    HW235574   3.464   0.106   8.662 -0.2374  1.8804  0.2556
 7981SOL     OW35575   3.975   1.107  11.694 -0.5306  0.2933  0.4485
 7981SOL    HW135576   4.024   1.186  11.719  1.5111 -0.6843 -0.4835
 7981SOL    HW235577   3.923   1.150  11.626 -0.7408 -0.6263  0.0267
 7982SOL     OW35578   1.592   0.565   9.097  0.1911  0.2308 -0.1068
 7982SOL    HW135579   1.677   0.530   9.121  1.2834  2.2351 -1.0748
 7982SOL    HW235580   1.594   0.599   9.008  0.0216  2.4297  0.7366
 7983SOL     OW35581   0.707   1.976  17.587  0.4295 -0.4794 -0.1525
 7983SOL    HW135582   0.621   1.992  17.624  0.1410  2.7081 -2.2252
 7983SOL    HW235583   0.701   1.925  17.506  0.6763 -2.2060  0.9207
 7984SOL     OW35584   0.919   1.909   7.827 -0.0782 -0.2496 -0.0422
 7984SOL    HW135585   1.012   1.908   7.850  0.0182 -1.4393 -0.4851
 7984SOL    HW235586   0.919   1.884   7.734  0.8032 -1.4628  0.2800
 7985SOL     OW35587   1.018   4.196   4.494  0.0472 -0.2292  0.8428
 7985SOL    HW135588   0.948   4.133   4.511 -0.9033  0.6406  0.2032
 7985SOL    HW235589   1.026   4.174   4.401  2.4941  2.3109  0.4338
 7986SOL     OW35590   2.757   2.969   9.761  0.2536 -0.4995 -0.3232
 7986SOL    HW135591   2.685   2.981   9.699  0.1775 -2.9794 -0.7191
 7986SOL    HW235592   2.732   3.041   9.819  2.7021 -1.0426  1.4091
 7987SOL     OW35593   1.163   4.215   3.928 -0.2415 -0.3642 -0.2314
 7987SOL    HW135594   1.192   4.253   4.011 -2.6538  2.2162 -0.5817
 7987SOL    HW235595   1.076   4.253   3.918 -0.1991 -0.9151 -2.7421
 7988SOL     OW35596   0.856   0.961   9.576  0.2639  0.0393  0.4362
 7988SOL    HW135597   0.826   0.958   9.485 -2.5782 -0.6849  1.3901
 7988SOL    HW235598   0.792   1.028   9.597  0.0178  0.0133 -0.2132
 7989SOL     OW35599   2.313   3.144   4.764  0.4425  0.2110  0.0113
 7989SOL    HW135600   2.272   3.145   4.851  0.4115 -2.8392  0.0176
 7989SOL    HW235601   2.366   3.221   4.785  1.9636 -1.1068  0.9563
 7990SOL     OW35602   0.032   0.463   4.600  0.2595 -0.5614  0.0059
 7990SOL    HW135603   4.727   0.403   4.663  0.9864 -0.6758  0.3497
 7990SOL    HW235604   4.703   0.535   4.609 -1.0758 -1.8679  0.9177
 7991SOL     OW35605   0.644   2.458   6.036 -0.2001 -0.1002  0.3886
 7991SOL    HW135606   0.575   2.434   5.975 -1.1172  0.7387  1.1143
 7991SOL    HW235607   0.665   2.539   5.990  2.6605  0.2762  2.3636
 7992SOL     OW35608   0.478   2.690   7.969 -0.2688  0.4862  0.3094
 7992SOL    HW135609   0.566   2.664   7.943 -0.8795 -1.2379 -0.0143
 7992SOL    HW235610   0.507   2.694   8.061  1.3020 -1.7546 -0.1056
 7993SOL     OW35611   2.312   1.900  11.731  0.1688  0.5502 -0.4736
 7993SOL    HW135612   2.334   1.910  11.639  2.0701 -1.8548 -0.2923
 7993SOL    HW235613   2.370   1.968  11.764  0.5451 -0.9370  2.0104
 7994SOL     OW35614   4.218   2.221   6.183 -0.1306 -0.5807 -0.1338
 7994SOL    HW135615   4.134   2.223   6.229  0.9960 -1.5230  1.9771
 7994SOL    HW235616   4.227   2.304   6.135  1.3258 -0.5791  0.1429
 7995SOL     OW35617   0.090   2.660   2.213  0.1004  0.2369  0.0415
 7995SOL    HW135618   0.108   2.671   2.306 -0.1210  0.7911  0.0142
 7995SOL    HW235619   0.053   2.572   2.218 -2.2346  1.0222 -3.1013
 7996SOL     OW35620   3.184   0.339   6.535 -0.2621  0.2770 -0.7707
 7996SOL    HW135621   3.272   0.336   6.572 -1.2882 -0.8517  1.5768
 7996SOL    HW235622   3.193   0.412   6.474  0.1146  0.3362 -0.6471
 7997SOL     OW35623   0.570   1.080   4.168  0.5054 -0.1301  0.3845
 7997SOL    HW135624   0.644   1.025   4.193 -1.0476 -1.3858  2.2012
 7997SOL    HW235625   0.543   1.100   4.258  1.5665  0.1502  0.6478
 7998SOL     OW35626   3.035   2.048   1.073 -0.1649  0.3131 -0.5727
 7998SOL    HW135627   3.023   2.084   1.160  1.4698 -0.6428  0.0491
 7998SOL    HW235628   2.951   2.071   1.033 -0.2430  0.0256 -0.5719
 7999SOL     OW35629   0.674   0.144   9.387 -0.4269  0.6769 -0.0438
 7999SOL    HW135630   0.614   0.088   9.339 -1.8065  2.0855  0.0313
 7999SOL    HW235631   0.740   0.144   9.318  1.0657  1.2893  1.3627
 8000SOL     OW35632   2.284   0.561   1.920 -0.2396  0.0676 -0.1455
 8000SOL    HW135633   2.292   0.642   1.869  0.1443  0.6201  0.8014
 8000SOL    HW235634   2.375   0.548   1.947  0.1582  0.3865 -1.3311
 8001SOL     OW35635   2.685   4.316  14.711 -0.0750 -0.4074 -0.0493
 8001SOL    HW135636   2.637   4.396  14.734 -1.6691 -0.6213 -2.6699
 8001SOL    HW235637   2.634   4.297  14.632 -0.5039 -1.2580  0.4394
 8002SOL     OW35638   0.112   3.168   6.594 -0.0078  0.2690 -0.0686
 8002SOL    HW135639   0.096   3.222   6.671  0.4213  0.6837 -0.2746
 8002SOL    HW235640   0.126   3.234   6.526 -2.0190 -1.2833 -2.0211
 8003SOL     OW35641   4.450   0.338   7.145 -0.2478  0.5819  0.0830
 8003SOL    HW135642   4.543   0.357   7.152 -0.4454  1.5791  0.0141
 8003SOL    HW235643   4.446   0.260   7.201 -0.4751 -1.0432 -2.1897
 8004SOL     OW35644   2.023   3.728   7.666 -0.3436  0.4034 -0.2335
 8004SOL    HW135645   1.955   3.745   7.601 -1.6564  1.0954  1.3435
 8004SOL    HW235646   2.006   3.790   7.736 -1.5619  0.4271 -0.5552
 8005SOL     OW35647   4.514   0.103   2.642  0.5383  0.4578  0.1795
 8005SOL    HW135648   4.547   0.020   2.674  1.5984  0.5054 -0.7601
 8005SOL    HW235649   4.429   0.070   2.614  2.1498 -1.5388 -2.3633
 8006SOL     OW35650   2.742   3.427   1.948  0.6587  0.5908 -0.5859
 8006SOL    HW135651   2.679   3.386   1.889  0.7283  0.0971 -0.3154
 8006SOL    HW235652   2.719   3.520   1.947 -1.0244  0.2128  1.4858
 8007SOL     OW35653   1.114   1.849  17.537  0.4368 -0.3193  0.2150
 8007SOL    HW135654   1.124   1.852  17.442 -3.6405  0.5018 -0.1956
 8007SOL    HW235655   1.197   1.817  17.572  2.0307 -1.1107 -4.2725
 8008SOL     OW35656   1.932   1.599  12.985 -0.2176  0.1389 -0.3174
 8008SOL    HW135657   1.947   1.551  13.067 -1.6758  1.6680  0.8477
 8008SOL    HW235658   1.841   1.622  13.005 -0.2376 -0.2523  0.0331
 8009SOL     OW35659   2.559   0.388   0.071  0.1385 -0.0040  0.1570
 8009SOL    HW135660   2.561   0.347   0.158 -0.0205  0.9455  0.6122
 8009SOL    HW235661   2.654   0.395   0.061  0.3320 -2.1368  0.4911
 8010SOL     OW35662   4.352   3.629  11.783  0.3098 -0.0217 -0.0827
 8010SOL    HW135663   4.329   3.699  11.721 -3.1384  1.3773  2.7700
 8010SOL    HW235664   4.447   3.621  11.782  0.1696 -1.6337 -0.6145
 8011SOL     OW35665   4.218   3.758   2.097 -0.6058  0.5339 -0.4080
 8011SOL    HW135666   4.231   3.788   2.187  0.5987  0.8149 -0.6873
 8011SOL    HW235667   4.307   3.741   2.067 -1.6392 -0.6306 -2.8081
 8012SOL     OW35668   3.470   2.462   6.398 -0.1124 -0.3004 -0.2746
 8012SOL    HW135669   3.400   2.414   6.354 -0.1118  1.6571 -2.4018
 8012SOL    HW235670   3.543   2.457   6.336 -2.8553 -0.7483 -3.4419
 8013SOL     OW35671   1.413   4.633   7.379  0.0828 -0.0168  0.1982
 8013SOL    HW135672   1.473   4.561   7.358 -1.3185 -1.2449  0.4191
 8013SOL    HW235673   1.338   4.637   7.320  0.0045  1.4351  0.3793
 8014SOL     OW35674   2.547   0.355   7.895 -0.3551  0.0278  0.0589
 8014SOL    HW135675   2.511   0.442   7.873  0.8375  0.2194 -1.1722
 8014SOL    HW235676   2.549   0.360   7.990 -0.4583 -0.4504  0.0852
 8015SOL     OW35677   0.406   1.238   6.664 -0.4800 -0.3203  0.1484
 8015SOL    HW135678   0.452   1.257   6.582  0.9996 -1.2188  0.7739
 8015SOL    HW235679   0.388   1.144   6.663 -0.4325 -0.3336  0.5578
 8016SOL     OW35680   4.479   0.938   5.729 -0.3188  0.1194  0.3752
 8016SOL    HW135681   4.538   0.873   5.767 -0.8954 -0.1140  0.8697
 8016SOL    HW235682   4.474   0.895   5.644 -1.4497  0.6018  0.1856
 8017SOL     OW35683   4.287   2.005   8.004 -0.3873 -0.4918 -0.4012
 8017SOL    HW135684   4.344   1.983   8.078 -0.8399  2.0208  0.7058
 8017SOL    HW235685   4.223   1.936   8.023 -2.9903  1.8485 -0.6510
 8018SOL     OW35686   1.521   1.992   4.405 -0.1570 -0.4459 -0.2143
 8018SOL    HW135687   1.444   1.935   4.410  0.2512 -1.2228 -2.8910
 8018SOL    HW235688   1.564   1.969   4.323  2.1324  0.2080  0.8202
 8019SOL     OW35689   1.742   3.310  10.208 -0.0164 -0.1319 -0.8438
 8019SOL    HW135690   1.722   3.220  10.235  0.0911  0.2499  0.5273
 8019SOL    HW235691   1.723   3.350  10.293 -1.9210 -1.4103 -0.6716
 8020SOL     OW35692   2.592   3.889   8.502 -0.5115 -0.7084  0.4589
 8020SOL    HW135693   2.505   3.849   8.509 -1.3384  0.8914 -0.6524
 8020SOL    HW235694   2.645   3.851   8.572  1.6945 -1.3350 -1.5285
 8021SOL     OW35695   0.094   0.695   1.037  0.2064  0.2647  0.6668
 8021SOL    HW135696   0.147   0.655   1.106 -0.7246  0.0695  1.2810
 8021SOL    HW235697   0.113   0.787   1.056  2.7607 -0.0828 -0.2863
 8022SOL     OW35698   3.679   1.636  11.559 -0.3774 -0.0953 -0.1682
 8022SOL    HW135699   3.672   1.731  11.568 -0.6503 -0.4978  3.7237
 8022SOL    HW235700   3.651   1.608  11.646  0.2222  1.0124  0.3805
 8023SOL     OW35701   0.212   1.599   6.909 -0.1272 -0.3846 -0.1193
 8023SOL    HW135702   0.203   1.637   6.996 -0.1638 -2.2173  0.6582
 8023SOL    HW235703   0.209   1.670   6.844  1.7541 -0.0028  0.1918
 8024SOL     OW35704   4.216   1.054   6.123 -0.3491  0.4209  0.3380
 8024SOL    HW135705   4.140   1.011   6.083 -1.1699  1.1438  1.1185
 8024SOL    HW235706   4.284   1.027   6.061  0.5666  1.3481  0.9595
 8025SOL     OW35707   0.624   3.823   9.423  0.3815  0.0011  0.2263
 8025SOL    HW135708   0.630   3.894   9.358 -0.3552  0.1586  0.3336
 8025SOL    HW235709   0.556   3.861   9.478  0.7123  0.8365  0.0607
 8026SOL     OW35710   1.308   3.517  17.492  0.3040  0.4136 -0.1464
 8026SOL    HW135711   1.366   3.442  17.476  0.7745  1.0093 -1.2473
 8026SOL    HW235712   1.339   3.558  17.572 -0.0893  1.0018 -0.2933
 8027SOL     OW35713   3.500   2.052  10.760 -0.0268 -0.3182 -0.7142
 8027SOL    HW135714   3.584   2.088  10.787 -0.2195 -2.0591  2.1090
 8027SOL    HW235715   3.505   1.963  10.794  2.1712  0.0608 -0.0793
 8028SOL     OW35716   2.404   3.332   4.293  0.5614 -0.3504  0.0781
 8028SOL    HW135717   2.438   3.398   4.354  1.6873  1.6801 -2.7613
 8028SOL    HW235718   2.316   3.316   4.326 -0.0105 -3.0176 -2.7282
 8029SOL     OW35719   3.028   4.713   7.760  0.8329  0.3677 -0.1316
 8029SOL    HW135720   3.022   0.043   7.689  0.7690  0.6875  0.1648
 8029SOL    HW235721   3.122   4.703   7.776  0.7972 -2.2494 -1.5365
 8030SOL     OW35722   4.360   3.685   7.464 -0.2149 -0.5285 -0.1377
 8030SOL    HW135723   4.433   3.650   7.516 -0.3657 -1.2602 -0.4168
 8030SOL    HW235724   4.401   3.688   7.378 -1.6364 -0.9255 -0.8257
 8031SOL     OW35725   4.643   1.126   6.313  0.3081 -0.0348 -0.0987
 8031SOL    HW135726   4.623   1.176   6.234 -0.7527  3.0628  2.1398
 8031SOL    HW235727   4.555   1.127   6.351  0.8675  0.2157  1.2015
 8032SOL     OW35728   1.349   3.690   5.745 -0.6229 -0.5830  0.5616
 8032SOL    HW135729   1.350   3.785   5.756  1.1486 -0.3559 -1.3423
 8032SOL    HW235730   1.410   3.682   5.671  1.6440  1.0214  2.2657
 8033SOL     OW35731   3.516   1.661   4.007 -0.1081 -0.2831 -0.7178
 8033SOL    HW135732   3.509   1.566   4.006  1.6364 -0.4209  0.6056
 8033SOL    HW235733   3.425   1.672   3.981  0.5679  1.9553 -2.1867
 8034SOL     OW35734   0.298   3.377   4.645 -0.2059 -0.0710  0.1602
 8034SOL    HW135735   0.278   3.386   4.552  1.5975  0.2420 -0.2034
 8034SOL    HW235736   0.229   3.429   4.686 -1.8868 -1.2087 -1.2908
 8035SOL     OW35737   1.086   0.238  12.424  0.0882 -0.2597  0.2581
 8035SOL    HW135738   0.994   0.234  12.449  0.2698 -0.7329  0.8496
 8035SOL    HW235739   1.082   0.200  12.336  1.3808 -0.2301  0.1856
 8036SOL     OW35740   1.242   4.364   8.153 -0.0076  0.0371  0.2565
 8036SOL    HW135741   1.293   4.443   8.171 -1.6718  1.0725  0.4317
 8036SOL    HW235742   1.242   4.376   8.058 -0.4325  1.4102  0.4295
 8037SOL     OW35743   1.635   1.018   0.539  0.6356  0.2307  0.5344
 8037SOL    HW135744   1.659   1.014   0.632 -0.3725  0.9573  0.8329
 8037SOL    HW235745   1.545   0.985   0.541  0.4106  0.7625 -0.9585
 8038SOL     OW35746   2.201   0.577   2.796  0.1618 -0.6436 -0.0738
 8038SOL    HW135747   2.279   0.521   2.801 -0.6805 -1.7047  1.3816
 8038SOL    HW235748   2.238   0.658   2.760 -0.8951  0.6996  1.9027
 8039SOL     OW35749   0.034   2.957   7.794 -0.2902 -0.1363  0.2655
 8039SOL    HW135750   0.121   2.956   7.752 -0.9825 -0.0930 -1.1614
 8039SOL    HW235751   4.718   2.921   7.721 -0.8659 -1.6108  1.3907
 8040SOL     OW35752   1.893   0.756   5.420 -0.1663 -0.6715  0.1867
 8040SOL    HW135753   1.835   0.733   5.347 -0.8064  2.9628 -0.4219
 8040SOL    HW235754   1.954   0.815   5.376  0.6042 -1.8650 -0.3623
 8041SOL     OW35755   2.709   1.412   8.147 -0.7449 -0.0878  0.5636
 8041SOL    HW135756   2.704   1.454   8.233  0.3589 -1.7774  1.4599
 8041SOL    HW235757   2.684   1.487   8.093  1.1963 -0.0449 -0.2961
 8042SOL     OW35758   3.720   3.036   8.215 -0.0715 -0.7834  0.5121
 8042SOL    HW135759   3.764   2.980   8.151  0.9545  1.6069 -0.8565
 8042SOL    HW235760   3.797   3.069   8.260 -0.2791  0.9837 -0.4282
 8043SOL     OW35761   3.092   0.216  12.159 -0.5386  0.0483  0.4825
 8043SOL    HW135762   3.061   0.295  12.204  1.7334  0.0694  2.0648
 8043SOL    HW235763   3.008   0.180  12.131  0.4088 -1.3297 -0.5841
 8044SOL     OW35764   0.422   3.691   5.885 -0.5593 -0.4181 -0.1308
 8044SOL    HW135765   0.391   3.623   5.825  0.8447  0.3698 -1.7447
 8044SOL    HW235766   0.505   3.689   5.839 -0.4519  1.0676 -0.0081
 8045SOL     OW35767   2.222   4.321   6.641 -0.2731  0.0624 -0.4610
 8045SOL    HW135768   2.269   4.321   6.724 -0.5110 -0.6573 -0.3268
 8045SOL    HW235769   2.278   4.363   6.576 -2.4158 -1.5334 -3.3548
 8046SOL     OW35770   1.988   1.523   6.319  0.1605  0.2438  0.2603
 8046SOL    HW135771   1.982   1.602   6.373  1.3882  1.5100 -1.4751
 8046SOL    HW235772   2.010   1.558   6.233  1.4493 -2.8424 -0.6507
 8047SOL     OW35773   1.117   2.751   6.051  0.9255  0.0647 -0.3558
 8047SOL    HW135774   1.154   2.775   5.966  0.3610 -0.3964 -0.7249
 8047SOL    HW235775   1.195   2.757   6.107 -0.0770  0.5731  1.0060
 8048SOL     OW35776   1.431   4.586   2.349  0.1556  0.0490 -0.4006
 8048SOL    HW135777   1.429   4.682   2.346 -0.8559  0.0144 -0.9596
 8048SOL    HW235778   1.395   4.569   2.262 -2.4285  0.7429  0.5545
 8049SOL     OW35779   3.278   0.374   5.859 -0.1452  0.0169 -0.3457
 8049SOL    HW135780   3.221   0.391   5.784  0.2098 -0.1742 -0.6560
 8049SOL    HW235781   3.318   0.460   5.873 -3.4795  1.6824 -0.9103
 8050SOL     OW35782   3.296   1.995   7.443 -0.0439 -0.1809  0.0290
 8050SOL    HW135783   3.362   2.064   7.437 -0.7722  0.3469 -1.7346
 8050SOL    HW235784   3.277   1.983   7.536  1.6685  0.8372  0.5201
 8051SOL     OW35785   4.665   4.228   6.143 -0.4332 -0.5741 -0.5918
 8051SOL    HW135786   4.733   4.160   6.143  1.0964  0.9451 -2.0229
 8051SOL    HW235787   4.589   4.178   6.172  0.2994 -0.6963  1.0694
 8052SOL     OW35788   4.121   3.796   8.332 -0.4602  0.3759  0.4956
 8052SOL    HW135789   4.215   3.805   8.343 -0.3145 -2.5944  1.8188
 8052SOL    HW235790   4.122   3.704   8.305 -0.8559  0.9560 -1.4701
 8053SOL     OW35791   4.249   2.546   6.175  0.0535 -0.6466 -0.0063
 8053SOL    HW135792   4.168   2.588   6.146  0.2798 -0.1529  0.0878
 8053SOL    HW235793   4.299   2.622   6.203 -0.3890 -0.8777  1.4018
 8054SOL     OW35794   1.328   2.487   3.245 -0.3353  0.2709 -0.2151
 8054SOL    HW135795   1.248   2.527   3.210 -1.2059  1.0245  2.7050
 8054SOL    HW235796   1.388   2.528   3.182 -1.2978 -1.8789 -2.5468
 8055SOL     OW35797   4.414   1.552   8.443 -0.2874 -0.7977  0.5479
 8055SOL    HW135798   4.341   1.575   8.501 -0.2136  0.8532 -0.0117
 8055SOL    HW235799   4.438   1.464   8.473  1.2516  0.1507  2.1529
 8056SOL     OW35800   3.333   0.874  17.061 -0.4109  0.4737 -0.7732
 8056SOL    HW135801   3.415   0.825  17.063 -0.9226 -0.3123  0.5938
 8056SOL    HW235802   3.304   0.859  16.971 -3.0195 -0.1871  0.1886
 8057SOL     OW35803   2.488   0.745   9.681  0.0210 -0.1876  0.3128
 8057SOL    HW135804   2.583   0.740   9.688  0.0930 -1.0925 -1.2554
 8057SOL    HW235805   2.473   0.652   9.696 -1.7223 -0.1969 -1.3682
 8058SOL     OW35806   4.362   3.274   7.070  0.0342  0.1020 -0.2363
 8058SOL    HW135807   4.382   3.303   7.159  3.5691 -2.3022 -0.2228
 8058SOL    HW235808   4.405   3.349   7.030 -0.6575  0.4399 -0.3453
 8059SOL     OW35809   1.976   1.772   6.154 -0.2075  0.3235  0.5659
 8059SOL    HW135810   1.895   1.774   6.205  0.2297 -0.2146  1.2732
 8059SOL    HW235811   1.956   1.822   6.075  0.6848  1.0751  0.8193
 8060SOL     OW35812   0.991   2.325   9.229 -0.8098 -0.5656 -0.3515
 8060SOL    HW135813   0.912   2.301   9.277 -0.8563  0.5868  0.1419
 8060SOL    HW235814   0.972   2.286   9.143  0.7873 -0.4883 -0.7495
 8061SOL     OW35815   2.131   1.443   6.550  0.0946 -0.2370  0.3833
 8061SOL    HW135816   2.082   1.420   6.471  2.6576  0.6102 -1.4307
 8061SOL    HW235817   2.057   1.453   6.609 -0.7051 -1.9475 -0.3093
 8062SOL     OW35818   2.760   2.392   3.072 -0.0222  0.1219  0.2333
 8062SOL    HW135819   2.682   2.406   3.124 -0.3124 -0.3032 -0.0827
 8062SOL    HW235820   2.814   2.316   3.094 -0.9601 -0.6580 -0.1266
 8063SOL     OW35821   2.889   2.075   3.658  0.2853  0.3802 -0.5884
 8063SOL    HW135822   2.944   2.115   3.725  1.3073 -0.5379 -0.8874
 8063SOL    HW235823   2.938   2.085   3.577  0.2795  2.8217 -0.3010
 8064SOL     OW35824   2.482   2.462   8.738 -0.0323 -0.2327  0.6380
 8064SOL    HW135825   2.426   2.386   8.729  0.6715 -0.7891  0.9432
 8064SOL    HW235826   2.525   2.443   8.822  0.1485  2.2000  1.1291
 8065SOL     OW35827   1.739   4.624   3.817 -0.1042  0.6007 -0.0831
 8065SOL    HW135828   1.695   4.672   3.887  0.7379  0.2302  0.7084
 8065SOL    HW235829   1.791   4.693   3.777  1.8255 -0.4713  0.5486
 8066SOL     OW35830   3.290   2.546   4.292  0.2758  0.2705  0.2393
 8066SOL    HW135831   3.242   2.479   4.341  2.5526 -1.5012  0.0190
 8066SOL    HW235832   3.231   2.619   4.310  0.8190  1.6278 -3.5873
 8067SOL     OW35833   2.416   3.770   5.878 -0.4402 -0.1937 -0.4943
 8067SOL    HW135834   2.495   3.725   5.909  0.0167  2.0839  1.6354
 8067SOL    HW235835   2.412   3.729   5.792 -3.0874 -0.3485 -0.2796
 8068SOL     OW35836   1.005   0.626   4.823 -0.0753  0.1403  0.9398
 8068SOL    HW135837   1.006   0.598   4.914 -0.7332 -0.0737  0.8806
 8068SOL    HW235838   1.100   0.637   4.820  0.3033 -2.3624  4.1650
 8069SOL     OW35839   2.123   2.025  13.151 -0.1927 -0.1766  0.0694
 8069SOL    HW135840   2.133   1.978  13.068  0.3375 -0.3285  0.2201
 8069SOL    HW235841   2.112   2.114  13.119  1.2208 -0.0952 -0.1887
 8070SOL     OW35842   2.632   4.516   6.625 -0.2835 -0.3177  0.4412
 8070SOL    HW135843   2.688   4.564   6.564 -1.7341 -0.0821 -0.6845
 8070SOL    HW235844   2.612   4.589   6.683 -1.0627  0.6594 -1.0511
 8071SOL     OW35845   1.729   1.611   1.495 -0.2866  0.0460 -0.5965
 8071SOL    HW135846   1.747   1.705   1.502 -0.2903  0.0276 -0.3275
 8071SOL    HW235847   1.634   1.610   1.491 -0.2833 -2.2787 -0.3665
 8072SOL     OW35848   1.813   2.812   7.765  0.4188 -0.4611  0.7073
 8072SOL    HW135849   1.728   2.854   7.754  1.1445  1.5028  2.6006
 8072SOL    HW235850   1.844   2.825   7.855 -0.3643 -0.3878  0.9666
 8073SOL     OW35851   2.757   2.788   5.043 -0.8776  0.0405 -0.2211
 8073SOL    HW135852   2.664   2.765   5.041 -0.8817  0.1160 -0.7033
 8073SOL    HW235853   2.790   2.731   4.974 -0.4715  0.5893 -0.4732
 8074SOL     OW35854   3.138   4.029   1.422 -0.3987 -0.0288 -0.1047
 8074SOL    HW135855   3.057   4.078   1.426 -0.9660 -0.7314 -3.1457
 8074SOL    HW235856   3.213   4.089   1.423  1.0920 -1.8729 -0.7035
 8075SOL     OW35857   1.676   2.850   8.086  0.2479 -0.8714  0.1799
 8075SOL    HW135858   1.712   2.905   8.156 -1.1414 -0.8428  0.8726
 8075SOL    HW235859   1.744   2.796   8.045  1.4260 -0.3996  1.4695
 8076SOL     OW35860   1.093   1.916  17.277  0.1463  0.1829  0.2612
 8076SOL    HW135861   1.066   1.900  17.186  1.6811  1.3580 -0.4090
 8076SOL    HW235862   1.014   1.958  17.310 -0.6890 -0.3621 -1.0285
 8077SOL     OW35863   3.949   2.663   6.236  0.2859  0.9299  0.1893
 8077SOL    HW135864   3.866   2.640   6.194  0.9922  0.1814 -0.8027
 8077SOL    HW235865   3.955   2.619   6.321 -0.4425 -0.9665 -0.7344
 8078SOL     OW35866   3.121   4.529   2.182 -0.0694 -0.1243  0.3436
 8078SOL    HW135867   3.132   4.438   2.155  2.7080  0.2980  0.0635
 8078SOL    HW235868   3.025   4.533   2.185 -0.0461  0.6635  0.1221
 8079SOL     OW35869   0.977   3.251   3.514 -0.7037  0.2031 -0.0311
 8079SOL    HW135870   0.883   3.238   3.503  0.0263 -2.7402 -2.8287
 8079SOL    HW235871   0.977   3.347   3.510 -1.7412  0.2624  1.6049
 8080SOL     OW35872   1.921   1.053   9.964 -0.5071  0.3505 -0.9971
 8080SOL    HW135873   1.861   1.124   9.987 -1.2764 -0.8690  0.7801
 8080SOL    HW235874   1.863   0.983   9.931 -0.9477  1.2102 -2.0518
 8081SOL     OW35875   0.756   0.904   2.603 -0.3786  0.2652 -0.5953
 8081SOL    HW135876   0.833   0.955   2.627 -1.2605  0.0103  2.7983
 8081SOL    HW235877   0.724   0.937   2.519  0.9101  0.1327 -1.1345
 8082SOL     OW35878   1.688   0.239   9.585 -0.0129  0.7186 -0.5308
 8082SOL    HW135879   1.716   0.319   9.542  1.0279 -0.1351 -1.4464
 8082SOL    HW235880   1.645   0.283   9.659  0.2496  0.7442 -0.3930
 8083SOL     OW35881   1.311   0.973   4.278  0.3920 -0.1102  0.3185
 8083SOL    HW135882   1.305   0.877   4.280  1.5789 -0.2199 -1.6952
 8083SOL    HW235883   1.255   0.997   4.204  1.9222 -1.0896 -1.1634
 8084SOL     OW35884   0.998   0.785   7.875  0.6556  0.3635 -0.0817
 8084SOL    HW135885   0.938   0.712   7.888  0.7254  0.4405  0.6610
 8084SOL    HW235886   1.045   0.773   7.958  0.3191  0.5605  0.1364
 8085SOL     OW35887   3.028   4.182  15.765  0.4878 -0.0408 -0.3626
 8085SOL    HW135888   3.045   4.275  15.753 -0.4073  0.2413  0.5646
 8085SOL    HW235889   3.093   4.151  15.828 -1.3979 -2.2923  0.4902
 8086SOL     OW35890   0.313   2.232   1.928  0.2190 -0.0236 -0.2669
 8086SOL    HW135891   0.357   2.299   1.980  1.7983 -0.9753 -0.3519
 8086SOL    HW235892   0.233   2.230   1.981 -0.1311  0.3081 -0.7871
 8087SOL     OW35893   0.594   2.301   7.554 -0.3002  0.1153 -0.2265
 8087SOL    HW135894   0.599   2.251   7.635  0.7683  0.5826 -0.0110
 8087SOL    HW235895   0.677   2.290   7.507  0.0167 -2.2952  0.9095
 8088SOL     OW35896   1.518   4.729   8.733 -0.1865 -0.5354 -0.5104
 8088SOL    HW135897   1.429   4.707   8.705 -1.0267  0.6649  1.2396
 8088SOL    HW235898   1.511   4.720   8.828 -1.4222 -2.0890 -0.7461
 8089SOL     OW35899   2.722   1.573  15.697 -0.2426  0.5524  0.6647
 8089SOL    HW135900   2.773   1.648  15.727 -2.1836  2.2195 -0.2486
 8089SOL    HW235901   2.646   1.605  15.649 -1.3414 -2.1009  0.6211
 8090SOL     OW35902   1.617   2.930   5.037 -0.5464 -0.0715  0.2191
 8090SOL    HW135903   1.568   2.937   4.955 -0.9345 -0.0564  0.4526
 8090SOL    HW235904   1.704   2.916   4.999 -2.1252 -2.9929 -2.2785
 8091SOL     OW35905   3.216   3.405   2.858 -0.5118 -0.0847 -0.1202
 8091SOL    HW135906   3.289   3.367   2.906  1.6268  3.4133 -0.5922
 8091SOL    HW235907   3.146   3.403   2.924 -1.2807  0.8061 -0.9132
 8092SOL     OW35908   2.405   0.054   2.386 -0.1821  0.1663 -0.4062
 8092SOL    HW135909   2.326   0.000   2.389 -0.6835  0.8694 -0.8972
 8092SOL    HW235910   2.369   0.135   2.349 -1.2491 -0.3556 -0.4995
 8093SOL     OW35911   0.599   1.909   1.613 -0.0421  0.1382  0.0679
 8093SOL    HW135912   0.547   1.946   1.685 -0.3562  1.1934 -0.7041
 8093SOL    HW235913   0.622   1.988   1.564  0.7746  1.7547  3.0002
 8094SOL     OW35914   4.516   0.240   3.841  0.2980  0.2108  0.3280
 8094SOL    HW135915   4.422   0.223   3.833  0.8696 -3.2317  0.6446
 8094SOL    HW235916   4.530   0.296   3.765 -0.4068  2.5456  1.9340
 8095SOL     OW35917   2.167   1.894   4.743  0.0982 -0.0075 -0.0853
 8095SOL    HW135918   2.130   1.875   4.657  2.7966  2.6453 -1.8276
 8095SOL    HW235919   2.108   1.834   4.790 -0.4372  1.2405  0.8502
 8096SOL     OW35920   2.843   2.964   1.761  0.1119  0.2510  0.4163
 8096SOL    HW135921   2.760   2.959   1.809 -0.0539 -4.5596 -0.3676
 8096SOL    HW235922   2.860   3.057   1.775  0.9103  0.2132 -0.3105
 8097SOL     OW35923   1.696   2.597   3.484 -0.3472  0.4698  0.2436
 8097SOL    HW135924   1.638   2.651   3.538  1.0137  0.8416  1.3383
 8097SOL    HW235925   1.680   2.514   3.529 -1.5844  1.3680  1.4844
 8098SOL     OW35926   3.233   2.714   0.283 -0.0211  0.0967 -0.2928
 8098SOL    HW135927   3.158   2.773   0.291 -0.8888 -0.9732 -0.5931
 8098SOL    HW235928   3.259   2.713   0.375  0.7636  2.0045 -0.4836
 8099SOL     OW35929   0.846   2.020   3.823 -0.2679 -0.1252  0.0952
 8099SOL    HW135930   0.864   2.061   3.738  0.0164  0.8619  0.6274
 8099SOL    HW235931   0.911   2.073   3.869 -0.7824 -0.4338  1.1645
 8100SOL     OW35932   0.231   3.767   5.501 -0.3716 -0.1378 -0.2389
 8100SOL    HW135933   0.180   3.848   5.493  2.5672  1.8806  1.5653
 8100SOL    HW235934   0.250   3.742   5.410  2.2572 -2.2800  0.9066
 8101SOL     OW35935   0.935   4.051   9.363  0.0385 -0.2694  0.5583
 8101SOL    HW135936   0.866   4.036   9.299 -0.9630 -0.1483  1.5987
 8101SOL    HW235937   1.007   4.002   9.324 -0.0414  0.3197 -0.3262
 8102SOL     OW35938   4.292   4.277   6.971  0.0471 -0.0236 -0.2051
 8102SOL    HW135939   4.332   4.198   6.932 -0.9262 -0.1280 -1.0149
 8102SOL    HW235940   4.265   4.243   7.056 -0.2378 -1.5978 -0.9065
 8103SOL     OW35941   3.814   2.961  17.048  0.3614 -0.7736  0.2483
 8103SOL    HW135942   3.764   2.984  17.127  1.7001 -0.0475  0.8871
 8103SOL    HW235943   3.836   2.869  17.061 -1.0574 -1.2014 -0.3690
 8104SOL     OW35944   4.175   0.124   6.462 -0.5297 -0.3980 -0.8126
 8104SOL    HW135945   4.202   0.214   6.479  0.7841 -0.6162 -1.6907
 8104SOL    HW235946   4.111   0.137   6.393 -0.8174 -0.8656 -0.6359
 8105SOL     OW35947   1.711   0.492  13.285  0.2111  0.2399 -0.1129
 8105SOL    HW135948   1.636   0.450  13.326 -0.7522  1.4462 -0.6134
 8105SOL    HW235949   1.734   0.571  13.335  0.7219 -0.5315  0.8651
 8106SOL     OW35950   4.233   1.778  14.035  0.6066 -0.0765 -0.2746
 8106SOL    HW135951   4.199   1.867  14.047  2.7598  0.5773  0.9641
 8106SOL    HW235952   4.239   1.757  14.128 -0.7839 -1.4166 -0.4853
 8107SOL     OW35953   2.354   2.766   6.016 -0.4154  0.0193 -0.5482
 8107SOL    HW135954   2.401   2.685   5.998  0.8682  0.7787 -0.6509
 8107SOL    HW235955   2.362   2.807   5.930 -0.8967  2.5252  0.6092
 8108SOL     OW35956   3.251   3.349   0.763 -0.0542  0.5209  0.3338
 8108SOL    HW135957   3.158   3.349   0.784 -0.2145  1.4481 -0.3963
 8108SOL    HW235958   3.277   3.274   0.817 -0.5683 -0.1485 -0.3363
 8109SOL     OW35959   3.305   2.843   8.045  0.4431  0.0424 -0.5855
 8109SOL    HW135960   3.245   2.791   8.098 -0.7432  1.2127 -0.7986
 8109SOL    HW235961   3.338   2.780   7.981  0.1864  0.1566 -0.8276
 8110SOL     OW35962   1.415   4.517  16.822  0.2021 -0.2517  0.0667
 8110SOL    HW135963   1.384   4.446  16.767 -2.1112  0.2311  0.7757
 8110SOL    HW235964   1.344   4.580  16.823  0.8127  0.4845 -2.7752
 8111SOL     OW35965   1.794   0.668  12.487  0.0541 -0.5966  0.2587
 8111SOL    HW135966   1.767   0.635  12.402 -2.1095  1.5142  0.1020
 8111SOL    HW235967   1.712   0.695  12.529 -0.2566  1.7269 -1.8316
 8112SOL     OW35968   4.048   0.323   1.706  0.5670 -0.5372 -0.3857
 8112SOL    HW135969   4.109   0.272   1.758 -1.8204 -1.2572  1.7215
 8112SOL    HW235970   3.966   0.306   1.753  0.5687 -1.4758 -0.7208
 8113SOL     OW35971   3.710   3.622   1.347 -0.4955  0.6438 -0.0487
 8113SOL    HW135972   3.695   3.555   1.280  1.6784  0.3410 -0.2396
 8113SOL    HW235973   3.795   3.591   1.379  0.6173  0.7326 -2.9165
 8114SOL     OW35974   0.773   0.227   6.889  0.4759 -0.2419 -0.1456
 8114SOL    HW135975   0.809   0.141   6.869  2.0057  0.4367 -0.3372
 8114SOL    HW235976   0.715   0.238   6.813  1.2905 -1.7021 -0.9898
 8115SOL     OW35977   1.639   3.525  11.461  0.9084  0.3536  0.0208
 8115SOL    HW135978   1.633   3.567  11.546 -0.0228  1.4504 -0.5791
 8115SOL    HW235979   1.584   3.587  11.412 -1.4588 -1.1300  0.8014
 8116SOL     OW35980   1.004   1.216  10.080 -0.6039 -0.2610  0.1851
 8116SOL    HW135981   1.020   1.184   9.991  1.4479 -0.5253  0.6531
 8116SOL    HW235982   0.946   1.150  10.117 -0.9481 -0.6747 -1.1084
 8117SOL     OW35983   2.774   1.307   6.286  0.4459 -0.0082 -0.1218
 8117SOL    HW135984   2.824   1.275   6.211  0.6908  1.5899 -0.6380
 8117SOL    HW235985   2.849   1.343   6.334 -0.8413  0.7157  1.3410
 8118SOL     OW35986   0.528   0.043  13.602 -0.0173  0.2926 -0.4237
 8118SOL    HW135987   0.475   0.044  13.523  0.2064 -2.5990 -0.6091
 8118SOL    HW235988   0.463   0.094  13.651 -0.2967  0.6361 -1.1505
 8119SOL     OW35989   2.523   3.632   7.650 -0.3140  0.2759 -0.1003
 8119SOL    HW135990   2.507   3.682   7.570  0.0759  0.7062  0.0847
 8119SOL    HW235991   2.438   3.612   7.688  0.4257 -0.7875  1.0022
 8120SOL     OW35992   3.604   3.654   5.398  0.4131  0.0012  0.3799
 8120SOL    HW135993   3.561   3.659   5.483  3.0539  2.1684  1.6190
 8120SOL    HW235994   3.554   3.713   5.341  1.0027 -0.9247 -1.0949
 8121SOL     OW35995   0.610   4.118   6.370  0.3394  0.0464 -0.3824
 8121SOL    HW135996   0.579   4.155   6.452  3.2298 -1.8130  1.5431
 8121SOL    HW235997   0.702   4.112   6.397  0.0300 -1.2457  0.3413
 8122SOL     OW35998   1.346   4.053   3.516  0.6607  0.0095 -0.0231
 8122SOL    HW135999   1.433   4.082   3.541  0.0615  0.2247  1.8680
 8122SOL    HW236000   1.335   4.112   3.442  1.2851  1.6217  1.1573
 8123SOL     OW36001   4.578   3.292  14.928  0.3279 -0.2738  0.2158
 8123SOL    HW136002   4.580   3.199  14.908  0.6713  0.2311 -2.1165
 8123SOL    HW236003   4.549   3.286  15.019 -0.2979  1.0000  0.1062
 8124SOL     OW36004   2.529   0.391   5.627 -0.4481  0.2536  0.0891
 8124SOL    HW136005   2.450   0.354   5.587 -0.4490  1.8568 -1.3989
 8124SOL    HW236006   2.523   0.354   5.715 -2.2301  1.9588  0.6736
 8125SOL     OW36007   3.425   2.759   3.741  0.8537  0.1731 -0.3635
 8125SOL    HW136008   3.424   2.676   3.694 -0.1628 -0.2704  0.4323
 8125SOL    HW236009   3.493   2.743   3.807 -0.0080  0.7793  0.6765
 8126SOL     OW36010   0.784   1.580   2.490 -0.1507 -0.5360  0.7454
 8126SOL    HW136011   0.774   1.660   2.437  0.5013 -0.1270  1.2314
 8126SOL    HW236012   0.700   1.575   2.534  0.1432 -2.0424  1.1250
 8127SOL     OW36013   2.744   0.716   6.701  0.3703  0.0030 -0.3127
 8127SOL    HW136014   2.829   0.702   6.743 -0.3615 -0.2471  1.0970
 8127SOL    HW236015   2.694   0.638   6.726  1.6216 -0.4455  0.7784
 8128SOL     OW36016   1.068   2.788   0.407  0.3915 -0.6826  0.3129
 8128SOL    HW136017   1.091   2.749   0.323  1.0783 -0.7143  0.5096
 8128SOL    HW236018   1.010   2.856   0.375 -0.3042 -1.6439 -0.4752
 8129SOL     OW36019   3.533   4.496   2.465 -0.0041  0.0420  0.3441
 8129SOL    HW136020   3.482   4.550   2.403 -1.6848 -0.3748  1.3748
 8129SOL    HW236021   3.549   4.413   2.420 -0.9622 -0.2297  0.5002
 8130SOL     OW36022   0.638   2.828   6.179  0.1421  0.5488 -0.0846
 8130SOL    HW136023   0.686   2.786   6.107 -0.5645  1.3083 -1.0018
 8130SOL    HW236024   0.654   2.920   6.159  2.7982  0.1721  0.3533
 8131SOL     OW36025   4.115   3.386   6.020  0.3580 -0.1182  0.3104
 8131SOL    HW136026   4.031   3.429   6.006 -0.5179 -1.2081  2.0787
 8131SOL    HW236027   4.086   3.296   6.003  0.3519  0.1734 -1.1583
 8132SOL     OW36028   2.827   1.300   5.681 -0.1449 -0.3307 -0.4823
 8132SOL    HW136029   2.812   1.334   5.769 -1.4550 -0.2287 -0.7432
 8132SOL    HW236030   2.906   1.251   5.704  0.7094  1.3842  0.2913
 8133SOL     OW36031   3.228   1.233   8.803  0.4794  0.3070 -0.3861
 8133SOL    HW136032   3.290   1.274   8.863 -0.3331 -0.0337  0.6767
 8133SOL    HW236033   3.143   1.220   8.844  1.1087 -0.7441  0.5736
 8134SOL     OW36034   1.823   0.832   2.815 -0.2249 -0.4439  0.1421
 8134SOL    HW136035   1.816   0.756   2.872  1.4515 -0.8180 -0.1663
 8134SOL    HW236036   1.745   0.884   2.837  2.2287  2.8055  1.1343
 8135SOL     OW36037   3.715   1.043  12.866 -0.2619 -0.3573  0.0713
 8135SOL    HW136038   3.683   1.049  12.776  0.3283 -1.0190 -0.1769
 8135SOL    HW236039   3.767   1.123  12.855 -1.0284  0.3545  1.6441
 8136SOL     OW36040   4.161   2.688   4.637 -0.1113 -0.4589 -0.0429
 8136SOL    HW136041   4.118   2.773   4.652 -2.3312 -2.2461  3.7812
 8136SOL    HW236042   4.252   2.718   4.636 -0.1799 -0.2320  0.4668
 8137SOL     OW36043   3.219   1.900   3.434 -0.6088  0.0364  0.2829
 8137SOL    HW136044   3.293   1.874   3.489 -0.8375 -0.4736  0.3514
 8137SOL    HW236045   3.262   1.912   3.349  1.3257 -1.5240  1.0157
 8138SOL     OW36046   0.796   0.977   2.312  0.3038 -1.0023 -1.0357
 8138SOL    HW136047   0.884   0.985   2.273  0.4167 -1.2272 -0.8227
 8138SOL    HW236048   0.787   1.070   2.334  1.0084 -1.0633 -0.4740
 8139SOL     OW36049   0.287   1.550   4.871 -0.1277  0.2525  0.1541
 8139SOL    HW136050   0.198   1.517   4.885  0.4727 -0.9455  1.0882
 8139SOL    HW236051   0.318   1.556   4.961  0.9954  0.9877 -0.2710
 8140SOL     OW36052   3.681   2.573   8.157 -0.2315 -0.8738 -0.8475
 8140SOL    HW136053   3.596   2.615   8.172 -0.3076 -0.6527 -1.9443
 8140SOL    HW236054   3.650   2.514   8.089  1.1888  0.3109 -2.5144
 8141SOL     OW36055   1.473   0.857   6.685 -0.0141 -0.0671 -0.0599
 8141SOL    HW136056   1.476   0.951   6.700  0.5478 -0.5167  2.7612
 8141SOL    HW236057   1.378   0.849   6.679 -0.2489  0.7289  2.4552
 8142SOL     OW36058   3.787   1.934   5.071 -0.3932  0.9038 -0.0686
 8142SOL    HW136059   3.874   1.895   5.061 -1.2233 -0.5547 -1.6302
 8142SOL    HW236060   3.795   1.974   5.158  1.5225  2.0428 -0.7576
 8143SOL     OW36061   0.813   1.367  10.475 -0.2313  0.4215 -0.3148
 8143SOL    HW136062   0.827   1.296  10.413 -1.0487  0.1798 -0.2150
 8143SOL    HW236063   0.791   1.309  10.548  2.4076  0.4583  0.5503
 8144SOL     OW36064   4.524   2.301   2.083 -0.1843  0.1667  0.5914
 8144SOL    HW136065   4.540   2.207   2.074 -1.1715  0.0416  0.2209
 8144SOL    HW236066   4.432   2.292   2.110 -0.7114  2.5845 -0.4765
 8145SOL     OW36067   0.272   0.954   5.527 -0.8522 -0.4434  0.4759
 8145SOL    HW136068   0.180   0.930   5.525 -1.1464  0.8229 -0.8549
 8145SOL    HW236069   0.279   0.996   5.613 -0.5267  1.1399 -0.3192
 8146SOL     OW36070   2.422   0.743   6.126  0.2274  0.4977  0.1279
 8146SOL    HW136071   2.354   0.753   6.193  0.1752  0.1631  0.1267
 8146SOL    HW236072   2.500   0.720   6.176  0.4350 -3.1948 -1.8806
 8147SOL     OW36073   0.881   4.339   3.151 -0.0018  0.0555  0.0312
 8147SOL    HW136074   0.833   4.417   3.124  2.1978  1.2725 -0.2956
 8147SOL    HW236075   0.968   4.355   3.113  0.2218 -1.7190 -0.1994
 8148SOL     OW36076   3.618   4.335  15.812 -0.3559 -0.2100 -0.4508
 8148SOL    HW136077   3.626   4.253  15.861  0.6068 -0.4283 -0.9830
 8148SOL    HW236078   3.645   4.397  15.880  0.2977  1.0669 -1.8890
 8149SOL     OW36079   3.774   0.443   2.903  0.0154 -0.0628 -0.0007
 8149SOL    HW136080   3.728   0.527   2.898 -0.2495 -0.1998  0.0934
 8149SOL    HW236081   3.853   0.481   2.865 -0.7535  0.3761 -1.1660
 8150SOL     OW36082   0.664   0.132   6.420 -0.0734 -0.5424 -0.1840
 8150SOL    HW136083   0.706   0.046   6.420  0.1007 -0.4552 -2.3770
 8150SOL    HW236084   0.667   0.149   6.326  1.8785 -1.3072 -0.2692
 8151SOL     OW36085   1.626   0.874   2.106 -0.1156  0.2375  0.3030
 8151SOL    HW136086   1.629   0.953   2.052  1.9341 -0.3323 -0.4284
 8151SOL    HW236087   1.617   0.915   2.192  2.9206  1.8622 -0.1636
 8152SOL     OW36088   3.181   2.776  14.178  0.5774 -0.1811 -0.1097
 8152SOL    HW136089   3.268   2.737  14.191  0.2718 -0.3802  1.3752
 8152SOL    HW236090   3.216   2.854  14.136  1.6723 -0.1119  0.9254
 8153SOL     OW36091   3.620   3.056  16.444  0.0583  0.4056  0.1712
 8153SOL    HW136092   3.569   3.085  16.519 -0.7209  0.2329 -0.2787
 8153SOL    HW236093   3.649   3.140  16.409  0.0331  0.2147 -0.3098
 8154SOL     OW36094   0.730   4.706  12.340  0.0052  0.2156  0.1641
 8154SOL    HW136095   0.639   4.716  12.369 -0.6615 -0.3513 -1.7228
 8154SOL    HW236096   0.743   4.615  12.363  0.7596  0.8213  2.1406
 8155SOL     OW36097   0.233   3.687   5.225  0.0449  0.1095  0.1433
 8155SOL    HW136098   0.241   3.754   5.157 -1.4785 -0.3520 -0.4958
 8155SOL    HW236099   0.171   3.619   5.197 -0.3236  0.7774 -0.6704
 8156SOL     OW36100   3.009   2.250   6.770  0.1314 -0.2543 -0.7427
 8156SOL    HW136101   2.959   2.287   6.843  1.0317  2.5256 -1.5430
 8156SOL    HW236102   3.093   2.292   6.783  1.2412 -2.2210 -1.5936
 8157SOL     OW36103   3.906   2.703  10.856 -0.1374  0.1116 -0.7121
 8157SOL    HW136104   3.858   2.748  10.925 -0.2227 -1.2743  0.1342
 8157SOL    HW236105   3.982   2.677  10.908 -0.6637 -1.2840 -0.6382
 8158SOL     OW36106   1.876   0.950   1.163 -0.1793 -0.0576 -0.1534
 8158SOL    HW136107   1.869   1.042   1.188 -2.3113 -0.2801  0.0496
 8158SOL    HW236108   1.789   0.915   1.182 -0.6730  0.2522 -1.8337
 8159SOL     OW36109   0.453   4.712  12.691 -0.0221  0.0894  0.5242
 8159SOL    HW136110   0.545   4.733  12.705 -0.1580 -0.5829  2.4321
 8159SOL    HW236111   0.449   4.720  12.596 -1.9254  1.3719  0.7062
 8160SOL     OW36112   4.119   1.515   8.164  0.0281 -0.8790 -0.3969
 8160SOL    HW136113   4.071   1.597   8.154  0.1579 -0.9904 -1.8718
 8160SOL    HW236114   4.208   1.540   8.139  0.3412 -2.5515 -0.9627
 8161SOL     OW36115   4.545   0.329   7.443  0.1126 -0.7012 -0.3337
 8161SOL    HW136116   4.600   0.322   7.365  0.2399 -1.3396 -0.1862
 8161SOL    HW236117   4.517   0.417   7.419 -0.3269 -0.6856  0.2533
 8162SOL     OW36118   1.481   2.193  11.712  0.7979 -0.3492  0.2348
 8162SOL    HW136119   1.551   2.137  11.677  0.4191 -0.3557 -0.5139
 8162SOL    HW236120   1.442   2.121  11.763 -1.5898  1.5742  1.1012
 8163SOL     OW36121   3.751   0.067   2.499  0.8282 -0.0411  0.2577
 8163SOL    HW136122   3.768   0.105   2.585 -1.1252  0.6927  0.3201
 8163SOL    HW236123   3.711   0.133   2.442  0.6134  0.0144  0.4723
 8164SOL     OW36124   3.019   1.435   6.385 -0.4275 -0.2972 -0.1773
 8164SOL    HW136125   3.095   1.412   6.438 -1.2802 -3.8704 -0.4954
 8164SOL    HW236126   2.958   1.472   6.448  0.6181 -1.3992  1.4899
 8165SOL     OW36127   3.340   3.767   6.610 -0.0965 -0.3238  0.1485
 8165SOL    HW136128   3.352   3.768   6.705  1.5282  0.1976 -0.0607
 8165SOL    HW236129   3.420   3.723   6.580  0.7168  0.0906  1.6971
 8166SOL     OW36130   4.476   2.508   4.128 -0.2836 -0.5974  0.0708
 8166SOL    HW136131   4.485   2.591   4.175 -0.1916 -0.4584 -0.1974
 8166SOL    HW236132   4.504   2.534   4.040 -0.5004 -1.3718 -0.2221
 8167SOL     OW36133   2.978   1.972   2.003  0.0629  0.7660 -0.1016
 8167SOL    HW136134   2.890   1.949   1.971  0.0454  1.3466 -0.4702
 8167SOL    HW236135   2.949   2.026   2.076  0.3904  0.9546 -0.1104
 8168SOL     OW36136   3.795   2.272   5.158 -0.2817  0.5163 -0.4049
 8168SOL    HW136137   3.839   2.356   5.172  2.0454 -0.6065 -0.9331
 8168SOL    HW236138   3.839   2.224   5.228  1.1932  1.1641 -0.8840
 8169SOL     OW36139   1.770   3.037  17.434 -0.5647 -0.0485 -0.8555
 8169SOL    HW136140   1.712   3.015  17.507  0.3146  0.2748 -0.0579
 8169SOL    HW236141   1.741   2.970  17.372  0.7777 -1.2204 -0.2142
 8170SOL     OW36142   0.940   3.657   4.534  0.2010 -0.4510 -0.0635
 8170SOL    HW136143   0.985   3.635   4.616 -0.1837  0.9453  0.5267
 8170SOL    HW236144   0.974   3.612   4.457  3.1235  0.0612  0.9492
 8171SOL     OW36145   0.313   4.533   7.664 -0.6276  0.2364  0.4077
 8171SOL    HW136146   0.223   4.519   7.696  0.7267 -3.6761  2.4959
 8171SOL    HW236147   0.357   4.449   7.675  1.8462  1.2345 -1.8182
 8172SOL     OW36148   0.000   1.887   5.957  0.0271 -0.4135 -0.1365
 8172SOL    HW136149   4.661   1.836   5.992 -0.7907  0.3326 -0.7612
 8172SOL    HW236150   4.694   1.929   5.882  0.6004 -2.0537 -1.3487
 8173SOL     OW36151   4.454   3.009   4.938 -0.2475  0.0483 -0.0831
 8173SOL    HW136152   4.457   2.933   4.995  2.5981 -0.5477 -1.0113
 8173SOL    HW236153   4.365   3.002   4.905 -0.7070  1.0667  0.9662
 8174SOL     OW36154   1.336   1.455  13.415  0.2141 -0.0393  0.1045
 8174SOL    HW136155   1.319   1.375  13.466 -1.5043  0.5315  0.4425
 8174SOL    HW236156   1.416   1.427  13.369  1.0786 -0.5544  1.9315
 8175SOL     OW36157   1.354   1.360   1.054 -0.0263  0.0268 -0.4037
 8175SOL    HW136158   1.313   1.445   1.069 -4.0972 -1.7512 -1.3701
 8175SOL    HW236159   1.418   1.369   1.125 -2.3265 -1.8568  1.8754
 8176SOL     OW36160   3.279   3.907   7.428 -0.0900  0.2712 -0.1579
 8176SOL    HW136161   3.231   3.841   7.478  1.0655 -0.6618 -0.2853
 8176SOL    HW236162   3.209   3.940   7.372 -1.5681 -1.9789  0.3685
 8177SOL     OW36163   1.651   3.606   6.992 -0.1669  0.9902  0.1740
 8177SOL    HW136164   1.591   3.677   6.971 -0.6236  0.6254  0.2349
 8177SOL    HW236165   1.722   3.624   7.053 -1.0723  0.6835  1.3219
 8178SOL     OW36166   4.538   1.734   1.805  0.1327 -0.4106 -0.8145
 8178SOL    HW136167   4.518   1.666   1.870 -1.6962  1.2859  0.3925
 8178SOL    HW236168   4.460   1.756   1.754 -0.6999 -0.8450  0.2586
 8179SOL     OW36169   2.603   2.904   1.901 -0.0767 -0.5304  0.8745
 8179SOL    HW136170   2.516   2.891   1.938  0.3499  0.2510  2.1619
 8179SOL    HW236171   2.581   2.873   1.813  3.4719 -2.0357  0.5047
 8180SOL     OW36172   2.755   4.592   3.075  0.3622  0.0631 -0.0728
 8180SOL    HW136173   2.730   4.569   2.986  0.3299 -0.8806  0.1764
 8180SOL    HW236174   2.679   4.553   3.119 -0.2644  1.7086  0.3188
 8181SOL     OW36175   2.674   2.050   2.286  0.4829 -0.0815 -0.5077
 8181SOL    HW136176   2.579   2.048   2.299  0.5105 -1.7296 -0.4672
 8181SOL    HW236177   2.672   2.141   2.314 -1.1750  0.1701 -1.4161
 8182SOL     OW36178   0.064   1.391   1.135 -0.0560  0.1401  0.5156
 8182SOL    HW136179   0.060   1.296   1.142  0.2642 -0.0092 -1.3169
 8182SOL    HW236180   4.727   1.402   1.072 -0.1618 -0.1796  0.5827
 8183SOL     OW36181   0.947   2.066   4.819  0.1151 -0.3162  0.2010
 8183SOL    HW136182   0.893   1.992   4.792 -3.0840  1.5209  1.5189
 8183SOL    HW236183   0.981   2.031   4.901 -2.6253 -0.1741  1.4124
 8184SOL     OW36184   0.100   2.202  14.545  0.3365  0.5170 -0.0995
 8184SOL    HW136185   0.149   2.123  14.570 -0.1850  0.3148  0.2866
 8184SOL    HW236186   0.095   2.177  14.453 -1.7716 -1.5383  0.5784
 8185SOL     OW36187   2.630   2.197   9.445 -0.1712 -0.1949 -0.3467
 8185SOL    HW136188   2.641   2.286   9.478 -3.4515  0.1452 -0.2280
 8185SOL    HW236189   2.576   2.210   9.367 -2.3298 -0.3023  1.1439
 8186SOL     OW36190   3.443   1.418   6.104 -0.1503 -0.1528  0.0814
 8186SOL    HW136191   3.502   1.370   6.162  0.7549  0.6488 -0.1624
 8186SOL    HW236192   3.503   1.447   6.034  0.5810  0.3806  0.9212
 8187SOL     OW36193   2.155   1.790   7.999 -0.3463 -0.6985 -0.0553
 8187SOL    HW136194   2.175   1.858   7.934  1.9416 -0.5675  0.7967
 8187SOL    HW236195   2.243   1.778   8.034 -0.1161  1.6106  0.1731
 8188SOL     OW36196   1.819   0.612   7.548  0.2722 -0.2804 -0.0612
 8188SOL    HW136197   1.828   0.706   7.562  0.1071 -0.5106  1.6007
 8188SOL    HW236198   1.759   0.586   7.618  0.0559  3.8748  1.2803
 8189SOL     OW36199   4.291   1.371   6.050 -0.0405 -0.0284 -0.2397
 8189SOL    HW136200   4.295   1.278   6.029  0.2171 -0.1210  0.2098
 8189SOL    HW236201   4.251   1.402   5.969  0.9869  2.4919  0.2118
 8190SOL     OW36202   4.531   0.070   8.467  0.1849  0.3768  0.5189
 8190SOL    HW136203   4.505   0.124   8.542  0.4120  0.4266  0.5617
 8190SOL    HW236204   4.523   0.133   8.396  2.1063 -0.6775 -0.6544
 8191SOL     OW36205   2.709   1.349  15.903 -0.3916  0.4912 -0.3011
 8191SOL    HW136206   2.768   1.294  15.852  1.3058  0.5162  1.5881
 8191SOL    HW236207   2.717   1.425  15.846 -1.5923  0.7658 -0.1017
 8192SOL     OW36208   3.983   0.523  16.149  0.0870 -0.6154  0.2308
 8192SOL    HW136209   3.981   0.566  16.064 -1.5951 -0.2553  0.4383
 8192SOL    HW236210   4.006   0.433  16.126  2.3873 -0.1478  0.7028
 8193SOL     OW36211   1.500   2.483   6.260 -0.1904  0.3619 -0.0489
 8193SOL    HW136212   1.563   2.555   6.255  0.9782 -0.7850 -2.0585
 8193SOL    HW236213   1.519   2.442   6.344 -2.0986 -2.4239 -0.9770
 8194SOL     OW36214   2.425   3.230   5.260  0.4563  0.0574 -0.4578
 8194SOL    HW136215   2.519   3.247   5.252  0.7082 -2.1544 -2.1909
 8194SOL    HW236216   2.423   3.134   5.271 -0.4862  0.0841 -0.4398
 8195SOL     OW36217   2.967   2.567   5.270 -0.6836  0.1100  0.3024
 8195SOL    HW136218   3.005   2.616   5.197  0.7900  0.1772  1.1164
 8195SOL    HW236219   2.902   2.517   5.220  0.0800 -1.9072  1.3359
 8196SOL     OW36220   3.222   4.130   7.946  0.8810 -0.2132  0.5729
 8196SOL    HW136221   3.258   4.165   8.027 -0.8158 -0.0104  1.2341
 8196SOL    HW236222   3.270   4.047   7.939  1.3775  0.1552 -0.3426
 8197SOL     OW36223   4.370   0.338   6.407  0.4913 -0.1628  0.2125
 8197SOL    HW136224   4.302   0.360   6.471 -1.2181  0.5961 -1.8432
 8197SOL    HW236225   4.319   0.344   6.326 -0.2587 -0.0169  0.6948
 8198SOL     OW36226   0.002   0.247   2.932  0.1746  0.0240 -0.2300
 8198SOL    HW136227   4.652   0.250   2.978  0.3309 -0.2219  0.0742
 8198SOL    HW236228   0.027   0.339   2.930  0.0672  0.0853  1.3556
 8199SOL     OW36229   4.260   1.485   3.183  0.4584  0.1032 -0.1078
 8199SOL    HW136230   4.212   1.487   3.100 -0.5318  4.5431  0.5749
 8199SOL    HW236231   4.274   1.576   3.209  0.9771  0.0636 -0.2557
 8200SOL     OW36232   1.257   4.063   4.971 -0.3619  0.6996 -0.0704
 8200SOL    HW136233   1.276   4.020   4.888 -2.4120  0.7099 -0.5382
 8200SOL    HW236234   1.260   3.984   5.026  0.3413 -0.9221 -2.4137
 8201SOL     OW36235   3.520   3.249   8.794  0.2158  0.3714 -0.3208
 8201SOL    HW136236   3.538   3.342   8.807 -0.9689  0.7224 -1.1610
 8201SOL    HW236237   3.428   3.240   8.820 -0.1359 -0.3548 -1.7503
 8202SOL     OW36238   4.113   2.050   7.022 -0.2078 -0.2920 -0.1196
 8202SOL    HW136239   4.136   2.018   7.110  1.3515 -1.0292 -0.7941
 8202SOL    HW236240   4.195   2.036   6.975  0.1152  0.3736  0.2468
 8203SOL     OW36241   3.247   4.244  12.447 -0.2294  0.1127 -0.0680
 8203SOL    HW136242   3.213   4.154  12.441 -0.7219  0.3775 -1.2573
 8203SOL    HW236243   3.198   4.260  12.527  0.0342  1.3927 -0.1669
 8204SOL     OW36244   0.966   3.319   8.416 -0.1311 -0.1734 -0.4725
 8204SOL    HW136245   0.886   3.320   8.363 -0.3813 -1.5072 -0.1010
 8204SOL    HW236246   0.950   3.253   8.483  0.2010  0.0541 -0.1664
 8205SOL     OW36247   3.878   2.951   4.435 -0.2949  0.8067  0.8479
 8205SOL    HW136248   3.827   2.873   4.413  1.0409  0.4904 -1.1499
 8205SOL    HW236249   3.816   3.022   4.451 -0.3679  1.0265 -0.3934
 8206SOL     OW36250   3.074   0.649  12.697  0.5242 -0.5499  0.0023
 8206SOL    HW136251   2.992   0.698  12.687 -0.1078 -1.3979  0.9766
 8206SOL    HW236252   3.042   0.559  12.706 -0.1382 -0.1991  1.1635
 8207SOL     OW36253   2.015   4.060   5.639 -0.2408 -0.2071 -0.2163
 8207SOL    HW136254   2.035   3.967   5.636 -2.1730 -0.6658  1.2354
 8207SOL    HW236255   2.097   4.102   5.614 -1.5234  0.9960 -2.4197
 8208SOL     OW36256   2.252   4.118   0.153  0.4502 -0.5042 -0.2046
 8208SOL    HW136257   2.249   4.102   0.247  0.4326 -0.6409 -0.2278
 8208SOL    HW236258   2.190   4.189   0.135 -0.0035 -0.8407  0.0205
 8209SOL     OW36259   0.181   2.475  16.315  0.0076 -0.0646  0.4302
 8209SOL    HW136260   0.218   2.442  16.233 -0.4437  0.0856  0.1641
 8209SOL    HW236261   0.126   2.546  16.283  1.4528 -0.5408 -3.1091
 8210SOL     OW36262   3.169   1.135   9.152  0.3657  0.4283 -0.0367
 8210SOL    HW136263   3.191   1.121   9.245  1.4188  1.6840 -0.1047
 8210SOL    HW236264   3.246   1.099   9.108 -0.0846  0.5782 -0.9459
 8211SOL     OW36265   0.620   4.154  15.821  0.3728 -0.1867 -0.2515
 8211SOL    HW136266   0.569   4.098  15.762 -0.5909  0.1144  0.2907
 8211SOL    HW236267   0.590   4.115  15.903  2.3557 -0.0847  0.5102
 8212SOL     OW36268   0.750   3.132   5.942 -0.6891 -0.6026  0.1922
 8212SOL    HW136269   0.843   3.114   5.926  0.3388  3.1314  1.7317
 8212SOL    HW236270   0.715   3.064   5.885 -0.4096  0.8952 -1.7852
 8213SOL     OW36271   4.681   4.286   6.444 -0.2391  0.6444 -0.3562
 8213SOL    HW136272   4.608   4.347   6.455 -0.7446 -0.3608  1.8285
 8213SOL    HW236273   0.001   4.335   6.382 -0.1905  2.0074  0.7684
 8214SOL     OW36274   2.307   3.221   6.202  0.4572  0.6072  0.0135
 8214SOL    HW136275   2.225   3.207   6.249  0.5653 -0.5378 -0.1370
 8214SOL    HW236276   2.336   3.133   6.180 -0.8836  1.1136 -3.7687
 8215SOL     OW36277   4.195   0.548  13.802  0.2374  0.4943  0.1782
 8215SOL    HW136278   4.157   0.555  13.890  0.9623 -0.0724  0.5345
 8215SOL    HW236279   4.123   0.585  13.752 -0.0994  1.4695  1.3603
 8216SOL     OW36280   0.970   3.013   0.234 -0.1081 -0.4289 -0.1060
 8216SOL    HW136281   1.008   3.101   0.224 -3.0492  1.0360  1.8157
 8216SOL    HW236282   0.897   3.006   0.173  0.8899 -0.3872 -1.3133
 8217SOL     OW36283   2.270   1.962   6.895  0.1864  0.1372 -0.8471
 8217SOL    HW136284   2.327   2.027   6.854  3.1547 -0.0153  3.0174
 8217SOL    HW236285   2.338   1.895   6.896 -2.0944 -2.1767 -1.3861
 8218SOL     OW36286   3.226   1.392   5.245 -0.8430 -0.4321 -0.2280
 8218SOL    HW136287   3.300   1.356   5.294 -2.1156  0.1513  2.1294
 8218SOL    HW236288   3.273   1.443   5.180 -3.9043 -0.3714 -2.4072
 8219SOL     OW36289   2.392   1.659   8.529  0.7401 -0.3268 -0.3982
 8219SOL    HW136290   2.358   1.733   8.579 -0.8311 -1.3316  0.0118
 8219SOL    HW236291   2.340   1.586   8.562  2.6564 -0.0935  3.0690
 8220SOL     OW36292   3.117   3.216  17.143 -0.3627  0.3237  0.1406
 8220SOL    HW136293   3.116   3.141  17.084 -2.9398 -0.4610  1.1871
 8220SOL    HW236294   3.036   3.194  17.189 -0.5343  1.1075  0.2155
 8221SOL     OW36295   4.388   2.945   8.569 -0.2562  0.1691 -0.2844
 8221SOL    HW136296   4.352   3.032   8.553 -0.5512  0.4374  1.9275
 8221SOL    HW236297   4.315   2.898   8.609  0.1152 -0.3437 -0.2122
 8222SOL     OW36298   0.977   3.768   9.634 -0.1357  0.4612 -0.2344
 8222SOL    HW136299   1.036   3.753   9.560  0.8768 -0.3116  0.7248
 8222SOL    HW236300   1.016   3.842   9.681  0.7812 -0.7812  0.9878
 8223SOL     OW36301   0.530   4.351  11.532  0.1893 -0.3457  0.0478
 8223SOL    HW136302   0.626   4.356  11.526  0.0925  0.7433 -0.5782
 8223SOL    HW236303   0.496   4.437  11.556  0.2394 -0.1928 -0.4388
 8224SOL     OW36304   1.102   3.676   8.720  0.0043  0.2925 -0.2898
 8224SOL    HW136305   1.040   3.639   8.657 -1.7271  0.0383  1.5487
 8224SOL    HW236306   1.051   3.694   8.799  1.2220  0.6304  0.4273
 8225SOL     OW36307   4.324   4.149  17.716  0.5835 -0.2705  0.0564
 8225SOL    HW136308   4.342   4.079   0.045 -0.8881 -0.5555  0.1674
 8225SOL    HW236309   4.330   4.094  17.637  1.0693  0.5295 -0.4577
 8226SOL     OW36310   4.110   2.724   9.606 -0.0887  0.4722 -0.1104
 8226SOL    HW136311   4.112   2.637   9.646 -3.3830  0.0305 -0.9201
 8226SOL    HW236312   4.146   2.775   9.679  1.8633  0.9514 -1.4106
 8227SOL     OW36313   3.977   1.737   8.131  0.6933  0.2474  0.0746
 8227SOL    HW136314   3.882   1.747   8.132  0.6737  0.2810 -1.3732
 8227SOL    HW236315   4.003   1.806   8.070 -0.5440 -0.2846 -1.0588
 8228SOL     OW36316   0.966   1.496   6.952 -0.6870 -0.1383  0.1133
 8228SOL    HW136317   0.891   1.528   7.002 -1.7949  0.1268 -1.6893
 8228SOL    HW236318   1.035   1.513   7.016  0.5276 -0.9975 -0.9673
 8229SOL     OW36319   0.816   4.380   5.241  0.8850 -0.3334  0.4203
 8229SOL    HW136320   0.747   4.348   5.298  3.2000 -3.4766  1.4873
 8229SOL    HW236321   0.846   4.438   5.311  0.9867 -1.6839  1.4925
 8230SOL     OW36322   0.461   2.601   7.115 -0.0680  0.4331 -0.0341
 8230SOL    HW136323   0.402   2.667   7.078 -1.0329 -0.1547  0.4573
 8230SOL    HW236324   0.453   2.620   7.208 -0.9967  0.2986 -0.0890
 8231SOL     OW36325   1.854   2.270  15.563 -0.1367  0.2804 -0.2265
 8231SOL    HW136326   1.944   2.303  15.564  0.5560 -1.5235 -1.4681
 8231SOL    HW236327   1.843   2.247  15.656 -1.4050 -0.0105 -0.4568
 8232SOL     OW36328   0.459   4.461   8.385  0.3069 -0.5905 -0.2547
 8232SOL    HW136329   0.383   4.512   8.414  0.6112 -0.9078  1.0884
 8232SOL    HW236330   0.522   4.532   8.385 -1.4633  1.0087 -2.0021
 8233SOL     OW36331   0.540   0.494   8.365  0.1242 -0.1539  0.1738
 8233SOL    HW136332   0.632   0.485   8.390  0.2810 -4.3941 -1.9521
 8233SOL    HW236333   0.506   0.404   8.366 -1.2363  0.3623  0.5424
 8234SOL     OW36334   1.683   3.590   2.248  0.4925  0.5139  0.4566
 8234SOL    HW136335   1.662   3.660   2.186  3.7854  0.4829 -0.6955
 8234SOL    HW236336   1.774   3.608   2.270 -0.1627  2.0852  1.9073
 8235SOL     OW36337   1.182   3.191   9.209  0.0593  0.3852  0.2979
 8235SOL    HW136338   1.236   3.185   9.131  3.0608 -1.0596  2.4940
 8235SOL    HW236339   1.225   3.130   9.269  0.0072  1.5089  1.4986
 8236SOL     OW36340   0.352   4.679  16.414  0.1804  0.5266  0.2253
 8236SOL    HW136341   0.340   0.011  16.483  2.0970  0.7301  0.3640
 8236SOL    HW236342   0.276   4.698  16.359  0.2549 -0.8843 -0.3479
 8237SOL     OW36343   2.819   3.974   8.395 -0.1588  0.0903  0.5620
 8237SOL    HW136344   2.803   4.032   8.320 -0.6414 -0.3592  0.3200
 8237SOL    HW236345   2.728   3.958   8.417 -0.1584  0.2140  0.6539
 8238SOL     OW36346   0.894   2.746  12.257 -0.7107  0.4747  0.0462
 8238SOL    HW136347   0.831   2.811  12.227  1.3276  1.3021 -2.5236
 8238SOL    HW236348   0.847   2.668  12.285  0.0268  0.1109  0.2663
 8239SOL     OW36349   1.843   3.077   1.184  0.5502 -0.0103  0.1622
 8239SOL    HW136350   1.840   3.052   1.277 -0.5901  0.7291  0.3250
 8239SOL    HW236351   1.764   3.131   1.180 -0.2951 -1.4146 -2.2005
 8240SOL     OW36352   1.905   2.451   5.607 -0.5302  0.1503 -0.2042
 8240SOL    HW136353   1.829   2.473   5.552 -0.0592  0.8800 -0.5559
 8240SOL    HW236354   1.937   2.393   5.537  1.0801 -0.4381  1.0263
 8241SOL     OW36355   4.133   0.693   7.575  0.1435  0.2186 -0.0506
 8241SOL    HW136356   4.222   0.705   7.607  0.7388 -0.9779 -1.2739
 8241SOL    HW236357   4.129   0.764   7.511  1.6603 -2.3111 -2.9400
 8242SOL     OW36358   0.645   2.197   5.024 -0.2451 -0.6226  0.0176
 8242SOL    HW136359   0.675   2.162   4.940 -2.8569  1.8311 -1.9322
 8242SOL    HW236360   0.719   2.248   5.058  1.7593 -2.5178 -1.4537
 8243SOL     OW36361   3.346   1.940  14.651  0.3538 -0.0948  0.1622
 8243SOL    HW136362   3.280   1.878  14.684  1.3711 -1.6868 -0.8050
 8243SOL    HW236363   3.318   1.952  14.560 -0.0871 -0.2355  0.2773
 8244SOL     OW36364   2.494   1.156   0.044 -0.2754 -0.0871 -0.0994
 8244SOL    HW136365   2.408   1.156   0.002 -0.3040  0.3827 -0.0422
 8244SOL    HW236366   2.535   1.210  17.711  0.9581  0.8802  1.4239
 8245SOL     OW36367   3.500   3.513   9.190 -0.7103 -0.3853  0.3097
 8245SOL    HW136368   3.527   3.602   9.168 -1.2005  0.0626  1.5292
 8245SOL    HW236369   3.512   3.513   9.285  2.2205 -2.4720 -0.0595
 8246SOL     OW36370   1.562   0.677   8.821  0.1887 -0.0782 -0.2166
 8246SOL    HW136371   1.621   0.749   8.798 -1.1004  0.1602 -2.8119
 8246SOL    HW236372   1.492   0.728   8.863 -0.9587 -1.4164 -0.5024
 8247SOL     OW36373   4.162   1.924   7.390  0.5808 -0.3369  0.2044
 8247SOL    HW136374   4.149   1.833   7.364  1.1206  0.0434 -1.4010
 8247SOL    HW236375   4.257   1.935   7.384  0.4241  0.4985 -0.7839
 8248SOL     OW36376   0.087   2.497   4.654 -0.2191 -0.0153  0.4123
 8248SOL    HW136377   0.074   2.426   4.591  2.5345 -1.2166  1.1876
 8248SOL    HW236378   0.131   2.557   4.593  0.6714  0.1442  1.2161
 8249SOL     OW36379   2.446   3.775   3.977  0.6162 -0.1801  0.1726
 8249SOL    HW136380   2.404   3.856   3.951  0.1781 -0.2916  0.5422
 8249SOL    HW236381   2.456   3.792   4.071  1.1081 -2.3416  0.5258
 8250SOL     OW36382   1.990   1.283   4.941 -0.0462  0.1797 -0.4951
 8250SOL    HW136383   1.950   1.291   4.855 -1.5096  1.9618  0.3573
 8250SOL    HW236384   1.990   1.189   4.957  1.9244  0.0829 -0.9869
 8251SOL     OW36385   0.195   1.448   8.221 -0.7427  0.2615 -0.6209
 8251SOL    HW136386   0.115   1.406   8.191 -2.9500  2.1364  2.6064
 8251SOL    HW236387   0.204   1.421   8.313 -1.8675  0.5822 -0.4179
 8252SOL     OW36388   0.183   2.001   3.126 -0.1069 -0.2058 -0.0547
 8252SOL    HW136389   0.249   1.932   3.132  1.3494  0.9242 -2.8893
 8252SOL    HW236390   0.096   1.959   3.126  0.9698 -2.4494  1.5148
 8253SOL     OW36391   2.200   0.601   5.728 -0.4196  0.2734 -0.7373
 8253SOL    HW136392   2.238   0.567   5.809 -0.8817 -0.8522 -0.9957
 8253SOL    HW236393   2.124   0.551   5.700 -0.2538  0.4943 -1.5760
 8254SOL     OW36394   2.796   4.247   3.385 -0.3257 -0.4679 -0.0414
 8254SOL    HW136395   2.887   4.272   3.368 -0.0577 -2.0934 -0.9537
 8254SOL    HW236396   2.742   4.314   3.345 -1.6803 -0.6920  1.3961
 8255SOL     OW36397   1.489   1.521  17.231 -0.1629  0.4102  0.1782
 8255SOL    HW136398   1.509   1.594  17.172 -0.2749  0.8709  0.7106
 8255SOL    HW236399   1.413   1.554  17.278 -0.8789  1.0985 -1.4453
 8256SOL     OW36400   1.285   1.708   2.103  0.0956  0.3888  0.3029
 8256SOL    HW136401   1.194   1.739   2.102 -0.0062  0.0750 -1.2292
 8256SOL    HW236402   1.276   1.614   2.087 -3.2220  0.6548  0.6106
 8257SOL     OW36403   2.905   4.335  14.847  0.4250  0.0403 -0.0618
 8257SOL    HW136404   2.925   4.242  14.837  0.6913  0.0101  0.7756
 8257SOL    HW236405   2.828   4.333  14.790  0.4230 -1.9257  0.0172
 8258SOL     OW36406   4.457   1.277  13.087 -0.1724 -0.3962  0.3096
 8258SOL    HW136407   4.511   1.330  13.146  0.3099  1.4602 -1.8239
 8258SOL    HW236408   4.524   1.214  13.060  0.5806  0.8290 -0.6536
 8259SOL     OW36409   0.278   3.164  14.260 -0.2775 -0.2379 -0.5111
 8259SOL    HW136410   0.325   3.244  14.282  2.6951 -1.8240 -0.9508
 8259SOL    HW236411   0.332   3.133  14.187  1.0588 -0.9093  0.7435
 8260SOL     OW36412   4.320   1.549   7.301  0.6388  0.2539  0.3510
 8260SOL    HW136413   4.345   1.607   7.373 -1.7662  0.1678  1.2429
 8260SOL    HW236414   4.237   1.582   7.266  1.9735  0.6971 -2.4284
 8261SOL     OW36415   1.101   1.813   5.287  0.3230 -0.5459  0.4508
 8261SOL    HW136416   1.106   1.718   5.274 -3.6275 -0.6985  0.0860
 8261SOL    HW236417   1.026   1.832   5.344  0.4989  3.4547 -0.6901
 8262SOL     OW36418   2.594   1.723   4.301  0.1329 -0.0971  0.3956
 8262SOL    HW136419   2.553   1.802   4.337  1.2013  0.9129 -0.5711
 8262SOL    HW236420   2.650   1.770   4.239  0.4135  0.3439  0.9908
 8263SOL     OW36421   0.546   1.447   9.073  0.3686 -0.3714 -0.0517
 8263SOL    HW136422   0.640   1.432   9.080  0.1876 -1.0071  1.1399
 8263SOL    HW236423   0.530   1.536   9.104  0.7397 -0.1094 -0.6250
 8264SOL     OW36424   1.279   4.705   6.436  0.5885 -0.0559  0.1319
 8264SOL    HW136425   1.301   4.708   6.343  0.1279 -0.1597  0.0233
 8264SOL    HW236426   1.261   0.064   6.441  2.3172  0.1715  2.3847
 8265SOL     OW36427   1.084   3.645   2.978  0.0138  0.5888 -0.9461
 8265SOL    HW136428   1.177   3.627   2.991 -0.5385 -2.0129 -0.5522
 8265SOL    HW236429   1.050   3.556   2.976  0.6404  0.3630 -1.5361
 8266SOL     OW36430   1.250   0.368   9.458 -0.5010  0.3088  0.3041
 8266SOL    HW136431   1.159   0.346   9.442 -0.4206 -0.5862  1.0806
 8266SOL    HW236432   1.290   0.283   9.475  1.0934  0.7650 -1.1530
 8267SOL     OW36433   4.135   0.674   8.867 -0.4717  0.4417  0.3298
 8267SOL    HW136434   4.073   0.606   8.841  1.9401 -2.3145  1.7476
 8267SOL    HW236435   4.175   0.643   8.948  0.5408  1.1955  0.1176
 8268SOL     OW36436   4.296   4.272   3.850 -0.8701  0.1745  0.2779
 8268SOL    HW136437   4.381   4.306   3.821 -0.2946 -1.8259 -0.4276
 8268SOL    HW236438   4.258   4.352   3.885  1.3443  1.2061  0.3182
 8269SOL     OW36439   2.708   3.797  16.916  0.5685  0.6591  0.5031
 8269SOL    HW136440   2.777   3.839  16.865  2.2941  0.0648  2.3460
 8269SOL    HW236441   2.708   3.841  17.002  0.4079  1.4486  0.0985
 8270SOL     OW36442   2.808   0.481  11.942  0.4099  0.5382  0.0977
 8270SOL    HW136443   2.790   0.547  12.008  1.3445  0.5450  0.3430
 8270SOL    HW236444   2.822   0.399  11.990 -1.4962 -0.2303 -0.6507
 8271SOL     OW36445   3.042   1.472   8.348 -0.1067 -0.2700  0.0277
 8271SOL    HW136446   3.013   1.408   8.413 -0.3123 -0.0451  0.1559
 8271SOL    HW236447   2.960   1.520   8.341  0.2427  0.3470  0.1270
 8272SOL     OW36448   2.341   2.008   2.981  0.2296 -0.6575  0.6948
 8272SOL    HW136449   2.436   2.004   2.994  0.2696  0.6446  0.8825
 8272SOL    HW236450   2.323   2.099   3.006 -1.9424 -0.8493 -0.1920
 8273SOL     OW36451   1.979   1.225   0.399  0.5545 -0.2399  0.1930
 8273SOL    HW136452   2.018   1.312   0.397  0.9815 -0.4390 -0.2029
 8273SOL    HW236453   1.895   1.251   0.436 -0.0668 -2.2407  0.2173
 8274SOL     OW36454   1.242   1.578   6.210  0.4808  0.4902 -0.4252
 8274SOL    HW136455   1.335   1.580   6.234 -0.1541 -0.4643  2.1118
 8274SOL    HW236456   1.209   1.510   6.268  1.5728 -1.8346 -2.5810
 8275SOL     OW36457   2.858   3.334  13.514 -0.4098 -0.2307 -0.1690
 8275SOL    HW136458   2.869   3.378  13.598  1.0242 -2.0077  0.5786
 8275SOL    HW236459   2.841   3.397  13.444 -1.0761  2.5889  2.5222
 8276SOL     OW36460   3.158   1.538   1.021 -0.1671 -0.0202  0.2958
 8276SOL    HW136461   3.066   1.543   0.994  0.9380  1.5519 -3.1979
 8276SOL    HW236462   3.177   1.608   1.083 -0.7140 -0.0729  0.5215
 8277SOL     OW36463   0.457   0.965   1.187 -0.4345 -0.1619  0.2577
 8277SOL    HW136464   0.526   0.954   1.251  0.8104 -0.6767 -1.1822
 8277SOL    HW236465   0.463   1.060   1.175  3.6131 -0.1270  2.6575
 8278SOL     OW36466   1.362   3.757   4.045 -0.2694  0.3211 -0.1844
 8278SOL    HW136467   1.304   3.681   4.039  1.4746 -0.9698 -0.7387
 8278SOL    HW236468   1.312   3.830   4.008 -0.3213  0.0729 -0.6035
 8279SOL     OW36469   3.881   2.342   3.729 -0.1206  0.4529 -0.0838
 8279SOL    HW136470   3.912   2.315   3.643 -0.7365  0.3703 -0.2852
 8279SOL    HW236471   3.793   2.304   3.736  0.2188 -0.2545  0.4381
 8280SOL     OW36472   1.845   4.724   4.701 -0.0828 -0.1158  0.4223
 8280SOL    HW136473   1.820   0.072   4.659 -0.7599  0.2745  1.6070
 8280SOL    HW236474   1.797   0.006   4.782 -0.6302  1.9987 -0.3361
 8281SOL     OW36475   2.057   0.133   2.653  0.1081  0.1053 -0.3998
 8281SOL    HW136476   1.997   0.070   2.692 -0.6304  1.9319  1.3898
 8281SOL    HW236477   1.998   0.183   2.596  1.5793  0.8818 -1.2461
 8282SOL     OW36478   2.548   4.053  13.860 -0.1676 -0.8745 -0.2441
 8282SOL    HW136479   2.495   3.995  13.805  0.0714  0.2056 -1.6277
 8282SOL    HW236480   2.538   4.136  13.814 -0.5889 -0.1804  1.1076
 8283SOL     OW36481   3.760   3.276  11.800  0.7435 -0.0763 -0.0802
 8283SOL    HW136482   3.677   3.234  11.774  0.4201  0.0611  0.7377
 8283SOL    HW236483   3.805   3.264  11.716  1.0551 -2.1111  0.3640
 8284SOL     OW36484   2.897   2.541   4.250  0.1288 -0.3479  0.5650
 8284SOL    HW136485   2.809   2.508   4.231  1.1321 -1.4521 -2.1666
 8284SOL    HW236486   2.875   2.592   4.328 -1.6675 -1.0013  0.4924
 8285SOL     OW36487   3.759   2.087   1.729 -0.1244 -0.7544  0.8594
 8285SOL    HW136488   3.816   2.037   1.787  0.0108 -2.0512 -0.3810
 8285SOL    HW236489   3.744   2.027   1.656 -1.1873  1.3916 -0.7042
 8286SOL     OW36490   4.626   1.187   2.658  0.0946  0.6152  0.3141
 8286SOL    HW136491   4.610   1.103   2.701 -0.4937  0.3908 -0.3457
 8286SOL    HW236492   4.540   1.217   2.629  1.5219  1.7223 -2.7738
 8287SOL     OW36493   1.879   4.220   2.448  0.1788 -0.0619 -0.0414
 8287SOL    HW136494   1.966   4.184   2.468  0.4813  0.9315  0.4360
 8287SOL    HW236495   1.880   4.299   2.502  0.8646  0.3865 -0.7038
 8288SOL     OW36496   3.323   0.988   8.691  0.7088 -0.5736 -0.1072
 8288SOL    HW136497   3.287   1.074   8.713  1.5902 -0.8228  2.2989
 8288SOL    HW236498   3.234   0.952   8.690 -1.5370  5.0821 -1.9259
 8289SOL     OW36499   1.200   4.682   7.175 -0.6217 -0.4226 -0.2599
 8289SOL    HW136500   1.178   4.658   7.085  0.7312 -0.1703 -0.6590
 8289SOL    HW236501   1.194   0.043   7.175  0.2703 -0.3674 -0.1499
 8290SOL     OW36502   1.875   0.276   8.661 -0.3516  0.5414  0.1251
 8290SOL    HW136503   1.891   0.361   8.619  1.2795 -0.4327 -1.2115
 8290SOL    HW236504   1.936   0.286   8.734 -1.1967  1.4453  0.7045
 8291SOL     OW36505   2.280   2.100   2.109 -0.0504 -0.2083 -0.1281
 8291SOL    HW136506   2.192   2.107   2.073 -0.0858  1.1275  0.2269
 8291SOL    HW236507   2.312   2.189   2.098  3.4107 -1.5470 -0.7917
 8292SOL     OW36508   4.078   0.060   9.333  0.3226 -0.7756  0.4214
 8292SOL    HW136509   4.040   0.050   9.420 -0.2171 -6.2410 -0.4525
 8292SOL    HW236510   4.024   4.732   9.283  3.8888 -1.6617 -2.3497
 8293SOL     OW36511   3.508   1.583   8.434  0.6140  0.6642 -0.3289
 8293SOL    HW136512   3.532   1.512   8.493 -0.1709  3.1150  2.9456
 8293SOL    HW236513   3.415   1.601   8.451  0.6334 -0.7468  1.3335
 8294SOL     OW36514   3.497   2.778   0.800 -0.0457  0.0349 -0.3823
 8294SOL    HW136515   3.586   2.744   0.813 -0.2827  0.2683  1.8706
 8294SOL    HW236516   3.455   2.748   0.881  2.2618 -0.8403  0.4870
 8295SOL     OW36517   0.663   1.604  12.281  0.4679  0.2209  0.4273
 8295SOL    HW136518   0.606   1.553  12.339  0.4482 -0.6501 -0.3707
 8295SOL    HW236519   0.641   1.693  12.310  2.1032  0.0241  2.2449
 8296SOL     OW36520   2.325   3.999   7.708 -0.2334  0.3448 -0.0752
 8296SOL    HW136521   2.332   3.918   7.657  0.9375  0.4405 -0.0802
 8296SOL    HW236522   2.372   3.969   7.786 -0.7044 -2.4565 -0.8921
 8297SOL     OW36523   3.271   0.436   4.178  0.1656  0.1803 -0.1031
 8297SOL    HW136524   3.297   0.345   4.188  0.7439  0.5354  1.5649
 8297SOL    HW236525   3.293   0.454   4.086  2.6106 -0.6072  0.3223
 8298SOL     OW36526   3.189   4.156  10.461 -0.0955  0.1384 -0.2574
 8298SOL    HW136527   3.158   4.238  10.499 -0.6573  0.5512 -1.6323
 8298SOL    HW236528   3.126   4.099  10.505  0.5315 -2.0144 -2.1675
 8299SOL     OW36529   0.422   1.524   3.640  0.4245 -0.8227 -0.3047
 8299SOL    HW136530   0.344   1.485   3.680  0.5535 -0.1458  0.5995
 8299SOL    HW236531   0.467   1.552   3.719 -0.1400  1.2121 -0.6990
 8300SOL     OW36532   4.556   3.645   3.178  0.3664 -0.1126  0.7493
 8300SOL    HW136533   4.467   3.622   3.206  0.0769 -0.7994 -0.7386
 8300SOL    HW236534   4.576   3.728   3.221 -1.6918  1.1979 -0.8786
 8301SOL     OW36535   2.036   1.509   7.964  0.8477  0.0295  0.1217
 8301SOL    HW136536   2.042   1.603   7.977  2.2991 -0.5103  3.5360
 8301SOL    HW236537   1.947   1.489   7.995  0.4117 -0.3070 -1.3372
 8302SOL     OW36538   4.267   4.017   0.726  0.2010 -0.1168 -0.3503
 8302SOL    HW136539   4.187   3.972   0.752 -0.5498  1.5274  0.1395
 8302SOL    HW236540   4.337   3.965   0.765  0.0011  1.0820  1.5833
 8303SOL     OW36541   0.700   2.374  16.946 -0.0294  0.2690  0.3360
 8303SOL    HW136542   0.609   2.355  16.968  0.4077  1.1900  2.9544
 8303SOL    HW236543   0.705   2.464  16.978  0.1228  0.5283 -0.4279
 8304SOL     OW36544   3.613   3.290   5.339  0.2544  0.9048  0.5204
 8304SOL    HW136545   3.659   3.357   5.389  1.5712 -0.8452  1.6536
 8304SOL    HW236546   3.638   3.207   5.379  1.0508  1.1770  0.5861
 8305SOL     OW36547   1.716   4.143   8.990  0.2278  0.0583  0.5045
 8305SOL    HW136548   1.648   4.080   8.966 -1.6342  1.2360  2.6863
 8305SOL    HW236549   1.669   4.219   9.023 -0.0022  0.1593 -0.0635
 8306SOL     OW36550   1.671   0.924   4.877 -0.0212  0.6752 -0.2762
 8306SOL    HW136551   1.675   0.969   4.792  2.2561 -1.0274 -1.0636
 8306SOL    HW236552   1.643   0.834   4.861  4.0794 -1.0377  2.1612
 8307SOL     OW36553   4.689   4.693  15.742  0.5069  0.2361  0.4187
 8307SOL    HW136554   4.665   4.673  15.651  1.1506 -3.1483  0.9712
 8307SOL    HW236555   0.039   0.003  15.729  1.2997 -1.5769 -0.6560
 8308SOL     OW36556   3.702   0.209   8.838  0.5612 -0.0636  0.0278
 8308SOL    HW136557   3.747   0.226   8.920  2.0525 -1.6453 -0.4648
 8308SOL    HW236558   3.725   0.118   8.819 -1.1724 -0.8372  1.6246
 8309SOL     OW36559   0.613   4.562   6.281 -0.2789  0.5795 -0.5034
 8309SOL    HW136560   0.586   4.561   6.373  0.2034 -1.2232 -0.3741
 8309SOL    HW236561   0.546   4.609   6.231 -2.0659 -0.9671  0.4291
 8310SOL     OW36562   0.261   0.014  12.234 -0.2261  0.2174  0.6315
 8310SOL    HW136563   0.219   4.665  12.259  0.5502  0.3097  2.2472
 8310SOL    HW236564   0.193   0.066  12.193  0.2259 -0.6818 -1.2493
 8311SOL     OW36565   0.011   2.506   3.689  0.2018  0.0070  0.2403
 8311SOL    HW136566   4.695   2.502   3.608  0.1432 -2.3901  0.3875
 8311SOL    HW236567   0.099   2.487   3.657 -0.5462  1.5791 -2.7142
 8312SOL     OW36568   0.835   0.144   2.407 -0.1214 -0.5820  0.0410
 8312SOL    HW136569   0.781   0.067   2.419 -0.7597 -0.1237  0.1073
 8312SOL    HW236570   0.848   0.160   2.500 -1.0444  1.4674 -0.1863
 8313SOL     OW36571   0.461   3.441   2.240  0.2584  0.5631  0.2339
 8313SOL    HW136572   0.436   3.523   2.282 -1.8820 -0.1581  0.3584
 8313SOL    HW236573   0.497   3.474   2.158 -0.3096  0.3493 -0.1018
 8314SOL     OW36574   0.174   3.753   7.615 -0.0035  0.3108 -0.0340
 8314SOL    HW136575   0.104   3.750   7.681  2.8543  1.7122  3.0724
 8314SOL    HW236576   0.202   3.662   7.604  0.0398  0.2810  0.3001
 8315SOL     OW36577   0.896   0.122   5.535 -0.1159 -0.4425  0.1035
 8315SOL    HW136578   0.921   0.152   5.623 -2.4068 -1.7756  1.2173
 8315SOL    HW236579   0.928   0.192   5.479 -1.1091  0.4884  0.6969
 8316SOL     OW36580   2.280   1.093   6.694 -0.0484  0.2383 -0.2646
 8316SOL    HW136581   2.303   1.183   6.718 -0.1149 -0.2651  1.6934
 8316SOL    HW236582   2.363   1.047   6.709  0.8463  1.0026 -2.8730
 8317SOL     OW36583   1.739   1.569   7.949  0.2541  0.3757  0.1488
 8317SOL    HW136584   1.737   1.543   8.041 -0.3893  0.0555  0.0460
 8317SOL    HW236585   1.740   1.663   7.969  2.6035  0.6243 -1.1620
 8318SOL     OW36586   2.206   0.693   8.623 -0.4353 -0.0712 -0.0087
 8318SOL    HW136587   2.292   0.726   8.650 -1.0001 -0.4817  2.2984
 8318SOL    HW236588   2.179   0.746   8.548  0.0561  0.1114 -0.0612
 8319SOL     OW36589   0.858   3.007   1.649 -0.3332 -0.5993  0.3572
 8319SOL    HW136590   0.801   2.944   1.694 -0.9587 -0.6643 -0.5312
 8319SOL    HW236591   0.800   3.047   1.584 -0.3158 -1.5964 -0.2688
 8320SOL     OW36592   1.941   1.595   4.641  0.3292 -0.4436  0.0880
 8320SOL    HW136593   2.024   1.568   4.602  1.1856  1.9266  0.2541
 8320SOL    HW236594   1.882   1.564   4.573  1.1361 -1.9103  0.0566
 8321SOL     OW36595   4.728   1.248   7.756 -0.5232 -0.1791 -0.9349
 8321SOL    HW136596   0.002   1.342   7.740  0.2861  0.0478  0.7453
 8321SOL    HW236597   0.030   1.214   7.674  1.3243  0.0536 -0.2274
 8322SOL     OW36598   1.984   1.589   4.005 -0.7307 -0.2148 -0.0532
 8322SOL    HW136599   1.979   1.684   4.004 -3.1219 -0.3239  0.5794
 8322SOL    HW236600   2.050   1.574   4.073  0.9499  0.9366 -1.4254
 8323SOL     OW36601   1.988   0.555   0.744 -0.2419 -0.3357 -0.4409
 8323SOL    HW136602   2.052   0.501   0.697  2.0539  1.3762  0.7247
 8323SOL    HW236603   2.004   0.633   0.690 -0.0041 -0.2189 -0.2003
 8324SOL     OW36604   1.970   3.947   0.115 -0.2993 -1.0937  0.2283
 8324SOL    HW136605   2.053   3.979   0.080 -0.5714 -0.5754  0.0658
 8324SOL    HW236606   1.931   4.026   0.151  0.7884 -1.4863  2.3049
 8325SOL     OW36607   1.395   4.266   7.368  0.5239 -0.4676  0.2464
 8325SOL    HW136608   1.387   4.310   7.283  0.2019  2.4295  1.7736
 8325SOL    HW236609   1.346   4.185   7.356 -0.2329 -0.1236  0.9963
 8326SOL     OW36610   0.024   1.647   8.617 -0.1214  0.4873 -0.0744
 8326SOL    HW136611   0.065   1.569   8.654 -3.4106 -0.6724  1.0974
 8326SOL    HW236612   4.670   1.642   8.654 -0.5665  2.1653 -0.8889
 8327SOL     OW36613   0.316   2.256   4.386  0.0505 -0.1190 -0.4054
 8327SOL    HW136614   0.364   2.272   4.467 -0.6177 -3.7448  0.6905
 8327SOL    HW236615   0.229   2.231   4.417  1.3661 -2.7438  1.1167
 8328SOL     OW36616   0.998   3.465  10.230  0.5801  0.2646 -0.0138
 8328SOL    HW136617   0.913   3.485  10.269  0.3451 -1.0219  0.1155
 8328SOL    HW236618   1.012   3.374  10.255  1.6052 -0.1405 -2.0455
 8329SOL     OW36619   2.273   3.244   1.147  0.4023  0.3179 -0.5844
 8329SOL    HW136620   2.211   3.171   1.139  0.9617 -0.4231  1.7538
 8329SOL    HW236621   2.219   3.322   1.162  3.0639  2.4580 -2.1454
 8330SOL     OW36622   4.302   3.175   4.323  0.0264  0.5928 -0.4387
 8330SOL    HW136623   4.278   3.200   4.412 -1.9194 -1.1513 -0.4995
 8330SOL    HW236624   4.242   3.102   4.310  0.6012 -0.2642  1.7914
 8331SOL     OW36625   2.996   4.326   9.068 -0.6028  0.4804 -0.4220
 8331SOL    HW136626   2.985   4.343   9.161  0.1516 -3.5223  0.4107
 8331SOL    HW236627   2.967   4.406   9.024  1.2560  1.0800 -0.5527
 8332SOL     OW36628   4.389   4.135   2.153 -0.1208  0.0309  0.1066
 8332SOL    HW136629   4.365   4.157   2.063  0.7442  0.6884  0.0435
 8332SOL    HW236630   4.329   4.184   2.209  0.3121 -0.1851  0.7630
 8333SOL     OW36631   2.861   1.195   4.333  0.3287  0.0642 -0.4314
 8333SOL    HW136632   2.833   1.144   4.257 -1.3292  2.2622 -1.2954
 8333SOL    HW236633   2.825   1.139   4.402 -0.7172  0.2513 -0.8194
 8334SOL     OW36634   2.406   4.324   4.846 -0.3328 -0.6785  0.1178
 8334SOL    HW136635   2.377   4.400   4.795 -0.6627 -0.8877 -0.0012
 8334SOL    HW236636   2.371   4.251   4.795  1.6525 -0.9333 -0.8688
 8335SOL     OW36637   3.300   1.917  14.098  0.6964 -0.0442  0.1418
 8335SOL    HW136638   3.382   1.868  14.092 -0.1616 -1.3820 -0.6483
 8335SOL    HW236639   3.266   1.923  14.009  1.3578 -1.4827 -0.2108
 8336SOL     OW36640   2.560   1.947   7.031 -0.5136  0.0096 -0.1061
 8336SOL    HW136641   2.627   1.933   6.963 -0.6220 -0.5800 -0.0937
 8336SOL    HW236642   2.510   2.019   6.993  1.5150  1.9916  0.9652
 8337SOL     OW36643   0.737   2.641   3.662 -0.8759 -0.7238 -0.1930
 8337SOL    HW136644   0.777   2.596   3.587 -0.6659 -2.5821  1.0343
 8337SOL    HW236645   0.701   2.721   3.624  2.1295  0.7594  0.1479
 8338SOL     OW36646   1.266   3.026   3.364  0.0232  0.2071 -0.2234
 8338SOL    HW136647   1.289   2.944   3.409 -0.9463  0.2486  0.3596
 8338SOL    HW236648   1.263   3.001   3.272 -0.6158 -0.8550  0.0845
 8339SOL     OW36649   1.453   1.380  13.812  0.3613  0.7261 -0.1117
 8339SOL    HW136650   1.478   1.303  13.863 -1.0420  1.3984  1.6081
 8339SOL    HW236651   1.476   1.444  13.879 -2.5151  2.2927 -0.5825
 8340SOL     OW36652   0.155   2.024   3.440 -0.0494 -0.0907  0.6304
 8340SOL    HW136653   0.142   2.012   3.534  0.1158 -0.7900  0.5706
 8340SOL    HW236654   0.186   1.938   3.409  3.4143  1.3888  0.0145
 8341SOL     OW36655   3.143   0.435  17.469 -0.0696  0.0583 -0.4900
 8341SOL    HW136656   3.231   0.470  17.456 -0.8073  2.7228  1.7405
 8341SOL    HW236657   3.127   0.402  17.381 -0.4891 -2.0730  0.3857
 8342SOL     OW36658   4.451   4.072  15.676  0.2456  0.1614  0.0050
 8342SOL    HW136659   4.419   4.104  15.591 -0.1003 -1.9630 -0.6600
 8342SOL    HW236660   4.544   4.091  15.665  0.2318  0.9431  1.2121
 8343SOL     OW36661   2.720   3.367   7.041  0.4181 -0.4136 -0.3346
 8343SOL    HW136662   2.764   3.400   7.119  2.9146 -1.4551 -1.3000
 8343SOL    HW236663   2.757   3.420   6.971 -1.5555 -1.1235 -1.9186
 8344SOL     OW36664   1.379   1.415   7.570 -0.2194 -0.1235  0.0234
 8344SOL    HW136665   1.312   1.477   7.543 -0.5295 -0.3210  0.3448
 8344SOL    HW236666   1.451   1.469   7.539  0.4341 -0.1875  1.4455
 8345SOL     OW36667   3.267   1.880   9.745 -0.2301  0.0815  0.0835
 8345SOL    HW136668   3.325   1.931   9.689 -0.2058 -1.2114 -1.0621
 8345SOL    HW236669   3.303   1.799   9.710 -0.8357  0.6583 -1.8822
 8346SOL     OW36670   1.014   0.482   1.153  0.7245 -0.3596 -0.3013
 8346SOL    HW136671   0.977   0.411   1.100  0.6117 -0.8189  0.3971
 8346SOL    HW236672   0.932   0.530   1.164  0.0850 -1.0508 -2.0291
 8347SOL     OW36673   3.008   3.180   5.121  0.0319  0.4461 -0.1854
 8347SOL    HW136674   3.002   3.190   5.216  1.8472 -0.9873  0.0816
 8347SOL    HW236675   2.932   3.126   5.098  0.7951 -0.1174 -1.3758
 8348SOL     OW36676   3.344   3.030  13.350  0.5421 -0.0628  0.0029
 8348SOL    HW136677   3.314   2.939  13.354 -2.4532  0.9388  0.6629
 8348SOL    HW236678   3.269   3.073  13.392  1.3017  1.9576 -0.7176
 8349SOL     OW36679   1.661   1.208   5.471 -0.3822 -0.2521 -0.1202
 8349SOL    HW136680   1.681   1.154   5.547 -1.5611  0.8803  0.9867
 8349SOL    HW236681   1.664   1.296   5.506 -0.3895 -1.0273  1.8469
 8350SOL     OW36682   3.426   0.921   6.399 -0.0818 -0.1645 -0.0209
 8350SOL    HW136683   3.421   0.836   6.355  2.1535 -0.6397  0.6348
 8350SOL    HW236684   3.520   0.936   6.391 -0.4061  2.2502  0.6911
 8351SOL     OW36685   2.304   0.183   9.079  0.0371  0.2017 -0.1387
 8351SOL    HW136686   2.347   0.114   9.028  0.9177  1.1860 -0.7442
 8351SOL    HW236687   2.384   0.232   9.098 -0.1074 -0.7996  3.0354
 8352SOL     OW36688   0.947   1.748  10.330 -0.2492  0.4845  0.3378
 8352SOL    HW136689   1.025   1.719  10.377 -1.6090 -0.8702  1.7725
 8352SOL    HW236690   0.976   1.712  10.246  0.3933 -0.1607  0.8338
 8353SOL     OW36691   3.970   2.985   2.944  0.6263 -0.2057 -0.0872
 8353SOL    HW136692   3.921   2.903   2.936  0.0446  0.3212 -1.8481
 8353SOL    HW236693   4.045   2.965   2.888  0.8013 -3.1614  1.2108
 8354SOL     OW36694   1.255   3.322   7.259 -0.1461 -0.1878  0.1748
 8354SOL    HW136695   1.303   3.243   7.284  1.3493 -0.1757 -2.7181
 8354SOL    HW236696   1.268   3.318   7.165  4.3962 -0.4254  0.8210
 8355SOL     OW36697   3.410   0.482   2.704  0.0079  0.3094  0.0582
 8355SOL    HW136698   3.359   0.561   2.726  1.9044  1.0958  1.6980
 8355SOL    HW236699   3.379   0.430   2.778  0.4922 -2.4817 -1.7176
 8356SOL     OW36700   1.794   3.812  12.864  0.0441  0.6708  0.0056
 8356SOL    HW136701   1.730   3.884  12.864 -0.7828 -0.0735 -1.3864
 8356SOL    HW236702   1.803   3.788  12.956  0.2383  0.9016  0.0478
 8357SOL     OW36703   3.765   3.482  13.021 -0.4997 -0.0756  0.1469
 8357SOL    HW136704   3.690   3.452  13.073  0.9872 -1.9645  1.2053
 8357SOL    HW236705   3.835   3.481  13.086 -0.4896  0.7571  0.1404
 8358SOL     OW36706   1.237   2.454   6.233  0.2266 -0.1359 -0.2450
 8358SOL    HW136707   1.331   2.442   6.246  0.3027  1.2586  0.3780
 8358SOL    HW236708   1.235   2.470   6.139  0.3607  1.5066  0.0466
 8359SOL     OW36709   3.297   1.340  11.477 -0.5232  0.0640  0.0927
 8359SOL    HW136710   3.381   1.386  11.468  0.2582 -1.5669 -0.8886
 8359SOL    HW236711   3.252   1.408  11.528 -1.7221 -0.2060 -0.6048
 8360SOL     OW36712   2.308   2.763  11.128 -0.4644 -0.0012 -0.5782
 8360SOL    HW136713   2.308   2.854  11.157  1.2425 -0.4296  0.6963
 8360SOL    HW236714   2.298   2.718  11.212 -0.1427  0.6560 -0.1890
 8361SOL     OW36715   2.000   1.029   1.867  0.3963  0.0817  0.0278
 8361SOL    HW136716   1.936   0.970   1.828  0.0112  0.3308  0.2749
 8361SOL    HW236717   1.948   1.078   1.931  2.1855  2.8745 -0.6150
 8362SOL     OW36718   3.911   1.503   9.019  0.4405  0.2080  0.0099
 8362SOL    HW136719   3.910   1.559   8.942  0.5582 -1.1193 -0.9580
 8362SOL    HW236720   3.949   1.424   8.981 -1.8717 -0.5691 -0.6799
 8363SOL     OW36721   1.131   3.006   4.223  0.9372 -0.3997 -0.0893
 8363SOL    HW136722   1.086   3.054   4.292  1.3873 -0.2071  0.0668
 8363SOL    HW236723   1.057   2.952   4.194 -0.7684  2.5959 -1.3831
 8364SOL     OW36724   3.767   4.630  15.468 -1.0982 -0.2330 -0.2849
 8364SOL    HW136725   3.820   4.691  15.416 -2.4186  2.1023  1.1259
 8364SOL    HW236726   3.764   4.555  15.409 -1.1206  0.9351 -1.7725
 8365SOL     OW36727   4.610   2.367   8.914 -0.0661  0.0144  0.0911
 8365SOL    HW136728   4.576   2.351   9.002 -1.4641  1.0158 -0.2739
 8365SOL    HW236729   4.594   2.460   8.900  1.2580  0.1353 -0.5780
 8366SOL     OW36730   1.706   4.125   4.194 -0.6309  0.2261 -0.0970
 8366SOL    HW136731   1.641   4.069   4.152  1.3240 -1.0383 -1.4240
 8366SOL    HW236732   1.660   4.168   4.265 -2.3096 -1.1405 -0.3701
 8367SOL     OW36733   4.467   0.392   6.689 -0.7082  0.6663  0.3338
 8367SOL    HW136734   4.420   0.452   6.747 -1.4218 -0.7442  1.1828
 8367SOL    HW236735   4.406   0.319   6.691  0.1503 -0.1895 -3.5671
 8368SOL     OW36736   4.375   1.586   8.101 -0.3786 -0.0985  0.0192
 8368SOL    HW136737   4.443   1.570   8.036  0.6067  0.8115  0.8233
 8368SOL    HW236738   4.416   1.589   8.188  1.2513 -1.6248 -0.6958
 8369SOL     OW36739   3.617   3.621  12.719  0.1063 -0.0900  0.9383
 8369SOL    HW136740   3.613   3.716  12.705  0.9172 -0.0730  0.8520
 8369SOL    HW236741   3.536   3.598  12.673  0.4624  0.7154 -0.0786
 8370SOL     OW36742   1.484   0.941   6.233 -0.0630  0.2163  0.1665
 8370SOL    HW136743   1.496   1.025   6.278 -0.7800  0.9893 -1.0800
 8370SOL    HW236744   1.400   0.906   6.263 -0.5130  1.0055 -0.1878
 8371SOL     OW36745   0.905   1.522  11.125 -0.1466  0.1113  0.9287
 8371SOL    HW136746   0.951   1.523  11.209  1.2130 -1.7031  0.2130
 8371SOL    HW236747   0.918   1.614  11.103 -0.0767 -0.5137 -1.6880
 8372SOL     OW36748   1.135   1.970   2.328 -0.8711  0.6772 -0.0465
 8372SOL    HW136749   1.180   1.972   2.244  0.2025  0.0682  0.5007
 8372SOL    HW236750   1.124   1.877   2.349  1.1574  0.5040  0.2261
 8373SOL     OW36751   0.465   4.018   3.966 -0.4537 -0.2433 -0.4287
 8373SOL    HW136752   0.528   3.947   3.950 -0.9554 -0.2016 -2.4723
 8373SOL    HW236753   0.441   4.001   4.058 -0.1885  0.2512 -0.2686
 8374SOL     OW36754   0.637   4.365   2.809 -0.1027  0.6490 -0.1642
 8374SOL    HW136755   0.669   4.326   2.728 -0.3435  0.2570 -0.0743
 8374SOL    HW236756   0.547   4.369   2.775 -0.8169  1.5281  1.8081
 8375SOL     OW36757   1.634   2.411   6.808  0.0352  0.3160 -0.5392
 8375SOL    HW136758   1.704   2.464   6.846  0.9170 -0.9582 -0.3876
 8375SOL    HW236759   1.687   2.341   6.771 -4.9093 -4.7008  1.7898
 8376SOL     OW36760   2.241   2.580   4.317 -0.7629 -0.3043  0.1651
 8376SOL    HW136761   2.191   2.529   4.253 -1.0357 -1.0817  1.0038
 8376SOL    HW236762   2.184   2.597   4.391 -1.8226  0.1921 -0.7667
 8377SOL     OW36763   2.529   0.632   1.557 -0.6391 -0.3655  0.6117
 8377SOL    HW136764   2.546   0.700   1.623 -0.5893  0.0945  0.1246
 8377SOL    HW236765   2.533   0.693   1.483 -0.6343 -0.7173  0.3235
 8378SOL     OW36766   0.249   1.043  14.920  0.6856  0.1888  0.0637
 8378SOL    HW136767   0.209   1.028  15.006  0.0678  0.6584 -0.1453
 8378SOL    HW236768   0.325   0.985  14.918 -0.3843 -1.3394  2.5849
 8379SOL     OW36769   1.360   4.412  12.683  0.2834 -0.1787  0.1327
 8379SOL    HW136770   1.350   4.501  12.649  2.2072  0.0387  0.1322
 8379SOL    HW236771   1.269   4.385  12.681 -0.0245  0.7912  1.1558
 8380SOL     OW36772   0.908   3.278   3.925 -0.6249  0.2562  0.1210
 8380SOL    HW136773   0.862   3.196   3.907  1.5277 -0.9907  0.2449
 8380SOL    HW236774   0.949   3.310   3.845 -0.4048 -1.5214 -0.4745
 8381SOL     OW36775   2.725   1.297  16.643 -0.5653  0.5165 -0.3574
 8381SOL    HW136776   2.750   1.217  16.596 -1.7772 -1.7972  2.9015
 8381SOL    HW236777   2.683   1.267  16.724  1.2875 -1.1535 -0.0120
 8382SOL     OW36778   1.998   1.148   0.023 -0.0037  0.1797 -0.3179
 8382SOL    HW136779   1.912   1.183   0.002 -0.0839 -1.1465 -2.2169
 8382SOL    HW236780   2.057   1.169  17.685  0.3017 -1.4693 -0.5599
 8383SOL     OW36781   3.756   3.607   7.218 -0.0766  0.0768  0.0134
 8383SOL    HW136782   3.851   3.622   7.214  0.0454 -0.8466 -0.3351
 8383SOL    HW236783   3.745   3.601   7.313  1.1001  0.1096  0.1578
 8384SOL     OW36784   0.194   1.045   6.851 -0.1223  0.0817 -0.4870
 8384SOL    HW136785   0.155   1.118   6.802 -2.2905 -0.1023  0.9442
 8384SOL    HW236786   0.131   1.028   6.921  0.9192 -0.6360  0.2598
 8385SOL     OW36787   4.412   3.353  14.464  0.5197 -0.0015 -0.3371
 8385SOL    HW136788   4.504   3.363  14.490  0.5919  1.5027 -1.1663
 8385SOL    HW236789   4.405   3.438  14.420  0.2253  1.0177  1.7113
 8386SOL     OW36790   3.271   0.976  17.299 -0.8433 -0.3104  0.1736
 8386SOL    HW136791   3.304   0.910  17.360 -3.0178 -2.6828 -1.1899
 8386SOL    HW236792   3.288   0.935  17.214 -1.4437  0.9401 -0.5556
 8387SOL     OW36793   2.380   1.964  11.456 -0.0023 -0.2782  0.0301
 8387SOL    HW136794   2.384   2.059  11.454 -0.1003 -0.2766 -0.1637
 8387SOL    HW236795   2.467   1.944  11.422 -0.1231 -1.5502  0.4537
 8388SOL     OW36796   1.600   3.659  11.700  0.4391  0.0965  0.4897
 8388SOL    HW136797   1.529   3.671  11.763  1.8324 -0.5053  2.1788
 8388SOL    HW236798   1.564   3.722  11.638  0.7281  0.3550  0.5869
 8389SOL     OW36799   2.405   0.117   4.685  0.9671 -0.1981 -0.0200
 8389SOL    HW136800   2.469   0.178   4.649  0.4046 -0.3266 -1.2189
 8389SOL    HW236801   2.422   0.038   4.633 -1.0610 -2.1976  2.3411
 8390SOL     OW36802   4.276   0.430   9.362  0.4454  0.3850 -0.7091
 8390SOL    HW136803   4.295   0.361   9.300 -0.4431  0.2798 -0.8685
 8390SOL    HW236804   4.254   0.387   9.445  2.0755  0.6554 -0.1444
 8391SOL     OW36805   4.024   2.000   4.868 -0.4518  0.4736  0.3380
 8391SOL    HW136806   4.106   2.021   4.823 -0.9122  0.5865 -0.4476
 8391SOL    HW236807   4.057   1.971   4.953 -0.2041 -2.1348 -0.6436
 8392SOL     OW36808   4.087   1.091   2.095  0.7556 -0.2836 -0.3161
 8392SOL    HW136809   4.042   1.092   2.011 -2.2506 -0.5653  1.3163
 8392SOL    HW236810   4.036   1.028   2.146 -1.9535  1.6380 -0.6705
 8393SOL     OW36811   4.722   2.355   7.611  0.5166  0.3334 -0.4518
 8393SOL    HW136812   0.012   2.269   7.644  0.3235  0.4836  0.0763
 8393SOL    HW236813   0.055   2.369   7.544 -0.4182 -0.3665 -1.5340
 8394SOL     OW36814   1.376   2.318   1.587  0.3110 -0.0580  0.0850
 8394SOL    HW136815   1.391   2.282   1.500  3.0059  0.5549  0.3071
 8394SOL    HW236816   1.415   2.404   1.574 -0.6685  0.6024  1.3963
 8395SOL     OW36817   0.493   1.799   6.074 -0.1480  0.0432 -0.5102
 8395SOL    HW136818   0.484   1.815   6.169  1.0558 -0.9401 -0.2355
 8395SOL    HW236819   0.402   1.786   6.047  0.3071 -0.8541 -1.6060
 8396SOL     OW36820   3.662   0.743   9.504 -0.4072 -0.2478 -0.2419
 8396SOL    HW136821   3.623   0.720   9.420 -3.0898  0.5067  0.7957
 8396SOL    HW236822   3.585   0.778   9.550  0.7759  1.2636  0.6164
 8397SOL     OW36823   0.917   0.251   1.922  0.4160 -0.1188 -0.6920
 8397SOL    HW136824   0.910   0.286   2.011 -0.3319 -2.4516  0.1600
 8397SOL    HW236825   0.824   0.249   1.899  0.4908  0.4975 -1.0727
 8398SOL     OW36826   1.584   4.379   3.763 -0.6953 -0.2292  0.5808
 8398SOL    HW136827   1.530   4.412   3.834  0.1683  1.6893  0.3393
 8398SOL    HW236828   1.644   4.453   3.755 -0.3201 -0.5145  0.7460
 8399SOL     OW36829   3.386   2.494   8.814  0.3176  0.3925  0.0721
 8399SOL    HW136830   3.441   2.571   8.822 -2.0111  1.6017  3.9626
 8399SOL    HW236831   3.400   2.475   8.721  1.5759 -1.8621  0.7087
 8400SOL     OW36832   3.603   3.092   4.120  0.4458 -0.2527  0.7549
 8400SOL    HW136833   3.639   3.045   4.045 -0.9969 -1.7157  0.9838
 8400SOL    HW236834   3.539   3.035   4.161  0.8624 -1.4535 -0.2824
 8401SOL     OW36835   0.143   2.097   1.132 -0.0164  0.2150  0.6888
 8401SOL    HW136836   0.163   2.023   1.189 -2.5773  0.2902  1.6840
 8401SOL    HW236837   0.055   2.122   1.160 -0.4479  0.9324 -1.3421
 8402SOL     OW36838   4.042   0.848   9.108 -0.1425  0.0492  0.0132
 8402SOL    HW136839   4.083   0.762   9.119 -1.8574 -0.9884 -1.6529
 8402SOL    HW236840   3.953   0.834   9.142 -0.3729  2.1326  0.2176
 8403SOL     OW36841   1.325   3.679   7.996  0.3320  0.4963 -0.2128
 8403SOL    HW136842   1.276   3.744   7.945  1.4981  1.9035  0.4840
 8403SOL    HW236843   1.389   3.649   7.931  1.5531  3.6257 -0.4131
 8404SOL     OW36844   1.322   2.040   8.495  0.3007  0.3357 -0.5452
 8404SOL    HW136845   1.327   2.059   8.401  1.5207  0.2887 -0.4893
 8404SOL    HW236846   1.334   2.126   8.536  0.0785 -0.1447  0.5313
 8405SOL     OW36847   3.584   1.796   8.647  0.5290 -0.0508  0.4658
 8405SOL    HW136848   3.551   1.787   8.736 -0.7139  2.6547  0.2914
 8405SOL    HW236849   3.607   1.706   8.624 -0.8969  0.0671 -1.4382
 8406SOL     OW36850   4.532   3.613   6.088 -0.8295 -0.0479  0.3603
 8406SOL    HW136851   4.593   3.545   6.115 -0.7724 -1.0584 -2.3571
 8406SOL    HW236852   4.581   3.692   6.112  1.1958 -1.2104  0.0773
 8407SOL     OW36853   2.549   2.986  16.718 -0.0629  0.5086 -0.0482
 8407SOL    HW136854   2.583   3.074  16.735 -0.2064  0.3531  1.0315
 8407SOL    HW236855   2.467   3.012  16.677  0.3833  2.2432  0.1557
 8408SOL     OW36856   3.672   1.199   2.297  0.2125 -0.3036  0.3194
 8408SOL    HW136857   3.647   1.137   2.229  0.3291  0.2905 -0.2714
 8408SOL    HW236858   3.657   1.152   2.379 -1.5161  2.0616  1.3411
 8409SOL     OW36859   0.917   2.989   5.488  0.0071 -0.1433  0.1222
 8409SOL    HW136860   0.930   3.083   5.483 -2.4248 -0.0577 -5.5233
 8409SOL    HW236861   0.840   2.985   5.544 -0.0046  0.9489  0.1698
 8410SOL     OW36862   0.882   4.524   6.502  0.4199  0.4091 -0.1117
 8410SOL    HW136863   0.919   4.588   6.440 -0.3974  2.6779  1.7456
 8410SOL    HW236864   0.937   4.546   6.576  0.1144 -1.9552  0.8027
 8411SOL     OW36865   1.109   4.356   8.682  0.6349 -0.3708  0.1608
 8411SOL    HW136866   1.014   4.347   8.686  0.5393 -0.0711 -1.5227
 8411SOL    HW236867   1.124   4.262   8.693  0.3166 -0.5137 -0.6351
 8412SOL     OW36868   1.387   0.442   7.488  0.3530 -0.3677  0.5229
 8412SOL    HW136869   1.436   0.477   7.563 -1.3221 -1.4240  2.0931
 8412SOL    HW236870   1.417   0.351   7.485 -0.0888 -0.5320  1.0997
 8413SOL     OW36871   2.443   1.709   2.714 -0.1707  0.1593  0.6055
 8413SOL    HW136872   2.377   1.735   2.777  2.3017  2.6215  2.1566
 8413SOL    HW236873   2.448   1.792   2.667  1.3979 -0.8583 -1.0511
 8414SOL     OW36874   3.653   3.024   2.984 -0.2169  0.8777  0.2722
 8414SOL    HW136875   3.641   2.988   2.896 -0.3379  0.9298  0.2671
 8414SOL    HW236876   3.710   3.096   2.959 -1.7072  2.3812  1.2355
 8415SOL     OW36877   0.174   3.512   7.420  0.6168  0.2060 -0.0550
 8415SOL    HW136878   0.229   3.563   7.361 -0.2421  0.3650 -0.7230
 8415SOL    HW236879   0.084   3.541   7.404  1.0321  2.5309  1.8154
 8416SOL     OW36880   0.725   0.807   1.932 -0.0242 -0.2458  0.3957
 8416SOL    HW136881   0.801   0.821   1.875  0.0711 -0.3947  0.4857
 8416SOL    HW236882   0.740   0.716   1.957  0.5110 -1.3484 -3.9201
 8417SOL     OW36883   0.448   3.138   4.603 -0.3581 -0.5014  0.8735
 8417SOL    HW136884   0.474   3.166   4.691 -0.9082 -1.1432  1.2396
 8417SOL    HW236885   0.384   3.205   4.582  1.3510  0.6324 -0.7241
 8418SOL     OW36886   4.013   1.948   7.954 -0.1507  0.1851 -0.0137
 8418SOL    HW136887   3.938   2.001   7.925 -1.3658 -2.1308 -1.0550
 8418SOL    HW236888   4.052   1.931   7.868  0.2574  1.2574 -0.0386
 8419SOL     OW36889   2.513   3.556   8.010 -0.1398  0.0445 -0.1574
 8419SOL    HW136890   2.531   3.463   8.001  0.3953  0.1015  0.3475
 8419SOL    HW236891   2.454   3.567   7.935 -3.4795  0.2113  2.5109
 8420SOL     OW36892   0.138   2.706   1.960 -0.4475  0.1013 -0.4238
 8420SOL    HW136893   0.110   2.695   2.050  0.4386  3.2894  0.2496
 8420SOL    HW236894   0.156   2.619   1.924 -1.0072 -0.0935 -0.2336
 8421SOL     OW36895   4.502   3.340   0.901 -0.3324 -0.2802  0.3280
 8421SOL    HW136896   4.494   3.334   0.996 -4.5635  0.3342 -0.0005
 8421SOL    HW236897   4.486   3.247   0.885 -0.3572 -0.1793 -0.2444
 8422SOL     OW36898   2.645   4.322  10.350  0.2039 -0.6222  0.3649
 8422SOL    HW136899   2.575   4.387  10.359  1.6629  0.7705  1.7679
 8422SOL    HW236900   2.715   4.368  10.396  1.9632 -2.4388 -0.4839
 8423SOL     OW36901   3.224   2.146   5.636 -0.2005  0.1887 -0.0906
 8423SOL    HW136902   3.160   2.216   5.623 -0.3642 -0.7124 -4.1072
 8423SOL    HW236903   3.270   2.142   5.552  2.2649  0.7922  1.2141
 8424SOL     OW36904   2.004   0.585   6.490  0.3842  1.1084  0.1139
 8424SOL    HW136905   2.080   0.546   6.533 -1.0397 -1.3615  0.4166
 8424SOL    HW236906   1.971   0.646   6.555 -1.4280  0.8530 -0.5727
 8425SOL     OW36907   2.810   0.220  12.461 -0.2402  0.0430 -0.6352
 8425SOL    HW136908   2.760   0.156  12.511 -1.7523  0.4808 -1.5668
 8425SOL    HW236909   2.900   0.192  12.474 -0.6379 -1.4787 -1.1200
 8426SOL     OW36910   1.563   0.586   6.609  1.0778 -0.0866 -0.1664
 8426SOL    HW136911   1.508   0.661   6.632  1.2652  0.1099 -0.3496
 8426SOL    HW236912   1.595   0.610   6.521  1.0338 -2.0385 -0.7000
 8427SOL     OW36913   2.065   2.441   4.152 -0.0930 -0.0629 -0.0400
 8427SOL    HW136914   2.015   2.362   4.130  1.4258 -0.8428 -0.7103
 8427SOL    HW236915   2.123   2.434   4.076  1.4026 -0.4240  1.1301
 8428SOL     OW36916   0.193   2.507   4.980  0.3738  0.7695  0.3909
 8428SOL    HW136917   0.173   2.459   4.899 -0.2920  0.7037  0.5917
 8428SOL    HW236918   0.159   2.441   5.040  0.4060 -0.2539 -0.7187
 8429SOL     OW36919   0.867   1.664  14.574  0.1069 -0.3973  0.0974
 8429SOL    HW136920   0.897   1.752  14.595  1.9723 -0.9678 -0.2138
 8429SOL    HW236921   0.779   1.661  14.612 -0.0276  1.0929 -0.1084
 8430SOL     OW36922   3.015   0.760   6.933  0.1412  0.8616 -0.2549
 8430SOL    HW136923   2.996   0.667   6.927  0.2317  0.7971  0.4804
 8430SOL    HW236924   2.932   0.787   6.972 -0.4739 -1.9138  0.3160
 8431SOL     OW36925   3.280   1.821   5.786 -0.5245 -0.2083  1.0627
 8431SOL    HW136926   3.339   1.810   5.861 -0.9091 -0.7116  1.2935
 8431SOL    HW236927   3.338   1.851   5.717  1.5097 -0.0041  2.8509
 8432SOL     OW36928   2.533   3.241   5.678 -0.0228  0.3809 -0.7300
 8432SOL    HW136929   2.442   3.214   5.668 -0.6901  3.1669 -2.0206
 8432SOL    HW236930   2.555   3.311   5.617  0.1735  2.7314  2.0888
 8433SOL     OW36931   0.102   0.745  12.448  0.0494  0.2218  0.1351
 8433SOL    HW136932   0.014   0.711  12.463 -0.6604  1.9267 -0.1422
 8433SOL    HW236933   0.152   0.679  12.496  0.2324 -2.6679 -4.0103
 8434SOL     OW36934   4.568   3.153   5.658  0.3930  0.1140 -0.4875
 8434SOL    HW136935   4.565   3.114   5.745 -0.0631 -0.7602 -0.8998
 8434SOL    HW236936   4.610   3.084   5.607  1.0203 -0.1236  0.3599
 8435SOL     OW36937   2.492   4.435  15.977  0.3242 -0.2077 -0.3211
 8435SOL    HW136938   2.553   4.379  15.929  0.8023  1.1804 -1.3270
 8435SOL    HW236939   2.555   4.492  16.021 -0.6837 -0.1378  1.0121
 8436SOL     OW36940   3.748   2.355  13.587  0.1352 -0.1799  0.2112
 8436SOL    HW136941   3.788   2.280  13.631 -1.5236 -1.1118  0.1536
 8436SOL    HW236942   3.770   2.331  13.497  1.7399  1.9620  0.0449
 8437SOL     OW36943   1.578   2.531   4.756  0.5415  0.3808 -0.2225
 8437SOL    HW136944   1.495   2.557   4.796  1.0315  0.1198  0.9588
 8437SOL    HW236945   1.604   2.485   4.835  0.9364  0.4188 -0.3295
 8438SOL     OW36946   3.905   1.251   1.184  0.0504 -0.0798 -0.0922
 8438SOL    HW136947   3.828   1.306   1.198 -1.3901 -2.3269  0.8116
 8438SOL    HW236948   3.917   1.279   1.093  0.9148  1.8975  0.6130
 8439SOL     OW36949   2.911   4.657   5.569 -0.1129  0.1282  0.2381
 8439SOL    HW136950   2.940   4.722   5.504  0.0283  1.1204  1.2973
 8439SOL    HW236951   2.819   4.641   5.550 -0.0050  0.7344 -0.8321
 8440SOL     OW36952   2.173   2.942   7.831  0.3109  0.5333 -0.1111
 8440SOL    HW136953   2.169   3.037   7.825 -1.2588  0.5443  1.2213
 8440SOL    HW236954   2.141   2.919   7.743 -2.7784  0.7845  0.9317
 8441SOL     OW36955   2.192   4.344   4.012  0.4594  0.2858 -0.2237
 8441SOL    HW136956   2.131   4.282   4.052  0.8892 -0.3175 -0.4970
 8441SOL    HW236957   2.156   4.425   4.047  0.2391  0.3031 -0.5010
 8442SOL     OW36958   0.412   2.696   6.251 -0.5852  0.1184 -0.4937
 8442SOL    HW136959   0.497   2.735   6.230 -0.1385 -0.8942 -0.5832
 8442SOL    HW236960   0.376   2.695   6.162  0.0237 -1.8307 -0.7208
 8443SOL     OW36961   0.342   2.338  14.605 -0.2396 -0.0513  0.4390
 8443SOL    HW136962   0.350   2.388  14.523  0.7827  0.0154  0.5847
 8443SOL    HW236963   0.253   2.307  14.588  0.1924 -0.0282 -1.8994
 8444SOL     OW36964   3.219   3.080   7.946 -0.3829  0.4343  0.3403
 8444SOL    HW136965   3.242   2.998   7.991 -2.9055 -0.0990  0.6718
 8444SOL    HW236966   3.259   3.057   7.862  1.2579  1.5759  0.8037
 8445SOL     OW36967   0.980   4.055  12.631  0.2716 -0.4740 -0.2989
 8445SOL    HW136968   1.014   4.024  12.715 -0.5188 -0.8885 -0.1339
 8445SOL    HW236969   0.903   3.998  12.630  0.4393 -0.7455  2.9417
 8446SOL     OW36970   0.923   0.485   2.573  0.2704 -0.1021  0.1485
 8446SOL    HW136971   0.907   0.543   2.498 -0.9228 -1.1439 -0.3917
 8446SOL    HW236972   0.994   0.431   2.541 -0.5398 -1.0300 -0.0789
 8447SOL     OW36973   0.998   3.078  10.808  0.0367 -0.4867 -0.3574
 8447SOL    HW136974   0.979   3.172  10.801 -1.5350 -0.6727  1.3301
 8447SOL    HW236975   0.921   3.045  10.762  1.4141 -1.7159 -1.7720
 8448SOL     OW36976   1.058   0.742   5.820  1.0196 -0.0065 -0.3982
 8448SOL    HW136977   1.084   0.650   5.811  1.8622 -0.0348  2.2963
 8448SOL    HW236978   1.011   0.753   5.738  0.3360  1.2842  0.1572
 8449SOL     OW36979   0.436   2.148  14.323  0.4214  0.3558 -0.2291
 8449SOL    HW136980   0.388   2.225  14.291  4.0820  2.5575 -0.4867
 8449SOL    HW236981   0.392   2.081  14.272 -1.4855  1.0863  0.4720
 8450SOL     OW36982   0.637   3.758   7.672 -0.1700  0.3175  0.3105
 8450SOL    HW136983   0.578   3.814   7.721  0.2679  0.2519  0.9192
 8450SOL    HW236984   0.702   3.747   7.742  0.8118 -0.5600 -0.7253
 8451SOL     OW36985   2.815   0.868   1.477  0.5501  0.0591 -0.8582
 8451SOL    HW136986   2.876   0.937   1.504  0.9688 -0.9830  0.8302
 8451SOL    HW236987   2.840   0.803   1.542  1.0509  0.4952 -0.6100
 8452SOL     OW36988   4.277   0.748   2.827  0.2005  0.1136  0.8236
 8452SOL    HW136989   4.310   0.742   2.916  2.5342 -2.3339 -0.2186
 8452SOL    HW236990   4.273   0.661   2.787  1.5412  0.8444 -0.9115
 8453SOL     OW36991   0.394   0.892  13.022  0.5823 -0.1924  0.8243
 8453SOL    HW136992   0.476   0.938  13.002 -0.1975  0.7862 -0.1464
 8453SOL    HW236993   0.416   0.801  13.002  0.4459  0.2333 -1.2328
 8454SOL     OW36994   1.600   3.047   2.917  0.5022  0.3154  0.0336
 8454SOL    HW136995   1.688   3.008   2.917  0.4329  0.1604  1.2939
 8454SOL    HW236996   1.569   3.015   2.832  1.1478 -1.4430  0.4671
 8455SOL     OW36997   3.211   2.564   3.867 -0.2106 -0.4069  0.0383
 8455SOL    HW136998   3.151   2.576   3.941 -0.2786  0.0254 -0.0857
 8455SOL    HW236999   3.283   2.625   3.883  0.5036 -1.8436  2.2581
 8456SOL     OW37000   0.120   0.317  14.680 -0.0870  0.2401 -0.0963
 8456SOL    HW137001   0.166   0.327  14.764  1.3351 -2.7498 -0.5112
 8456SOL    HW237002   0.031   0.330  14.713  0.3602  0.2409  1.1243
 8457SOL     OW37003   2.736   2.923   5.406  0.1707  0.3747  0.0199
 8457SOL    HW137004   2.726   2.857   5.475 -0.9664  1.2468  0.6963
 8457SOL    HW237005   2.780   3.000   5.444 -0.4809  0.5186  0.4882
 8458SOL     OW37006   4.500   2.363   6.859 -0.3299  0.5294 -0.4483
 8458SOL    HW137007   4.439   2.413   6.804  2.0154  4.5145  0.6092
 8458SOL    HW237008   4.570   2.330   6.802  1.1560  2.4011  0.2885
 8459SOL     OW37009   4.395   2.061   6.936  0.4001 -0.4997  0.0864
 8459SOL    HW137010   4.418   2.009   6.860 -1.5783  0.6486 -1.2842
 8459SOL    HW237011   4.482   2.079   6.973  1.4685 -1.3583 -2.0279
 8460SOL     OW37012   1.880   3.735   0.938 -0.6140 -0.5294 -0.9905
 8460SOL    HW137013   1.904   3.755   0.848 -1.5564  1.4956 -0.8072
 8460SOL    HW237014   1.861   3.824   0.970  1.5494  0.0748 -1.4006
 8461SOL     OW37015   2.152   3.881   0.525  0.1813 -0.4295 -0.1827
 8461SOL    HW137016   2.148   3.791   0.557  1.7533  0.1664  1.6226
 8461SOL    HW237017   2.204   3.869   0.445 -0.0470  1.2198 -0.5661
 8462SOL     OW37018   2.550   4.381   5.325 -0.0444  0.5695  0.0834
 8462SOL    HW137019   2.505   4.379   5.410  0.4772  1.2662  0.3751
 8462SOL    HW237020   2.631   4.414   5.363  0.6788 -0.5886 -0.4793
 8463SOL     OW37021   0.165   1.303  13.206  0.1059 -0.2825  0.7201
 8463SOL    HW137022   0.222   1.232  13.178  1.2331  1.3666 -1.1350
 8463SOL    HW237023   0.222   1.379  13.216 -0.5856  0.3644 -0.2991
 8464SOL     OW37024   3.819   2.671  17.105 -0.4068  0.4337  0.2370
 8464SOL    HW137025   3.744   2.656  17.163 -2.4381  0.4930 -2.3688
 8464SOL    HW237026   3.889   2.659  17.170 -1.7612  1.3356  1.8552
 8465SOL     OW37027   2.403   3.438   0.990  0.3546 -0.0704 -0.0770
 8465SOL    HW137028   2.363   3.377   1.053 -1.7820  0.5988 -0.8054
 8465SOL    HW237029   2.376   3.402   0.906  0.9310  1.1190 -0.7662
 8466SOL     OW37030   2.188   1.840   7.475 -0.2330 -0.1012 -0.0492
 8466SOL    HW137031   2.115   1.880   7.428 -0.4319 -1.2670 -0.7221
 8466SOL    HW237032   2.260   1.856   7.414 -0.6872  1.6917 -0.1190
 8467SOL     OW37033   3.523   1.526   5.117 -0.1140  0.4724 -0.0787
 8467SOL    HW137034   3.477   1.538   5.034  0.4805 -0.6864 -0.5830
 8467SOL    HW237035   3.601   1.582   5.112 -2.5907  3.8222 -0.8932
 8468SOL     OW37036   2.192   0.554  15.552  0.1479 -0.3867  0.1878
 8468SOL    HW137037   2.120   0.498  15.523  0.0225  0.2031 -0.6295
 8468SOL    HW237038   2.265   0.519  15.501 -0.7322 -0.3377 -1.0827
 8469SOL     OW37039   4.298   3.095   3.445  0.1308  0.2335  0.1487
 8469SOL    HW137040   4.281   3.095   3.540 -0.7391  0.7556 -0.0123
 8469SOL    HW237041   4.226   3.145   3.408  1.2793  1.8628  0.0858
 8470SOL     OW37042   2.296   4.058   6.795 -0.5495 -0.4936  0.3832
 8470SOL    HW137043   2.355   4.035   6.723 -0.9627 -0.8713  0.1670
 8470SOL    HW237044   2.234   4.116   6.751  1.2909  1.2251  0.0144
 8471SOL     OW37045   1.043   0.997   0.757 -0.1331  0.0738 -0.1356
 8471SOL    HW137046   1.041   0.956   0.671  0.6849  1.1675 -0.6770
 8471SOL    HW237047   1.132   1.031   0.760  0.1443 -0.7307  0.8071
 8472SOL     OW37048   0.521   3.817   2.153  0.2149  0.9691 -0.0300
 8472SOL    HW137049   0.615   3.807   2.137  0.3822  0.1543  1.4541
 8472SOL    HW237050   0.506   3.756   2.225  0.0322 -0.1478 -1.0184
 8473SOL     OW37051   4.560   1.193   9.110 -0.5125  0.0845  0.1314
 8473SOL    HW137052   4.553   1.158   9.021 -1.0468 -0.4479  0.3771
 8473SOL    HW237053   4.654   1.205   9.118 -0.4893  2.7409 -4.0212
 8474SOL     OW37054   1.146   1.080   1.756 -0.5429  0.0779 -0.1322
 8474SOL    HW137055   1.092   1.139   1.809 -0.0997  1.6897 -1.4776
 8474SOL    HW237056   1.198   1.141   1.704 -0.9750  0.2308 -0.3808
 8475SOL     OW37057   0.752   4.117   0.870  0.3920  0.3017 -0.0880
 8475SOL    HW137058   0.847   4.112   0.863  0.3150 -1.1520 -0.0864
 8475SOL    HW237059   0.724   4.176   0.800  2.1993  3.1422  1.5780
 8476SOL     OW37060   4.693   1.931   7.418  0.1550  0.3738 -0.6268
 8476SOL    HW137061   0.045   1.890   7.408  0.1512  0.1097  0.4454
 8476SOL    HW237062   4.714   1.975   7.500  1.9751 -0.1629 -0.8133
 8477SOL     OW37063   3.163   2.027   1.793 -0.0497  0.3942  0.7984
 8477SOL    HW137064   3.242   2.068   1.827 -0.3694  1.7281 -0.0666
 8477SOL    HW237065   3.110   1.997   1.868  0.8677 -1.7800  0.5622
 8478SOL     OW37066   1.615   3.892   6.148  0.3655 -0.3993  0.3235
 8478SOL    HW137067   1.531   3.929   6.123  0.9630  1.3605  0.9136
 8478SOL    HW237068   1.673   3.966   6.129  1.5787 -1.4192  0.0253
 8479SOL     OW37069   2.353   0.584   4.253  0.3163 -0.4601 -0.0833
 8479SOL    HW137070   2.328   0.528   4.179  0.8819  0.7678 -1.1994
 8479SOL    HW237071   2.346   0.531   4.333  0.6360 -2.5078 -1.3939
 8480SOL     OW37072   3.333   3.819   5.479  0.1483  0.1362 -0.3083
 8480SOL    HW137073   3.387   3.778   5.547  0.8123  0.7895 -0.4411
 8480SOL    HW237074   3.379   3.902   5.483  0.0752  0.1204  0.8638
 8481SOL     OW37075   4.239   3.165  16.406  0.2302 -0.2104  0.0222
 8481SOL    HW137076   4.242   3.070  16.400 -0.9149 -0.1628 -1.2407
 8481SOL    HW237077   4.147   3.176  16.384 -0.0119 -0.6571  0.8251
 8482SOL     OW37078   2.469   0.603   3.836  0.0068 -1.0468  0.0320
 8482SOL    HW137079   2.474   0.674   3.772  0.2904  0.4500  1.7217
 8482SOL    HW237080   2.557   0.565   3.833  0.2621 -0.5870  1.5895
 8483SOL     OW37081   4.204   3.204   8.168 -0.0948  0.3503 -0.0091
 8483SOL    HW137082   4.275   3.139   8.165  0.2455  0.5962  2.2926
 8483SOL    HW237083   4.216   3.249   8.085  2.9215  0.4584  0.4642
 8484SOL     OW37084   2.741   2.249   1.323  0.0187  0.8444 -0.4385
 8484SOL    HW137085   2.740   2.217   1.413  0.9160  0.1946 -0.6525
 8484SOL    HW237086   2.834   2.234   1.308 -0.1123 -0.3120 -0.0831
 8485SOL     OW37087   2.855   3.370   1.190  0.6832 -0.2273  0.0769
 8485SOL    HW137088   2.864   3.464   1.201 -3.1885  0.2846 -1.3647
 8485SOL    HW237089   2.776   3.362   1.243  0.6587 -0.8260 -0.0512
 8486SOL     OW37090   1.202   0.583   6.189  0.2142  0.0780  0.9880
 8486SOL    HW137091   1.170   0.672   6.203  0.5551  0.3133  0.2705
 8486SOL    HW237092   1.266   0.584   6.261  0.1444  1.2459  1.0424
 8487SOL     OW37093   1.389   2.749   7.058 -0.2191 -0.5883 -0.1357
 8487SOL    HW137094   1.305   2.789   7.082 -0.5303 -1.6031  0.4588
 8487SOL    HW237095   1.412   2.805   6.984 -2.4549  1.3997  0.7032
 8488SOL     OW37096   4.437   1.204   6.934  0.0109 -0.5199  0.3125
 8488SOL    HW137097   4.403   1.256   7.007  2.2841  0.0741  0.9790
 8488SOL    HW237098   4.496   1.261   6.885  0.7434 -0.3099  1.4443
 8489SOL     OW37099   2.747   4.205   2.362  0.1010  0.3794 -0.2005
 8489SOL    HW137100   2.770   4.288   2.404  1.5578 -1.3587  2.4229
 8489SOL    HW237101   2.777   4.237   2.277 -0.5088 -1.0080 -0.9519
 8490SOL     OW37102   1.905   1.743   4.850 -0.0193  0.4463 -0.3339
 8490SOL    HW137103   1.811   1.759   4.847  0.1407  1.5811  0.4725
 8490SOL    HW237104   1.928   1.690   4.774 -0.4500 -0.2282  0.0153
 8491SOL     OW37105   1.162   1.676  14.217 -0.4170  0.3497  0.1072
 8491SOL    HW137106   1.093   1.706  14.157  1.8243  2.2222 -1.5529
 8491SOL    HW237107   1.110   1.630  14.282  0.2884 -0.2942  0.2133
 8492SOL     OW37108   4.462   4.543  15.807 -0.2629  0.2715 -0.1863
 8492SOL    HW137109   4.399   4.560  15.877  0.5698 -1.4300  0.9600
 8492SOL    HW237110   4.511   4.624  15.794 -2.5620  1.4148 -1.6405
 8493SOL     OW37111   0.267   1.816   7.460 -0.1431  0.2442  0.4676
 8493SOL    HW137112   0.282   1.841   7.551 -1.4651  2.1839  0.1655
 8493SOL    HW237113   0.291   1.723   7.456 -3.3636 -0.5015 -2.1316
 8494SOL     OW37114   4.391   1.779   2.467  0.4502 -0.3311  0.0591
 8494SOL    HW137115   4.476   1.824   2.469  1.4769 -2.3078  1.5998
 8494SOL    HW237116   4.412   1.698   2.515  2.2609 -0.6448 -1.2690
 8495SOL     OW37117   0.037   3.802   4.829  0.1598  0.7203  0.7654
 8495SOL    HW137118   4.708   3.767   4.893  0.0679 -0.9543 -0.2337
 8495SOL    HW237119   4.732   3.889   4.819  1.7144  1.2555 -0.5737
 8496SOL     OW37120   1.766   1.560  17.310  0.3854  0.1631 -0.0785
 8496SOL    HW137121   1.786   1.647  17.277  0.0009  0.5656  0.7348
 8496SOL    HW237122   1.678   1.541  17.277  0.1365  0.3072  0.5009
 8497SOL     OW37123   1.355   0.317   2.632 -0.1609  0.2765 -0.0121
 8497SOL    HW137124   1.431   0.374   2.621 -2.0646  2.7585 -0.3565
 8497SOL    HW237125   1.308   0.360   2.704  2.7967  0.3625  1.8987
 8498SOL     OW37126   3.277   2.913  16.329 -0.4439  0.0558 -0.3154
 8498SOL    HW137127   3.369   2.891  16.310 -0.1482 -0.1457  1.3158
 8498SOL    HW237128   3.282   3.008  16.316  0.4915  0.1373  0.6524
 8499SOL     OW37129   0.259   3.698   7.245  0.3016 -0.2377  0.0318
 8499SOL    HW137130   0.274   3.662   7.157 -0.6538 -1.6201  0.4393
 8499SOL    HW237131   0.349   3.700   7.278 -0.0678 -1.3714  1.1092
 8500SOL     OW37132   3.027   3.253   7.712 -0.2889 -0.2397 -0.2689
 8500SOL    HW137133   3.102   3.200   7.739 -0.7138 -0.9051 -0.4136
 8500SOL    HW237134   3.073   3.296   7.639  2.8103 -2.1299  0.5548
 8501SOL     OW37135   4.227   2.591  11.875  0.0691  0.6926  0.1051
 8501SOL    HW137136   4.317   2.616  11.898  1.6398 -3.5986 -1.2941
 8501SOL    HW237137   4.246   2.542  11.795 -1.7056  1.7278 -0.9515
 8502SOL     OW37138   4.503   1.297   8.492 -0.5217 -0.0403  0.5415
 8502SOL    HW137139   4.484   1.215   8.538  1.7524 -0.7855  0.1730
 8502SOL    HW237140   4.563   1.262   8.426  0.9940 -1.1851  2.5375
 8503SOL     OW37141   2.885   0.564   4.463  0.2295 -0.3811 -0.4003
 8503SOL    HW137142   2.958   0.624   4.481 -2.0414  2.5507 -1.0704
 8503SOL    HW237143   2.878   0.571   4.368 -0.6482 -0.2892 -0.3271
 8504SOL     OW37144   3.654   0.233   3.646  0.4663 -0.2732 -0.8236
 8504SOL    HW137145   3.645   0.280   3.564  0.8727  0.6414 -0.3482
 8504SOL    HW237146   3.744   0.255   3.672 -0.1188  1.1742 -0.0368
 8505SOL     OW37147   4.720   1.501   6.226  0.0293 -0.0959 -0.2974
 8505SOL    HW137148   0.000   1.517   6.319 -1.8721  0.2107 -0.0685
 8505SOL    HW237149   4.656   1.430   6.227 -0.4756  0.3848  0.4275
 8506SOL     OW37150   1.256   4.414  17.052 -0.7803 -0.1338 -0.1856
 8506SOL    HW137151   1.348   4.413  17.025 -0.6702  1.1338  0.1535
 8506SOL    HW237152   1.269   4.406  17.146  0.9534  0.6966 -0.3523
 8507SOL     OW37153   2.932   2.416   8.547 -0.3089  0.2755 -0.1380
 8507SOL    HW137154   2.955   2.386   8.458  1.6760 -1.4786  0.9589
 8507SOL    HW237155   2.842   2.441   8.527 -0.2560  0.2793 -0.3796
 8508SOL     OW37156   2.560   1.054   4.296  0.0049 -0.2572  0.5022
 8508SOL    HW137157   2.573   0.966   4.332  1.6408  0.4766  1.7071
 8508SOL    HW237158   2.629   1.055   4.230 -0.3373  2.7901  0.2144
 8509SOL     OW37159   1.137   0.052  12.773 -0.4281 -0.1008 -0.4974
 8509SOL    HW137160   1.197   0.060  12.699  0.7011 -2.1429  0.1980
 8509SOL    HW237161   1.055   0.016  12.738 -2.0923  1.3728  1.9215
 8510SOL     OW37162   3.164   1.130   4.277 -0.0655 -1.3794  0.5851
 8510SOL    HW137163   3.172   1.203   4.339 -0.1108 -0.1032 -0.9208
 8510SOL    HW237164   3.076   1.094   4.288 -0.5923 -0.1909  0.2742
 8511SOL     OW37165   4.332   3.673   4.500 -0.9407 -0.2433 -0.3148
 8511SOL    HW137166   4.240   3.656   4.520 -1.2524  1.0597 -0.6274
 8511SOL    HW237167   4.332   3.759   4.458  0.7917  1.4387  3.0711
 8512SOL     OW37168   4.531   0.174   4.111  0.0380  0.1656  0.1514
 8512SOL    HW137169   4.513   0.221   4.029 -1.2997 -2.2215 -0.9105
 8512SOL    HW237170   4.605   0.226   4.142  0.3922  1.5020 -2.8821
 8513SOL     OW37171   2.329   0.842   7.378  0.2144  0.0198  0.5594
 8513SOL    HW137172   2.279   0.762   7.394  1.2831 -0.4188  1.7122
 8513SOL    HW237173   2.283   0.868   7.299 -0.4341 -1.6002  0.4087
 8514SOL     OW37174   1.175   4.357   5.414 -0.8098 -0.3850  0.4207
 8514SOL    HW137175   1.114   4.321   5.350 -1.8349  2.0414  0.0804
 8514SOL    HW237176   1.257   4.341   5.367 -2.0003  0.4309 -1.8855
 8515SOL     OW37177   1.428   3.239  12.497 -0.0098  0.5303 -0.3074
 8515SOL    HW137178   1.367   3.178  12.454  0.3302 -0.9654  1.3241
 8515SOL    HW237179   1.482   3.256  12.420 -1.9579  0.6978 -1.6452
 8516SOL     OW37180   4.603   1.730   8.377 -0.3686 -0.3619  0.1174
 8516SOL    HW137181   4.625   1.772   8.460 -0.6942 -1.4735  0.7708
 8516SOL    HW237182   4.544   1.661   8.408 -1.4921 -0.4595 -2.2512
 8517SOL     OW37183   3.609   0.380   3.420 -0.0942  0.2487  0.0271
 8517SOL    HW137184   3.665   0.434   3.365  1.5412 -2.3057 -0.8417
 8517SOL    HW237185   3.532   0.437   3.426  0.4652  0.7627  2.3933
 8518SOL     OW37186   2.844   2.632   6.241  0.1104 -0.0684 -0.1436
 8518SOL    HW137187   2.762   2.661   6.280  1.2716  1.1698  1.4111
 8518SOL    HW237188   2.900   2.680   6.302 -0.3827 -0.5621  0.6951
 8519SOL     OW37189   4.330   1.728   7.047 -0.3615 -0.4713  0.2664
 8519SOL    HW137190   4.397   1.796   7.059 -0.1438 -1.1984  3.2145
 8519SOL    HW237191   4.336   1.708   6.954  0.3424  0.7066  0.0452
 8520SOL     OW37192   3.174   1.751   4.949  0.3352  0.3700 -0.7589
 8520SOL    HW137193   3.191   1.824   4.889 -1.9744 -0.2793 -2.1630
 8520SOL    HW237194   3.082   1.772   4.962  0.0426 -0.8485 -0.9418
 8521SOL     OW37195   0.198   2.192   2.937 -0.1763  0.8128  0.6394
 8521SOL    HW137196   0.197   2.129   3.009 -0.1890 -0.2072 -0.2442
 8521SOL    HW237197   0.292   2.208   2.924 -0.3236 -0.1484 -1.7343
 8522SOL     OW37198   1.349   2.425   2.283  0.6379 -0.1667 -0.2243
 8522SOL    HW137199   1.420   2.443   2.222  2.7922  3.1510  3.2411
 8522SOL    HW237200   1.268   2.444   2.237  0.6748  2.4272  0.7936
 8523SOL     OW37201   0.198   0.721   5.229 -0.0023  0.3171  0.5891
 8523SOL    HW137202   0.240   0.649   5.182  0.7835  0.5772  0.8973
 8523SOL    HW237203   0.157   0.667   5.296  2.1312 -0.7532  1.0473
 8524SOL     OW37204   1.802   1.486   1.288 -0.6780 -0.1410  0.1214
 8524SOL    HW137205   1.886   1.526   1.264 -1.0657  1.0025  0.6281
 8524SOL    HW237206   1.796   1.524   1.376 -1.7390  1.4677 -0.6513
 8525SOL     OW37207   2.253   3.471  15.547 -0.7174 -0.0649  0.1082
 8525SOL    HW137208   2.280   3.553  15.504  0.8643 -0.9462 -0.5811
 8525SOL    HW237209   2.215   3.428  15.471  0.8466 -1.0524 -0.1157
 8526SOL     OW37210   1.583   2.189  11.068  0.2948  0.0476  0.1589
 8526SOL    HW137211   1.596   2.282  11.090  0.1262 -0.1448  1.0671
 8526SOL    HW237212   1.511   2.186  11.005 -0.0893  2.5724  0.4620
 8527SOL     OW37213   4.015   3.496   0.027  0.3167 -0.2350  0.2049
 8527SOL    HW137214   4.022   3.475  17.669  2.0615 -1.3954  0.5985
 8527SOL    HW237215   4.018   3.411   0.072  1.6056 -0.2277  0.1504
 8528SOL     OW37216   1.335   3.541   2.075 -0.3311 -0.0787  0.2719
 8528SOL    HW137217   1.413   3.578   2.033  0.1350 -1.6920 -0.2782
 8528SOL    HW237218   1.338   3.593   2.155  0.5211  1.3785 -0.7067
 8529SOL     OW37219   0.128   3.886   4.008  0.0922 -0.5802  0.2212
 8529SOL    HW137220   0.103   3.948   3.939  1.2427 -2.2911 -1.7072
 8529SOL    HW237221   0.077   3.919   4.082  1.9467 -0.4810  1.4589
 8530SOL     OW37222   3.500   4.166   1.280  0.2296  0.0242 -0.4250
 8530SOL    HW137223   3.483   4.072   1.278  1.0860 -0.1706  1.9574
 8530SOL    HW237224   3.443   4.186   1.354  0.7878  0.4342 -0.1044
 8531SOL     OW37225   1.842   3.359  12.070  0.3080  0.3804  0.7669
 8531SOL    HW137226   1.889   3.427  12.118 -0.3034  1.0163  0.4663
 8531SOL    HW237227   1.795   3.401  11.998  0.5749  0.7653  0.8211
 8532SOL     OW37228   1.535   3.649  13.153  0.0593 -0.6149  0.0764
 8532SOL    HW137229   1.554   3.576  13.094  2.8609  0.2401 -0.0684
 8532SOL    HW237230   1.464   3.613  13.206 -1.4288  2.3439  0.0498
 8533SOL     OW37231   3.555   2.061  17.140 -0.0770  0.2580  0.2965
 8533SOL    HW137232   3.604   2.136  17.107  0.0823 -0.1165 -0.3249
 8533SOL    HW237233   3.499   2.040  17.065  1.3878  0.2578 -0.8182
 8534SOL     OW37234   2.065   1.982   6.702  0.0596  0.3352 -0.3300
 8534SOL    HW137235   2.003   1.909   6.693 -0.5900  0.9887 -1.1534
 8534SOL    HW237236   2.129   1.958   6.768 -1.8657 -0.3760  1.2792
 8535SOL     OW37237   3.632   3.384   0.875  0.2028  0.0590 -0.1222
 8535SOL    HW137238   3.666   3.296   0.887  0.9778  0.5875  1.5594
 8535SOL    HW237239   3.629   3.412   0.967 -1.8926  0.2474 -0.2373
 8536SOL     OW37240   0.813   0.865  14.804  0.2164 -0.5392 -0.1921
 8536SOL    HW137241   0.786   0.780  14.770 -3.0546 -0.1987  1.5846
 8536SOL    HW237242   0.864   0.837  14.880  0.5035  1.0047  0.1772
 8537SOL     OW37243   2.684   0.403  17.019 -0.6899 -0.2476  0.4490
 8537SOL    HW137244   2.628   0.477  16.997 -0.7677 -0.2485  0.6537
 8537SOL    HW237245   2.690   0.398  17.114 -3.2454 -0.4990  0.5745
 8538SOL     OW37246   3.254   1.939   4.775  0.0554  0.1119  0.4606
 8538SOL    HW137247   3.233   1.935   4.682 -1.0213  2.0483  0.6305
 8538SOL    HW237248   3.330   1.993   4.750 -0.7189  1.0162  0.0528
 8539SOL     OW37249   2.953   3.506   2.722  0.6575  0.2639  0.0497
 8539SOL    HW137250   3.046   3.504   2.745  1.3784 -0.4827 -2.9196
 8539SOL    HW237251   2.923   3.493   2.812 -2.5425  0.9572 -0.9136
 8540SOL     OW37252   4.490   2.557  15.673  0.0027  0.4941 -0.3337
 8540SOL    HW137253   4.398   2.565  15.699  0.2587 -0.7887  0.9605
 8540SOL    HW237254   4.536   2.630  15.714  1.0355 -0.7076  0.6556
 8541SOL     OW37255   1.888   2.669   8.471 -0.0531  0.0413 -0.2846
 8541SOL    HW137256   1.803   2.631   8.491  1.3414 -2.7831  0.3804
 8541SOL    HW237257   1.874   2.745   8.527  1.8173  0.5088 -0.4506
 8542SOL     OW37258   3.695   0.462   8.712 -0.2506 -0.1471 -0.3320
 8542SOL    HW137259   3.600   0.472   8.720 -0.3275 -0.9139 -0.3493
 8542SOL    HW237260   3.694   0.371   8.741 -0.2630 -0.3572 -0.9739
 8543SOL     OW37261   0.571   0.272   4.949  0.9010  0.2805 -0.6053
 8543SOL    HW137262   0.621   0.260   4.869  0.4111 -0.5185 -0.7892
 8543SOL    HW237263   0.497   0.212   4.939 -0.0976  1.3503  0.2387
 8544SOL     OW37264   4.344   0.855   6.752  0.4767 -0.3628 -0.4251
 8544SOL    HW137265   4.332   0.942   6.714  1.0802  0.1024  0.4647
 8544SOL    HW237266   4.259   0.827   6.785 -0.4162 -0.7469 -3.0571
 8545SOL     OW37267   3.775   2.760   0.831  0.0293 -0.5373 -0.4655
 8545SOL    HW137268   3.821   2.817   0.769 -1.7840  1.5126  0.0556
 8545SOL    HW237269   3.767   2.682   0.776 -0.4187 -1.2424  0.6131
 8546SOL     OW37270   3.172   4.360   5.324 -0.2326  0.3974  0.1058
 8546SOL    HW137271   3.134   4.378   5.238  2.0147  0.7772 -0.8207
 8546SOL    HW237272   3.267   4.364   5.313 -0.3459 -0.3099 -1.0842
 8547SOL     OW37273   1.679   4.064   9.978  0.3309 -0.1462  0.6463
 8547SOL    HW137274   1.764   4.021   9.989  0.2735 -0.5277 -0.4390
 8547SOL    HW237275   1.701   4.157   9.987 -3.2083  0.8043 -0.5490
 8548SOL     OW37276   2.698   3.401   1.399  0.7029  0.0832 -0.2480
 8548SOL    HW137277   2.777   3.406   1.452  1.6969  0.6222 -1.7978
 8548SOL    HW237278   2.672   3.314   1.429 -1.3783 -0.4244 -3.5353
 8549SOL     OW37279   1.634   2.943   3.217  0.5148 -0.4916 -0.4326
 8549SOL    HW137280   1.631   2.918   3.124  0.8006 -0.8682 -0.3451
 8549SOL    HW237281   1.651   3.037   3.214 -1.2794 -0.1769 -0.2201
 8550SOL     OW37282   4.323   4.104   3.380  0.1026 -0.0925  0.2027
 8550SOL    HW137283   4.324   4.092   3.475  1.3100 -1.9173 -0.0420
 8550SOL    HW237284   4.418   4.113   3.370  0.1704  0.6883  1.6179
 8551SOL     OW37285   0.544   3.111  11.510 -0.1255 -0.4076  0.2361
 8551SOL    HW137286   0.514   3.201  11.525 -0.8711 -0.5742 -0.2533
 8551SOL    HW237287   0.581   3.123  11.422  1.1651  1.6210  1.0604
 8552SOL     OW37288   3.852   2.355   2.568  0.3716 -0.0557  0.0177
 8552SOL    HW137289   3.757   2.363   2.563  0.4097 -0.2468 -1.0522
 8552SOL    HW237290   3.868   2.267   2.534  0.5802 -0.7240  1.8598
 8553SOL     OW37291   1.587   1.295   3.248  0.7475  0.0830  0.7366
 8553SOL    HW137292   1.536   1.229   3.201  1.0329 -0.0696  0.6435
 8553SOL    HW237293   1.673   1.258   3.264  0.1268 -1.7483 -0.2127
 8554SOL     OW37294   3.180   2.455  15.340 -0.1405  0.5864  0.1268
 8554SOL    HW137295   3.207   2.453  15.249 -0.9259 -0.7511 -0.0752
 8554SOL    HW237296   3.230   2.527  15.377 -0.6858  0.3090  1.4091
 8555SOL     OW37297   4.721   2.279   3.825 -0.9659  0.2680 -0.2180
 8555SOL    HW137298   4.731   2.357   3.771 -0.2858 -0.6231 -1.3806
 8555SOL    HW237299   4.625   2.270   3.829 -0.8879  0.2362  1.4928
 8556SOL     OW37300   1.543   1.628   9.602 -0.4330  0.2251  0.3948
 8556SOL    HW137301   1.475   1.695   9.593  1.1932  2.0675  1.8502
 8556SOL    HW237302   1.597   1.642   9.524 -0.7526 -0.2445  0.0863
 8557SOL     OW37303   0.418   4.723  12.988 -0.4069 -0.3126 -0.6380
 8557SOL    HW137304   0.436   4.669  12.910 -1.0625  1.3136 -1.9036
 8557SOL    HW237305   0.445   0.073  12.952  1.4990 -1.5347 -2.0990
 8558SOL     OW37306   3.837   3.720   7.730  0.4928 -0.5486 -0.0621
 8558SOL    HW137307   3.901   3.693   7.796  2.3979 -0.2710 -1.7711
 8558SOL    HW237308   3.887   3.771   7.665 -1.2375  2.0095  0.6116
 8559SOL     OW37309   0.026   0.601   7.554  0.7498  0.0038 -0.0652
 8559SOL    HW137310   4.732   0.556   7.634 -2.8181  0.2370 -1.1822
 8559SOL    HW237311   0.104   0.550   7.531 -2.0460 -3.9207 -0.7599
 8560SOL     OW37312   0.253   2.352   1.115 -0.6728  0.3457 -0.3774
 8560SOL    HW137313   0.218   2.272   1.155 -0.1241  0.1356 -0.3170
 8560SOL    HW237314   0.218   2.425   1.166 -2.7584 -0.4358 -0.6900
 8561SOL     OW37315   1.350   2.813   6.166 -0.1912 -0.3337 -0.1898
 8561SOL    HW137316   1.425   2.856   6.124  1.2885 -0.8065  1.9302
 8561SOL    HW237317   1.383   2.813   6.256  0.3705 -0.0498 -0.3965
 8562SOL     OW37318   1.126   0.336   2.447 -0.7729 -0.3570  0.1783
 8562SOL    HW137319   1.152   0.390   2.372  0.0668 -0.4053  0.4335
 8562SOL    HW237320   1.204   0.342   2.503  1.0285  1.4519 -2.5013
 8563SOL     OW37321   2.674   3.497   3.277 -0.7666  0.1238 -0.0392
 8563SOL    HW137322   2.675   3.406   3.249  0.0126  0.4370 -1.0243
 8563SOL    HW237323   2.769   3.512   3.280 -0.9170  1.2151 -0.7087
 8564SOL     OW37324   3.940   3.266   7.312 -0.5866  0.0034  0.4827
 8564SOL    HW137325   3.928   3.235   7.402  1.4411 -2.2407 -0.0267
 8564SOL    HW237326   3.963   3.359   7.325 -1.9507  0.2647  1.0344
 8565SOL     OW37327   1.700   1.431   5.610 -0.6761 -0.8429  0.0832
 8565SOL    HW137328   1.751   1.496   5.658 -2.7117  0.8167 -0.0128
 8565SOL    HW237329   1.659   1.386   5.684 -1.0825 -0.4267  0.1128
 8566SOL     OW37330   3.853   0.725   5.996 -0.2507  0.0117  0.0279
 8566SOL    HW137331   3.788   0.707   5.927 -0.9161  1.8924  0.1503
 8566SOL    HW237332   3.813   0.698   6.079 -1.1707  0.8812 -0.1236
 8567SOL     OW37333   3.907   3.516   1.558  0.5551  0.0174  0.3066
 8567SOL    HW137334   3.935   3.583   1.620  0.7977  1.7221 -1.6140
 8567SOL    HW237335   3.922   3.432   1.600  0.7818 -0.1758 -0.1645
 8568SOL     OW37336   3.001   0.751  12.054 -0.3822  1.0204  0.1629
 8568SOL    HW137337   3.080   0.799  12.080  1.5479 -1.2384 -1.5504
 8568SOL    HW237338   3.050   0.671  12.037  1.0515  1.6995  1.1585
 8569SOL     OW37339   1.668   3.678   2.565 -0.1770 -0.0412  0.1540
 8569SOL    HW137340   1.735   3.741   2.592 -0.1520  0.7409 -1.7864
 8569SOL    HW237341   1.712   3.617   2.506  0.9863  0.4671  0.5059
 8570SOL     OW37342   4.109   0.902  14.140 -0.4612 -0.3027  0.5692
 8570SOL    HW137343   4.137   0.965  14.206 -0.3300  1.2818 -0.9850
 8570SOL    HW237344   4.016   0.889  14.159 -0.7223  1.3742  0.4494
 8571SOL     OW37345   1.415   4.545   8.235 -0.0088 -0.1018 -0.0846
 8571SOL    HW137346   1.504   4.540   8.270 -0.1320 -1.5169  0.0572
 8571SOL    HW237347   1.374   4.583   8.313  1.6067  1.6431 -0.0730
 8572SOL     OW37348   4.222   2.821   8.115  0.1537  0.0692 -0.4243
 8572SOL    HW137349   4.270   2.826   8.198 -2.8006  0.9536  1.2315
 8572SOL    HW237350   4.236   2.729   8.093  3.1215  0.4085 -0.0545
 8573SOL     OW37351   2.293   2.240   6.187 -0.2630 -0.0760 -0.0198
 8573SOL    HW137352   2.321   2.155   6.220 -0.8901 -1.1548 -2.3198
 8573SOL    HW237353   2.201   2.231   6.160 -1.0544 -0.6378  2.8426
 8574SOL     OW37354   4.290   2.191  15.996  0.0411 -0.0509  0.3064
 8574SOL    HW137355   4.196   2.205  15.982  0.6813  3.5138 -0.6307
 8574SOL    HW237356   4.312   2.133  15.923  0.1685 -1.4516  1.4718
 8575SOL     OW37357   4.479   0.069   7.505 -0.2531 -0.0915  0.3531
 8575SOL    HW137358   4.533   0.148   7.501  2.3434 -1.8624  0.7914
 8575SOL    HW237359   4.423   0.077   7.428  1.6325  1.1513 -0.8978
 8576SOL     OW37360   4.531   1.573   9.297 -0.5509  0.1429  0.3863
 8576SOL    HW137361   4.543   1.504   9.361  1.0638  0.4567  0.4287
 8576SOL    HW237362   4.576   1.534   9.223 -1.4474 -2.9270  1.4866
 8577SOL     OW37363   4.156   2.203   3.015 -0.1754  0.2309  0.6615
 8577SOL    HW137364   4.218   2.249   3.072 -0.2922  0.5893  0.5046
 8577SOL    HW237365   4.201   2.201   2.931  0.6954 -1.3495  1.1795
 8578SOL     OW37366   3.032   4.712  13.624  0.0475 -0.2001  0.4090
 8578SOL    HW137367   3.122   4.729  13.652 -0.5537 -2.1297  3.4386
 8578SOL    HW237368   3.028   0.002  13.531 -0.2040 -3.7603 -0.4945
 8579SOL     OW37369   1.154   1.042  13.546 -0.4717 -0.0766 -0.3933
 8579SOL    HW137370   1.077   1.092  13.519 -0.0942  0.8469  0.2660
 8579SOL    HW237371   1.219   1.107  13.571 -0.5168 -0.3007  0.3223
 8580SOL     OW37372   3.414   1.222   5.296  0.1602 -0.7086 -0.5497
 8580SOL    HW137373   3.346   1.155   5.289 -1.3735  0.7591  0.1590
 8580SOL    HW237374   3.488   1.165   5.278  0.3320 -0.5277 -0.4202
 8581SOL     OW37375   1.024   1.060  10.897 -0.1866 -0.0994  0.1217
 8581SOL    HW137376   0.938   1.033  10.865 -2.0990 -0.8757  5.8477
 8581SOL    HW237377   1.074   0.980  10.909  1.8440  0.9852 -1.1860
 8582SOL     OW37378   3.968   4.238   5.229 -0.4133 -0.5242  0.1602
 8582SOL    HW137379   3.873   4.237   5.218 -0.2290 -1.6688 -1.3172
 8582SOL    HW237380   3.996   4.157   5.186 -2.8797 -0.1513 -2.1144
 8583SOL     OW37381   1.798   4.638  12.349  0.0703  0.2131 -0.0122
 8583SOL    HW137382   1.820   4.578  12.278 -1.7803  0.1207 -0.5178
 8583SOL    HW237383   1.876   4.693  12.355  0.2157  0.0637 -0.5273
 8584SOL     OW37384   1.382   1.627   4.879  0.1058 -0.0446 -0.3595
 8584SOL    HW137385   1.340   1.543   4.897 -1.8625  1.2123  0.8497
 8584SOL    HW237386   1.317   1.692   4.905 -0.1510 -0.3328 -0.2921
 8585SOL     OW37387   3.415   3.824  17.483  0.8623 -0.1100 -0.0333
 8585SOL    HW137388   3.474   3.760  17.522 -1.0443 -0.9500  1.5121
 8585SOL    HW237389   3.379   3.783  17.404  0.4680  1.3490 -0.6078
 8586SOL     OW37390   0.979   2.967   3.479  0.5065  0.5337 -0.0632
 8586SOL    HW137391   1.014   3.056   3.475 -0.7905  0.9943 -0.9860
 8586SOL    HW237392   0.902   2.983   3.533  0.1548  0.7976 -0.6495
 8587SOL     OW37393   2.978   0.901   4.654  0.2827 -0.4184 -0.5753
 8587SOL    HW137394   3.030   0.851   4.591  0.7363  0.4445 -0.8801
 8587SOL    HW237395   2.910   0.944   4.602 -1.0583 -0.4399  1.1632
 8588SOL     OW37396   3.683   1.835  17.568 -0.2888  0.2847 -0.1450
 8588SOL    HW137397   3.724   1.921  17.566  1.3249 -0.4490  1.1326
 8588SOL    HW237398   3.612   1.859  17.510  0.2824  1.5505 -0.3180
 8589SOL     OW37399   0.431   1.808   2.074  0.2444 -0.4957 -0.1997
 8589SOL    HW137400   0.383   1.798   2.156  0.5646 -0.1028  0.0372
 8589SOL    HW237401   0.369   1.770   2.012  2.2789 -0.2078 -2.3806
 8590SOL     OW37402   0.607   0.297   9.609  0.3002 -0.7573 -0.2277
 8590SOL    HW137403   0.650   0.242   9.543  0.3059  0.5212 -1.2782
 8590SOL    HW237404   0.591   0.373   9.554  2.1841 -0.5375 -0.4914
 8591SOL     OW37405   0.594   1.840  14.657 -0.0260 -0.1471  0.0589
 8591SOL    HW137406   0.570   1.929  14.633 -0.4836 -0.1854  0.3618
 8591SOL    HW237407   0.509   1.798  14.642  0.2711 -0.9555  0.6250
 8592SOL     OW37408   2.497   2.894   7.154  0.0137 -0.1405 -0.2377
 8592SOL    HW137409   2.541   2.854   7.079 -1.7106 -0.5049 -1.0488
 8592SOL    HW237410   2.548   2.974   7.165  0.2202 -0.3709  0.5010
 8593SOL     OW37411   2.054   4.660   8.412  0.4201  0.6207  0.3345
 8593SOL    HW137412   2.090   4.675   8.324 -1.4183 -0.6232 -0.6396
 8593SOL    HW237413   1.980   4.720   8.400  0.8440  0.9933 -0.4099
 8594SOL     OW37414   2.883   3.507   7.218  0.2464 -0.3256 -0.1522
 8594SOL    HW137415   2.932   3.426   7.233 -0.0145 -0.4280  0.1400
 8594SOL    HW237416   2.865   3.529   7.310  0.5715  0.4943 -0.2794
 8595SOL     OW37417   0.025   2.211   6.323 -0.0995  0.2808  0.4738
 8595SOL    HW137418   4.728   2.146   6.260 -0.5978 -0.3408  1.3721
 8595SOL    HW237419   0.025   2.286   6.263  1.6935 -1.5372 -1.8139
 8596SOL     OW37420   0.174   1.582   9.980  0.1406 -0.0810 -0.4885
 8596SOL    HW137421   0.201   1.539   9.899 -0.6228 -1.0958 -0.2040
 8596SOL    HW237422   0.161   1.670   9.944 -0.3390 -0.3858 -1.0676
 8597SOL     OW37423   3.465   3.389   0.618 -0.9656  0.3119 -0.0638
 8597SOL    HW137424   3.499   3.319   0.673  2.4776  1.6621 -0.4324
 8597SOL    HW237425   3.383   3.406   0.664 -1.2131  2.0860 -1.1437
 8598SOL     OW37426   1.579   3.535  12.161  0.5263 -0.5825  0.3511
 8598SOL    HW137427   1.486   3.559  12.165  1.1968  1.4599  3.5572
 8598SOL    HW237428   1.618   3.606  12.212 -1.4513 -0.5294  1.8090
 8599SOL     OW37429   2.945   3.852   3.676  0.0700  0.1992 -0.3421
 8599SOL    HW137430   2.969   3.898   3.596  0.7764  0.7959  0.2098
 8599SOL    HW237431   2.918   3.765   3.645  0.4205  0.1256 -0.4485
 8600SOL     OW37432   4.381   2.843   3.944  0.1721 -0.1881 -0.2658
 8600SOL    HW137433   4.452   2.907   3.943 -0.4143  0.4063 -2.3169
 8600SOL    HW237434   4.370   2.831   4.039  3.2208  1.1694  0.2455
 8601SOL     OW37435   1.395   0.933   0.592  0.7700  0.8502  0.3160
 8601SOL    HW137436   1.377   0.977   0.675 -1.2049 -0.2075  0.4565
 8601SOL    HW237437   1.336   0.858   0.593  0.3206  1.2028  0.4714
 8602SOL     OW37438   1.905   1.018   5.730 -0.3247  0.2387 -0.1672
 8602SOL    HW137439   1.958   1.006   5.808 -0.8137 -0.4370  0.0545
 8602SOL    HW237440   1.887   0.925   5.718 -0.8908  0.4072 -0.6379
 8603SOL     OW37441   3.706   2.219  10.795  0.1879  0.4780  0.1190
 8603SOL    HW137442   3.787   2.240  10.840  0.8241  1.6581 -1.5793
 8603SOL    HW237443   3.648   2.295  10.802 -0.1223 -0.0969  3.5325
 8604SOL     OW37444   0.075   2.789   6.900 -0.1636  0.0920 -0.0969
 8604SOL    HW137445   4.723   2.828   6.880 -0.1862  0.2186  0.2495
 8604SOL    HW237446   0.123   2.814   6.821  1.9906  0.4998  1.3379
 8605SOL     OW37447   1.352   2.440  16.946  0.6817  0.3278 -0.3356
 8605SOL    HW137448   1.418   2.392  16.996 -1.2935 -1.5940  0.4199
 8605SOL    HW237449   1.312   2.504  17.005 -1.0107 -1.1287  0.1063
 8606SOL     OW37450   0.018   1.183   5.043  0.0411 -0.0967 -0.2970
 8606SOL    HW137451   4.681   1.231   5.086  0.7663  0.1721  0.6141
 8606SOL    HW237452   0.001   1.101   5.089 -1.4015 -1.0618 -2.5263
 8607SOL     OW37453   4.727   2.954  17.634  0.5050  0.1946  0.1758
 8607SOL    HW137454   4.696   3.044  17.648  0.3581  0.1150  0.3682
 8607SOL    HW237455   0.044   2.965  17.554 -0.6721 -0.7409 -0.7007
 8608SOL     OW37456   1.308   4.109   9.418  0.1295 -0.3784  0.1034
 8608SOL    HW137457   1.278   4.126   9.329 -1.8914 -0.8992  0.7026
 8608SOL    HW237458   1.395   4.073   9.400  0.4912  0.1458  0.7792
 8609SOL     OW37459   2.071   2.669   9.070 -0.0271 -0.3520  0.2386
 8609SOL    HW137460   2.001   2.650   9.007  0.4055 -2.3928  0.3799
 8609SOL    HW237461   2.035   2.635   9.152  0.5404  0.4860  0.8354
 8610SOL     OW37462   4.365   1.779   9.232 -0.1358  0.4447  0.0023
 8610SOL    HW137463   4.347   1.794   9.139  1.6970 -1.3802 -0.6347
 8610SOL    HW237464   4.403   1.692   9.228 -1.1421  0.0374 -0.5604
 8611SOL     OW37465   0.169   3.024   2.465 -0.0972 -0.0071 -0.2838
 8611SOL    HW137466   0.224   3.066   2.399 -0.9618  1.6423  0.0439
 8611SOL    HW237467   0.156   3.092   2.531  2.1883 -2.3168  2.5090
 8612SOL     OW37468   1.601   1.096   2.601 -0.2999 -0.0296  0.1216
 8612SOL    HW137469   1.512   1.119   2.574  0.2992  2.1802 -0.0005
 8612SOL    HW237470   1.601   1.145   2.683  0.4806 -2.3622  1.5160
 8613SOL     OW37471   0.556   1.228   5.749  0.3017  0.2712  0.2999
 8613SOL    HW137472   0.472   1.182   5.738  0.5366 -0.1187  0.1272
 8613SOL    HW237473   0.609   1.156   5.782 -0.3805 -0.6606 -0.6163
 8614SOL     OW37474   3.584   3.321   6.357  0.4598  0.3900  0.3998
 8614SOL    HW137475   3.554   3.269   6.283 -1.6795  3.3666 -0.8065
 8614SOL    HW237476   3.513   3.384   6.353 -0.1997 -0.3498  0.5799
 8615SOL     OW37477   4.405   0.695   8.185 -0.7450  0.1327 -0.1657
 8615SOL    HW137478   4.480   0.653   8.227 -0.5012  1.9447  1.1664
 8615SOL    HW237479   4.436   0.782   8.161  0.2910  0.7828  3.6574
 8616SOL     OW37480   4.300   0.107  15.699 -0.8525  0.3429 -0.2984
 8616SOL    HW137481   4.367   0.169  15.728 -0.9444 -0.4228  1.5743
 8616SOL    HW237482   4.227   0.136  15.754  1.5901  1.9643  2.1092
 8617SOL     OW37483   2.325   4.138   9.113  0.0065 -0.7991  0.4700
 8617SOL    HW137484   2.386   4.120   9.042 -2.0809  2.2075 -2.0491
 8617SOL    HW237485   2.301   4.228   9.095 -0.8749 -1.1442 -0.0798
 8618SOL     OW37486   2.928   4.363   9.339 -0.2356  0.0058 -0.2838
 8618SOL    HW137487   2.858   4.297   9.333 -2.6467  2.8906 -3.6310
 8618SOL    HW237488   2.925   4.393   9.430  0.6089  0.9492 -0.5740
 8619SOL     OW37489   1.553   0.506   3.412 -0.3272  0.4322  0.2590
 8619SOL    HW137490   1.465   0.524   3.444  0.7022  3.2492  1.5779
 8619SOL    HW237491   1.582   0.597   3.398  0.3675 -0.0129 -1.1524
 8620SOL     OW37492   1.322   0.275   9.119 -0.1747  1.1269  0.1572
 8620SOL    HW137493   1.389   0.308   9.179  2.0614  0.0802 -1.7753
 8620SOL    HW237494   1.305   0.360   9.079  2.2591  1.5328  0.0029
 8621SOL     OW37495   2.811   3.047   2.389 -0.2119  0.2569 -0.2689
 8621SOL    HW137496   2.772   3.075   2.307  3.3671  2.1100 -1.3663
 8621SOL    HW237497   2.783   3.119   2.445  0.2457  0.0433  0.2346
 8622SOL     OW37498   1.191   2.564  14.948 -0.7555  0.2506  0.0121
 8622SOL    HW137499   1.263   2.522  14.995  0.0836  0.9371 -0.6668
 8622SOL    HW237500   1.164   2.482  14.907 -1.1609 -0.0900  0.9697
 8623SOL     OW37501   1.695   0.375   0.069 -0.4531  0.4349  0.5372
 8623SOL    HW137502   1.680   0.291   0.025 -0.6965 -0.2750  1.9778
 8623SOL    HW237503   1.631   0.370   0.140 -0.4789  1.0553  0.5591
 8624SOL     OW37504   1.503   2.110  16.015 -0.2340  0.6307 -0.2742
 8624SOL    HW137505   1.427   2.074  15.971 -0.4496 -0.7097  1.1995
 8624SOL    HW237506   1.471   2.200  16.017 -0.8483  0.3967  0.4597
 8625SOL     OW37507   0.238   0.246  15.760  0.3873  0.1024  0.5256
 8625SOL    HW137508   0.279   0.283  15.838  0.7068  2.2931 -0.6764
 8625SOL    HW237509   0.299   0.179  15.728 -0.2448 -0.2931  0.1400
 8626SOL     OW37510   0.500   1.913   8.602  0.4880 -0.1771 -0.2748
 8626SOL    HW137511   0.416   1.874   8.626  0.3092  0.6303  0.4366
 8626SOL    HW237512   0.479   1.932   8.511 -1.3855 -1.1666 -0.0321
 8627SOL     OW37513   4.138   1.168   7.933 -0.1462  0.0306 -0.0846
 8627SOL    HW137514   4.106   1.126   7.853 -2.2798  2.1578 -0.3679
 8627SOL    HW237515   4.078   1.242   7.944  0.0597  0.0264  1.0584
 8628SOL     OW37516   0.360   2.329   2.511 -0.4714 -0.3499 -0.7509
 8628SOL    HW137517   0.292   2.310   2.576  1.0524 -0.7164  0.7159
 8628SOL    HW237518   0.318   2.296   2.431 -0.6579  0.6154 -1.0473
 8629SOL     OW37519   0.042   0.556   5.428 -0.3076 -0.0300 -0.2436
 8629SOL    HW137520   4.714   0.496   5.470  1.5592  0.5008  3.2367
 8629SOL    HW237521   0.115   0.560   5.490 -2.4539 -2.3193  2.4342
 8630SOL     OW37522   4.019   3.641   5.918  0.0232 -0.0474 -0.0850
 8630SOL    HW137523   4.107   3.658   5.884  0.5127 -1.0650  0.6539
 8630SOL    HW237524   3.969   3.598   5.849  1.0851 -2.4701  0.6351
 8631SOL     OW37525   1.339   0.773  14.646 -0.9194 -0.0004 -0.0314
 8631SOL    HW137526   1.423   0.804  14.681 -1.7208  1.4964  0.5720
 8631SOL    HW237527   1.309   0.859  14.616 -0.7619 -1.3520 -4.0394
 8632SOL     OW37528   2.901   1.317   8.604 -0.1632  0.8160 -0.3945
 8632SOL    HW137529   2.976   1.372   8.629  0.1357  1.5205 -2.8478
 8632SOL    HW237530   2.832   1.381   8.623 -2.2785 -1.1847 -1.3984
 8633SOL     OW37531   1.072   0.855  17.003  0.0466  0.8539 -0.1058
 8633SOL    HW137532   0.985   0.828  17.032 -0.4728  1.7364 -0.8352
 8633SOL    HW237533   1.060   0.859  16.908 -2.9766  0.4002  0.2770
 8634SOL     OW37534   0.933   0.149   3.360  0.4491 -0.0868  0.5486
 8634SOL    HW137535   0.925   0.053   3.360  2.7664 -0.2678  1.5568
 8634SOL    HW237536   0.950   0.167   3.267  1.1717 -1.2751  0.4425
 8635SOL     OW37537   1.413   4.383  11.688  0.5659 -0.5967  0.0244
 8635SOL    HW137538   1.458   4.318  11.634  0.1108  0.2842 -1.4179
 8635SOL    HW237539   1.329   4.339  11.703  0.9015 -0.4513  2.2916
 8636SOL     OW37540   0.828   4.478   4.950 -0.2464 -0.4479 -0.0286
 8636SOL    HW137541   0.876   4.401   4.922  3.0688  2.4894 -2.4099
 8636SOL    HW237542   0.820   4.470   5.045 -1.2236  0.3021 -0.0357
 8637SOL     OW37543   2.385   2.031   4.655  0.6294 -0.0213 -0.2456
 8637SOL    HW137544   2.321   2.070   4.597 -0.9651  0.6739  2.0125
 8637SOL    HW237545   2.326   1.974   4.704 -0.1757 -0.1390 -1.3576
 8638SOL     OW37546   3.565   3.180  11.448 -0.4763  0.4099  0.4550
 8638SOL    HW137547   3.573   3.085  11.433  4.0412  0.8523  0.2365
 8638SOL    HW237548   3.655   3.200  11.472 -0.8824  1.1956  1.2882
 8639SOL     OW37549   1.092   1.944   6.496  0.0098  0.2573 -0.8264
 8639SOL    HW137550   1.103   1.880   6.567 -1.5875  1.1320  0.1988
 8639SOL    HW237551   1.082   2.028   6.540 -1.0070 -0.0071 -0.5609
 8640SOL     OW37552   2.820   4.581   2.445 -0.4409 -0.5523  0.3333
 8640SOL    HW137553   2.886   4.527   2.488  0.1502  0.5063  0.7669
 8640SOL    HW237554   2.738   4.570   2.493 -0.9136  0.1877 -0.2898
 8641SOL     OW37555   2.694   2.367   0.577  0.1228  0.1066  0.0250
 8641SOL    HW137556   2.775   2.380   0.627 -0.2104 -0.2329  0.6695
 8641SOL    HW237557   2.651   2.322   0.650 -0.3402  0.1210 -0.2396
 8642SOL     OW37558   0.859   3.440   6.755  0.0843  0.6809 -0.1163
 8642SOL    HW137559   0.938   3.387   6.761  0.1925  1.1168  2.3096
 8642SOL    HW237560   0.893   3.529   6.768  0.3567  0.3476  1.4574
 8643SOL     OW37561   1.906   4.540   0.883 -0.3170 -0.4851  0.1675
 8643SOL    HW137562   1.901   4.629   0.847 -1.1947 -0.5806  0.0560
 8643SOL    HW237563   1.998   4.537   0.909  0.3990  3.8318 -1.8199
 8644SOL     OW37564   4.530   3.623   4.167 -0.2460  0.2242  0.1113
 8644SOL    HW137565   4.524   3.693   4.102  0.1887 -0.2825 -0.4729
 8644SOL    HW237566   4.539   3.539   4.123  0.2343  0.3634 -0.0614
 8645SOL     OW37567   2.423   3.965   6.579  1.1183  0.7478  0.1866
 8645SOL    HW137568   2.478   3.890   6.601 -0.9074 -1.0838 -1.0919
 8645SOL    HW237569   2.430   3.963   6.484 -0.0959 -3.1252  0.1999
 8646SOL     OW37570   2.586   4.451   2.564 -0.3148  0.4984 -0.6333
 8646SOL    HW137571   2.496   4.419   2.574 -0.1634 -0.1644 -1.3799
 8646SOL    HW237572   2.620   4.369   2.601 -0.3796  0.6195 -0.3096
 8647SOL     OW37573   2.281   1.375   3.294  0.2527  0.6760  0.2971
 8647SOL    HW137574   2.232   1.336   3.367 -1.9064  1.4646 -0.7320
 8647SOL    HW237575   2.335   1.302   3.266 -0.9421 -0.0292 -0.1563
 8648SOL     OW37576   1.517   0.246  12.839  0.0257 -0.0508 -0.1255
 8648SOL    HW137577   1.519   0.185  12.765 -0.9988  1.8140 -1.6723
 8648SOL    HW237578   1.533   0.189  12.915  0.8871  0.7237  0.2717
 8649SOL     OW37579   0.230   3.941  12.468  0.2872 -0.0359  0.0491
 8649SOL    HW137580   0.158   3.895  12.424  1.1694 -0.5324 -0.8900
 8649SOL    HW237581   0.215   3.893  12.549 -1.8309 -0.8402 -0.8421
 8650SOL     OW37582   3.958   1.118   5.019  0.1484  0.3451  0.2310
 8650SOL    HW137583   3.969   1.023   5.012 -0.5218  0.1955  1.2550
 8650SOL    HW237584   3.885   1.121   5.080 -0.0412 -0.4923  0.0418
 8651SOL     OW37585   2.156   2.566  14.192  0.1183 -0.3752  0.1903
 8651SOL    HW137586   2.119   2.522  14.116 -1.2905  0.6120  0.2931
 8651SOL    HW237587   2.081   2.622  14.213 -0.3206 -1.5134  1.6407
 8652SOL     OW37588   0.977   0.640  16.458  0.1576 -0.1168  0.3603
 8652SOL    HW137589   1.009   0.718  16.412 -0.6208  0.1278  0.2407
 8652SOL    HW237590   1.001   0.655  16.550 -2.0620 -2.1181  1.2729
 8653SOL     OW37591   4.671   4.021   6.357 -0.5347 -0.0965  0.4059
 8653SOL    HW137592   4.664   4.113   6.381  2.3047  0.1274  0.3159
 8653SOL    HW237593   4.610   3.995   6.426 -0.4292  0.8688  0.8583
 8654SOL     OW37594   1.555   2.468  15.820  0.2183 -0.2536 -0.0147
 8654SOL    HW137595   1.616   2.535  15.852 -1.1229  0.3840  1.2599
 8654SOL    HW237596   1.565   2.477  15.725 -0.5539  0.5303 -0.0257
 8655SOL     OW37597   2.978   2.913  11.207 -0.3958 -0.3795  0.2703
 8655SOL    HW137598   2.947   2.979  11.145  1.5572 -0.2898 -0.6141
 8655SOL    HW237599   3.066   2.891  11.175 -0.1779  0.9418 -0.0426
 8656SOL     OW37600   2.147   3.989   5.278  0.3398  0.9653 -0.1118
 8656SOL    HW137601   2.167   3.944   5.360  1.9472  2.2760  0.2129
 8656SOL    HW237602   2.058   4.019   5.297  0.7993  0.5574  2.7834
 8657SOL     OW37603   2.319   2.961   5.588 -0.1061  0.2783 -0.7322
 8657SOL    HW137604   2.235   2.961   5.542 -0.4870  0.1264 -0.0246
 8657SOL    HW237605   2.375   2.968   5.510 -1.2856  0.5050 -1.5631
 8658SOL     OW37606   3.606   2.090   2.934 -0.3792  0.0975  0.6565
 8658SOL    HW137607   3.627   2.073   3.026 -1.3461 -1.1126  0.6629
 8658SOL    HW237608   3.676   2.044   2.887 -1.3744 -0.9692  0.2017
 8659SOL     OW37609   1.628   1.826  15.909  0.3838  0.2578 -0.5009
 8659SOL    HW137610   1.564   1.763  15.877  0.7868 -1.5531  2.2326
 8659SOL    HW237611   1.709   1.786  15.877 -0.5982 -1.5710 -0.6568
 8660SOL     OW37612   1.923   1.759   6.769 -0.2034  0.1445 -0.3982
 8660SOL    HW137613   1.859   1.746   6.839 -0.0362 -1.8355 -0.6174
 8660SOL    HW237614   1.984   1.686   6.781 -0.1699 -0.0063 -1.4598
 8661SOL     OW37615   0.065   1.519   4.429  0.5543  0.1401  0.2900
 8661SOL    HW137616   0.126   1.446   4.440 -1.1501 -1.4949 -1.0866
 8661SOL    HW237617   4.719   1.487   4.470 -1.3750  0.8488 -2.9078
 8662SOL     OW37618   3.722   3.709  10.397  0.1910 -0.2782 -0.0754
 8662SOL    HW137619   3.682   3.630  10.433 -0.6267  0.1420 -0.0697
 8662SOL    HW237620   3.637   3.744  10.369 -0.4099 -1.4455  0.2909
 8663SOL     OW37621   3.357   1.288   0.463  0.3297  0.3260  0.3462
 8663SOL    HW137622   3.265   1.294   0.439  0.6440  0.8906 -0.7154
 8663SOL    HW237623   3.383   1.362   0.408 -0.2974 -0.9235 -1.6312
 8664SOL     OW37624   3.241   0.349  17.224  0.2856  0.0903 -0.0403
 8664SOL    HW137625   3.328   0.311  17.221 -0.3098 -1.2352 -0.2492
 8664SOL    HW237626   3.243   0.407  17.148  1.7296  1.9206  1.4027
 8665SOL     OW37627   3.693   1.623   1.441 -0.8686 -0.0180 -0.0527
 8665SOL    HW137628   3.718   1.694   1.382 -2.5793 -1.2090 -2.2155
 8665SOL    HW237629   3.778   1.582   1.457 -1.0473 -0.6505 -0.6922
 8666SOL     OW37630   4.621   3.825   7.976 -0.1155  0.3069  0.4033
 8666SOL    HW137631   4.657   3.910   7.952  1.4824 -0.5741 -0.3154
 8666SOL    HW237632   4.534   3.841   7.939 -0.8311  1.1148  2.4411
 8667SOL     OW37633   3.251   4.541   8.058  0.1828 -0.0673  0.4587
 8667SOL    HW137634   3.229   4.484   7.985  0.8808 -0.4020  0.5104
 8667SOL    HW237635   3.169   4.552   8.106 -0.5939  1.1659 -1.1820
 8668SOL     OW37636   1.005   3.071   5.907  0.0774  0.7030  0.2456
 8668SOL    HW137637   1.061   3.009   5.861 -0.3824  0.4861 -0.0178
 8668SOL    HW237638   1.039   3.157   5.881  0.4613  1.2895  2.6581
 8669SOL     OW37639   1.296   1.576   4.571  0.0581  0.0531 -0.4664
 8669SOL    HW137640   1.383   1.595   4.605  0.4631  1.3080 -2.2136
 8669SOL    HW237641   1.286   1.481   4.578  0.4350  0.1901  1.6721
 8670SOL     OW37642   3.941   2.869   4.701  0.3863  0.2054  0.1186
 8670SOL    HW137643   3.897   2.797   4.655  1.6810 -1.8679  2.1245
 8670SOL    HW237644   3.953   2.937   4.634 -3.2328  2.0504  1.3414
 8671SOL     OW37645   1.019   2.398   2.963 -0.0498 -0.2124 -0.6244
 8671SOL    HW137646   1.060   2.321   2.924 -1.4124 -2.1851  1.8673
 8671SOL    HW237647   0.939   2.364   3.002 -0.6650  0.6953 -1.0856
 8672SOL     OW37648   1.978   0.703   9.297 -0.1615 -0.9453  0.3045
 8672SOL    HW137649   2.061   0.661   9.320  0.8713  1.1748  0.4126
 8672SOL    HW237650   2.008   0.761   9.227  1.1790 -0.9444  0.8875
 8673SOL     OW37651   4.411   2.079   4.025 -0.0801  0.2288  0.2445
 8673SOL    HW137652   4.407   2.136   3.948 -0.1341  0.6407  0.5505
 8673SOL    HW237653   4.320   2.085   4.055  0.4016  0.0385  1.7505
 8674SOL     OW37654   3.139   3.342  11.501 -0.0821 -0.1710 -0.4549
 8674SOL    HW137655   3.125   3.283  11.427 -1.3321 -0.6750  0.1844
 8674SOL    HW237656   3.078   3.313  11.569  0.8364  0.0740  0.4834
 8675SOL     OW37657   4.123   2.990   4.317 -0.2499 -0.7068  0.4421
 8675SOL    HW137658   4.053   2.980   4.381 -1.1393 -2.6371 -0.8110
 8675SOL    HW237659   4.078   3.007   4.234 -2.2419 -0.1263  1.6501
 8676SOL     OW37660   1.174   0.005   1.158 -0.0198  0.1737  0.1689
 8676SOL    HW137661   1.214   0.020   1.243  0.0761  1.5564 -0.1190
 8676SOL    HW237662   1.086   4.712   1.181 -0.1844 -0.1960 -0.8632
 8677SOL     OW37663   0.988   0.835  10.058 -0.8420 -0.3528 -0.1557
 8677SOL    HW137664   0.920   0.902  10.061  0.4332  1.0069 -1.6166
 8677SOL    HW237665   0.967   0.767  10.122 -0.6650 -0.3175 -0.0606
 8678SOL     OW37666   1.046   3.836   8.028 -0.3959  0.4244  0.0931
 8678SOL    HW137667   1.076   3.776   8.096 -1.7516 -0.7714 -0.3560
 8678SOL    HW237668   1.057   3.919   8.075  0.3347  0.3286  0.0829
 8679SOL     OW37669   0.944   1.537   6.614  0.3755  0.2173 -0.2635
 8679SOL    HW137670   0.866   1.491   6.646  1.2178 -1.1436 -0.1969
 8679SOL    HW237671   0.972   1.466   6.557 -0.9777  0.5184 -1.3292
 8680SOL     OW37672   1.104   3.306   6.759  0.1792 -0.2998  0.3720
 8680SOL    HW137673   1.116   3.306   6.854  1.6011  1.8299  0.1834
 8680SOL    HW237674   1.172   3.368   6.733 -0.5084  0.0843 -0.5259
 8681SOL     OW37675   0.620   1.039  16.667 -0.1010  0.6922  0.8116
 8681SOL    HW137676   0.686   0.972  16.680 -0.6525  0.3614  1.9087
 8681SOL    HW237677   0.676   1.117  16.669 -0.4232  0.9565 -0.3675
 8682SOL     OW37678   2.256   3.163  10.910 -0.3496 -0.0260  0.6031
 8682SOL    HW137679   2.175   3.127  10.874 -1.3049  1.9866  0.7611
 8682SOL    HW237680   2.294   3.083  10.947 -0.8558  0.4602  2.1783
 8683SOL     OW37681   0.975   4.415   3.844 -0.0831  0.2036 -0.1934
 8683SOL    HW137682   0.906   4.472   3.810 -1.0559 -0.6599  0.3335
 8683SOL    HW237683   1.018   4.479   3.899 -1.0705  0.7975 -0.1035
 8684SOL     OW37684   2.629   0.224   3.635  0.4110 -0.3635  0.2910
 8684SOL    HW137685   2.677   0.145   3.612 -1.5136 -1.6562  0.7432
 8684SOL    HW237686   2.698   0.278   3.674 -1.7531  1.7090  1.2259
 8685SOL     OW37687   2.548   3.433   7.307  0.5734 -0.4187  0.1576
 8685SOL    HW137688   2.460   3.468   7.294 -0.1866 -2.5210 -0.3725
 8685SOL    HW237689   2.583   3.422   7.219  3.1513 -0.9746  1.2417
 8686SOL     OW37690   0.425   0.633   7.703 -0.7843  0.2054  0.2096
 8686SOL    HW137691   0.417   0.696   7.775  0.7446 -1.2538  1.6453
 8686SOL    HW237692   0.348   0.578   7.718 -0.8167  0.6380  1.6143
 8687SOL     OW37693   3.959   2.523   4.590  0.2029  0.1247  0.2834
 8687SOL    HW137694   3.978   2.468   4.666 -1.3520  0.1616  0.6934
 8687SOL    HW237695   4.032   2.585   4.597 -0.6476  0.9417  1.7969
 8688SOL     OW37696   0.817   3.617   5.183 -0.3164 -0.2818  0.2834
 8688SOL    HW137697   0.792   3.547   5.245  0.9336 -2.0895 -1.2451
 8688SOL    HW237698   0.749   3.617   5.116 -0.6770  0.6310  0.6591
 8689SOL     OW37699   3.463   1.821   6.003 -0.1950  0.0899  0.0963
 8689SOL    HW137700   3.454   1.826   6.098 -0.1103 -2.3895  0.2281
 8689SOL    HW237701   3.556   1.842   5.993 -0.2177  0.4515  0.6594
 8690SOL     OW37702   4.342   0.614   2.382 -0.0460 -0.3292 -0.2716
 8690SOL    HW137703   4.247   0.605   2.377 -0.0481 -0.1875 -0.4893
 8690SOL    HW237704   4.365   0.522   2.399  1.8775  0.3191  0.5800
 8691SOL     OW37705   3.730   4.469   6.110  0.0456  0.2810 -0.5078
 8691SOL    HW137706   3.673   4.466   6.034 -1.0401  0.0618  0.3151
 8691SOL    HW237707   3.813   4.433   6.078  0.4010  1.3695 -0.8236
 8692SOL     OW37708   1.384   1.888   9.725  0.2689  0.0723 -0.4271
 8692SOL    HW137709   1.301   1.865   9.768 -0.5241  0.9054 -1.4987
 8692SOL    HW237710   1.359   1.942   9.649 -0.7597 -0.4279 -0.4500
 8693SOL     OW37711   4.082   4.167  13.856  0.7608  0.5638  0.0946
 8693SOL    HW137712   3.992   4.176  13.886  1.6889  1.1173  2.7229
 8693SOL    HW237713   4.084   4.171  13.760 -0.5920  1.2612  0.0935
 8694SOL     OW37714   3.772   2.316   4.456 -0.0472  0.2407  0.3875
 8694SOL    HW137715   3.837   2.246   4.466  0.9865  1.0285 -0.8805
 8694SOL    HW237716   3.801   2.365   4.533  2.5400  1.0223 -1.0697
 8695SOL     OW37717   0.977   1.052  14.012 -0.3124 -0.2675  0.0535
 8695SOL    HW137718   0.984   0.957  14.001  1.6296 -0.1743  0.5600
 8695SOL    HW237719   0.937   1.089  13.933  0.9626 -0.8449 -0.8540
 8696SOL     OW37720   3.199   2.947  17.291 -0.1981 -0.2706 -0.1894
 8696SOL    HW137721   3.154   3.031  17.292  1.7957  0.8371 -2.9692
 8696SOL    HW237722   3.121   2.892  17.296  1.5771 -2.6226  2.4282
 8697SOL     OW37723   0.182   0.655  16.223 -0.3969  0.4451  0.1092
 8697SOL    HW137724   0.257   0.631  16.168 -0.7211 -0.4710  0.0690
 8697SOL    HW237725   0.184   0.749  16.205  0.8866  0.4366  0.1613
 8698SOL     OW37726   3.296   4.668   2.323  0.0690 -0.0345  1.1018
 8698SOL    HW137727   3.291   0.029   2.327  0.3282  0.0217  0.1849
 8698SOL    HW237728   3.219   4.648   2.271  0.7759 -1.5846  0.6452
 8699SOL     OW37729   2.532   3.876   9.880 -0.1218  0.3476  0.3642
 8699SOL    HW137730   2.518   3.953   9.935  0.6344  1.3509 -0.8434
 8699SOL    HW237731   2.561   3.813   9.946  0.8858  0.7389  0.3004
 8700SOL     OW37732   0.335   4.015  10.375  0.5366 -0.1203 -0.1983
 8700SOL    HW137733   0.301   4.018  10.464  0.3774  0.2365 -0.2704
 8700SOL    HW237734   0.430   4.022  10.386  0.3293  1.2695  0.6955
 8701SOL     OW37735   3.191   0.843  14.511  0.4369  0.3256  0.1217
 8701SOL    HW137736   3.192   0.807  14.422  0.8300  3.6900 -1.2414
 8701SOL    HW237737   3.156   0.769  14.562  1.2896 -0.1343  0.0406
 8702SOL     OW37738   3.211   3.668   8.130  0.1369 -0.2304 -0.0607
 8702SOL    HW137739   3.185   3.744   8.183 -0.2317 -1.1404  1.0731
 8702SOL    HW237740   3.291   3.641   8.176  0.3199 -1.8514 -1.3373
 8703SOL     OW37741   2.638   3.523   4.317 -0.5805  0.1825  0.6900
 8703SOL    HW137742   2.695   3.599   4.326  0.9384 -0.8002 -0.5646
 8703SOL    HW237743   2.658   3.477   4.399 -1.9537  0.7990  1.3769
 8704SOL     OW37744   3.423   1.110   2.623  0.1145  0.4115  0.5104
 8704SOL    HW137745   3.383   1.193   2.647  3.4115  2.0419  0.2458
 8704SOL    HW237746   3.369   1.081   2.549  0.8495  0.3149  0.0121
 8705SOL     OW37747   4.519   4.069   7.377 -0.4439 -0.1587 -0.8140
 8705SOL    HW137748   4.551   4.032   7.460 -0.7612  0.0894 -0.5830
 8705SOL    HW237749   4.516   4.159   7.409 -0.7767 -0.3712 -0.2523
 8706SOL     OW37750   3.944   0.488   7.074  0.4631 -0.1653  0.5288
 8706SOL    HW137751   3.889   0.470   6.999  3.5968 -1.1378 -1.5584
 8706SOL    HW237752   3.966   0.407   7.121 -0.7999  0.0701  1.5375
 8707SOL     OW37753   4.068   2.322   9.186 -0.8513 -0.3053 -0.7405
 8707SOL    HW137754   4.042   2.373   9.262  1.7115  2.3746 -1.6847
 8707SOL    HW237755   3.980   2.298   9.156 -1.8120  1.6573  0.4840
 8708SOL     OW37756   0.470   3.688   9.951  0.8728 -0.0873 -0.1693
 8708SOL    HW137757   0.443   3.777   9.975 -0.6511 -0.2410 -1.3235
 8708SOL    HW237758   0.500   3.719   9.866  0.6138  0.0025 -0.2291
 8709SOL     OW37759   2.936   1.867   4.411  0.5764  0.3622 -0.0099
 8709SOL    HW137760   2.956   1.803   4.343  0.1298 -0.6599  0.8294
 8709SOL    HW237761   2.938   1.811   4.488  1.1135 -0.7648 -0.8434
 8710SOL     OW37762   1.045   3.369   2.976 -0.1445 -0.7010  0.0009
 8710SOL    HW137763   1.047   3.302   3.044  0.5165  1.4376  2.0824
 8710SOL    HW237764   1.095   3.314   2.915 -0.2271 -0.7284 -0.0411
 8711SOL     OW37765   4.716   1.202   0.300  0.8687 -0.0637 -0.4079
 8711SOL    HW137766   4.732   1.131   0.362 -0.6648  2.2760  2.6656
 8711SOL    HW237767   4.668   1.268   0.350  2.5844 -0.3829  1.6395
 8712SOL     OW37768   1.099   1.591  15.328 -0.0320  0.2505  0.1430
 8712SOL    HW137769   1.133   1.602  15.417  0.5852  0.8563 -0.1621
 8712SOL    HW237770   1.028   1.655  15.324 -0.5129 -0.2829  0.2684
 8713SOL     OW37771   2.876   1.731   9.434  0.3078  0.1071  0.5389
 8713SOL    HW137772   2.866   1.826   9.424  1.7340  0.1161 -0.7877
 8713SOL    HW237773   2.839   1.722   9.522 -1.5422  0.2462 -0.2284
 8714SOL     OW37774   0.442   1.843   4.142 -0.3158  0.1930 -0.2105
 8714SOL    HW137775   0.440   1.939   4.140  0.3070  0.2014 -0.6456
 8714SOL    HW237776   0.504   1.810   4.207 -1.3617  1.0339  1.2177
 8715SOL     OW37777   2.839   0.401   6.653 -0.3260 -0.2379 -0.2331
 8715SOL    HW137778   2.758   0.430   6.610 -0.1165  1.0677  0.2628
 8715SOL    HW237779   2.892   0.400   6.573  0.9724  1.6706  0.6088
 8716SOL     OW37780   2.129   1.220  17.537  0.2245  0.4202 -0.4357
 8716SOL    HW137781   2.115   1.171  17.456  0.6870  0.3422 -0.4686
 8716SOL    HW237782   2.224   1.216  17.537  0.1293 -1.8096 -2.6961
 8717SOL     OW37783   3.164   3.415   4.283  0.3124  0.3053 -0.0515
 8717SOL    HW137784   3.110   3.364   4.343 -1.4040  0.2370 -1.6636
 8717SOL    HW237785   3.098   3.461   4.232  0.5831 -0.1579 -0.8056
 8718SOL     OW37786   1.057   1.626   7.491 -0.9389 -0.7456  0.5494
 8718SOL    HW137787   1.125   1.691   7.511 -3.0143  0.9907  2.0790
 8718SOL    HW237788   1.052   1.580   7.575 -0.9635 -2.0654 -0.1828
 8719SOL     OW37789   1.127   1.708   9.461 -0.7438  0.3062 -0.2708
 8719SOL    HW137790   1.115   1.790   9.412 -0.3064 -0.0054 -0.8951
 8719SOL    HW237791   1.110   1.753   9.544  0.6280  1.9690 -0.9006
 8720SOL     OW37792   0.800   3.630   7.093  0.8059 -0.6551 -1.0703
 8720SOL    HW137793   0.826   3.632   7.185 -2.8598  0.1484 -0.0360
 8720SOL    HW237794   0.737   3.558   7.092 -0.5664  0.5203 -0.9081
 8721SOL     OW37795   1.222   1.844  16.339 -0.2174 -0.1255 -0.2772
 8721SOL    HW137796   1.143   1.836  16.393  1.3295 -3.0241  1.5748
 8721SOL    HW237797   1.254   1.932  16.356  0.0287 -0.3144  0.2370
 8722SOL     OW37798   3.196   4.370   8.530  0.9899 -0.3139 -0.2248
 8722SOL    HW137799   3.204   4.358   8.435  2.9164 -2.5102  0.2323
 8722SOL    HW237800   3.105   4.343   8.546  0.5034  2.2140  1.3447
 8723SOL     OW37801   1.242   0.627   3.181 -0.3122  0.1923  0.3958
 8723SOL    HW137802   1.247   0.623   3.276 -2.5829 -0.4400  0.4924
 8723SOL    HW237803   1.230   0.533   3.165  1.4003 -0.0962  0.7645
 8724SOL     OW37804   3.291   2.981   0.129 -0.0737  0.6342 -0.5387
 8724SOL    HW137805   3.300   3.075   0.117 -2.3267  1.0970  1.3440
 8724SOL    HW237806   3.309   2.974   0.223  0.8569 -0.2238 -0.7815
 8725SOL     OW37807   4.402   0.853   5.476  0.1787  0.0208 -0.7162
 8725SOL    HW137808   4.411   0.861   5.381 -0.6264  2.9153 -0.5450
 8725SOL    HW237809   4.359   0.767   5.471  1.8916 -0.9318  0.9378
 8726SOL     OW37810   2.663   3.553   4.868  0.6700  0.0198  0.6651
 8726SOL    HW137811   2.578   3.597   4.869  0.4764 -0.3475  0.4939
 8726SOL    HW237812   2.719   3.620   4.908  2.9707 -0.7010 -1.3747
 8727SOL     OW37813   3.477   4.554   4.051  0.0653 -0.2514 -0.3614
 8727SOL    HW137814   3.534   4.588   4.120  0.5545  1.5314 -1.6273
 8727SOL    HW237815   3.393   4.558   4.098  0.5556  0.0413  0.4944
 8728SOL     OW37816   1.115   0.655  11.044  0.5173 -0.2349 -0.6222
 8728SOL    HW137817   1.072   0.717  11.102  0.9897 -0.2124 -0.2994
 8728SOL    HW237818   1.205   0.688  11.050 -0.5699  2.8701 -1.2331
 8729SOL     OW37819   2.760   2.593   6.853  0.4792  0.2616  0.1843
 8729SOL    HW137820   2.820   2.526   6.886  0.4173  1.8906  3.6252
 8729SOL    HW237821   2.686   2.595   6.914  1.6278  0.5976  1.5613
 8730SOL     OW37822   0.088   3.687   4.267  0.3548 -0.3548 -0.1150
 8730SOL    HW137823   0.010   3.666   4.318  1.6231 -1.9767  1.1331
 8730SOL    HW237824   0.061   3.687   4.175 -0.3773  1.3968  0.1041
 8731SOL     OW37825   4.616   1.194  15.390  0.2210  0.2270  0.3559
 8731SOL    HW137826   4.649   1.283  15.381  0.3514  0.3734  2.3713
 8731SOL    HW237827   4.530   1.205  15.349  1.0722 -0.3677 -1.5747
 8732SOL     OW37828   1.306   0.055   5.021  0.7018  0.2379 -0.0346
 8732SOL    HW137829   1.366   0.013   4.960  0.0215 -0.1056 -0.4686
 8732SOL    HW237830   1.237   0.049   4.955  0.8294  0.0109 -0.1479
 8733SOL     OW37831   3.090   2.721   2.031 -0.9719 -0.3044 -0.3583
 8733SOL    HW137832   3.041   2.795   2.067  0.5239  0.2285  0.5619
 8733SOL    HW237833   3.022   2.702   1.966 -0.0560 -1.2408 -1.0424
 8734SOL     OW37834   4.551   2.305   8.339  0.0494  0.6091 -0.0691
 8734SOL    HW137835   4.604   2.298   8.418 -3.2367  0.9369  2.1743
 8734SOL    HW237836   4.613   2.271   8.275 -0.6484  0.0980 -0.4756
 8735SOL     OW37837   2.132   2.279  13.015  0.0292  0.6196 -0.1713
 8735SOL    HW137838   2.192   2.342  12.975  1.0582  0.7394  1.5467
 8735SOL    HW237839   2.058   2.283  12.954 -1.1782 -2.2072  1.1319
 8736SOL     OW37840   4.574   3.880  11.992  0.7658 -0.1028 -0.0584
 8736SOL    HW137841   4.626   3.826  11.933  0.2897  1.5352 -1.9696
 8736SOL    HW237842   4.554   3.814  12.059 -0.3660  1.0169  0.7138
 8737SOL     OW37843   0.753   2.377  15.563  0.2503 -0.1703 -0.0982
 8737SOL    HW137844   0.740   2.399  15.471 -0.6323 -0.5535 -0.0583
 8737SOL    HW237845   0.765   2.464  15.602  2.5788 -0.8347  0.6852
 8738SOL     OW37846   1.536   0.819  12.484  0.2778 -0.2245 -0.2711
 8738SOL    HW137847   1.536   0.814  12.388  0.2813 -4.0180 -0.0718
 8738SOL    HW237848   1.509   0.731  12.510 -2.5610  1.0737  1.0547
 8739SOL     OW37849   3.423   2.858   5.977  0.2641  0.4009 -0.8291
 8739SOL    HW137850   3.390   2.921   5.912 -1.3141  0.5960  0.1675
 8739SOL    HW237851   3.379   2.889   6.056 -0.2317 -0.1170 -0.8956
 8740SOL     OW37852   1.592   2.240  15.203  0.2955 -0.2590 -0.5457
 8740SOL    HW137853   1.501   2.261  15.225  0.4818 -0.3816  0.3128
 8740SOL    HW237854   1.600   2.174  15.271  0.0720  0.0147 -0.2544
 8741SOL     OW37855   2.941   0.477   7.662 -0.3849 -0.5441 -0.1551
 8741SOL    HW137856   2.982   0.534   7.727 -1.0852  1.8933 -1.8547
 8741SOL    HW237857   3.005   0.415   7.627 -2.2720 -1.7618 -1.4653
 8742SOL     OW37858   3.474   0.543   5.035 -0.3026  0.0610  0.0855
 8742SOL    HW137859   3.452   0.634   5.055  1.1000  0.7051 -1.3323
 8742SOL    HW237860   3.397   0.493   5.061 -1.0674  1.7533  1.1063
 8743SOL     OW37861   0.642   2.199  14.802 -0.0826  0.5084 -0.0212
 8743SOL    HW137862   0.659   2.293  14.802 -1.5174  0.7663  0.3097
 8743SOL    HW237863   0.614   2.194  14.711  2.0451  1.7204 -0.7330
 8744SOL     OW37864   1.347   0.556   6.431 -0.6543 -0.0077 -0.1300
 8744SOL    HW137865   1.275   0.522   6.485 -2.3696  1.4949 -1.4733
 8744SOL    HW237866   1.418   0.504   6.469 -0.0653  0.2182 -0.9344
 8745SOL     OW37867   1.260   2.859   7.568  0.2030  0.5475  0.5988
 8745SOL    HW137868   1.179   2.904   7.545 -1.5646 -3.1334 -0.4062
 8745SOL    HW237869   1.215   2.781   7.600 -0.6569  1.6742  2.1218
 8746SOL     OW37870   3.187   3.015   7.394 -0.3343  0.9329  0.5548
 8746SOL    HW137871   3.108   3.037   7.346 -0.6884  0.0707  0.7476
 8746SOL    HW237872   3.185   2.920   7.407 -1.4341  1.4599  4.4512
 8747SOL     OW37873   3.183   3.750   3.182  0.4318 -0.8502 -0.3433
 8747SOL    HW137874   3.258   3.806   3.158 -0.5384  0.1377 -1.0822
 8747SOL    HW237875   3.113   3.814   3.172 -0.0278 -1.1502  1.1055
 8748SOL     OW37876   1.343   2.714   3.973 -0.1126 -0.3922 -0.1722
 8748SOL    HW137877   1.344   2.803   3.939 -1.0535  0.1390  1.2286
 8748SOL    HW237878   1.254   2.687   3.950 -0.8478  0.5455  1.5739
 8749SOL     OW37879   1.845   2.603  15.586 -0.3833  0.1940 -0.2610
 8749SOL    HW137880   1.892   2.520  15.574 -0.0854  0.4370 -0.7614
 8749SOL    HW237881   1.894   2.635  15.661  1.1966  1.0360 -1.6306
 8750SOL     OW37882   4.397   1.870   4.638  0.1421 -0.5757 -0.1051
 8750SOL    HW137883   4.357   1.795   4.681  0.5056 -0.8595 -0.2602
 8750SOL    HW237884   4.331   1.904   4.578  1.2228 -0.0011 -0.9834
 8751SOL     OW37885   3.193   4.546   5.541  0.0765  0.4790  0.3414
 8751SOL    HW137886   3.099   4.566   5.541 -0.0345 -0.0481  2.2027
 8751SOL    HW237887   3.198   4.491   5.462  2.0664  1.0157  0.0840
 8752SOL     OW37888   4.101   0.071   2.729 -0.1979  0.5137 -0.1609
 8752SOL    HW137889   4.153   0.036   2.657 -1.5256 -1.8694  0.0516
 8752SOL    HW237890   4.058   4.734   2.776  0.2572  0.2928 -0.0888
 8753SOL     OW37891   1.312   1.600   0.110 -0.2754  0.3964 -0.0072
 8753SOL    HW137892   1.333   1.662   0.180 -1.6019  2.6726 -1.6459
 8753SOL    HW237893   1.332   1.641   0.026  3.0985  1.8481  1.5082
 8754SOL     OW37894   1.556   1.902   9.925 -0.1229 -0.3100  0.0617
 8754SOL    HW137895   1.631   1.856   9.888 -0.7241 -0.1815 -1.2957
 8754SOL    HW237896   1.486   1.898   9.859  0.7177  2.2338 -0.9834
 8755SOL     OW37897   3.570   3.122   5.788 -0.0025  0.5421  0.5393
 8755SOL    HW137898   3.628   3.054   5.823  0.2213  0.2855 -0.3282
 8755SOL    HW237899   3.487   3.077   5.774  0.0721  0.8749 -1.0866
 8756SOL     OW37900   3.981   3.978   6.556 -0.1347  0.0519  0.9024
 8756SOL    HW137901   3.914   3.929   6.605  1.1547 -2.1410  0.4924
 8756SOL    HW237902   3.954   4.068   6.574  0.8547  0.6665 -0.7117
 8757SOL     OW37903   3.779   1.512   2.338  0.3149 -0.1080  0.2513
 8757SOL    HW137904   3.712   1.451   2.369 -0.8028  1.1716  0.3614
 8757SOL    HW237905   3.747   1.579   2.277  0.2085 -0.9751 -0.6480
 8758SOL     OW37906   0.498   0.837   1.772 -0.0568  0.7404 -0.0858
 8758SOL    HW137907   0.553   0.853   1.848 -1.4251  0.4157  0.9695
 8758SOL    HW237908   0.519   0.746   1.751 -1.9202 -0.1657  1.9662
 8759SOL     OW37909   4.252   1.341   0.050 -0.4222  0.3742 -0.3938
 8759SOL    HW137910   4.198   1.270   0.085 -0.8694  0.3472 -1.1358
 8759SOL    HW237911   4.248   1.313  17.694  1.6829  0.9336 -0.6576
 8760SOL     OW37912   4.113   0.217   4.883  0.1269  0.0186  0.3347
 8760SOL    HW137913   4.053   0.284   4.848 -1.8064 -1.8064  0.1750
 8760SOL    HW237914   4.131   0.160   4.809 -1.2265  2.4221 -1.8646
 8761SOL     OW37915   2.996   1.825   1.528  0.8588  0.0027  0.3426
 8761SOL    HW137916   3.016   1.863   1.613 -1.5824 -0.1689  0.9925
 8761SOL    HW237917   3.072   1.862   1.482  1.1767  1.0910  1.7575
 8762SOL     OW37918   4.013   3.837   8.019 -0.2201  0.1845 -0.3179
 8762SOL    HW137919   4.059   3.886   8.087 -0.7519  1.0416 -0.5660
 8762SOL    HW237920   4.054   3.751   8.016  1.3863  0.9913 -1.3117
 8763SOL     OW37921   1.723   2.239  15.833  0.1933 -0.0624 -0.5488
 8763SOL    HW137922   1.676   2.312  15.872  1.5111  0.8242 -0.6233
 8763SOL    HW237923   1.652   2.174  15.831 -0.1531  0.2427  1.9416
 8764SOL     OW37924   0.405   1.860   1.346  0.4544  0.0408 -0.5032
 8764SOL    HW137925   0.332   1.816   1.302 -0.9622 -1.3051  3.1466
 8764SOL    HW237926   0.437   1.796   1.410 -0.2087 -0.7277 -0.9411
 8765SOL     OW37927   1.992   0.849   4.450  0.3731 -0.2548 -0.4751
 8765SOL    HW137928   2.086   0.855   4.438  0.0454 -1.4623 -3.9744
 8765SOL    HW237929   1.978   0.940   4.425 -0.9248 -0.1983  0.4385
 8766SOL     OW37930   3.298   1.625  14.156  0.3422  0.2684  0.2519
 8766SOL    HW137931   3.378   1.676  14.169  0.2688  0.9211 -1.9329
 8766SOL    HW237932   3.234   1.694  14.141  0.4375  0.1340 -0.7505
 8767SOL     OW37933   4.711   2.652   5.643 -0.5078  0.4849 -0.5244
 8767SOL    HW137934   4.619   2.625   5.637 -0.2848 -0.9448  2.2703
 8767SOL    HW237935   4.694   2.745   5.630  1.1785  0.6114 -1.7681
 8768SOL     OW37936   1.766   2.606  15.893 -0.6576 -0.1794  0.4128
 8768SOL    HW137937   1.766   2.613  15.989 -0.3127 -2.7599  0.6015
 8768SOL    HW237938   1.858   2.624  15.876 -1.0495  1.3117 -0.1202
 8769SOL     OW37939   2.605   3.812   3.658 -0.2687  0.2263 -0.5185
 8769SOL    HW137940   2.664   3.800   3.733  1.6798  1.0086 -1.9367
 8769SOL    HW237941   2.585   3.906   3.660  0.1557  0.2700  2.4470
 8770SOL     OW37942   2.079   1.811   3.259 -0.2180  0.1927 -0.1037
 8770SOL    HW137943   2.030   1.869   3.200 -0.0514  0.8099  0.3659
 8770SOL    HW237944   2.056   1.720   3.241  0.3902  0.0029  0.1042
 8771SOL     OW37945   2.766   0.188   2.730  0.3994  0.1597  0.2238
 8771SOL    HW137946   2.719   0.210   2.650  1.7981  0.9679 -0.3696
 8771SOL    HW237947   2.754   0.269   2.782  0.1794  0.4730 -0.3175
 8772SOL     OW37948   0.740   3.544   8.356 -0.6219  0.3210 -0.0997
 8772SOL    HW137949   0.708   3.611   8.296 -0.2120 -1.6648 -2.5072
 8772SOL    HW237950   0.656   3.505   8.382 -1.4781  1.4455 -1.2090
 8773SOL     OW37951   0.843   1.234  15.540 -0.4853 -0.3659  0.2195
 8773SOL    HW137952   0.821   1.290  15.466  0.7988 -0.5818 -0.3121
 8773SOL    HW237953   0.912   1.279  15.588  0.2505 -0.5926 -0.6465
 8774SOL     OW37954   3.265   1.990  14.347  0.3458  0.1374  0.1233
 8774SOL    HW137955   3.205   2.063  14.360  1.8460  1.3552  0.1703
 8774SOL    HW237956   3.265   1.969  14.253  2.4627  0.6177  0.0165
 8775SOL     OW37957   2.225   2.765   4.977 -0.0240 -0.2183  0.2728
 8775SOL    HW137958   2.179   2.774   4.893  1.6084  0.6758 -0.5247
 8775SOL    HW237959   2.255   2.675   4.970  2.1725  0.4633  1.1602
 8776SOL     OW37960   4.516   2.339  14.379  0.9450  0.9966  0.2058
 8776SOL    HW137961   4.562   2.360  14.460  2.2753  1.6045 -0.7292
 8776SOL    HW237962   4.442   2.287  14.412  1.2041  0.1324 -0.5538
 8777SOL     OW37963   3.271   0.084   2.909 -0.1686  0.2308  0.4880
 8777SOL    HW137964   3.246   4.726   2.901  1.2490 -0.0455 -0.7192
 8777SOL    HW237965   3.366   0.086   2.900 -0.1913 -0.8530 -0.0260
 8778SOL     OW37966   0.449   1.178  14.677  0.0836 -0.6958 -0.6836
 8778SOL    HW137967   0.516   1.164  14.745 -0.0389  0.4654 -0.3299
 8778SOL    HW237968   0.409   1.091  14.684 -1.5559  0.0049 -1.3143
 8779SOL     OW37969   3.913   2.957   0.384 -0.6821 -0.4522 -0.0416
 8779SOL    HW137970   3.881   2.960   0.295  2.9278  0.6697 -1.3163
 8779SOL    HW237971   3.887   3.045   0.409 -1.2668 -1.3348  2.5357
 8780SOL     OW37972   4.076   4.627   8.748 -0.2199 -0.3112  0.1568
 8780SOL    HW137973   4.001   4.572   8.725 -1.8770  1.5464  1.1573
 8780SOL    HW237974   4.062   4.707   8.698  2.3718  0.4922  0.7065
 8781SOL     OW37975   0.480   3.867   6.857  0.3870 -0.1764 -0.1840
 8781SOL    HW137976   0.557   3.819   6.826 -0.6743 -1.7163 -0.4697
 8781SOL    HW237977   0.518   3.944   6.899 -1.0247  0.3600  0.1237
 8782SOL     OW37978   3.990   1.560   7.831  0.6013  0.1910  0.7086
 8782SOL    HW137979   4.045   1.566   7.753 -0.6824  0.6308 -0.1611
 8782SOL    HW237980   4.044   1.601   7.899 -0.5794  2.0252  0.5617
 8783SOL     OW37981   4.085   2.791  12.677 -0.1096  1.2164  0.8633
 8783SOL    HW137982   4.033   2.803  12.597 -1.6752 -3.4382  1.1663
 8783SOL    HW237983   4.172   2.823  12.654 -0.3075  2.4639  1.8944
 8784SOL     OW37984   3.955   0.021   9.068 -0.0258 -0.5634  0.2338
 8784SOL    HW137985   4.033   0.037   9.015 -0.9641 -0.0953 -1.0162
 8784SOL    HW237986   3.891   0.019   8.997 -0.5418  4.8242  0.5251
 8785SOL     OW37987   0.687   0.462  15.085  0.0895 -0.3578 -0.1748
 8785SOL    HW137988   0.776   0.433  15.067  0.3339  0.0484  0.3828
 8785SOL    HW237989   0.702   0.556  15.083 -1.0492 -0.1686 -0.0318
 8786SOL     OW37990   0.087   3.765  13.558  0.0916 -0.1433 -0.4810
 8786SOL    HW137991   0.142   3.800  13.487  0.1590 -0.4219 -0.5652
 8786SOL    HW237992   0.148   3.709  13.606  1.9543  0.3560 -2.2211
 8787SOL     OW37993   2.523   4.114   2.221 -0.2066  0.1695  0.0037
 8787SOL    HW137994   2.588   4.155   2.278 -2.4424  0.8374  2.0856
 8787SOL    HW237995   2.547   4.024   2.240 -0.3827 -0.1075 -1.1175
 8788SOL     OW37996   3.792   1.633   3.376  0.4292 -0.4544  0.3404
 8788SOL    HW137997   3.863   1.663   3.434 -2.0606  0.5417  2.8711
 8788SOL    HW237998   3.800   1.694   3.302  0.3415 -0.9465 -0.0703
 8789SOL     OW37999   2.024   0.448   7.169  0.1743 -0.1803  0.4641
 8789SOL    HW138000   1.990   0.393   7.099  0.6387 -0.5375  0.5124
 8789SOL    HW238001   1.957   0.447   7.237  0.4086 -1.3598  0.6853
 8790SOL     OW38002   4.531   1.894   8.929  0.1152  0.7170  0.0753
 8790SOL    HW138003   4.469   1.967   8.930 -1.7406 -0.9191  2.6185
 8790SOL    HW238004   4.588   1.921   9.001  1.3445 -1.5444 -0.0808
 8791SOL     OW38005   1.999   3.111  13.643  0.0594  0.5036 -0.5371
 8791SOL    HW138006   1.915   3.157  13.639 -0.1375  0.2532  0.8701
 8791SOL    HW238007   2.030   3.149  13.560  1.5143 -0.1016 -0.2739
 8792SOL     OW38008   0.812   2.596  10.134  0.0189 -0.0545 -0.0208
 8792SOL    HW138009   0.767   2.517  10.104  0.1747  0.0771 -0.6093
 8792SOL    HW238010   0.753   2.622  10.205 -1.1393 -1.0406 -0.6293
 8793SOL     OW38011   2.222   2.971   0.055  0.0432  0.1067 -0.0601
 8793SOL    HW138012   2.165   2.909   0.009 -0.4570 -0.2125  0.9869
 8793SOL    HW238013   2.190   3.056   0.023  0.4996 -0.5763 -2.3624
 8794SOL     OW38014   4.092   2.144  17.418  0.2884  0.2816  0.7777
 8794SOL    HW138015   4.099   2.160  17.324 -1.8789 -1.5143  0.3180
 8794SOL    HW238016   4.002   2.121  17.441 -0.9522  3.1671 -1.2153
 8795SOL     OW38017   1.870   0.758   2.535 -0.2717  0.1501 -0.0434
 8795SOL    HW138018   1.833   0.788   2.619 -1.1762 -0.0249 -0.3755
 8795SOL    HW238019   1.851   0.666   2.549  0.6101  0.2979  2.1459
 8796SOL     OW38020   2.711   0.457   2.790  0.1215  0.3107 -0.0032
 8796SOL    HW138021   2.737   0.540   2.829 -0.1977  0.5716 -0.3474
 8796SOL    HW238022   2.777   0.462   2.721  0.5075 -1.8459  0.1961
 8797SOL     OW38023   2.308   2.166  12.313 -0.1723 -0.1958 -1.1973
 8797SOL    HW138024   2.244   2.170  12.242 -0.7147 -1.0827 -0.7539
 8797SOL    HW238025   2.247   2.156  12.386  1.5076  1.3387  0.4198
 8798SOL     OW38026   2.992   2.958   8.119 -0.2618  0.4125  0.0096
 8798SOL    HW138027   3.042   3.004   8.051  0.9341  0.0080  0.6082
 8798SOL    HW238028   2.971   2.875   8.076  0.7045 -1.5313  3.2992
 8799SOL     OW38029   2.385   4.512   6.485 -0.6628  0.5129  0.2035
 8799SOL    HW138030   2.440   4.528   6.561 -2.9068  0.6963  1.7796
 8799SOL    HW238031   2.447   4.489   6.415 -0.2700 -0.5739  0.9128
 8800SOL     OW38032   0.954   4.261   9.940  0.2726  0.1757  0.2648
 8800SOL    HW138033   0.962   4.354   9.915  1.4473 -0.2553 -0.9557
 8800SOL    HW238034   1.042   4.225   9.953  0.4393  0.3921 -0.2728
 8801SOL     OW38035   3.736   1.402  15.307 -0.6839  0.1649 -0.1471
 8801SOL    HW138036   3.733   1.490  15.345 -0.0169 -0.3364  1.0757
 8801SOL    HW238037   3.643   1.381  15.298 -0.8435  0.8532 -0.1465
 8802SOL     OW38038   4.719   4.635   4.583 -0.6585  0.2357  0.0611
 8802SOL    HW138039   0.022   4.716   4.549 -2.0506  0.7938 -0.0959
 8802SOL    HW238040   4.680   4.674   4.661  1.8961  1.9199  0.4889
 8803SOL     OW38041   0.684   3.427   5.395  0.4347 -0.0303  0.6563
 8803SOL    HW138042   0.629   3.412   5.471  0.8469  1.0223  1.1605
 8803SOL    HW238043   0.630   3.492   5.350  0.4568 -0.7607 -0.4157
 8804SOL     OW38044   3.503   1.557  10.846  0.8858 -0.2987  0.3171
 8804SOL    HW138045   3.459   1.473  10.826  0.9850 -0.2411 -0.1552
 8804SOL    HW238046   3.592   1.535  10.819  1.1081 -1.5548  2.0774
 8805SOL     OW38047   3.268   2.127   3.674 -0.3027  0.2672 -0.0231
 8805SOL    HW138048   3.255   2.185   3.599 -2.7433  1.5354  1.3683
 8805SOL    HW238049   3.186   2.135   3.723  0.4133 -0.4243  1.2846
 8806SOL     OW38050   3.346   3.460   8.632 -0.2243  0.1030  0.1620
 8806SOL    HW138051   3.273   3.456   8.693  0.4162  1.0466  0.9913
 8806SOL    HW238052   3.385   3.544   8.658 -0.6302  0.8325 -1.5672
 8807SOL     OW38053   1.717   3.147   3.996 -0.0611  0.8876 -0.0877
 8807SOL    HW138054   1.757   3.065   3.965  0.2249  0.0867  2.3705
 8807SOL    HW238055   1.686   3.181   3.912  3.9249 -1.2785 -2.4401
 8808SOL     OW38056   4.433   1.032   8.598 -0.5866  0.0489 -0.4787
 8808SOL    HW138057   4.487   0.982   8.659 -1.2230 -1.1819 -0.9072
 8808SOL    HW238058   4.349   1.050   8.639 -0.3152  0.4719 -0.1092
 8809SOL     OW38059   4.060   2.919  17.211 -0.4179  0.6420 -0.2705
 8809SOL    HW138060   4.121   2.888  17.144 -2.0143  1.0553 -1.8943
 8809SOL    HW238061   4.000   2.966  17.154 -0.8248 -0.7454 -0.9872
 8810SOL     OW38062   2.983   3.222   4.468  0.4305 -0.2466  0.2092
 8810SOL    HW138063   2.951   3.271   4.544 -0.9402 -0.7205 -0.0661
 8810SOL    HW238064   2.920   3.259   4.407 -1.2414 -1.7333  1.0170
 8811SOL     OW38065   0.357   1.407   5.481 -0.2003 -0.0225  0.5838
 8811SOL    HW138066   0.453   1.403   5.489 -0.0648  0.8035 -0.7252
 8811SOL    HW238067   0.326   1.324   5.444  1.5600 -0.3718 -0.1138
 8812SOL     OW38068   2.418   4.185   9.458 -0.2621 -0.0149  0.0831
 8812SOL    HW138069   2.469   4.127   9.401  2.1980  1.6721  0.5625
 8812SOL    HW238070   2.415   4.253   9.391  0.0712  0.4347  0.5265
 8813SOL     OW38071   1.408   1.684   7.856  0.2279  0.6859 -0.4604
 8813SOL    HW138072   1.446   1.695   7.943  0.3208  1.7452 -0.6296
 8813SOL    HW238073   1.476   1.723   7.801 -0.1143  0.1519 -1.2686
 8814SOL     OW38074   1.321   4.025   6.982  0.5734 -0.4112 -0.1245
 8814SOL    HW138075   1.288   4.091   7.043  0.7111  0.3178 -0.8311
 8814SOL    HW238076   1.349   4.076   6.906 -2.7670  2.2984  0.4481
 8815SOL     OW38077   4.138   3.449   1.928  0.4175  0.3265  1.2052
 8815SOL    HW138078   4.216   3.462   1.983 -0.0160  0.2051  1.8531
 8815SOL    HW238079   4.147   3.368   1.878  0.3789  0.2118  1.3836
 8816SOL     OW38080   0.726   1.675  16.445  0.1577  0.2508  0.2793
 8816SOL    HW138081   0.654   1.708  16.500  0.2619  0.7644  0.1053
 8816SOL    HW238082   0.699   1.710  16.360  0.4146 -1.1040 -0.3644
 8817SOL     OW38083   0.599   0.763   5.566  0.5640 -0.2623 -0.1541
 8817SOL    HW138084   0.537   0.757   5.638  0.1049 -0.5187 -0.5684
 8817SOL    HW238085   0.545   0.805   5.499  0.6192  1.9534  1.1943
 8818SOL     OW38086   3.049   1.153   5.464  0.2084 -0.3817 -0.0478
 8818SOL    HW138087   3.115   1.122   5.401 -0.7997 -0.5301 -1.0353
 8818SOL    HW238088   3.033   1.238   5.424  0.6822  0.4985  1.6263
 8819SOL     OW38089   0.130   2.001   8.515 -0.7226 -0.5017 -0.2730
 8819SOL    HW138090   0.045   1.969   8.543 -1.9288  1.9894 -1.1140
 8819SOL    HW238091   0.184   1.925   8.536 -0.9117 -0.0845  1.6824
 8820SOL     OW38092   0.690   3.396   5.865  0.3119  0.1022 -0.7147
 8820SOL    HW138093   0.753   3.416   5.934  1.7765  2.0504 -2.6081
 8820SOL    HW238094   0.687   3.303   5.886  0.6603  0.1553 -0.4365
 8821SOL     OW38095   2.978   0.152   2.132 -0.2044 -0.9189  0.0584
 8821SOL    HW138096   2.956   0.136   2.224 -1.3277 -0.4710 -0.1230
 8821SOL    HW238097   2.911   0.217   2.110  0.5951 -0.1967 -0.2531
 8822SOL     OW38098   3.020   3.201   0.960  0.6902 -0.6419  0.2477
 8822SOL    HW138099   3.053   3.128   1.011  0.0933 -1.0458  0.0530
 8822SOL    HW238100   3.003   3.272   1.022  1.1872 -0.4321  0.1450
 8823SOL     OW38101   4.462   0.433   5.373 -0.1776  0.2406 -0.1127
 8823SOL    HW138102   4.523   0.371   5.414 -1.2726  1.7947  3.8458
 8823SOL    HW238103   4.522   0.464   5.305  1.0403  0.1379  0.9069
 8824SOL     OW38104   0.609   0.859   7.077  0.4330  0.0137 -0.1996
 8824SOL    HW138105   0.521   0.828   7.057  0.5528  0.0541 -0.7895
 8824SOL    HW238106   0.621   0.894   6.989 -1.3031 -1.4418 -1.0317
 8825SOL     OW38107   1.786   1.002   8.244 -0.1962 -0.6740  0.3828
 8825SOL    HW138108   1.815   0.911   8.234 -1.2955 -1.2212  2.0655
 8825SOL    HW238109   1.871   1.041   8.259  0.3970 -0.9790 -2.1441
 8826SOL     OW38110   0.081   1.919   5.344 -0.0582 -0.3057  0.4558
 8826SOL    HW138111   0.046   1.977   5.412  0.1161 -0.4384  0.6629
 8826SOL    HW238112   0.052   1.831   5.368  1.1977 -0.7045  0.5529
 8827SOL     OW38113   2.081   2.771   8.724 -0.4805  0.1459  0.2206
 8827SOL    HW138114   2.014   2.715   8.763  1.8639 -1.5382  1.8315
 8827SOL    HW238115   2.110   2.716   8.651  0.4192  0.3257  0.4463
 8828SOL     OW38116   2.920   1.482   1.736  0.1807  0.3864  0.2449
 8828SOL    HW138117   2.900   1.500   1.644  0.6392 -0.3278  0.0076
 8828SOL    HW238118   2.920   1.387   1.724 -2.1410  0.3118  0.8424
 8829SOL     OW38119   1.925   2.184  16.443  0.6321  0.1037 -0.0393
 8829SOL    HW138120   1.865   2.247  16.404 -0.2590 -0.6442  0.1148
 8829SOL    HW238121   1.991   2.238  16.486  1.7510  0.2811 -1.9821
 8830SOL     OW38122   1.495   3.301  17.449 -0.5678  0.2988 -0.5700
 8830SOL    HW138123   1.575   3.347  17.424  0.6707 -2.0074 -0.8739
 8830SOL    HW238124   1.540   3.237  17.505 -2.0372 -0.5929 -0.3998
 8831SOL     OW38125   1.351   3.217   5.988 -0.0235  0.2784  0.1136
 8831SOL    HW138126   1.348   3.128   5.952  2.5550  0.9126 -1.6376
 8831SOL    HW238127   1.368   3.265   5.907  0.9378  0.0282  0.1764
 8832SOL     OW38128   4.259   2.359   4.134  0.0297  0.5131 -0.1444
 8832SOL    HW138129   4.216   2.354   4.049  2.1205 -3.3767 -0.9817
 8832SOL    HW238130   4.328   2.425   4.120  1.2297 -0.5341  0.8284
 8833SOL     OW38131   1.660   3.261   5.479 -0.0144  0.6463  0.1920
 8833SOL    HW138132   1.642   3.355   5.473 -0.0838  0.4730 -2.1605
 8833SOL    HW238133   1.575   3.227   5.451  0.4603  0.1508 -0.6063
 8834SOL     OW38134   2.416   2.298   4.407  0.1928  0.2323 -0.7028
 8834SOL    HW138135   2.338   2.337   4.445 -1.7737 -0.6515 -3.8024
 8834SOL    HW238136   2.406   2.312   4.312  1.1164 -0.7039 -0.9433
 8835SOL     OW38137   1.849   3.258   2.204 -0.6521 -0.2494 -0.3914
 8835SOL    HW138138   1.757   3.256   2.180 -0.3911 -2.3068 -1.2746
 8835SOL    HW238139   1.855   3.202   2.282  0.2880  1.6526  0.9013
 8836SOL     OW38140   4.732   0.421   6.654  0.2225 -0.0039  0.5250
 8836SOL    HW138141   4.637   0.424   6.667  0.1876 -2.7974  0.7383
 8836SOL    HW238142   4.722   0.405   6.560 -0.7756  0.2917  0.5793
 8837SOL     OW38143   0.237   1.828   6.049 -0.0302 -0.0570  0.1069
 8837SOL    HW138144   0.205   1.835   6.139  0.3194  0.6940  0.1667
 8837SOL    HW238145   0.159   1.854   6.000  0.2950  0.8865  0.0947
 8838SOL     OW38146   3.697   3.496   8.849 -0.4967 -0.8344  0.1916
 8838SOL    HW138147   3.687   3.526   8.758  1.7039  1.4631  0.6834
 8838SOL    HW238148   3.754   3.567   8.879 -0.8507 -0.8145  0.8120
 8839SOL     OW38149   1.517   3.226   0.170  0.2196 -0.1717 -0.0239
 8839SOL    HW138150   1.535   3.180   0.252 -1.9067 -1.2694 -0.1779
 8839SOL    HW238151   1.422   3.215   0.171  0.0686  0.9342 -1.0855
 8840SOL     OW38152   0.802   0.629   6.820  0.4569  0.0012 -0.5374
 8840SOL    HW138153   0.718   0.618   6.864 -0.5391 -0.4032 -2.5590
 8840SOL    HW238154   0.834   0.539   6.811 -1.4579 -0.7349  0.1243
 8841SOL     OW38155   0.475   2.277   8.476  0.4871 -0.0124  0.2031
 8841SOL    HW138156   0.444   2.248   8.562  0.5709 -0.0818  0.2103
 8841SOL    HW238157   0.418   2.350   8.454  2.6976  1.9280  1.0178
 8842SOL     OW38158   2.664   1.414  11.072 -0.2186  0.5304  0.2611
 8842SOL    HW138159   2.732   1.387  11.011 -0.2033 -1.5517  1.1777
 8842SOL    HW238160   2.697   1.413  11.162  0.4718  2.2231  0.0154
 8843SOL     OW38161   2.105   1.137   6.989 -0.0941  0.0755 -0.6499
 8843SOL    HW138162   2.092   1.226   6.957  0.1767  1.2527  2.5843
 8843SOL    HW238163   2.109   1.101   6.900 -3.0634 -2.3202  0.1709
 8844SOL     OW38164   3.192   2.466   8.578  0.3246  0.2865 -0.0190
 8844SOL    HW138165   3.196   2.562   8.573  0.2250  0.4396  2.7858
 8844SOL    HW238166   3.097   2.454   8.580  0.4580 -1.1143 -3.1440
 8845SOL     OW38167   0.186   1.176  10.302  0.4036 -0.3631  0.4810
 8845SOL    HW138168   0.246   1.195  10.230  0.8751 -1.7562  0.5095
 8845SOL    HW238169   0.173   1.265  10.337 -0.2477  0.2513 -1.3240
 8846SOL     OW38170   2.692   1.954   7.602 -0.1017  0.4156 -0.4358
 8846SOL    HW138171   2.618   1.916   7.650  1.0530 -1.9589 -0.5473
 8846SOL    HW238172   2.713   1.885   7.538 -1.7430 -1.3586  0.9340
 8847SOL     OW38173   1.899   4.241  16.213  0.3724  0.6330 -0.8956
 8847SOL    HW138174   1.818   4.273  16.253 -0.4486  2.0053 -3.6618
 8847SOL    HW238175   1.966   4.261  16.280  0.6474 -0.7394 -0.7756
 8848SOL     OW38176   1.147   1.215   5.063  0.1864  0.8068 -0.1089
 8848SOL    HW138177   1.052   1.223   5.058  0.2505 -0.2691 -3.0509
 8848SOL    HW238178   1.158   1.122   5.078  2.5289  0.9666 -0.8874
 8849SOL     OW38179   2.883   1.475  16.482 -0.0489  0.7531  0.1778
 8849SOL    HW138180   2.821   1.434  16.542 -0.2736  1.5583  0.4899
 8849SOL    HW238181   2.811   1.518  16.435 -2.0905 -1.9634  0.7817
 8850SOL     OW38182   3.953   2.144   6.211 -0.1696  0.2799 -0.0779
 8850SOL    HW138183   3.910   2.164   6.294  2.6180  1.4224  1.0980
 8850SOL    HW238184   3.980   2.053   6.218 -0.8358 -0.0637 -1.8861
 8851SOL     OW38185   1.631   0.870   7.960 -0.3345  0.5673  0.2477
 8851SOL    HW138186   1.672   0.923   7.891 -0.0277  0.5630  0.4276
 8851SOL    HW238187   1.605   0.940   8.019 -3.1334 -0.2100 -0.0629
 8852SOL     OW38188   3.016   2.213   1.306 -0.5022  0.1904 -0.1079
 8852SOL    HW138189   3.082   2.200   1.374  0.1083  1.0071 -0.5565
 8852SOL    HW238190   3.013   2.308   1.308  1.2475  0.2218  0.5899
 8853SOL     OW38191   2.590   1.527   4.002 -0.7197  0.2067  0.3361
 8853SOL    HW138192   2.591   1.437   3.969 -0.4177  1.0222 -1.8175
 8853SOL    HW238193   2.504   1.556   3.972 -0.2911  2.2364  1.1071
 8854SOL     OW38194   1.725   3.651  10.317  0.1611  0.2828 -0.1492
 8854SOL    HW138195   1.637   3.616  10.331 -0.5321  1.7237 -0.9162
 8854SOL    HW238196   1.776   3.579  10.354 -0.7530 -1.1996 -1.7785
 8855SOL     OW38197   4.636   0.341  17.399 -0.1645  0.0651  0.4074
 8855SOL    HW138198   4.722   0.341  17.442 -0.0021  0.9085  0.0852
 8855SOL    HW238199   4.651   0.284  17.324  0.7741  0.5441  0.2246
 8856SOL     OW38200   2.666   1.602  16.367  0.1070  0.2894  0.2434
 8856SOL    HW138201   2.640   1.674  16.310  0.2525  0.9477  1.0057
 8856SOL    HW238202   2.656   1.657  16.445 -0.1960  2.4900 -1.3523
 8857SOL     OW38203   0.064   1.593  13.453 -0.5678 -0.2248  0.0496
 8857SOL    HW138204   0.132   1.532  13.479 -0.2809  0.0243 -0.1203
 8857SOL    HW238205   0.120   1.652  13.402  0.1952 -0.2500  0.8681
 8858SOL     OW38206   0.083   4.216   8.420 -0.7584  0.0436  0.1464
 8858SOL    HW138207   0.066   4.285   8.484  1.3700 -0.7625  1.5858
 8858SOL    HW238208   0.005   4.159   8.416 -0.1867 -0.6805 -0.6388
 8859SOL     OW38209   2.463   2.085   0.506 -0.0415  0.1137 -0.1523
 8859SOL    HW138210   2.523   2.157   0.524 -0.6857  0.9159 -1.1959
 8859SOL    HW238211   2.436   2.064   0.595  1.0473 -0.0406  0.1468
 8860SOL     OW38212   4.388   1.714   5.168 -0.5209  0.1332  0.3000
 8860SOL    HW138213   4.343   1.784   5.121 -3.7262 -1.3616  1.1580
 8860SOL    HW238214   4.311   1.658   5.169 -1.2142  1.1056  0.8987
 8861SOL     OW38215   4.188   3.107   5.208 -0.0151 -0.2556 -0.0169
 8861SOL    HW138216   4.236   3.082   5.287  0.1694  1.5532  0.4232
 8861SOL    HW238217   4.204   3.029   5.154 -1.0728 -0.5377  0.0757
 8862SOL     OW38218   1.535   2.741   7.303 -0.3334  0.3671 -0.1253
 8862SOL    HW138219   1.480   2.740   7.224 -0.8650  1.4654  0.2358
 8862SOL    HW238220   1.605   2.798   7.272  0.0846  0.0052  0.1572
 8863SOL     OW38221   4.433   2.518   8.450 -0.5243 -0.1320 -0.4882
 8863SOL    HW138222   4.421   2.430   8.485  2.9044 -0.2669  0.3183
 8863SOL    HW238223   4.491   2.498   8.377  0.3419  3.0131 -0.6619
 8864SOL     OW38224   4.475   4.030   4.637 -0.0100  0.2984 -0.1377
 8864SOL    HW138225   4.534   4.105   4.630 -1.2906  1.3916  1.0200
 8864SOL    HW238226   4.394   4.064   4.599 -0.1031  2.1867  1.7532
 8865SOL     OW38227   4.008   0.135   7.332 -0.0276 -0.1193  0.2390
 8865SOL    HW138228   3.976   0.068   7.272  0.9267 -1.4463  1.2145
 8865SOL    HW238229   4.070   0.188   7.282 -0.4214 -0.2723 -0.4122
 8866SOL     OW38230   1.755   3.231   9.440 -0.4190 -0.0416 -0.1747
 8866SOL    HW138231   1.725   3.228   9.530  1.1602  1.1460  0.3879
 8866SOL    HW238232   1.682   3.279   9.401  0.4867  0.1312 -1.6776
 8867SOL     OW38233   0.619   4.438  13.487 -0.2141  0.3461 -0.1027
 8867SOL    HW138234   0.565   4.368  13.448  0.7219 -0.8528  0.7445
 8867SOL    HW238235   0.619   4.402  13.576 -1.2035  1.7855  0.4760
 8868SOL     OW38236   4.506   3.957   6.555 -0.2518 -0.2721 -0.6635
 8868SOL    HW138237   4.436   4.017   6.580  1.3107  0.7584  1.1636
 8868SOL    HW238238   4.513   3.886   6.619  0.7741 -1.5204 -2.1491
 8869SOL     OW38239   0.856   2.828   4.214 -0.2378  0.9017  0.0891
 8869SOL    HW138240   0.805   2.896   4.259  0.8957  1.3701  0.6850
 8869SOL    HW238241   0.788   2.776   4.173  1.4106  0.2289 -1.7382
 8870SOL     OW38242   3.236   0.630   2.444 -0.6037 -0.1914 -0.3821
 8870SOL    HW138243   3.322   0.589   2.456  0.2301  1.9418  0.8130
 8870SOL    HW238244   3.238   0.677   2.360  1.9325 -2.2114 -1.4717
 8871SOL     OW38245   4.295   3.146   6.774  0.2613  0.0562 -0.4615
 8871SOL    HW138246   4.257   3.234   6.768  0.2255  0.1565  1.4011
 8871SOL    HW238247   4.364   3.173   6.834  0.4829  2.3239 -1.7245
 8872SOL     OW38248   3.531   4.449   8.004  0.5275  0.2083 -0.2209
 8872SOL    HW138249   3.485   4.529   8.031  0.9802  0.7388 -1.0335
 8872SOL    HW238250   3.571   4.475   7.922  0.7060 -1.6410 -0.7105
 8873SOL     OW38251   1.343   0.125   9.510 -0.1251 -0.4344 -0.2439
 8873SOL    HW138252   1.285   0.051   9.490 -1.7034  1.0237 -1.0210
 8873SOL    HW238253   1.429   0.087   9.492  0.2918  0.1296  0.5483
 8874SOL     OW38254   1.143   1.491  10.418  0.2652  0.0251 -0.0241
 8874SOL    HW138255   1.232   1.469  10.446 -1.0012 -3.8949  0.9498
 8874SOL    HW238256   1.103   1.453  10.497 -0.5132  0.6265 -0.1334
 8875SOL     OW38257   2.800   1.349   5.962 -0.0240  0.1493  0.6283
 8875SOL    HW138258   2.755   1.272   5.927 -0.5243  1.1899 -0.9621
 8875SOL    HW238259   2.871   1.301   6.006  0.6267  0.2346 -0.3397
 8876SOL     OW38260   1.073   3.432   9.281 -0.1839 -0.6536 -0.0791
 8876SOL    HW138261   1.003   3.394   9.334  0.1568  0.8286  1.4418
 8876SOL    HW238262   1.116   3.351   9.254  1.3371  0.5677 -1.3142
 8877SOL     OW38263   2.806   0.729  12.679  0.1356 -0.3186 -0.3867
 8877SOL    HW138264   2.752   0.651  12.691 -1.4647  1.3716  3.5099
 8877SOL    HW238265   2.804   0.762  12.769  1.3653  1.0845 -0.8747
 8878SOL     OW38266   2.528   4.133   9.718  0.0725 -0.5283  0.0634
 8878SOL    HW138267   2.515   4.055   9.772 -1.2785 -1.4629 -1.6148
 8878SOL    HW238268   2.462   4.125   9.649 -0.0203  0.8343 -0.0098
 8879SOL     OW38269   4.079   2.615   8.674 -0.2814 -0.0602 -0.1957
 8879SOL    HW138270   4.169   2.608   8.706 -0.0290 -0.1965 -0.9500
 8879SOL    HW238271   4.076   2.710   8.690 -1.5869 -0.1601  0.2278
 8880SOL     OW38272   3.748   0.663   5.526  0.1021 -0.0650 -0.1975
 8880SOL    HW138273   3.758   0.666   5.431  0.7477 -0.4089 -0.1411
 8880SOL    HW238274   3.685   0.591   5.530  2.0674 -1.6987  1.5661
 8881SOL     OW38275   4.643   0.633   2.702 -0.4842  0.6751  0.1923
 8881SOL    HW138276   4.629   0.567   2.633 -0.8546  0.6937  0.2498
 8881SOL    HW238277   4.699   0.583   2.762 -4.9093 -2.4970  1.6847
 8882SOL     OW38278   2.042   3.380   8.574 -0.5090 -0.1385  0.5009
 8882SOL    HW138279   2.006   3.468   8.587 -2.9048 -0.8356 -1.4330
 8882SOL    HW238280   2.074   3.369   8.663 -2.5556 -1.3613  1.1015
 8883SOL     OW38281   1.702   1.335   0.947  0.2250 -0.6286  0.1427
 8883SOL    HW138282   1.790   1.338   0.986  0.4122 -2.1302 -0.1625
 8883SOL    HW238283   1.668   1.262   0.998 -0.1377 -0.3651  0.2820
 8884SOL     OW38284   0.349   0.442   1.977  0.6072 -0.7869 -0.5660
 8884SOL    HW138285   0.297   0.496   1.917 -0.5072 -1.9849 -0.6671
 8884SOL    HW238286   0.398   0.507   2.027 -0.6156 -1.6170  1.7296
 8885SOL     OW38287   1.040   2.986   8.138  0.1685  0.1314  0.6940
 8885SOL    HW138288   1.090   3.059   8.175 -1.8758  1.8827  0.0143
 8885SOL    HW238289   1.074   2.973   8.050 -0.7985 -1.4658  0.5641
 8886SOL     OW38290   3.542   4.308  13.986  0.3853  0.0634 -0.4286
 8886SOL    HW138291   3.594   4.236  13.950  2.3461  2.3390 -2.1504
 8886SOL    HW238292   3.604   4.376  13.957  0.9568  0.0939  0.8269
 8887SOL     OW38293   2.913   4.436   2.796 -0.1699  0.3446 -0.5005
 8887SOL    HW138294   2.921   4.379   2.719 -0.4106 -0.1100 -0.1891
 8887SOL    HW238295   2.836   4.396   2.838 -1.5101  2.8070 -0.6320
 8888SOL     OW38296   4.322   4.246   9.814  0.7078 -0.1013 -0.8992
 8888SOL    HW138297   4.303   4.160   9.851 -0.1891  0.6240  0.3022
 8888SOL    HW238298   4.410   4.231   9.779  1.7552 -1.8236  2.4431
 8889SOL     OW38299   3.783   2.040   7.839 -0.2702 -0.5403 -0.2869
 8889SOL    HW138300   3.731   2.102   7.892  0.9846 -0.3596  0.7186
 8889SOL    HW238301   3.749   2.064   7.753  0.3251  0.2487 -0.3059
 8890SOL     OW38302   2.398   2.548   8.279  0.0330 -0.6742  0.2144
 8890SOL    HW138303   2.383   2.601   8.357  0.3229  1.3518 -1.0969
 8890SOL    HW238304   2.440   2.471   8.317  1.0703 -0.2872 -0.1276
 8891SOL     OW38305   1.004   0.707   8.648 -0.1156 -0.5440 -0.7436
 8891SOL    HW138306   1.079   0.656   8.617  1.0956 -0.4850  2.0925
 8891SOL    HW238307   0.968   0.748   8.569 -0.5534 -0.7658 -0.6595
 8892SOL     OW38308   2.064   1.575   2.489 -0.1219 -0.6655  0.1305
 8892SOL    HW138309   2.104   1.497   2.528 -0.6538 -1.0578 -0.1081
 8892SOL    HW238310   1.995   1.536   2.436  1.1241 -2.3300 -0.2733
 8893SOL     OW38311   0.001   0.970   5.221 -0.2977 -0.0885 -0.4518
 8893SOL    HW138312   0.069   0.904   5.232 -0.3498 -0.1843 -0.7026
 8893SOL    HW238313   4.673   0.927   5.278  0.2067 -1.5774 -1.0340
 8894SOL     OW38314   1.945   2.070   5.042  0.0699 -0.3647 -0.2710
 8894SOL    HW138315   1.994   1.995   5.008  1.8095  1.1296 -1.0627
 8894SOL    HW238316   1.957   2.134   4.972 -2.1665  1.1246  0.7146
 8895SOL     OW38317   4.716   0.807   1.840 -0.3915  0.2091 -0.4070
 8895SOL    HW138318   4.682   0.773   1.923  1.9425  0.5482  0.6959
 8895SOL    HW238319   4.641   0.833   1.786  0.5007 -0.5038 -1.9958
 8896SOL     OW38320   2.083   3.227  12.101  0.3397  0.3415  0.2489
 8896SOL    HW138321   2.004   3.264  12.141 -0.3373  0.4738 -1.2095
 8896SOL    HW238322   2.044   3.147  12.067 -1.2961  1.1297  0.2792
 8897SOL     OW38323   0.527   3.627   5.278  0.1211  0.0815 -0.2968
 8897SOL    HW138324   0.435   3.624   5.303 -0.1090  3.1146 -0.8305
 8897SOL    HW238325   0.523   3.717   5.246  1.2667  0.2769  0.1021
 8898SOL     OW38326   4.212   3.495   9.269  0.3631 -0.0065 -0.3392
 8898SOL    HW138327   4.170   3.492   9.183 -0.4630  1.4026  0.0064
 8898SOL    HW238328   4.188   3.405   9.292  1.4414 -0.5758 -1.4497
 8899SOL     OW38329   2.766   1.730   2.133  0.0396  0.1313 -0.3757
 8899SOL    HW138330   2.767   1.691   2.046 -1.8721  2.4025 -1.4303
 8899SOL    HW238331   2.738   1.819   2.112 -1.3288 -0.3168 -0.4832
 8900SOL     OW38332   2.917   3.089   6.371 -0.3160  0.2982  0.4929
 8900SOL    HW138333   2.986   3.151   6.391 -0.1950  0.5843 -0.8680
 8900SOL    HW238334   2.937   3.077   6.278  3.0595 -0.6197  1.3326
 8901SOL     OW38335   1.230   0.275  14.051 -0.0096  0.1738  0.0975
 8901SOL    HW138336   1.200   0.213  14.118  0.5903 -2.0655 -1.6984
 8901SOL    HW238337   1.220   0.214  13.979 -4.5295  2.0838 -0.8938
 8902SOL     OW38338   4.015   1.882   1.575  0.7668  0.1756 -0.0273
 8902SOL    HW138339   4.005   1.929   1.657  1.1418  0.4546 -0.1411
 8902SOL    HW238340   3.922   1.867   1.559  0.4228  0.3864  1.8248
 8903SOL     OW38341   2.043   3.499   3.549 -0.1170 -0.1776 -0.0072
 8903SOL    HW138342   2.051   3.542   3.634 -2.0667 -1.2667  0.7424
 8903SOL    HW238343   1.950   3.480   3.561 -0.3920  1.1531 -0.0320
 8904SOL     OW38344   0.654   3.602  17.664  0.2801 -0.4038  0.3375
 8904SOL    HW138345   0.607   3.683  17.684 -0.8695 -1.2259  0.9436
 8904SOL    HW238346   0.721   3.619  17.598  0.8442  0.7123  1.1852
 8905SOL     OW38347   4.678   3.315   2.391 -0.1308 -0.2236 -0.1344
 8905SOL    HW138348   4.712   3.351   2.309 -0.8779  0.1198 -0.2969
 8905SOL    HW238349   0.024   3.279   2.429 -0.2238  0.7038  0.9282
 8906SOL     OW38350   1.031   2.619  10.309 -0.0351  0.3479 -0.0344
 8906SOL    HW138351   0.989   2.642  10.392 -1.3878 -0.7772 -0.4065
 8906SOL    HW238352   0.962   2.618  10.242 -1.0481 -0.5305  1.0129
 8907SOL     OW38353   1.037   1.486  10.168 -0.1952 -0.1388 -0.7497
 8907SOL    HW138354   1.038   1.391  10.160  1.0766 -0.1450 -0.4966
 8907SOL    HW238355   1.089   1.498  10.247 -2.0201  1.3479  0.2247
 8908SOL     OW38356   1.907   3.982   8.166 -0.0611 -0.1822  0.4734
 8908SOL    HW138357   1.884   4.058   8.112 -1.1511 -0.6192  0.3266
 8908SOL    HW238358   1.943   4.028   8.242 -0.1429 -0.2769  0.5684
 8909SOL     OW38359   1.042   0.101   4.020 -0.1754  0.1688  0.1596
 8909SOL    HW138360   1.021   0.092   3.928  2.9987 -0.4018 -0.4957
 8909SOL    HW238361   0.953   0.092   4.053 -0.7213 -0.5461 -1.5428
 8910SOL     OW38362   0.455   3.098  17.087  0.4742 -0.1470 -0.2964
 8910SOL    HW138363   0.509   3.121  17.011  0.4893 -0.2195 -0.3078
 8910SOL    HW238364   0.505   3.035  17.140  1.2123  0.0468 -0.7523
 8911SOL     OW38365   0.452   0.071  16.016 -0.1842  0.4588  0.0012
 8911SOL    HW138366   0.466   0.123  15.937  1.4284 -0.4692 -0.3201
 8911SOL    HW238367   0.431   0.149  16.067 -1.4397  1.7285 -2.4819
 8912SOL     OW38368   3.451   3.181  17.102  0.2634 -0.2885  0.0493
 8912SOL    HW138369   3.476   3.099  17.059  1.3962 -0.4771  1.0905
 8912SOL    HW238370   3.398   3.226  17.036  0.1526 -0.9604 -0.3200
 8913SOL     OW38371   0.560   1.184   2.453 -0.3577 -0.3339 -0.2077
 8913SOL    HW138372   0.640   1.233   2.469 -0.7564 -0.4276  1.9886
 8913SOL    HW238373   0.510   1.250   2.403 -0.1826  1.9302  2.6152
 8914SOL     OW38374   3.585   3.373  15.300 -0.4770  0.0281  0.0244
 8914SOL    HW138375   3.636   3.391  15.379 -1.2158 -3.6186  1.3515
 8914SOL    HW238376   3.638   3.426  15.240 -1.7020  0.8514 -0.3305
 8915SOL     OW38377   4.734   3.407   6.181 -0.0165 -0.3798  0.0268
 8915SOL    HW138378   0.001   3.458   6.261  0.5107  0.9126 -0.8060
 8915SOL    HW238379   4.679   3.332   6.204 -1.4933  0.7595  0.2214
 8916SOL     OW38380   0.220   3.937  16.567 -0.2859 -0.0528 -0.1908
 8916SOL    HW138381   0.219   4.033  16.569 -0.1692 -0.0353 -0.9103
 8916SOL    HW238382   0.263   3.903  16.646  0.6321  1.3475 -0.0887
 8917SOL     OW38383   3.020   2.726  13.974 -0.0912  0.3649 -0.4294
 8917SOL    HW138384   3.064   2.745  14.057  0.6752 -3.5378  0.0980
 8917SOL    HW238385   2.946   2.786  13.987 -0.2115  0.0733  0.2520
 8918SOL     OW38386   2.344   2.699   7.645  0.4062  0.3603 -0.7927
 8918SOL    HW138387   2.403   2.720   7.718  0.0369 -1.5472  0.0548
 8918SOL    HW238388   2.349   2.604   7.658  0.3365  0.5288  0.4679
 8919SOL     OW38389   1.576   2.321   6.466  0.0716  0.0834 -0.3093
 8919SOL    HW138390   1.613   2.242   6.506  1.5336 -0.0171 -1.8491
 8919SOL    HW238391   1.498   2.329   6.521 -0.5700 -1.3509 -0.9950
 8920SOL     OW38392   2.463   1.997  12.188 -0.0700  0.5815  0.1701
 8920SOL    HW138393   2.427   2.073  12.234  0.2733  1.2483 -0.6698
 8920SOL    HW238394   2.467   2.028  12.097  0.6422 -3.3863 -1.1469
 8921SOL     OW38395   1.792   4.080   6.120 -0.2096 -0.0435 -0.5776
 8921SOL    HW138396   1.801   4.083   6.025  1.3881 -0.9958 -0.4626
 8921SOL    HW238397   1.878   4.062   6.159  0.0495  0.0747 -1.1003
 8922SOL     OW38398   0.618   0.738   3.119  0.3117  0.0076  0.5778
 8922SOL    HW138399   0.671   0.802   3.072 -0.7036 -0.4147 -1.1234
 8922SOL    HW238400   0.647   0.653   3.087 -0.2431 -0.0090  0.1326
 8923SOL     OW38401   3.875   4.388   4.109 -0.3305 -0.3498 -0.6917
 8923SOL    HW138402   3.784   4.357   4.112 -0.1639 -0.6929  0.6186
 8923SOL    HW238403   3.899   4.336   4.032 -2.8885  0.0218 -1.7718
 8924SOL     OW38404   3.303   2.264   8.454  0.1586  0.4145  0.0920
 8924SOL    HW138405   3.254   2.337   8.493  1.0445  0.3471  1.3195
 8924SOL    HW238406   3.390   2.299   8.474  0.8862 -2.0065  1.0426
 8925SOL     OW38407   2.471   3.659   5.380 -0.4345  0.0938  0.0881
 8925SOL    HW138408   2.476   3.622   5.292 -0.1890 -1.9574  0.9526
 8925SOL    HW238409   2.377   3.658   5.399 -0.4812  1.4531 -0.0869
 8926SOL     OW38410   2.973   1.194   6.089  0.0933 -0.1305  0.5572
 8926SOL    HW138411   2.979   1.111   6.137  0.7911 -0.4432 -0.0575
 8926SOL    HW238412   3.043   1.186   6.024 -1.3624 -3.1522 -0.6539
 8927SOL     OW38413   4.177   3.682   0.103 -0.7310  0.0474  0.3912
 8927SOL    HW138414   4.097   3.637   0.075 -0.5038  1.0605 -1.9092
 8927SOL    HW238415   4.247   3.620   0.082  0.1630  0.7659  1.2659
 8928SOL     OW38416   1.823   1.166   2.024  0.2585  0.4469 -0.9980
 8928SOL    HW138417   1.729   1.179   2.032  0.4896  0.9783  0.9632
 8928SOL    HW238418   1.830   1.116   2.106 -2.0783  0.9129 -0.5288
 8929SOL     OW38419   0.564   3.389  12.010 -0.2522 -0.1673 -0.5484
 8929SOL    HW138420   0.540   3.339  12.088 -0.5471 -1.3089 -1.3710
 8929SOL    HW238421   0.503   3.349  11.948 -0.0219 -0.6759 -0.4483
 8930SOL     OW38422   2.055   0.739   1.087 -0.5034 -0.2527 -0.4696
 8930SOL    HW138423   2.023   0.819   1.128  1.3031 -0.1140  0.6803
 8930SOL    HW238424   2.084   0.780   1.006  2.2746  2.4635  1.9256
 8931SOL     OW38425   0.049   4.268   0.323 -0.8947 -0.4140  0.4672
 8931SOL    HW138426   0.096   4.337   0.276 -3.5722  1.5277  0.6092
 8931SOL    HW238427   0.046   4.303   0.412  0.6961 -0.2691  0.4604
 8932SOL     OW38428   3.508   0.681   2.277 -0.5511 -1.3180  0.2507
 8932SOL    HW138429   3.571   0.624   2.234  0.7597  1.0738 -0.9971
 8932SOL    HW238430   3.517   0.647   2.366 -0.7584  2.4797  1.7222
 8933SOL     OW38431   2.340   3.648   4.358  0.1422  0.2309 -0.0068
 8933SOL    HW138432   2.373   3.723   4.308 -1.4866  0.3956 -0.8230
 8933SOL    HW238433   2.412   3.639   4.420 -0.5417 -0.4946  0.6742
 8934SOL     OW38434   2.477   0.738   3.024 -0.4735 -0.1685  0.1721
 8934SOL    HW138435   2.561   0.695   3.006  0.7732  2.4925 -0.3571
 8934SOL    HW238436   2.466   0.718   3.117 -0.2407 -0.5958  0.1069
 8935SOL     OW38437   0.436   3.610  13.345 -0.5687 -0.4450 -0.1539
 8935SOL    HW138438   0.495   3.558  13.399 -0.7473 -0.5393 -0.0489
 8935SOL    HW238439   0.463   3.572  13.262  0.1647  0.0546 -0.1487
 8936SOL     OW38440   2.995   3.048   2.881  0.4432 -0.3738 -0.0294
 8936SOL    HW138441   2.919   2.998   2.912 -0.6405  2.1803  1.3911
 8936SOL    HW238442   2.957   3.106   2.815  1.7400  1.6722  1.0259
 8937SOL     OW38443   1.879   0.363   3.841  0.5768  0.3821 -0.4361
 8937SOL    HW138444   1.826   0.434   3.804 -0.1308 -0.3854 -0.8922
 8937SOL    HW238445   1.857   0.388   3.931  1.7630 -0.7713  0.1772
 8938SOL     OW38446   1.274   2.116  17.037  0.2935  0.0256  0.0101
 8938SOL    HW138447   1.290   2.185  17.101  2.2065 -1.8526  1.5542
 8938SOL    HW238448   1.185   2.148  17.019 -0.1078  0.9856  3.6937
 8939SOL     OW38449   2.277   1.757   9.034 -0.1743  0.0493 -0.3157
 8939SOL    HW138450   2.327   1.754   9.116 -0.0394  0.9077 -0.3719
 8939SOL    HW238451   2.349   1.723   8.981  0.8109 -0.5766  1.4170
 8940SOL     OW38452   3.160   1.079   0.597  0.3976  0.6485  0.3482
 8940SOL    HW138453   3.209   1.013   0.547 -0.4046  2.0836 -2.3405
 8940SOL    HW238454   3.148   1.033   0.680 -0.2445 -0.4982 -0.3782
 8941SOL     OW38455   3.263   0.382   7.864  0.5755 -0.1191  0.0418
 8941SOL    HW138456   3.273   0.380   7.769  1.2283  1.7001  0.0883
 8941SOL    HW238457   3.268   0.475   7.883  0.7741 -0.2538  0.6328
 8942SOL     OW38458   2.986   0.437   5.986 -0.5610 -0.3171  0.5434
 8942SOL    HW138459   3.044   0.487   5.929  1.1544 -0.7192  1.9327
 8942SOL    HW238460   3.044   0.372   6.025 -1.0161 -0.9311  0.1965
 8943SOL     OW38461   0.698   4.430  12.705 -0.1803  0.6988  0.2997
 8943SOL    HW138462   0.704   4.413  12.799 -3.1076  0.4871  0.4262
 8943SOL    HW238463   0.779   4.481  12.709  0.9011 -1.1919  2.5574
 8944SOL     OW38464   1.322   2.117   8.227  0.4345  0.4788 -0.3022
 8944SOL    HW138465   1.246   2.164   8.195 -1.0545 -2.1792 -0.6420
 8944SOL    HW238466   1.395   2.152   8.175 -0.9983  1.0557 -1.9056
 8945SOL     OW38467   1.988   3.776   4.171  1.0830 -0.0801 -0.1322
 8945SOL    HW138468   2.049   3.742   4.106  1.0336  0.2135 -0.3326
 8945SOL    HW238469   1.905   3.751   4.129  1.5916 -3.6562  0.9534
 8946SOL     OW38470   0.628   1.285   4.909 -0.0403 -0.4802 -0.2900
 8946SOL    HW138471   0.584   1.319   4.987  1.7647  1.4861 -0.1100
 8946SOL    HW238472   0.605   1.192   4.909 -2.0806  0.0370 -2.5271
 8947SOL     OW38473   0.960   2.195  15.623 -0.2616  0.0140 -0.6762
 8947SOL    HW138474   0.952   2.191  15.719  1.0723 -1.7387 -0.6346
 8947SOL    HW238475   0.896   2.262  15.600  0.0293  0.9128  1.0997
 8948SOL     OW38476   0.645   1.953  14.273  0.1964  0.2491 -0.0843
 8948SOL    HW138477   0.571   1.962  14.213  0.0344 -1.2748 -0.1255
 8948SOL    HW238478   0.608   1.999  14.349 -1.7551 -0.1188 -0.8105
 8949SOL     OW38479   2.787   0.976   5.657  0.5735 -0.4157  0.5327
 8949SOL    HW138480   2.784   1.051   5.599  0.3665 -0.5997  0.3035
 8949SOL    HW238481   2.719   0.921   5.619 -0.3910  2.2426 -1.5744
 8950SOL     OW38482   2.419   2.094   7.508  0.1524 -0.3388  0.1538
 8950SOL    HW138483   2.435   2.185   7.531  0.0805 -0.2204 -0.2557
 8950SOL    HW238484   2.334   2.100   7.464  1.1023 -3.8054 -2.1540
 8951SOL     OW38485   0.870   1.968   4.111 -0.1057  0.2867  0.6619
 8951SOL    HW138486   0.877   2.031   4.040 -2.9753  0.2463  0.3341
 8951SOL    HW238487   0.820   2.014   4.179 -0.2102  1.6838 -0.3498
 8952SOL     OW38488   2.858   1.838  11.803 -0.5592 -0.2929 -0.2244
 8952SOL    HW138489   2.914   1.785  11.859  0.3356  0.3683 -0.4950
 8952SOL    HW238490   2.918   1.887  11.747  0.7015 -1.4158  0.1367
 8953SOL     OW38491   3.443   2.901  12.715 -0.6515  0.0280  0.1791
 8953SOL    HW138492   3.515   2.942  12.762  0.6402 -2.0842  0.0187
 8953SOL    HW238493   3.393   2.878  12.793 -0.0916  0.9971  0.8296
 8954SOL     OW38494   2.434   0.067   6.224  0.3074  0.0456  0.0106
 8954SOL    HW138495   2.345   0.033   6.233  0.9931 -1.5788  0.6552
 8954SOL    HW238496   2.423   0.143   6.167 -0.1505 -0.8725 -1.1385
 8955SOL     OW38497   3.942   0.452   8.249  0.4935 -0.5480  0.3727
 8955SOL    HW138498   4.013   0.516   8.243  1.1119 -1.1374  1.3435
 8955SOL    HW238499   3.873   0.505   8.289 -1.0742 -2.0117 -0.3921
 8956SOL     OW38500   0.234   1.984   9.957 -0.3194 -0.1193  0.0462
 8956SOL    HW138501   0.195   2.058  10.004 -0.0454 -0.1971  0.3987
 8956SOL    HW238502   0.280   1.941  10.029  0.1440  0.2431 -0.0319
 8957SOL     OW38503   2.137   1.864   5.276  0.4186 -0.1808 -0.2437
 8957SOL    HW138504   2.171   1.850   5.365  2.7101  0.5434 -1.0200
 8957SOL    HW238505   2.153   1.958   5.266  0.6067 -0.2253 -0.3519
 8958SOL     OW38506   3.236   3.216  17.628 -0.2852  0.1629 -0.4252
 8958SOL    HW138507   3.268   3.260  17.549 -0.5371 -1.3971 -1.4025
 8958SOL    HW238508   3.317   3.213  17.680 -0.9957  1.6410  0.7391
 8959SOL     OW38509   1.743   0.647   3.079  0.2715 -0.4144 -0.2577
 8959SOL    HW138510   1.817   0.611   3.029  1.3102  2.5804 -0.8727
 8959SOL    HW238511   1.767   0.642   3.171 -3.2676  1.1374  0.7345
 8960SOL     OW38512   0.783   1.391   1.382  0.0404 -0.9300  0.0915
 8960SOL    HW138513   0.828   1.472   1.357 -1.5578 -0.8751 -2.6575
 8960SOL    HW238514   0.689   1.400   1.365 -0.0719 -2.5642 -0.2094
 8961SOL     OW38515   3.341   1.838   6.278  0.0543  0.1818 -0.4176
 8961SOL    HW138516   3.390   1.799   6.350  2.1629  0.2728 -1.8235
 8961SOL    HW238517   3.261   1.784   6.276 -1.4222  2.2956  0.8170
 8962SOL     OW38518   3.075   4.030   0.354  0.6589  0.0979  0.2931
 8962SOL    HW138519   3.084   3.996   0.264  0.2176  0.1236  0.2356
 8962SOL    HW238520   3.097   3.950   0.401 -0.3483  0.1236  0.8078
 8963SOL     OW38521   1.485   2.511  14.409 -0.0167 -0.1507 -0.0979
 8963SOL    HW138522   1.437   2.542  14.485  0.8218  1.3960 -0.1943
 8963SOL    HW238523   1.460   2.569  14.337  1.6411 -0.0530 -0.6105
 8964SOL     OW38524   3.164   3.170   7.077  0.0066  0.1883  0.1346
 8964SOL    HW138525   3.165   3.200   6.986  2.3826  0.4797  0.2629
 8964SOL    HW238526   3.198   3.244   7.128 -1.0958  0.0433  1.0747
 8965SOL     OW38527   0.904   2.627  15.693  0.2914  1.1815 -0.2290
 8965SOL    HW138528   0.840   2.673  15.746 -0.9229 -1.8176  0.9156
 8965SOL    HW238529   0.945   2.569  15.758 -1.3258  1.4029  0.9845
 8966SOL     OW38530   4.128   1.298   7.486 -0.4930 -0.5634 -0.4282
 8966SOL    HW138531   4.195   1.295   7.418 -0.4873  0.1913 -0.4512
 8966SOL    HW238532   4.165   1.232   7.545 -1.6957  0.1263  1.1050
 8967SOL     OW38533   1.987   1.951   7.053  0.6849 -0.1666 -0.0136
 8967SOL    HW138534   1.925   1.912   6.992  1.6260 -1.5665 -0.0619
 8967SOL    HW238535   1.936   1.974   7.132  0.1974  0.9732 -0.6646
 8968SOL     OW38536   3.709   3.977   2.829  0.2300 -0.0168  0.0821
 8968SOL    HW138537   3.694   3.999   2.921 -2.3227  1.4033 -0.6581
 8968SOL    HW238538   3.635   3.922   2.802 -0.0857  0.8129 -0.7433
 8969SOL     OW38539   3.953   3.422  12.448 -0.1513 -0.1070  0.0416
 8969SOL    HW138540   3.966   3.512  12.418  0.3168 -0.2666 -0.2395
 8969SOL    HW238541   3.987   3.374  12.372  0.4477  1.2008 -0.5291
 8970SOL     OW38542   1.134   2.398   0.827 -0.6760 -1.2316  0.4716
 8970SOL    HW138543   1.150   2.325   0.887  0.8210 -1.8502 -0.6805
 8970SOL    HW238544   1.040   2.382   0.819 -0.7016 -1.0200  0.3494
 8971SOL     OW38545   3.599   3.946   6.582 -0.4796 -0.3271  0.5089
 8971SOL    HW138546   3.658   3.923   6.510  0.7434 -1.6917  1.9721
 8971SOL    HW238547   3.642   3.900   6.653  2.1909  2.1147  0.5056
 8972SOL     OW38548   3.817   4.681   8.124  0.3745 -0.0717 -0.6206
 8972SOL    HW138549   3.816   4.632   8.042  1.5017  0.1659 -0.7734
 8972SOL    HW238550   3.862   0.022   8.084  2.2254  0.2604  2.1431
 8973SOL     OW38551   0.576   0.678   2.653  0.0004 -0.0317  0.4995
 8973SOL    HW138552   0.639   0.744   2.623  0.4920 -0.1881  1.1814
 8973SOL    HW238553   0.623   0.601   2.621 -1.9112  0.2165 -2.8758
 8974SOL     OW38554   4.733   0.441   8.828  0.0740 -0.1468  0.0671
 8974SOL    HW138555   0.052   0.366   8.856  2.5880  1.9088  0.7860
 8974SOL    HW238556   4.679   0.402   8.759 -0.9315 -1.0263  1.3446
 8975SOL     OW38557   2.593   4.019   2.811  0.2387 -0.4833  0.1836
 8975SOL    HW138558   2.501   3.995   2.796  0.0756  0.0933  0.2681
 8975SOL    HW238559   2.639   3.941   2.780  1.9647  0.2953  0.7814
 8976SOL     OW38560   3.278   1.939   7.711  0.6638 -0.0549 -0.4888
 8976SOL    HW138561   3.313   1.933   7.799  0.8924  1.1914 -0.4940
 8976SOL    HW238562   3.185   1.930   7.733  0.6875 -0.5847 -0.6048
 8977SOL     OW38563   4.077   1.566   9.220 -0.7512  0.0210 -0.8652
 8977SOL    HW138564   4.018   1.540   9.150 -1.0844 -2.3262  0.2779
 8977SOL    HW238565   4.053   1.658   9.234  0.0082 -0.4364  3.4470
 8978SOL     OW38566   2.602   1.945  13.439 -0.2951  0.2604  0.1650
 8978SOL    HW138567   2.634   1.934  13.349  2.2685  0.2460  1.0714
 8978SOL    HW238568   2.518   1.987  13.419 -0.5284 -0.7136 -0.9141
 8979SOL     OW38569   3.710   2.022  14.569 -0.1317  0.0800  0.0811
 8979SOL    HW138570   3.712   1.946  14.627  1.0609  0.7433  0.8870
 8979SOL    HW238571   3.631   1.996  14.520  0.5799  1.2362 -1.7050
 8980SOL     OW38572   3.710   3.742   6.100 -0.0879  0.2315 -0.3942
 8980SOL    HW138573   3.641   3.784   6.151  1.0700 -1.0298  2.2382
 8980SOL    HW238574   3.677   3.758   6.012 -0.2053 -0.0316 -0.3980
 8981SOL     OW38575   1.137   2.581   5.406  0.0325  0.5035 -0.0985
 8981SOL    HW138576   1.079   2.545   5.339 -0.8029 -0.6939  1.2647
 8981SOL    HW238577   1.074   2.632   5.457 -0.8083 -0.2934 -0.3490
 8982SOL     OW38578   1.072   3.814   3.484 -0.2978 -0.0294 -0.4930
 8982SOL    HW138579   1.142   3.793   3.545 -0.4436  0.7187 -0.0726
 8982SOL    HW238580   1.110   3.891   3.442  0.8323 -0.5433 -0.3952
 8983SOL     OW38581   1.497   2.522   0.487 -0.0466  0.5759  0.1298
 8983SOL    HW138582   1.426   2.547   0.546  0.6061 -1.7077  1.8912
 8983SOL    HW238583   1.558   2.488   0.552  1.8024  1.5648 -1.0673
 8984SOL     OW38584   2.685   3.775   2.688 -0.3704 -0.5156  0.1860
 8984SOL    HW138585   2.682   3.729   2.772 -0.6012 -1.2316 -0.2229
 8984SOL    HW238586   2.745   3.714   2.646  2.2121  0.8994  1.8083
 8985SOL     OW38587   0.443   3.241  12.232 -0.2205  0.2495  0.1484
 8985SOL    HW138588   0.512   3.211  12.291  1.3067  1.4956 -1.0129
 8985SOL    HW238589   0.368   3.186  12.256  1.4564 -2.0612  0.1145
 8986SOL     OW38590   1.636   2.485   5.508  0.1195  0.2398  0.7245
 8986SOL    HW138591   1.545   2.477   5.538 -0.1053  0.0811  0.0117
 8986SOL    HW238592   1.643   2.401   5.463 -0.4115  1.0109 -0.8188
 8987SOL     OW38593   3.615   2.432   0.981 -0.3073  0.3704  0.2501
 8987SOL    HW138594   3.671   2.355   0.987  0.2919  0.7544 -0.4123
 8987SOL    HW238595   3.572   2.404   0.901  1.4662  1.0072 -0.9443
 8988SOL     OW38596   4.154   3.247  13.744 -0.2136 -0.1483 -0.0875
 8988SOL    HW138597   4.185   3.279  13.829  0.3941  3.3399 -1.6139
 8988SOL    HW238598   4.123   3.160  13.767 -0.4727 -0.2937 -0.9843
 8989SOL     OW38599   3.223   1.609   8.494  0.3570 -0.7740  0.5802
 8989SOL    HW138600   3.212   1.694   8.451 -1.4809 -0.8558  0.8763
 8989SOL    HW238601   3.166   1.559   8.435  0.4740 -1.2847  0.8963
 8990SOL     OW38602   1.852   4.316   7.377  0.1810  0.2359 -0.0463
 8990SOL    HW138603   1.845   4.243   7.438  0.2556  0.2110 -0.0680
 8990SOL    HW238604   1.946   4.332   7.375 -0.2147  3.0605  2.6569
 8991SOL     OW38605   0.955   0.185   3.056 -0.4639 -0.2371 -0.0889
 8991SOL    HW138606   1.032   0.147   3.013  0.7832  0.5591  1.4393
 8991SOL    HW238607   0.921   0.234   2.982 -0.7527  0.1322  0.2919
 8992SOL     OW38608   2.112   1.211   8.829 -0.0884  0.2481 -0.1671
 8992SOL    HW138609   2.129   1.274   8.899 -0.9735  0.7491 -0.4042
 8992SOL    HW238610   2.053   1.149   8.871  0.1125  0.3830  0.3056
 8993SOL     OW38611   0.762   3.607   3.142 -0.1361 -0.3884 -0.4465
 8993SOL    HW138612   0.762   3.669   3.215 -0.7524 -1.4638  0.4649
 8993SOL    HW238613   0.816   3.653   3.078  1.4529  0.6351  1.6226
 8994SOL     OW38614   2.323   1.997  13.755  0.3938  0.2949  0.0995
 8994SOL    HW138615   2.287   2.036  13.676  1.0716 -0.7242 -0.7196
 8994SOL    HW238616   2.285   1.909  13.757  1.9358 -0.3724 -0.2657
 8995SOL     OW38617   1.401   4.356   6.182  0.2305  0.1082 -0.1385
 8995SOL    HW138618   1.472   4.303   6.219 -1.9623 -2.8895 -0.1823
 8995SOL    HW238619   1.332   4.296   6.153 -0.0965 -0.5009  1.8602
 8996SOL     OW38620   4.331   4.707   9.340  0.0759 -0.0618 -0.0873
 8996SOL    HW138621   4.243   0.007   9.328 -0.1664 -0.3298  0.9616
 8996SOL    HW238622   4.323   4.618   9.306 -1.4772  0.2386 -0.4668
 8997SOL     OW38623   2.634   2.907  12.351 -0.0393  0.1381 -0.1663
 8997SOL    HW138624   2.652   2.824  12.396  3.8168  0.9180 -0.2580
 8997SOL    HW238625   2.724   2.937  12.342  0.1283 -1.0313 -2.3904
 8998SOL     OW38626   1.284   2.965   6.790 -0.5214  0.6524 -0.2233
 8998SOL    HW138627   1.354   2.901   6.775 -0.1768  0.6860  1.2406
 8998SOL    HW238628   1.294   3.024   6.716 -0.8525  1.5974  0.4877
 8999SOL     OW38629   1.199   3.811   5.068  0.2190 -0.3414 -0.0172
 8999SOL    HW138630   1.160   3.800   4.981  3.8987  2.2878 -1.9723
 8999SOL    HW238631   1.113   3.807   5.112  0.6894  0.7093  1.0022
 9000SOL     OW38632   0.968   2.927   7.379  0.1105  0.0095 -0.1549
 9000SOL    HW138633   0.975   2.844   7.426  1.6802 -0.7132 -1.6736
 9000SOL    HW238634   1.005   2.984   7.446  1.4843  1.5763 -2.2560
 9001SOL     OW38635   0.817   2.901   7.009 -0.1654 -0.2747  0.4880
 9001SOL    HW138636   0.908   2.921   6.987  0.1937  0.6884  2.8754
 9001SOL    HW238637   0.797   2.826   6.952  0.0712 -0.0175  0.0633
 9002SOL     OW38638   4.511   4.572   8.619  0.6071 -0.6491  0.8742
 9002SOL    HW138639   4.423   4.598   8.592  1.6419  1.3929 -0.5068
 9002SOL    HW238640   4.559   4.619   8.551  1.4991  0.4285  2.2470
 9003SOL     OW38641   1.768   0.841  13.683 -0.2074  0.1793  1.1408
 9003SOL    HW138642   1.774   0.747  13.666  0.0189  0.8413 -2.4847
 9003SOL    HW238643   1.694   0.844  13.744 -0.6797  1.4782  0.4920
 9004SOL     OW38644   2.324   2.801   1.443 -0.0729 -0.3111  0.0241
 9004SOL    HW138645   2.402   2.778   1.391 -0.5353  0.5385 -1.0313
 9004SOL    HW238646   2.256   2.791   1.377  0.7435  0.6893 -0.9649
 9005SOL     OW38647   0.266   3.385   7.911 -0.9861 -0.1893  0.3219
 9005SOL    HW138648   0.274   3.401   7.817  0.7014 -0.6351  0.4035
 9005SOL    HW238649   0.337   3.443   7.936 -0.5165 -0.6079 -0.0503
 9006SOL     OW38650   3.630   3.557   5.132 -0.6383 -0.5274 -0.6665
 9006SOL    HW138651   3.547   3.584   5.092 -2.6247 -2.1323  2.4182
 9006SOL    HW238652   3.602   3.523   5.217 -0.2386  0.9614  0.0598
 9007SOL     OW38653   3.246   0.547   7.382  0.1044  0.0699 -0.1094
 9007SOL    HW138654   3.324   0.566   7.330 -0.1175  0.4543 -0.3017
 9007SOL    HW238655   3.226   0.628   7.429 -0.7157 -1.6734  2.5729
 9008SOL     OW38656   3.849   1.792   6.980  0.2327 -0.1461 -0.3303
 9008SOL    HW138657   3.763   1.780   6.940 -0.6946  1.9803  1.0417
 9008SOL    HW238658   3.827   1.829   7.065  0.8226  1.3019 -0.7965
 9009SOL     OW38659   2.160   3.393   4.578 -0.0033  0.0808  0.0093
 9009SOL    HW138660   2.133   3.378   4.488  0.7056  1.0454 -0.3704
 9009SOL    HW238661   2.200   3.308   4.598  0.3695 -0.1516 -1.7186
 9010SOL     OW38662   3.502   1.505  11.386  0.5122  0.1799  0.0053
 9010SOL    HW138663   3.438   1.574  11.368 -0.2749 -0.3023  0.9436
 9010SOL    HW238664   3.552   1.539  11.460  0.0580 -1.4507  1.0879
 9011SOL     OW38665   0.008   0.254  13.468 -0.3021  0.3834  0.0091
 9011SOL    HW138666   0.040   0.164  13.462 -1.1313  0.1745 -1.3594
 9011SOL    HW238667   0.097   0.290  13.478  0.2495 -0.8615 -0.4053
 9012SOL     OW38668   3.771   0.216  12.389  0.2290 -0.0370 -0.0293
 9012SOL    HW138669   3.787   0.197  12.482  0.3949 -0.4249 -0.1373
 9012SOL    HW238670   3.861   0.229  12.361  0.4954  1.0240  1.3281
 9013SOL     OW38671   4.004   3.018   6.590  0.1209  0.3589  0.1582
 9013SOL    HW138672   4.072   3.084   6.574  0.7916 -0.3485  0.1179
 9013SOL    HW238673   4.030   2.989   6.678  0.0239  3.5041  1.2200
 9014SOL     OW38674   1.244   0.969  10.084  0.3273  0.1552  0.0341
 9014SOL    HW138675   1.159   0.935  10.056  1.0514 -1.0231 -0.7433
 9014SOL    HW238676   1.249   0.931  10.172 -0.5369  1.0600  0.4692
 9015SOL     OW38677   3.643   4.557   7.349  0.3904  0.3539 -0.1141
 9015SOL    HW138678   3.676   4.471   7.376 -1.5245 -0.9883 -2.0949
 9015SOL    HW238679   3.556   4.558   7.388 -0.2394 -1.0242 -1.4879
 9016SOL     OW38680   2.838   2.699   4.470 -0.8609 -0.1447 -0.2067
 9016SOL    HW138681   2.913   2.754   4.449 -0.3105 -0.7596  0.1503
 9016SOL    HW238682   2.791   2.743   4.541 -1.3200 -3.2817  1.4474
 9017SOL     OW38683   0.078   3.246  10.656  0.4450  0.1016 -0.3594
 9017SOL    HW138684   0.150   3.199  10.614  0.8020 -0.2383  0.6292
 9017SOL    HW238685   0.082   3.327  10.606 -2.3367  0.7900  0.5465
 9018SOL     OW38686   4.679   4.310   8.862  0.2315  0.0542 -0.2080
 9018SOL    HW138687   4.707   4.371   8.931  3.2657 -2.0344  0.3902
 9018SOL    HW238688   0.022   4.256   8.852 -0.1820 -0.6059  0.1880
 9019SOL     OW38689   2.225   0.147  17.705  0.3383 -0.0009  0.5793
 9019SOL    HW138690   2.135   0.165  17.731  0.0362  1.7616 -1.6417
 9019SOL    HW238691   2.257   0.237  17.708 -0.6433  0.2826  2.5231
 9020SOL     OW38692   3.392   4.230  15.681  0.1289 -0.1547 -0.3075
 9020SOL    HW138693   3.483   4.255  15.697 -0.2576  1.6593 -0.9372
 9020SOL    HW238694   3.380   4.244  15.587 -1.3273 -1.0564 -0.2682
 9021SOL     OW38695   3.314   0.949  16.793 -0.5887 -0.3896  0.0065
 9021SOL    HW138696   3.321   0.973  16.700 -1.5499 -0.3647 -0.0506
 9021SOL    HW238697   3.225   0.974  16.817  0.0144  0.0080  1.8335
 9022SOL     OW38698   3.240   2.031   0.854 -0.5893 -0.9716 -0.8696
 9022SOL    HW138699   3.168   1.972   0.834 -1.5004 -0.5869  1.2896
 9022SOL    HW238700   3.249   2.023   0.949 -2.3548  0.3051 -0.5889
 9023SOL     OW38701   0.314   4.636   4.152 -0.4006  0.0510  0.1459
 9023SOL    HW138702   0.246   4.594   4.205 -1.0831 -1.1153 -1.6478
 9023SOL    HW238703   0.364   4.564   4.114 -1.1868 -0.5136  0.1745
 9024SOL     OW38704   0.309   0.640   6.591 -0.0842  0.0355  0.1418
 9024SOL    HW138705   0.248   0.678   6.654  1.1843  1.4137  0.5369
 9024SOL    HW238706   0.303   0.702   6.518 -0.5906  0.1405  0.2708
 9025SOL     OW38707   0.406   2.598  16.414  0.2620 -0.4645 -0.6549
 9025SOL    HW138708   0.383   2.635  16.329 -0.6540 -1.3155 -0.7738
 9025SOL    HW238709   0.324   2.548  16.417  0.7533 -1.2753 -0.7281
 9026SOL     OW38710   1.208   1.828   8.650 -0.0732 -0.1198 -0.1490
 9026SOL    HW138711   1.118   1.852   8.628 -0.3336 -1.3131 -0.4097
 9026SOL    HW238712   1.257   1.878   8.585 -0.1434  1.3701  0.9473
 9027SOL     OW38713   0.830   3.432   4.863 -0.3239 -0.6210  0.1857
 9027SOL    HW138714   0.792   3.365   4.919 -0.1454 -0.6411  0.2817
 9027SOL    HW238715   0.750   3.468   4.826 -0.1243 -0.4996 -0.1318
 9028SOL     OW38716   1.048   2.716   2.358  0.4248 -0.6477  0.0771
 9028SOL    HW138717   0.955   2.733   2.346  0.3196  0.5461  2.4602
 9028SOL    HW238718   1.048   2.746   2.449  0.2212 -1.1823  0.2498
 9029SOL     OW38719   3.527   0.695   8.907 -0.3320 -0.6742  0.1263
 9029SOL    HW138720   3.452   0.728   8.955  1.9343  2.1908  1.7361
 9029SOL    HW238721   3.493   0.683   8.818 -0.5999  2.8303 -0.2339
 9030SOL     OW38722   1.562   1.797   8.110  1.1861  0.1258 -0.0444
 9030SOL    HW138723   1.549   1.882   8.069 -3.3906 -0.2110  0.7035
 9030SOL    HW238724   1.657   1.798   8.117  1.2175 -0.8186 -0.3702
 9031SOL     OW38725   1.135   0.321   1.352  0.3826  0.1485  0.2726
 9031SOL    HW138726   1.108   0.365   1.271  2.4446  1.8778  0.5045
 9031SOL    HW238727   1.088   0.238   1.353  0.6265 -0.0092 -0.9680
 9032SOL     OW38728   4.339   3.608   8.176 -0.5635 -0.1312 -0.2235
 9032SOL    HW138729   4.351   3.671   8.247  2.0609  0.6686 -1.3549
 9032SOL    HW238730   4.428   3.572   8.170 -0.2663  0.6563 -0.4767
 9033SOL     OW38731   1.238   0.347   4.680 -0.4150 -0.5713 -0.1839
 9033SOL    HW138732   1.282   0.264   4.668  2.3222  0.8597  0.0233
 9033SOL    HW238733   1.278   0.408   4.617  1.5971 -1.3535  0.3506
 9034SOL     OW38734   0.539   0.526   2.172  0.1573 -0.1800 -0.3396
 9034SOL    HW138735   0.593   0.600   2.200  0.0950 -0.1655 -0.2591
 9034SOL    HW238736   0.459   0.564   2.207  0.7010 -0.0826  0.8070
 9035SOL     OW38737   4.656   2.630   1.392 -0.0442  0.4954 -0.3381
 9035SOL    HW138738   4.632   2.626   1.485  1.5839 -1.5529  0.0003
 9035SOL    HW238739   4.595   2.692   1.352 -0.3772  0.9759  0.9151
 9036SOL     OW38740   1.770   3.844   2.977 -0.4422  0.4295 -0.7231
 9036SOL    HW138741   1.741   3.916   2.921  0.1433 -0.6379 -2.3914
 9036SOL    HW238742   1.727   3.768   2.938  0.2807 -0.7649  0.8111
 9037SOL     OW38743   3.117   2.581   0.733 -0.2678  0.1317  0.0880
 9037SOL    HW138744   3.118   2.612   0.824  0.8358  0.3782 -0.0065
 9037SOL    HW238745   3.081   2.661   0.696  0.0336 -0.2071 -0.9391
 9038SOL     OW38746   0.572   3.252   8.778 -0.4351  0.2423  0.1643
 9038SOL    HW138747   0.499   3.279   8.721  0.6212 -0.2852 -1.4505
 9038SOL    HW238748   0.634   3.213   8.716 -0.9803 -0.0478 -0.1926
 9039SOL     OW38749   1.823   3.845   9.446  0.2441  0.7511  0.1329
 9039SOL    HW138750   1.737   3.888   9.450  0.0050  0.3323 -0.4565
 9039SOL    HW238751   1.865   3.888   9.371  2.3253  1.4859  1.7039
 9040SOL     OW38752   2.576   1.894  14.247 -0.8250 -0.5767 -0.5617
 9040SOL    HW138753   2.610   1.813  14.285 -3.1990 -0.3702  1.9726
 9040SOL    HW238754   2.648   1.952  14.273 -1.9605  0.9166 -0.7472
 9041SOL     OW38755   3.056   1.114   1.171 -0.1020  0.0213 -0.7443
 9041SOL    HW138756   3.047   1.081   1.081 -0.9281 -0.8593 -0.3294
 9041SOL    HW238757   3.117   1.185   1.150  0.4282  0.0195  0.7891
 9042SOL     OW38758   2.942   0.166   5.400 -0.3636 -0.8786 -0.0769
 9042SOL    HW138759   2.855   0.177   5.440 -0.8357 -4.6696 -0.0370
 9042SOL    HW238760   2.932   0.224   5.325  0.7628 -0.0112  0.4375
 9043SOL     OW38761   0.416   1.549   5.152 -0.5052 -0.7045 -0.1092
 9043SOL    HW138762   0.323   1.569   5.165  0.1304  1.6527  0.8343
 9043SOL    HW238763   0.429   1.505   5.236  0.2174 -1.6284 -0.7075
 9044SOL     OW38764   0.845   2.869   6.615 -0.0986 -0.0827  0.2307
 9044SOL    HW138765   0.869   2.958   6.643  1.0386  0.0183 -1.0762
 9044SOL    HW238766   0.918   2.846   6.558 -0.6935  0.8087 -0.8862
 9045SOL     OW38767   0.948   0.415   9.509 -0.0371  0.6973  0.0638
 9045SOL    HW138768   0.949   0.446   9.600  0.9481  1.0183 -0.0512
 9045SOL    HW238769   0.896   0.486   9.472 -1.8417 -0.1708  0.9303
 9046SOL     OW38770   4.570   0.918  13.411  0.7263 -0.2279 -0.1522
 9046SOL    HW138771   4.502   0.926  13.478  0.0046  2.0224 -1.1693
 9046SOL    HW238772   4.531   0.981  13.351 -0.4747  1.2548  2.1602
 9047SOL     OW38773   2.467   2.977   0.955  0.4349 -0.2278 -0.2611
 9047SOL    HW138774   2.504   3.064   0.939  1.4943 -0.9335 -1.6369
 9047SOL    HW238775   2.517   2.966   1.037  1.7492 -0.4913 -1.0994
 9048SOL     OW38776   3.240   0.008  10.551  0.2920  0.1239  0.1596
 9048SOL    HW138777   3.215   4.650  10.547  0.3624  0.1697 -1.3176
 9048SOL    HW238778   3.274   0.007  10.641  2.2393  1.1881 -0.5539
 9049SOL     OW38779   2.233   0.160   8.695 -0.4367  0.1253  0.0152
 9049SOL    HW138780   2.262   0.251   8.710 -1.0451  0.7411 -2.5080
 9049SOL    HW238781   2.249   0.149   8.602  1.9876  0.7705  0.3592
 9050SOL     OW38782   4.586   2.740   5.307  0.3320  0.5198 -0.3084
 9050SOL    HW138783   4.643   2.665   5.324  0.4835  0.7770  0.3255
 9050SOL    HW238784   4.507   2.695   5.337  1.3279 -0.4528  0.8446
 9051SOL     OW38785   1.200   0.734   4.522 -1.1004  0.7729 -0.4597
 9051SOL    HW138786   1.259   0.706   4.593 -0.0969 -0.8462 -1.9297
 9051SOL    HW238787   1.247   0.704   4.444 -1.6150 -1.1967 -0.0138
 9052SOL     OW38788   3.046   1.817   3.682 -0.5503  0.1630  0.2609
 9052SOL    HW138789   2.969   1.873   3.687  0.8106  2.0218  0.3632
 9052SOL    HW238790   3.082   1.838   3.596  2.0683 -1.1084  1.0233
 9053SOL     OW38791   0.472   1.619  14.381  0.4243  0.3468 -0.0613
 9053SOL    HW138792   0.485   1.534  14.422 -2.8210  0.1329  0.5259
 9053SOL    HW238793   0.543   1.614  14.317  0.3726 -1.2545  0.0120
 9054SOL     OW38794   1.033   1.189   9.527  0.3649 -0.0429  0.3506
 9054SOL    HW138795   0.966   1.222   9.468  2.8317  2.3482 -1.0684
 9054SOL    HW238796   0.990   1.111   9.563  0.5245  1.1038  3.0315
 9055SOL     OW38797   2.493   0.205  14.200 -0.0367 -0.0109  0.0450
 9055SOL    HW138798   2.503   0.185  14.107 -1.9510 -1.0012  0.0465
 9055SOL    HW238799   2.482   0.116  14.234 -2.3299  0.1735 -0.2340
 9056SOL     OW38800   0.508   1.063  11.111 -0.1865 -0.5765  0.2690
 9056SOL    HW138801   0.550   1.042  11.194 -0.1580  1.7511  0.8227
 9056SOL    HW238802   0.471   1.147  11.139 -1.2308 -0.5384 -1.2305
 9057SOL     OW38803   0.924   0.425  14.854  0.0390  0.5262 -0.1557
 9057SOL    HW138804   0.881   0.506  14.826 -3.7549 -1.4399  0.0118
 9057SOL    HW238805   0.947   0.389  14.769 -0.3862 -0.6050  0.2100
 9058SOL     OW38806   3.721   0.100   3.300  0.0761  0.0484  0.3898
 9058SOL    HW138807   3.656   0.162   3.333  0.6693  1.5775 -1.3262
 9058SOL    HW238808   3.748   0.147   3.221 -0.2990  0.9626  0.8035
 9059SOL     OW38809   1.292   0.383   3.841 -0.2143 -0.1784  0.1051
 9059SOL    HW138810   1.203   0.418   3.833 -0.4299 -0.3517  1.7808
 9059SOL    HW238811   1.275   0.293   3.813 -0.2732 -0.5625  1.3571
 9060SOL     OW38812   3.860   1.540   0.136 -0.0825  0.6181 -0.1306
 9060SOL    HW138813   3.788   1.506   0.082 -0.1606  1.1764 -0.3858
 9060SOL    HW238814   3.821   1.625   0.158 -0.7499  0.3964 -0.4687
 9061SOL     OW38815   3.992   4.327   6.016  0.4691  0.0326 -0.1835
 9061SOL    HW138816   3.930   4.261   5.986 -0.2779 -0.0102  1.4244
 9061SOL    HW238817   4.046   4.267   6.067 -0.5452  1.0572  2.1000
 9062SOL     OW38818   0.799   0.041   4.120  0.0645 -0.0466 -0.8059
 9062SOL    HW138819   0.827   0.053   4.211 -0.3056  2.8384 -1.0491
 9062SOL    HW238820   0.708   0.064   4.139  0.1827 -1.0823  1.0165
 9063SOL     OW38821   0.069   0.046   7.080 -0.0542  0.2442 -0.0589
 9063SOL    HW138822   0.009   0.118   7.063 -1.5048 -1.0053 -0.3299
 9063SOL    HW238823   0.103   0.069   7.166  0.4052  0.1932 -0.2236
 9064SOL     OW38824   0.989   2.399  12.874  0.1937  0.1867 -0.6237
 9064SOL    HW138825   1.007   2.435  12.961  1.4086  0.0883 -0.8359
 9064SOL    HW238826   0.926   2.329  12.889 -1.1957  1.7520  0.8176
 9065SOL     OW38827   3.167   3.258   6.829  0.1886 -0.7428  0.0867
 9065SOL    HW138828   3.116   3.194   6.779  1.2753 -0.3110 -1.5877
 9065SOL    HW238829   3.112   3.337   6.822  1.6837  0.4459  1.7984
 9066SOL     OW38830   2.323   3.153   3.058 -0.4043  0.3607  0.4757
 9066SOL    HW138831   2.264   3.166   2.984  0.2255  0.1997 -0.0534
 9066SOL    HW238832   2.412   3.165   3.027 -1.3516  0.4640 -2.2203
 9067SOL     OW38833   1.929   1.524   9.141  0.4865  0.2738 -0.2720
 9067SOL    HW138834   1.881   1.495   9.064 -1.4120 -0.0460  1.0290
 9067SOL    HW238835   1.941   1.619   9.135  0.1075  0.2503 -1.3270
 9068SOL     OW38836   0.301   0.591   8.336  0.2444  0.4760  0.3346
 9068SOL    HW138837   0.303   0.687   8.334  0.5073  0.4886  1.6673
 9068SOL    HW238838   0.396   0.575   8.329 -0.0603 -0.7039 -1.1136
 9069SOL     OW38839   2.010   1.233  11.731 -0.3554 -0.0209 -0.5219
 9069SOL    HW138840   1.922   1.263  11.709 -0.1823  1.0592  0.2596
 9069SOL    HW238841   2.044   1.317  11.763  0.8867 -0.5644 -0.4233
 9070SOL     OW38842   1.674   4.167  13.141 -0.5767  0.6933  0.1144
 9070SOL    HW138843   1.585   4.199  13.155 -1.1817 -0.5441 -0.8716
 9070SOL    HW238844   1.710   4.241  13.093  0.0658 -0.3075 -0.9318
 9071SOL     OW38845   0.278   0.834  10.725  0.0200  0.0501  0.2038
 9071SOL    HW138846   0.237   0.822  10.810 -0.3961  0.7006  0.0949
 9071SOL    HW238847   0.259   0.751  10.681  0.2818  1.3380 -2.3666
 9072SOL     OW38848   2.258   3.157   6.804 -0.9573  0.1574 -0.3916
 9072SOL    HW138849   2.347   3.160   6.840 -1.5528 -0.5298  1.1393
 9072SOL    HW238850   2.272   3.182   6.712  1.9220 -0.7776 -0.2145
 9073SOL     OW38851   3.387   3.477   2.661  0.2658  0.0830  0.3637
 9073SOL    HW138852   3.330   3.481   2.738 -3.7309  2.4834 -2.7200
 9073SOL    HW238853   3.464   3.519   2.700  1.4920 -0.7286 -1.1835
 9074SOL     OW38854   0.563   2.514   5.188  0.3420  0.0208  0.3693
 9074SOL    HW138855   0.513   2.451   5.136 -0.8412  1.4373 -0.1838
 9074SOL    HW238856   0.536   2.500   5.279 -1.9255 -1.6543 -0.5611
 9075SOL     OW38857   2.801   3.020   1.437  0.0648  0.2284  0.5976
 9075SOL    HW138858   2.780   2.981   1.522 -0.9420  0.2039  0.3327
 9075SOL    HW238859   2.857   3.097   1.450 -1.4396  1.4110 -0.0118
 9076SOL     OW38860   0.482   2.095  14.585  1.0134  0.2217 -0.9621
 9076SOL    HW138861   0.420   2.156  14.626  1.7288  1.7764 -2.2127
 9076SOL    HW238862   0.456   2.111  14.495 -0.0036  1.7255 -0.3926
 9077SOL     OW38863   2.914   1.426   6.732  0.0493  0.0395  0.7722
 9077SOL    HW138864   2.847   1.478   6.688  0.4664 -1.4916 -1.6498
 9077SOL    HW238865   2.960   1.483   6.794 -0.2112 -1.7155  2.5833
 9078SOL     OW38866   1.673   4.566   5.757  0.2462 -0.3384  0.6255
 9078SOL    HW138867   1.731   4.501   5.798 -1.0489  0.2305  3.3496
 9078SOL    HW238868   1.643   4.523   5.678  0.1392  1.2148 -0.1842
 9079SOL     OW38869   0.863   4.670   8.549 -0.4965 -0.3237  0.4336
 9079SOL    HW138870   0.856   4.600   8.614  1.4223 -1.7515 -0.9044
 9079SOL    HW238871   0.788   4.647   8.494  0.0686 -1.1280 -0.0120
 9080SOL     OW38872   1.399   0.725  14.355  0.1550  0.3055 -0.2583
 9080SOL    HW138873   1.493   0.714  14.342  0.3241 -1.0669  2.1491
 9080SOL    HW238874   1.382   0.819  14.359  1.6507  0.5315  0.4051
 9081SOL     OW38875   2.194   2.856   2.816 -0.3153  0.0849  0.3671
 9081SOL    HW138876   2.115   2.801   2.826 -1.5283  1.9433  1.0318
 9081SOL    HW238877   2.249   2.828   2.889  0.8104 -0.4004 -0.6870
 9082SOL     OW38878   4.269   4.693   2.528 -0.2017  0.4264  0.3435
 9082SOL    HW138879   4.196   4.648   2.486  2.8712 -1.5843 -2.9136
 9082SOL    HW238880   4.299   0.025   2.465 -0.3714 -1.0768 -1.3157
 9083SOL     OW38881   4.176   3.322  16.628  0.0002  0.2316  0.6664
 9083SOL    HW138882   4.174   3.239  16.674 -1.2311  1.2088  2.3700
 9083SOL    HW238883   4.205   3.282  16.546 -0.8258  0.1059  0.4293
 9084SOL     OW38884   0.862   1.577  12.045 -0.2445  0.3809 -0.5212
 9084SOL    HW138885   0.811   1.576  12.125  1.0580  0.1271  0.2991
 9084SOL    HW238886   0.829   1.494  12.011  0.6427  0.0077 -0.4494
 9085SOL     OW38887   0.358   1.329   1.701 -0.2616  0.4386  0.2399
 9085SOL    HW138888   0.277   1.377   1.719  0.1309  1.6413 -1.2132
 9085SOL    HW238889   0.342   1.253   1.756 -1.0411  0.8653  0.6092
 9086SOL     OW38890   4.436   2.965   6.644  0.5212 -0.2634 -0.2922
 9086SOL    HW138891   4.368   2.898   6.640 -1.6632  1.8279  2.2638
 9086SOL    HW238892   4.400   3.026   6.708 -0.7565 -1.3717  0.0445
 9087SOL     OW38893   3.914   3.212  11.269  0.4077 -0.3119  0.1956
 9087SOL    HW138894   3.845   3.232  11.207  1.9873 -2.5060 -2.2653
 9087SOL    HW238895   3.963   3.152  11.212 -0.5787 -0.0773 -0.8726
 9088SOL     OW38896   3.723   2.946   1.678 -0.6483  1.0387  0.3786
 9088SOL    HW138897   3.649   2.934   1.618  1.0002  0.5429 -1.5624
 9088SOL    HW238898   3.718   3.038   1.704 -1.0510  0.8245  1.0686
 9089SOL     OW38899   0.231   2.953   9.527 -0.0861  0.9392  0.2032
 9089SOL    HW138900   0.230   2.908   9.611 -1.9045 -2.2639 -1.5326
 9089SOL    HW238901   0.153   2.923   9.480  0.7076  0.8074 -1.0542
 9090SOL     OW38902   3.223   3.195   4.953 -0.2445 -0.3346  0.0083
 9090SOL    HW138903   3.155   3.197   5.021  0.5055 -0.9332  0.7800
 9090SOL    HW238904   3.296   3.194   5.015  0.6796 -1.7296 -1.1183
 9091SOL     OW38905   4.326   2.571   5.236  0.2095 -0.0319  0.5844
 9091SOL    HW138906   4.306   2.663   5.221 -0.5216 -0.0889  1.2221
 9091SOL    HW238907   4.235   2.547   5.256  0.3604 -1.8039 -0.8376
 9092SOL     OW38908   4.164   4.313   7.471  0.3992  0.4187  0.4912
 9092SOL    HW138909   4.188   4.258   7.396  1.5666  0.2461  0.9916
 9092SOL    HW238910   4.113   4.261   7.534 -0.0317  2.4097  1.7907
 9093SOL     OW38911   2.433   3.807   2.547 -0.1085 -0.5061  0.1690
 9093SOL    HW138912   2.509   3.803   2.605  0.5418  0.2603 -0.6284
 9093SOL    HW238913   2.366   3.850   2.598 -2.3956 -4.2762  0.3492
 9094SOL     OW38914   3.736   1.883   5.976 -0.3629  0.1739  0.2238
 9094SOL    HW138915   3.787   1.962   5.960 -1.5654  1.0082  0.4568
 9094SOL    HW238916   3.720   1.861   5.884  0.3856 -3.0316  0.8781
 9095SOL     OW38917   3.146   3.015   3.902  0.2814 -0.4348  0.0130
 9095SOL    HW138918   3.051   3.004   3.894  0.2102  0.6803 -0.6538
 9095SOL    HW238919   3.156   3.103   3.937  0.0850  0.0995 -1.2793
 9096SOL     OW38920   3.647   1.110   3.293 -0.3731  0.0852 -0.2848
 9096SOL    HW138921   3.664   1.039   3.231  2.5064 -1.1268  1.8751
 9096SOL    HW238922   3.734   1.140   3.321  0.1606  0.6138 -2.4779
 9097SOL     OW38923   3.862   2.538   5.181  0.1284 -0.2412  0.6507
 9097SOL    HW138924   3.923   2.548   5.255 -1.3686 -0.6109  1.9154
 9097SOL    HW238925   3.784   2.588   5.202 -0.6555 -2.0708  2.0007
 9098SOL     OW38926   2.936   3.448   8.477 -0.6818  0.1001  0.3928
 9098SOL    HW138927   2.982   3.394   8.541  1.0242 -0.5128 -1.3422
 9098SOL    HW238928   2.900   3.517   8.531 -0.0091  0.2654  0.6238
 9099SOL     OW38929   0.805   0.260  12.975 -0.1851  0.2455 -0.1028
 9099SOL    HW138930   0.830   0.325  13.041 -3.8939 -1.2098  2.7446
 9099SOL    HW238931   0.765   0.203  13.041  0.4208  0.2399  0.2609
 9100SOL     OW38932   0.503   1.916  13.958 -0.3012 -0.4203 -0.2241
 9100SOL    HW138933   0.463   1.853  13.899 -2.9615  0.2382  0.8488
 9100SOL    HW238934   0.592   1.882  13.960 -0.6633 -1.4311 -1.2172
 9101SOL     OW38935   3.774   3.984   7.352  0.1325  0.0335 -0.0011
 9101SOL    HW138936   3.687   4.022   7.339  0.3275  0.2251 -0.7234
 9101SOL    HW238937   3.793   4.034   7.432  1.6310  0.6043 -0.7088
 9102SOL     OW38938   0.097   4.433   2.095 -0.0745  0.7620  0.1588
 9102SOL    HW138939   0.145   4.351   2.111  0.1763  0.7279 -0.7647
 9102SOL    HW238940   0.164   4.494   2.063  1.5749  0.4542  2.9835
 9103SOL     OW38941   2.854   2.247   4.520 -0.0715 -0.4890 -0.1583
 9103SOL    HW138942   2.760   2.253   4.542  0.0360 -0.1332  0.2069
 9103SOL    HW238943   2.852   2.202   4.436  1.9867 -1.3015  0.2454
 9104SOL     OW38944   1.992   2.708   2.812  0.6110  0.4651 -0.5241
 9104SOL    HW138945   2.023   2.648   2.744  1.6965 -1.4731  1.7003
 9104SOL    HW238946   1.906   2.670   2.829  1.2526 -1.7133 -2.1766
 9105SOL     OW38947   0.102   3.373   6.788 -0.2334  0.2953 -0.2883
 9105SOL    HW138948   0.136   3.348   6.873  1.4320  1.8815 -0.4889
 9105SOL    HW238949   0.158   3.444   6.754 -0.6021  1.4397  1.5228
 9106SOL     OW38950   2.191   3.375  13.550  0.0806 -0.1289 -0.9140
 9106SOL    HW138951   2.108   3.392  13.506 -1.0841  1.4426  1.8848
 9106SOL    HW238952   2.226   3.315  13.484  2.4963 -1.0270  1.1779
 9107SOL     OW38953   3.569   4.394  17.286 -0.1257 -0.2919 -0.2830
 9107SOL    HW138954   3.618   4.443  17.220  1.9431  1.4892  2.5622
 9107SOL    HW238955   3.483   4.435  17.289 -0.3098 -0.6553 -0.5763
 9108SOL     OW38956   4.129   0.001   2.058 -0.3077 -0.3049 -0.6168
 9108SOL    HW138957   4.195   0.069   2.072 -1.2970  0.6414 -0.5040
 9108SOL    HW238958   4.147   4.713   1.967 -1.8593  1.3094 -1.3108
 9109SOL     OW38959   0.575   1.826   9.981  0.2625  0.0350 -0.3373
 9109SOL    HW138960   0.542   1.748   9.936 -1.2493 -0.3001  1.3572
 9109SOL    HW238961   0.504   1.832  10.044  1.5592  1.6116  0.9673
 9110SOL     OW38962   2.224   3.426   4.953  0.0225  0.3088  0.1757
 9110SOL    HW138963   2.176   3.348   4.979  0.3399 -0.0297 -0.2444
 9110SOL    HW238964   2.223   3.479   5.032  2.6715 -1.1572  1.1800
 9111SOL     OW38965   2.101   3.695   6.579 -0.3118 -0.1208 -0.4972
 9111SOL    HW138966   2.168   3.699   6.648  0.0759  2.0614 -0.9917
 9111SOL    HW238967   2.030   3.700   6.643  1.4197  0.2050  1.3947
 9112SOL     OW38968   2.882   1.890  17.032  0.2969  0.1161  0.5166
 9112SOL    HW138969   2.933   1.965  17.003  2.4316 -2.5454 -2.5702
 9112SOL    HW238970   2.876   1.830  16.957  0.8599  0.8478 -0.1113
 9113SOL     OW38971   4.348   0.313  12.259  0.6062  0.1409  0.4142
 9113SOL    HW138972   4.254   0.312  12.276 -0.0833  1.6277 -3.4108
 9113SOL    HW238973   4.383   0.261  12.332  0.8438  0.5881  0.6143
 9114SOL     OW38974   0.990   1.775  16.448 -0.0582 -0.5204 -0.3306
 9114SOL    HW138975   0.936   1.701  16.475  0.8087 -1.1806 -0.4078
 9114SOL    HW238976   0.926   1.845  16.441  0.2926 -0.3534 -1.8160
 9115SOL     OW38977   1.853   3.696   7.137 -0.2025 -0.2407 -0.1993
 9115SOL    HW138978   1.792   3.769   7.153 -1.5061 -1.2311 -0.5976
 9115SOL    HW238979   1.876   3.678   7.228  1.4432  0.3454 -0.4994
 9116SOL     OW38980   2.461   4.307   4.122  0.3746  0.2995 -0.0049
 9116SOL    HW138981   2.556   4.295   4.114  0.2857  0.7879 -1.7363
 9116SOL    HW238982   2.435   4.305   4.030 -0.3794 -1.5256  0.2419
 9117SOL     OW38983   2.782   1.346   7.203  0.0809  0.3594  0.0507
 9117SOL    HW138984   2.874   1.326   7.219 -0.3779  0.5375  2.8142
 9117SOL    HW238985   2.756   1.257   7.179  0.7333  0.4771 -1.1125
 9118SOL     OW38986   1.059   3.175   4.607  0.4667  0.1113  0.6104
 9118SOL    HW138987   1.057   3.160   4.513  0.5850  0.7213  0.5054
 9118SOL    HW238988   1.152   3.173   4.628  0.3106  2.2715  1.5255
 9119SOL     OW38989   3.457   2.292   3.128  0.7473 -0.0070 -0.0973
 9119SOL    HW138990   3.409   2.358   3.078 -0.8197 -1.1069 -0.0243
 9119SOL    HW238991   3.466   2.224   3.062 -0.6868 -1.1288  0.8515
 9120SOL     OW38992   3.934   3.394   6.881 -0.1629 -0.0176  0.5945
 9120SOL    HW138993   3.968   3.337   6.950  0.5325 -0.3995 -0.0655
 9120SOL    HW238994   3.879   3.325   6.844 -1.5688  1.1115  0.5696
 9121SOL     OW38995   1.605   2.597  17.185  0.1697 -0.1787  0.2176
 9121SOL    HW138996   1.594   2.514  17.232  0.9678 -0.3761  0.0566
 9121SOL    HW238997   1.615   2.572  17.093  0.1959  1.9825 -0.3636
 9122SOL     OW38998   4.618   1.893  11.271  0.2069  0.6702 -0.2642
 9122SOL    HW138999   4.531   1.855  11.284  0.4209 -0.7442 -2.9240
 9122SOL    HW239000   4.683   1.844  11.322 -0.2397  0.5845  0.2187
 9123SOL     OW39001   0.200   0.030  13.572  0.1017 -0.6638 -0.2958
 9123SOL    HW139002   0.262   0.096  13.603  0.0764 -0.1883 -1.2608
 9123SOL    HW239003   0.182   4.717  13.654 -0.4162 -1.7084 -1.0103
 9124SOL     OW39004   1.585   0.498  15.137  0.0513 -0.2881  0.4542
 9124SOL    HW139005   1.634   0.437  15.191 -1.3339 -0.1903  1.8092
 9124SOL    HW239006   1.503   0.449  15.140 -0.4460  0.6001  1.2405
 9125SOL     OW39007   2.358   2.950   6.216 -0.4879  0.1867 -0.7880
 9125SOL    HW139008   2.360   2.878   6.152 -0.0012 -0.1703 -0.3671
 9125SOL    HW239009   2.328   2.894   6.287 -0.6624 -0.1867 -1.1540
 9126SOL     OW39010   1.897   1.349   3.316 -0.1919 -0.0292  0.0922
 9126SOL    HW139011   1.874   1.312   3.401  0.7931 -0.6511  0.0873
 9126SOL    HW239012   1.865   1.290   3.247 -0.4667  0.2545 -0.0219
 9127SOL     OW39013   2.989   3.902   8.797  0.5936 -0.1366  0.1606
 9127SOL    HW139014   2.960   3.969   8.735  2.7435  0.2236 -0.4573
 9127SOL    HW239015   2.941   3.931   8.875  1.1973 -0.0864  0.5169
 9128SOL     OW39016   0.575   1.899   2.558  0.4766  0.1761 -0.1669
 9128SOL    HW139017   0.494   1.940   2.589  0.6985  1.9254 -1.8256
 9128SOL    HW239018   0.622   1.890   2.640 -0.0475 -1.9878 -0.1231
 9129SOL     OW39019   3.612   0.830   6.700 -0.2865  0.1917  0.2150
 9129SOL    HW139020   3.568   0.750   6.671  0.4804 -0.5605  1.1488
 9129SOL    HW239021   3.612   0.877   6.616 -1.0788  0.2515  0.2429
 9130SOL     OW39022   2.824   3.423   2.200 -0.0166  0.2377  0.6486
 9130SOL    HW139023   2.805   3.392   2.111  1.3806 -0.0610  0.4577
 9130SOL    HW239024   2.906   3.379   2.220 -0.0176  0.5114  1.2563
 9131SOL     OW39025   0.013   3.500   3.310  0.2196 -0.1284  0.0052
 9131SOL    HW139026   4.681   3.558   3.272  0.1324 -0.9295 -1.0873
 9131SOL    HW239027   4.686   3.463   3.373 -3.0408  1.0624 -2.4826
 9132SOL     OW39028   3.733   0.882   8.160  0.1864 -0.1853 -0.2495
 9132SOL    HW139029   3.674   0.826   8.111  2.3552 -2.1571 -0.6382
 9132SOL    HW239030   3.812   0.828   8.149 -0.0002  0.0362 -2.6524
 9133SOL     OW39031   2.971   1.163   6.722 -0.4828  0.5084  0.1999
 9133SOL    HW139032   3.055   1.167   6.676 -1.1967  2.3598 -0.9479
 9133SOL    HW239033   2.959   1.254   6.748 -2.4277  0.5961 -0.9984
 9134SOL     OW39034   4.369   1.612   8.984 -0.4347  0.2952 -0.2257
 9134SOL    HW139035   4.286   1.660   8.986 -0.8616 -0.4775  0.4916
 9134SOL    HW239036   4.418   1.680   8.938 -1.8535  1.5459  0.1163
 9135SOL     OW39037   1.485   3.813   4.284  0.0062 -0.2709 -0.0366
 9135SOL    HW139038   1.533   3.732   4.263  0.7193  0.2040 -0.2342
 9135SOL    HW239039   1.435   3.836   4.206  0.6717 -0.0878 -0.4065
 9136SOL     OW39040   1.825   2.814   3.342  0.1602 -0.4518  0.1603
 9136SOL    HW139041   1.784   2.754   3.405  0.2413 -1.3555 -0.6479
 9136SOL    HW239042   1.759   2.876   3.310 -0.6036 -0.8012  1.0404
 9137SOL     OW39043   0.465   1.953  17.681  0.0921 -0.2023  0.3555
 9137SOL    HW139044   0.377   1.957  17.717  1.2501 -2.0318  3.3055
 9137SOL    HW239045   0.510   1.912   0.019  0.7764  0.5837  0.3784
 9138SOL     OW39046   0.957   0.484   6.164  0.1101 -0.0142 -0.0323
 9138SOL    HW139047   1.048   0.513   6.170  0.2442 -0.3149 -0.6990
 9138SOL    HW239048   0.935   0.445   6.249 -0.9087 -3.3967 -1.8428
 9139SOL     OW39049   4.354   0.988   1.524  0.1084  0.3712  0.0334
 9139SOL    HW139050   4.355   0.916   1.461 -1.4236 -0.0543  0.4820
 9139SOL    HW239051   4.357   0.934   1.603 -0.0090 -0.0214 -0.2243
 9140SOL     OW39052   4.582   4.340  12.530  0.1018 -0.2031  0.1237
 9140SOL    HW139053   4.593   4.246  12.514  1.4225 -0.1210  0.5152
 9140SOL    HW239054   4.624   4.388  12.458 -0.9844 -0.3317 -0.5844
 9141SOL     OW39055   2.512   2.641   1.332  0.7004  0.4781  0.8235
 9141SOL    HW139056   2.589   2.594   1.364 -1.1709 -1.2797  2.8241
 9141SOL    HW239057   2.461   2.571   1.290  1.8601  0.4128 -0.4482
 9142SOL     OW39058   3.045   3.686   6.087 -0.4648  0.4981  0.0726
 9142SOL    HW139059   3.026   3.687   5.993 -0.7614  1.1357  0.1417
 9142SOL    HW239060   2.964   3.672   6.137 -0.1477  1.0836  0.7452
 9143SOL     OW39061   1.066   2.712   3.508  0.1275  0.0861 -0.2807
 9143SOL    HW139062   1.096   2.705   3.418  0.3304  1.1383 -0.3038
 9143SOL    HW239063   1.019   2.796   3.500  0.6485  0.4089  0.0330
 9144SOL     OW39064   0.221   2.143   5.662 -0.1117 -0.1235  0.6703
 9144SOL    HW139065   0.280   2.214   5.637  1.5611 -1.7571 -0.0589
 9144SOL    HW239066   0.245   2.124   5.753 -0.2721 -0.2551  0.6854
 9145SOL     OW39067   2.440   3.813  11.098 -0.4371  0.1312  0.0149
 9145SOL    HW139068   2.454   3.866  11.177  0.1909  0.7407 -0.5095
 9145SOL    HW239069   2.438   3.876  11.027  1.1659 -0.6171 -0.7112
 9146SOL     OW39070   0.687   0.503   3.014 -0.5272  0.8272 -0.1348
 9146SOL    HW139071   0.644   0.421   2.988 -0.2463  0.4887  0.4577
 9146SOL    HW239072   0.772   0.485   2.973  0.6454  0.6880  2.2899
 9147SOL     OW39073   1.337   4.622   6.186  0.1891  0.6095 -0.0141
 9147SOL    HW139074   1.400   4.618   6.115  1.0319  2.6845  0.6298
 9147SOL    HW239075   1.321   4.528   6.185  0.6835  0.5129  1.6725
 9148SOL     OW39076   3.455   1.997   6.512 -0.5282 -0.2496 -0.3623
 9148SOL    HW139077   3.372   1.949   6.515 -1.4100  1.2877 -0.2317
 9148SOL    HW239078   3.517   1.931   6.543 -1.8734 -0.9999  0.7593
 9149SOL     OW39079   1.072   2.699   4.223  0.1463  0.1527 -0.0411
 9149SOL    HW139080   0.990   2.749   4.230  0.1641  0.2054 -0.1971
 9149SOL    HW239081   1.091   2.696   4.129 -2.4085  0.6492 -0.5919
 9150SOL     OW39082   0.364   3.239   8.957 -0.5596  0.4795 -0.3870
 9150SOL    HW139083   0.416   3.209   9.032 -2.1775  1.9011  1.3042
 9150SOL    HW239084   0.433   3.259   8.893  0.4300  2.1793  1.2245
 9151SOL     OW39085   0.708   4.023   2.734  0.3636  0.1758  0.4558
 9151SOL    HW139086   0.684   4.101   2.683  0.0468  0.7728  1.5049
 9151SOL    HW239087   0.759   4.068   2.802 -0.2245  0.5963  0.6147
 9152SOL     OW39088   0.040   2.957  17.219  0.2498  0.1086  0.2250
 9152SOL    HW139089   4.680   2.946  17.232  0.3099  0.0449  0.6071
 9152SOL    HW239090   0.048   3.025  17.286  0.6276  0.1087  0.1777
 9153SOL     OW39091   0.542   2.422   6.289 -0.4753  0.8178  0.6715
 9153SOL    HW139092   0.533   2.516   6.306 -1.7922  1.3134 -2.7725
 9153SOL    HW239093   0.590   2.429   6.207 -0.8209  1.6216  0.5348
 9154SOL     OW39094   2.622   0.226   0.272 -0.3562  0.4551  0.4638
 9154SOL    HW139095   2.621   0.191   0.361 -1.4349  0.1080  0.3193
 9154SOL    HW239096   2.711   0.200   0.247 -0.0065  0.9330  1.2112
 9155SOL     OW39097   3.471   1.268   9.464  0.2559  0.5301  0.5875
 9155SOL    HW139098   3.523   1.188   9.458  1.8060  1.5624  0.0520
 9155SOL    HW239099   3.391   1.220   9.481  0.0062  0.7827  0.1296
 9156SOL     OW39100   0.737   2.970  10.779  0.4908  0.2506  0.0143
 9156SOL    HW139101   0.686   2.890  10.790  0.0495  0.2071 -2.2232
 9156SOL    HW239102   0.688   3.051  10.798  1.1339 -0.3122  3.9511
 9157SOL     OW39103   0.146   2.296   1.623 -0.9720 -0.6318 -0.1470
 9157SOL    HW139104   0.060   2.261   1.646 -0.9591 -0.0583  0.7842
 9157SOL    HW239105   0.174   2.222   1.569  0.8147  1.1810 -1.7366
 9158SOL     OW39106   2.238   1.264   4.477  0.3734  0.4417 -0.0527
 9158SOL    HW139107   2.204   1.204   4.544 -1.2183 -0.7262 -1.8965
 9158SOL    HW239108   2.320   1.217   4.465  1.9131  3.2461 -0.2237
 9159SOL     OW39109   4.624   1.970   6.273 -0.0529  0.0299 -0.2369
 9159SOL    HW139110   4.574   1.892   6.252  1.5111 -0.6940 -1.3114
 9159SOL    HW239111   4.561   2.022   6.322  1.0752  0.7231  0.4985
 9160SOL     OW39112   3.533   1.458   5.376 -0.3717  0.5580  0.1262
 9160SOL    HW139113   3.511   1.482   5.287  1.7358  1.2019 -0.2073
 9160SOL    HW239114   3.490   1.372   5.376 -0.2522  0.5026 -1.4351
 9161SOL     OW39115   3.886   2.915   6.128 -0.2443  0.2894  0.4620
 9161SOL    HW139116   3.840   2.959   6.200 -0.1734 -0.2769  0.8582
 9161SOL    HW239117   3.909   2.835   6.176  3.4374  0.6950 -0.5967
 9162SOL     OW39118   3.539   2.189   5.940 -0.2525  0.4046 -0.2888
 9162SOL    HW139119   3.447   2.163   5.945 -0.0260 -0.4753 -0.7121
 9162SOL    HW239120   3.539   2.254   5.870 -1.2703 -0.6315 -1.2532
 9163SOL     OW39121   2.950   2.251   8.300 -0.5338 -0.3531  0.0298
 9163SOL    HW139122   3.018   2.193   8.264  0.4155  0.7707 -0.0045
 9163SOL    HW239123   2.899   2.257   8.219 -0.0520 -0.7724 -0.3085
 9164SOL     OW39124   4.219   4.646  14.108  0.7536 -0.7412  0.0950
 9164SOL    HW139125   4.222   4.725  14.054 -0.0650  0.6975  2.1530
 9164SOL    HW239126   4.265   4.687  14.182 -1.7529 -1.0180  1.7901
 9165SOL     OW39127   0.660   1.994   7.092  0.2207  0.1538  0.1861
 9165SOL    HW139128   0.634   2.005   7.000 -0.2251 -0.6172  0.2210
 9165SOL    HW239129   0.585   1.940   7.118  0.5687 -0.6435 -0.4622
 9166SOL     OW39130   0.501   2.387   3.190 -0.1089  0.1261  0.4107
 9166SOL    HW139131   0.476   2.297   3.208 -3.7480  0.7976 -1.1963
 9166SOL    HW239132   0.563   2.380   3.118  0.4660  0.2746  0.8872
 9167SOL     OW39133   4.161   2.300   1.809  0.1895 -0.2479 -0.0358
 9167SOL    HW139134   4.076   2.330   1.778 -0.1041 -1.6158 -0.5425
 9167SOL    HW239135   4.147   2.320   1.901  1.7423  1.2892 -0.1249
 9168SOL     OW39136   3.325   3.238   2.499 -0.2320 -0.4512 -0.6186
 9168SOL    HW139137   3.231   3.230   2.486 -0.5352  0.6648  0.8152
 9168SOL    HW239138   3.335   3.300   2.572  0.3807 -2.4778  1.0202
 9169SOL     OW39139   2.243   4.641   3.110 -0.3483  0.2252  0.7145
 9169SOL    HW139140   2.227   4.553   3.076 -0.8030 -0.2720  2.2426
 9169SOL    HW239141   2.296   4.678   3.039 -2.3644  1.3541 -0.2381
 9170SOL     OW39142   3.605   0.168   4.711  0.7208  0.1758  0.3603
 9170SOL    HW139143   3.663   0.146   4.784  2.8702 -0.8998 -1.6975
 9170SOL    HW239144   3.530   0.114   4.738  1.1990 -1.4321 -1.5730
 9171SOL     OW39145   0.685   1.937  14.886 -0.5685  0.5401 -0.0033
 9171SOL    HW139146   0.661   1.883  14.811  0.1728  1.2602 -0.7507
 9171SOL    HW239147   0.679   2.020  14.839 -0.2308  0.6699  0.1794
 9172SOL     OW39148   3.551   0.255   5.694  0.2132 -0.6077  0.4375
 9172SOL    HW139149   3.487   0.320   5.666  1.1420 -0.6344 -1.7597
 9172SOL    HW239150   3.519   0.210   5.772  1.6558  0.4093  1.6381
 9173SOL     OW39151   2.638   0.134   5.883  0.3712  0.1526  0.2010
 9173SOL    HW139152   2.579   0.092   5.822  2.2325  0.2048 -1.6252
 9173SOL    HW239153   2.579   0.169   5.950 -0.3775  0.6451 -0.7362
 9174SOL     OW39154   2.125   0.730  11.016  0.1722 -0.4445 -0.3751
 9174SOL    HW139155   2.205   0.748  11.066 -1.7147  1.5073  1.9421
 9174SOL    HW239156   2.065   0.698  11.083 -0.0310  2.0606  0.6569
 9175SOL     OW39157   2.131   2.348   2.238  0.0709  0.2819  0.3208
 9175SOL    HW139158   2.169   2.427   2.199 -2.7181  0.8115 -1.3465
 9175SOL    HW239159   2.067   2.381   2.301 -0.9316  2.0514 -1.6099
 9176SOL     OW39160   4.149   4.359   2.064 -0.1061 -0.5602 -0.0615
 9176SOL    HW139161   4.114   4.319   2.143  1.9022  0.8550  1.5578
 9176SOL    HW239162   4.228   4.405   2.095 -1.4791  2.4968 -1.1659
 9177SOL     OW39163   2.665   0.652  13.434 -0.6465 -0.0719  0.6845
 9177SOL    HW139164   2.728   0.704  13.384 -0.1316  0.0279  1.4391
 9177SOL    HW239165   2.693   0.569  13.394  1.3970  0.4643  0.9819
 9178SOL     OW39166   3.841   4.541   2.519  0.0962  0.6702 -0.4856
 9178SOL    HW139167   3.829   4.635   2.514 -0.7280  0.5991  0.2271
 9178SOL    HW239168   3.750   4.512   2.519  0.5652 -0.8549  2.2391
 9179SOL     OW39169   3.322   3.345   5.258 -0.5510  0.2905  0.0674
 9179SOL    HW139170   3.402   3.372   5.303 -0.2041 -0.6607  0.0168
 9179SOL    HW239171   3.290   3.286   5.327  0.1878  0.8186  0.8557
 9180SOL     OW39172   0.973   0.612   0.737  0.7892 -0.4706 -0.4146
 9180SOL    HW139173   0.904   0.569   0.686  0.6996 -1.8498  0.8956
 9180SOL    HW239174   0.923   0.665   0.799  0.3810 -3.3376  1.6889
 9181SOL     OW39175   4.443   0.832  11.047 -0.2967 -0.2708 -0.0837
 9181SOL    HW139176   4.514   0.860  10.990  1.0745 -0.1983  1.6677
 9181SOL    HW239177   4.433   0.905  11.109  1.7992  0.2694 -0.3859
 9182SOL     OW39178   2.626   2.425   4.902 -0.2443 -0.1671 -1.1179
 9182SOL    HW139179   2.609   2.359   4.835  1.0606 -3.0763  1.4508
 9182SOL    HW239180   2.699   2.468   4.858 -0.0134  1.0394  0.4536
 9183SOL     OW39181   2.240   4.313   5.887  0.3254  0.0910 -0.1516
 9183SOL    HW139182   2.333   4.300   5.905  0.1159  3.0266  2.9733
 9183SOL    HW239183   2.229   4.226   5.847  2.5128 -1.0417  1.7338
 9184SOL     OW39184   0.630   1.068  14.844 -0.1959  0.5872 -0.0904
 9184SOL    HW139185   0.721   1.066  14.873 -0.2241  3.0343  0.1845
 9184SOL    HW239186   0.638   0.999  14.778  1.0516 -1.5667  2.3135
 9185SOL     OW39187   2.325   2.265  10.042  0.1066  0.2967  0.5509
 9185SOL    HW139188   2.314   2.281  10.136  0.9214  0.5065  0.6042
 9185SOL    HW239189   2.406   2.214  10.048 -0.1271  0.0432  1.5756
 9186SOL     OW39190   4.001   0.600   2.831  0.1215  0.2910  0.6995
 9186SOL    HW139191   3.988   0.680   2.882  0.6583 -0.5367  2.1550
 9186SOL    HW239192   4.076   0.565   2.881 -0.2516 -1.3578  0.0900
 9187SOL     OW39193   1.346   1.203   3.500  0.2260 -0.0862  0.0020
 9187SOL    HW139194   1.307   1.244   3.423 -0.5554 -1.9586 -0.5874
 9187SOL    HW239195   1.367   1.282   3.549 -0.1206 -1.9898  3.2045
 9188SOL     OW39196   3.621   3.160   8.555 -0.2032 -0.0394 -0.2111
 9188SOL    HW139197   3.715   3.172   8.573  0.4600 -4.4118 -0.8340
 9188SOL    HW239198   3.584   3.197   8.635 -0.0522  1.5331 -0.8542
 9189SOL     OW39199   3.611   1.040   9.449 -0.0188 -0.7309  0.5818
 9189SOL    HW139200   3.670   1.071   9.518  0.7733 -3.1955  1.0242
 9189SOL    HW239201   3.627   0.946   9.457 -0.0741 -0.9737 -2.2283
 9190SOL     OW39202   3.236   4.632   0.932 -0.3123 -0.3575 -0.0476
 9190SOL    HW139203   3.275   4.589   1.009  0.6730  1.8476  0.6750
 9190SOL    HW239204   3.308   4.690   0.907 -2.2837  2.8351  1.6668
 9191SOL     OW39205   1.197   1.614   1.639  0.6253  0.2137  0.1274
 9191SOL    HW139206   1.186   1.658   1.555 -3.2949 -0.8139  0.1239
 9191SOL    HW239207   1.129   1.655   1.693 -0.1253 -0.1596 -0.5360
 9192SOL     OW39208   4.546   1.787   0.266 -0.1166 -0.1318 -0.5241
 9192SOL    HW139209   4.488   1.731   0.214 -0.2053  1.4705 -2.1601
 9192SOL    HW239210   4.583   1.733   0.335  0.8088 -0.8064 -1.5387
 9193SOL     OW39211   3.239   0.569   8.986 -0.5838 -0.1249  0.9301
 9193SOL    HW139212   3.254   0.650   8.938 -1.2123 -0.6487 -0.1627
 9193SOL    HW239213   3.179   0.531   8.922 -1.1769  1.7856  0.3528
 9194SOL     OW39214   3.596   4.047   7.898 -0.5511 -0.2648  0.2292
 9194SOL    HW139215   3.573   3.955   7.883 -0.4623 -0.4187  1.0334
 9194SOL    HW239216   3.692   4.051   7.900 -0.5807  0.6184 -0.1983
 9195SOL     OW39217   4.013   3.003   3.217  0.3624 -0.9247  0.1320
 9195SOL    HW139218   3.977   2.977   3.133  0.0173  1.2467 -0.3875
 9195SOL    HW239219   4.080   2.938   3.239  2.2053  1.1570  0.6730
 9196SOL     OW39220   2.610   3.000   6.271 -0.1486 -0.1485 -0.3827
 9196SOL    HW139221   2.624   2.919   6.321  0.3450 -0.0073 -0.2893
 9196SOL    HW239222   2.515   2.996   6.259 -0.3159 -0.6500  1.0808
 9197SOL     OW39223   3.819   0.837   0.214 -0.4360  0.1780  0.4977
 9197SOL    HW139224   3.827   0.896   0.139  2.1531 -0.1240  0.5490
 9197SOL    HW239225   3.883   0.864   0.280 -0.1751  0.1874  0.2386
 9198SOL     OW39226   3.293   1.599  15.572 -0.3619  0.1107  0.8052
 9198SOL    HW139227   3.335   1.669  15.622  0.0328 -0.9230  1.9247
 9198SOL    HW239228   3.299   1.642  15.487 -0.9272 -2.4526 -0.5253
 9199SOL     OW39229   1.021   3.166   5.058  0.6133  0.0790  0.4582
 9199SOL    HW139230   1.013   3.260   5.077  0.7099  0.3443 -0.8467
 9199SOL    HW239231   0.953   3.151   4.993  0.9126  0.9804 -0.0662
 9200SOL     OW39232   3.841   3.702  15.922  0.0478 -0.5809  0.2715
 9200SOL    HW139233   3.856   3.795  15.938 -1.9288 -0.2103 -0.1104
 9200SOL    HW239234   3.934   3.684  15.907 -0.0292 -0.3675 -0.4646
 9201SOL     OW39235   2.345   1.895   3.262  0.0111 -0.2908 -0.1204
 9201SOL    HW139236   2.250   1.887   3.254  0.0512  0.2104 -1.0778
 9201SOL    HW239237   2.369   1.955   3.192 -1.1323 -0.7614 -0.9104
 9202SOL     OW39238   0.997   0.134   4.636  0.4609  0.4026  0.2153
 9202SOL    HW139239   1.039   0.062   4.683  0.9619  1.0808  0.8091
 9202SOL    HW239240   0.998   0.207   4.698  1.5436  0.3185  0.3006
 9203SOL     OW39241   3.896   0.330   3.741  0.0022  0.6432  0.2242
 9203SOL    HW139242   3.976   0.334   3.792  1.9129 -1.5113 -2.5839
 9203SOL    HW239243   3.920   0.249   3.696 -0.4773 -1.6435  4.1634
 9204SOL     OW39244   4.164   0.035  10.759 -0.3767 -0.0794 -0.0133
 9204SOL    HW139245   4.097   0.098  10.732 -1.0778 -0.7141  0.2405
 9204SOL    HW239246   4.152   4.699  10.695 -0.6752  0.6367 -0.7472
 9205SOL     OW39247   1.402   4.154  14.401  0.4894  0.4378  0.1160
 9205SOL    HW139248   1.494   4.161  14.426  0.5504 -0.5525  0.1739
 9205SOL    HW239249   1.367   4.167  14.490  0.7825 -0.2433  0.3324
 9206SOL     OW39250   1.708   1.201   9.033  0.2820  0.2463  0.4618
 9206SOL    HW139251   1.654   1.133   8.993  1.2911  0.3059 -0.9902
 9206SOL    HW239252   1.662   1.221   9.115  1.2201  1.4500  0.6873
 9207SOL     OW39253   2.002   0.743   4.700  0.6580 -0.4981  0.8413
 9207SOL    HW139254   1.977   0.805   4.632 -2.8955 -2.4598  0.3534
 9207SOL    HW239255   2.001   0.802   4.775 -0.5532  0.8888 -0.2637
 9208SOL     OW39256   3.266   3.280   2.039 -0.0664  0.7228  0.5524
 9208SOL    HW139257   3.256   3.201   1.987  2.4493  0.7836 -0.0258
 9208SOL    HW239258   3.345   3.261   2.089  0.8084 -1.0863 -1.5452
 9209SOL     OW39259   2.178   3.959  17.678 -0.3026  0.3576  0.3887
 9209SOL    HW139260   2.211   3.870  17.689 -2.1804 -0.4183 -0.1220
 9209SOL    HW239261   2.227   4.003   0.012  1.9526  1.0200 -1.6409
 9210SOL     OW39262   0.703   2.345  10.133  0.0598 -0.0318  0.1216
 9210SOL    HW139263   0.718   2.355  10.039  0.0148 -2.6108 -0.1597
 9210SOL    HW239264   0.661   2.259  10.136  0.2112 -0.0985  0.3777
 9211SOL     OW39265   1.584   1.577  17.544 -0.2843 -0.4004  0.1181
 9211SOL    HW139266   1.651   1.539  17.487 -0.5253 -0.1536 -0.3268
 9211SOL    HW239267   1.614   1.663  17.573  0.6807 -0.7242  0.0949
 9212SOL     OW39268   1.948   4.422   9.082 -0.0258 -0.1710  0.1475
 9212SOL    HW139269   2.021   4.416   9.144 -0.4564 -0.0218  0.6631
 9212SOL    HW239270   1.980   4.440   8.993 -0.3286 -0.0422  0.0647
 9213SOL     OW39271   4.311   2.177  14.390 -0.4681 -0.1963  0.1768
 9213SOL    HW139272   4.233   2.191  14.336  0.3078  3.5410  0.0237
 9213SOL    HW239273   4.295   2.118  14.463  1.1875 -0.1499  0.5639
 9214SOL     OW39274   3.330   4.553   5.775  0.4499 -0.0349  0.0890
 9214SOL    HW139275   3.240   4.570   5.804  0.5052  2.1614 -1.0498
 9214SOL    HW239276   3.308   4.538   5.683  1.3067  0.0976 -0.1375
 9215SOL     OW39277   3.446   3.939   4.562  0.2189 -0.1059 -0.3250
 9215SOL    HW139278   3.412   3.990   4.488  0.4476 -1.8726 -1.6365
 9215SOL    HW239279   3.465   4.012   4.621  1.1810  0.8287 -1.8001
 9216SOL     OW39280   2.474   0.878   6.767  0.1477  0.3475  0.0757
 9216SOL    HW139281   2.437   0.829   6.693 -0.0649  2.2837 -1.0822
 9216SOL    HW239282   2.560   0.906   6.736 -0.3689  1.5479 -0.2499
 9217SOL     OW39283   4.319   1.129   3.011 -0.8144  0.0180 -0.3105
 9217SOL    HW139284   4.414   1.121   3.024 -1.1910 -1.0936  1.7376
 9217SOL    HW239285   4.286   1.068   3.077  1.1014 -0.5189  0.1511
 9218SOL     OW39286   4.543   2.569   3.874  0.6042  0.3197  0.4946
 9218SOL    HW139287   4.484   2.593   3.802  0.6406  0.8613  0.6416
 9218SOL    HW239288   4.624   2.547   3.828 -0.5922 -3.9849  0.4578
 9219SOL     OW39289   3.745   3.591   7.480 -0.1124  0.1191  0.0611
 9219SOL    HW139290   3.696   3.530   7.534 -0.6039  1.2381  0.8658
 9219SOL    HW239291   3.770   3.649   7.552 -0.1074 -1.1329  1.0813
 9220SOL     OW39292   3.384   1.945   0.214 -0.4459  0.2682 -0.3583
 9220SOL    HW139293   3.315   1.878   0.217  0.3873 -0.6292 -1.4636
 9220SOL    HW239294   3.391   1.975   0.123  0.8503 -1.5034 -0.8245
 9221SOL     OW39295   2.975   3.682  13.926 -0.0997 -0.3247 -0.4207
 9221SOL    HW139296   2.991   3.770  13.892 -0.6583  0.8129  2.2631
 9221SOL    HW239297   2.887   3.681  13.963  0.6864 -0.0867  1.4188
 9222SOL     OW39298   3.583   3.782   7.813  0.4150 -0.1048 -0.3404
 9222SOL    HW139299   3.677   3.766   7.816  0.4506  0.2275  0.2752
 9222SOL    HW239300   3.552   3.694   7.794  0.0319  0.0705 -0.5382
 9223SOL     OW39301   0.853   2.363   3.751 -0.3516 -0.9488  0.3399
 9223SOL    HW139302   0.861   2.281   3.701  1.4814 -1.1009  0.8649
 9223SOL    HW239303   0.919   2.413   3.703  2.3744 -1.9655  3.0207
 9224SOL     OW39304   2.112   0.532   7.939 -0.3466 -0.1260 -0.1579
 9224SOL    HW139305   2.043   0.473   7.909 -0.1622  0.6120 -2.0633
 9224SOL    HW239306   2.190   0.487   7.907 -0.1527  1.0644 -1.3759
 9225SOL     OW39307   1.265   0.371  12.803 -0.2946  0.1832 -0.1656
 9225SOL    HW139308   1.268   0.299  12.866  0.7594 -0.1417 -0.5841
 9225SOL    HW239309   1.357   0.363  12.775 -0.6889  1.1021 -1.7284
 9226SOL     OW39310   3.756   3.756   1.904 -0.2806 -0.8992  0.6654
 9226SOL    HW139311   3.838   3.716   1.874 -0.7972 -2.3767  1.2120
 9226SOL    HW239312   3.811   3.822   1.948  3.0337 -3.0060 -0.2975
 9227SOL     OW39313   4.303   0.532   2.675 -0.8787  0.4180  0.0135
 9227SOL    HW139314   4.398   0.542   2.682 -1.0779  2.2876  0.1044
 9227SOL    HW239315   4.302   0.440   2.649  2.6075  0.8999 -1.7587
 9228SOL     OW39316   3.271   0.908  13.483  0.1115 -0.4098 -0.0837
 9228SOL    HW139317   3.178   0.884  13.478 -0.1073 -0.4369  3.6062
 9228SOL    HW239318   3.299   0.877  13.397 -1.9568 -0.1407 -0.8566
 9229SOL     OW39319   0.313   2.830   7.027  0.0495  0.0487 -0.6232
 9229SOL    HW139320   0.227   2.822   6.987 -0.6924  1.5824  0.6606
 9229SOL    HW239321   0.356   2.902   6.981  2.5488 -0.3229  1.1094
 9230SOL     OW39322   1.971   4.099   4.598  0.3589  0.2182  0.3898
 9230SOL    HW139323   2.022   4.022   4.625 -0.3419 -0.3586  0.0831
 9230SOL    HW239324   1.994   4.088   4.505  0.4896 -1.2591  0.5954
 9231SOL     OW39325   1.761   1.207   6.597  0.5699 -0.4017 -0.0874
 9231SOL    HW139326   1.780   1.236   6.508  2.4236  0.8373  0.7152
 9231SOL    HW239327   1.684   1.255   6.629  0.8513  0.4238 -0.6451
 9232SOL     OW39328   4.075   2.780   5.734  0.8022  0.2479  0.7715
 9232SOL    HW139329   4.160   2.798   5.773  1.2702  0.8297 -0.5318
 9232SOL    HW239330   4.045   2.869   5.713 -1.1202 -0.3272  1.0314
 9233SOL     OW39331   2.982   0.506   1.942  0.1140  0.0340 -0.1082
 9233SOL    HW139332   3.003   0.421   1.979 -0.6440  0.0460  0.3513
 9233SOL    HW239333   3.072   0.526   1.917  0.5823  0.4311  1.8887
 9234SOL     OW39334   0.532   2.720   2.459  0.9983 -0.1014 -0.0440
 9234SOL    HW139335   0.525   2.657   2.531 -0.2451  2.6563  2.2771
 9234SOL    HW239336   0.611   2.771   2.475  1.7841 -0.2001 -3.6473
 9235SOL     OW39337   0.963   3.999   7.350 -0.3304  0.0580  0.1254
 9235SOL    HW139338   0.968   3.905   7.368  0.7802  0.1382  0.2447
 9235SOL    HW239339   0.951   4.046   7.433  2.9110 -1.4648  1.4774
 9236SOL     OW39340   3.489   0.836   3.365  0.1756  0.2960  0.2620
 9236SOL    HW139341   3.475   0.909   3.305 -2.0605 -1.0181 -0.8047
 9236SOL    HW239342   3.583   0.845   3.383  0.3107  0.5216 -0.5747
 9237SOL     OW39343   0.059   4.299   7.922 -0.0181 -0.0622 -0.1839
 9237SOL    HW139344   0.083   4.350   7.999  1.8562 -1.4022  0.1139
 9237SOL    HW239345   0.103   4.338   7.846 -0.8556 -0.7861 -1.0386
 9238SOL     OW39346   0.210   0.646   4.087  0.3231  0.6719 -0.1076
 9238SOL    HW139347   0.131   0.691   4.059 -0.1636 -1.7085 -2.5279
 9238SOL    HW239348   0.177   0.556   4.094  0.9202  0.6080  1.9611
 9239SOL     OW39349   3.951   3.828   7.483  0.1432 -0.4393  0.4060
 9239SOL    HW139350   4.022   3.866   7.430 -0.4680  1.2267  0.7688
 9239SOL    HW239351   3.878   3.857   7.428  1.5691  0.0961 -1.2159
 9240SOL     OW39352   3.583   1.575   3.553 -0.9313  0.0823 -0.0547
 9240SOL    HW139353   3.652   1.617   3.502  0.5183 -2.0320  0.1864
 9240SOL    HW239354   3.622   1.534   3.630 -2.0110 -2.0501 -0.6535
 9241SOL     OW39355   1.247   3.932   0.385  0.4996 -0.4423 -0.7972
 9241SOL    HW139356   1.249   3.974   0.298  0.9286 -1.6312 -1.3552
 9241SOL    HW239357   1.210   3.845   0.369 -2.7188  0.4518  1.8735
 9242SOL     OW39358   1.070   2.102   2.789 -0.7036 -0.7064 -0.5449
 9242SOL    HW139359   1.045   2.047   2.716 -1.7767  0.9114 -1.3955
 9242SOL    HW239360   1.072   2.034   2.856  1.2503 -1.4446 -1.3709
 9243SOL     OW39361   0.462   4.392   3.233  0.5975  0.0407  0.2832
 9243SOL    HW139362   0.433   4.482   3.219 -2.1183 -0.6133  1.7118
 9243SOL    HW239363   0.541   4.400   3.180  0.4256 -0.4032 -0.0418
 9244SOL     OW39364   0.334   1.614  13.217 -0.0444 -0.7255 -0.0033
 9244SOL    HW139365   0.263   1.661  13.174 -0.6186 -0.7630  0.9005
 9244SOL    HW239366   0.410   1.608  13.159 -0.2778  0.2061 -0.4018
 9245SOL     OW39367   2.142   1.956   3.476  0.5344  0.1897  0.0572
 9245SOL    HW139368   2.114   1.894   3.408  1.3013 -1.3294  1.1398
 9245SOL    HW239369   2.099   1.926   3.555  0.0223  0.8852  0.0416
 9246SOL     OW39370   4.149   1.471   9.471  0.5980 -0.2759 -0.4699
 9246SOL    HW139371   4.169   1.561   9.497 -1.1866 -0.6206  2.0387
 9246SOL    HW239372   4.125   1.479   9.378  0.5278 -0.4678 -0.4682
 9247SOL     OW39373   4.708   4.017   4.211  0.4111 -0.0295 -0.1030
 9247SOL    HW139374   0.028   4.082   4.256 -0.9875  0.2157  1.2080
 9247SOL    HW239375   4.681   3.975   4.293  1.5550  1.6243  1.1290
 9248SOL     OW39376   2.663   4.599  16.148  0.1539 -0.0970 -0.5274
 9248SOL    HW139377   2.730   4.558  16.202 -0.9189 -2.2966 -0.8434
 9248SOL    HW239378   2.715   4.674  16.119 -0.1077  0.6244  0.8632
 9249SOL     OW39379   4.048   1.899   5.898  0.4174  0.0392 -0.1584
 9249SOL    HW139380   3.970   1.942   5.862  1.5184  1.6592 -0.5791
 9249SOL    HW239381   4.120   1.957   5.876  1.0138 -0.8545 -0.5827
 9250SOL     OW39382   2.538   2.823   1.650 -0.4700  0.1648 -0.2427
 9250SOL    HW139383   2.522   2.913   1.622  3.0775  1.4337  1.8663
 9250SOL    HW239384   2.513   2.772   1.572  0.8384  0.9073 -1.1418
 9251SOL     OW39385   0.622   3.683   5.646 -0.6001 -0.3299  0.2911
 9251SOL    HW139386   0.716   3.665   5.650 -0.4971 -0.1415 -1.1732
 9251SOL    HW239387   0.590   3.600   5.611 -1.0272  0.4177 -1.0745
 9252SOL     OW39388   1.702   4.487   2.287 -0.3357  0.2752  0.3831
 9252SOL    HW139389   1.680   4.572   2.250  0.5174  0.9170  1.3398
 9252SOL    HW239390   1.723   4.515   2.376  0.5317 -1.2967  0.6716
 9253SOL     OW39391   0.304   1.090  13.161 -0.6253 -0.1708  0.0237
 9253SOL    HW139392   0.399   1.096  13.168 -0.4523  0.6675 -3.0302
 9253SOL    HW239393   0.311   1.003  13.123 -1.0423  0.0536 -0.5706
 9254SOL     OW39394   0.312   0.614   4.847  0.6522  0.2708  0.7114
 9254SOL    HW139395   0.311   0.543   4.784 -0.3804  0.2814  0.7139
 9254SOL    HW239396   0.406   0.630   4.850  0.6721  0.1889  0.5309
 9255SOL     OW39397   0.601   4.038  10.383 -0.0932  0.3998 -0.1247
 9255SOL    HW139398   0.619   4.078  10.298  1.0588  1.5725  0.6664
 9255SOL    HW239399   0.684   3.989  10.386  0.3215  1.0742 -0.7202
 9256SOL     OW39400   0.217   0.808   6.367 -0.0491 -0.2683 -0.7859
 9256SOL    HW139401   0.262   0.892   6.369  0.1716 -0.4047  0.1026
 9256SOL    HW239402   0.158   0.820   6.293 -0.6259  0.6569 -0.1758
 9257SOL     OW39403   2.767   1.964   5.168 -0.2702 -0.1664 -0.4512
 9257SOL    HW139404   2.677   1.982   5.193 -0.3211  0.0452 -0.7810
 9257SOL    HW239405   2.793   1.907   5.240 -0.1129 -3.4014 -3.0805
 9258SOL     OW39406   3.809   1.367   3.335  0.7292  0.1000  0.5356
 9258SOL    HW139407   3.810   1.329   3.423  1.4309 -0.3238  0.3443
 9258SOL    HW239408   3.787   1.459   3.350 -2.1686 -0.6854  1.2634
 9259SOL     OW39409   3.761   4.677   2.805 -0.2633  0.3658 -0.1815
 9259SOL    HW139410   3.781   0.037   2.797  3.5439 -0.5775 -1.5573
 9259SOL    HW239411   3.665   4.679   2.797 -0.2215  0.5706 -0.6113
 9260SOL     OW39412   1.251   2.278  10.597 -0.4385 -0.0976 -0.4299
 9260SOL    HW139413   1.333   2.322  10.574 -0.7731  1.8121  2.1109
 9260SOL    HW239414   1.204   2.293  10.515 -1.1048 -0.6633 -0.1480
 9261SOL     OW39415   2.273   3.996   8.106  0.4647 -0.2261  0.4262
 9261SOL    HW139416   2.311   4.065   8.161 -0.0503 -0.2913  0.8601
 9261SOL    HW239417   2.182   3.995   8.136  0.1201  0.6422 -0.6010
 9262SOL     OW39418   1.101   4.430  15.812 -0.2616  0.4371  0.2801
 9262SOL    HW139419   1.006   4.417  15.810  0.0112 -1.7174  1.5709
 9262SOL    HW239420   1.128   4.426  15.720  0.5472 -0.2686  0.5523
 9263SOL     OW39421   3.221   3.426   0.344  0.0649  0.1342  0.3045
 9263SOL    HW139422   3.169   3.369   0.288 -0.0846  1.6332 -1.0788
 9263SOL    HW239423   3.149   3.440   0.406  0.3009 -1.7977  1.0116
 9264SOL     OW39424   3.315   0.000   7.755  0.0429  0.3908 -0.9941
 9264SOL    HW139425   3.339   0.039   7.839  0.2650  0.1423 -0.9456
 9264SOL    HW239426   3.346   0.063   7.689 -2.2741  2.7005  0.1183
 9265SOL     OW39427   2.603   0.329   4.624 -0.2533  0.0821  0.1322
 9265SOL    HW139428   2.690   0.291   4.611 -1.2166 -1.0384 -2.9787
 9265SOL    HW239429   2.611   0.423   4.641  2.6032 -0.1484  0.2078
 9266SOL     OW39430   4.644   2.375  14.631 -0.4357  0.1366 -0.4759
 9266SOL    HW139431   4.712   2.317  14.598  0.8389 -0.0399  2.4708
 9266SOL    HW239432   4.691   2.382  14.715  3.1574  0.9969 -2.5666
 9267SOL     OW39433   4.576   4.690   8.898  0.3509 -0.8574  0.0209
 9267SOL    HW139434   4.529   0.011   8.960  0.2102  1.9884 -2.6130
 9267SOL    HW239435   4.515   4.616   8.890 -1.7191  0.5492  2.8194
 9268SOL     OW39436   4.071   3.057  12.350 -0.2954  0.1804  0.1186
 9268SOL    HW139437   3.980   3.066  12.323 -0.6211 -0.5429  0.9596
 9268SOL    HW239438   4.114   3.059  12.264  0.9038 -0.6387  0.6999
 9269SOL     OW39439   3.090   3.886   6.878  0.1155  0.0537  0.1788
 9269SOL    HW139440   3.169   3.940   6.883 -0.9941  1.7675 -0.7513
 9269SOL    HW239441   3.115   3.817   6.940  0.5604 -1.6304 -1.8774
 9270SOL     OW39442   0.005   2.604  17.346  0.2125  0.2148 -0.3611
 9270SOL    HW139443   0.074   2.538  17.345  0.4756  0.5118 -1.1836
 9270SOL    HW239444   0.022   2.655  17.267 -3.3282  1.3179 -0.4175
 9271SOL     OW39445   1.580   4.169  11.531 -0.1637 -0.7311 -0.0802
 9271SOL    HW139446   1.499   4.129  11.501 -1.8618  0.9485  2.2159
 9271SOL    HW239447   1.649   4.133  11.476  0.1511 -2.4262  1.4257
 9272SOL     OW39448   0.906   2.784   4.569  0.0881  0.3567 -0.3429
 9272SOL    HW139449   0.846   2.850   4.534  0.1710  0.3683 -0.4604
 9272SOL    HW239450   0.871   2.759   4.655 -1.9648 -0.3226 -1.3738
 9273SOL     OW39451   3.566   1.853   6.838 -0.3443 -0.1734 -0.2616
 9273SOL    HW139452   3.606   1.866   6.752 -1.3272  1.6100 -0.4419
 9273SOL    HW239453   3.485   1.903   6.847  1.2896  2.4180  0.2198
 9274SOL     OW39454   4.052   3.638  15.433 -0.2060  0.0235 -0.1010
 9274SOL    HW139455   3.975   3.680  15.472 -0.9474 -2.7921  1.4695
 9274SOL    HW239456   4.005   3.584  15.369  0.9012  0.8204 -1.5940
 9275SOL     OW39457   2.661   0.587   4.650 -0.4593  0.3485 -0.2717
 9275SOL    HW139458   2.699   0.628   4.728 -0.8204  1.9769 -0.9627
 9275SOL    HW239459   2.737   0.571   4.594  0.1609  2.0489  0.0878
 9276SOL     OW39460   2.909   0.694   4.836 -0.4036  0.6488  0.1568
 9276SOL    HW139461   2.832   0.745   4.860 -1.1615 -1.1870  1.6282
 9276SOL    HW239462   2.943   0.754   4.769 -2.0265 -1.2065 -2.3270
 9277SOL     OW39463   4.479   4.543  10.460 -0.4758 -0.4814 -0.0823
 9277SOL    HW139464   4.438   4.630  10.464 -2.0255 -1.1226 -1.9491
 9277SOL    HW239465   4.409   4.492  10.500  1.1570 -2.4667  0.2065
 9278SOL     OW39466   0.215   0.523  12.569  0.2523  0.0060  0.3722
 9278SOL    HW139467   0.308   0.528  12.549  0.1548  0.8289  0.1328
 9278SOL    HW239468   0.217   0.517  12.665  1.8460 -0.2301  0.3178
 9279SOL     OW39469   0.850   2.288  11.972 -0.1516  0.2479 -0.6268
 9279SOL    HW139470   0.773   2.279  12.029 -0.1453  0.0056 -0.6561
 9279SOL    HW239471   0.915   2.249  12.031 -0.7933 -1.8397 -1.2929
 9280SOL     OW39472   3.790   4.464   6.918  0.0467  0.2699  0.5448
 9280SOL    HW139473   3.864   4.469   6.857 -0.4396 -2.2039 -0.2391
 9280SOL    HW239474   3.718   4.506   6.872 -0.7554 -1.1516  0.5101
 9281SOL     OW39475   1.931   2.321   8.667 -0.3258  0.6610  0.1968
 9281SOL    HW139476   1.991   2.395   8.657  0.5603 -0.1976 -0.9054
 9281SOL    HW239477   1.954   2.305   8.759 -0.8035 -0.8615  0.0596
 9282SOL     OW39478   0.341   3.628   6.986 -0.5953  0.0512  0.2162
 9282SOL    HW139479   0.413   3.571   6.957 -0.7328  0.4593 -0.9423
 9282SOL    HW239480   0.374   3.716   6.967 -0.2058 -0.9597 -3.8305
 9283SOL     OW39481   0.339   4.231  12.052 -0.4345  0.4275  0.6995
 9283SOL    HW139482   0.263   4.285  12.028  0.3907  0.8323 -1.0610
 9283SOL    HW239483   0.349   4.262  12.142  0.9190  1.5434  0.1705
 9284SOL     OW39484   3.722   4.463   0.858 -0.1287 -0.1990  0.7927
 9284SOL    HW139485   3.664   4.404   0.905 -0.0207 -0.8353  0.1420
 9284SOL    HW239486   3.662   4.534   0.835 -1.1532 -0.7834  1.6871
 9285SOL     OW39487   4.194   0.118   6.003 -0.0213 -0.0875 -0.1575
 9285SOL    HW139488   4.207   0.032   5.965 -0.2202 -0.6886  1.1479
 9285SOL    HW239489   4.284   0.151   6.009  0.6071 -1.3637 -2.3695
 9286SOL     OW39490   1.611   3.287  15.544  0.3837  0.2996  0.4949
 9286SOL    HW139491   1.529   3.258  15.583 -0.7051  0.8782 -1.3716
 9286SOL    HW239492   1.596   3.376  15.511  1.9159 -0.1843 -1.5652
 9287SOL     OW39493   3.237   2.287   3.462  0.2843  0.1444  0.1792
 9287SOL    HW139494   3.188   2.273   3.381 -1.9273  2.0963  1.1724
 9287SOL    HW239495   3.325   2.301   3.427  0.1241 -3.3544 -1.5596
 9288SOL     OW39496   4.589   0.052   6.185  0.2672 -0.4585  0.1688
 9288SOL    HW139497   4.585   0.071   6.279 -0.4626  0.2991 -0.0130
 9288SOL    HW239498   4.603   4.692   6.184 -2.5327 -0.8337 -1.6321
 9289SOL     OW39499   1.497   1.648   3.645  0.0534  0.0804 -0.4458
 9289SOL    HW139500   1.444   1.611   3.574 -0.0012 -0.9312  0.1128
 9289SOL    HW239501   1.587   1.647   3.612  0.1363 -0.4735 -0.2164
 9290SOL     OW39502   3.198   1.342   3.218  0.2167 -0.0978 -0.6258
 9290SOL    HW139503   3.203   1.435   3.194  2.7394  0.3139  1.4470
 9290SOL    HW239504   3.285   1.338   3.257 -0.0159  1.1148  0.0322
 9291SOL     OW39505   3.004   0.722   3.545 -0.0541 -0.1146  0.1225
 9291SOL    HW139506   2.964   0.652   3.493 -2.1053  0.9973  0.2106
 9291SOL    HW239507   3.083   0.744   3.495 -0.4015 -0.6617 -0.6672
 9292SOL     OW39508   4.567   4.544   7.497  0.1188  0.4996  0.6494
 9292SOL    HW139509   4.577   4.633   7.531 -3.2838  1.2879 -0.4335
 9292SOL    HW239510   4.573   4.558   7.402 -0.3739  0.4862  0.6185
 9293SOL     OW39511   0.402   1.857   5.465 -0.1799  0.1680  0.0754
 9293SOL    HW139512   0.381   1.924   5.400 -1.6583 -1.8864 -1.5750
 9293SOL    HW239513   0.315   1.840   5.502 -0.7596  0.9146 -0.9492
 9294SOL     OW39514   2.702   4.111   8.184 -0.3550 -0.1591 -0.1735
 9294SOL    HW139515   2.648   4.032   8.192  1.1673 -1.0465  1.2108
 9294SOL    HW239516   2.643   4.184   8.165  0.5888  1.1435  1.9034
 9295SOL     OW39517   3.057   1.655   5.263 -0.0533  0.1445 -0.0864
 9295SOL    HW139518   2.974   1.692   5.293  0.0659  0.3461 -0.0078
 9295SOL    HW239519   3.059   1.678   5.170  1.1470 -0.2890 -0.1651
 9296SOL     OW39520   4.307   0.424  16.631  0.2471  0.0418  0.5146
 9296SOL    HW139521   4.358   0.505  16.627 -1.2410  1.0752  2.9462
 9296SOL    HW239522   4.378   0.362  16.647  1.0367  1.1915  1.4433
 9297SOL     OW39523   0.645   2.648  17.002 -0.1071  0.0722  0.6547
 9297SOL    HW139524   0.552   2.636  17.021  0.5341 -3.4942  1.4706
 9297SOL    HW239525   0.643   2.734  16.960 -0.1416  0.8340  2.2329
 9298SOL     OW39526   3.142   1.634  10.961  0.3530 -0.3792  0.8479
 9298SOL    HW139527   3.222   1.641  11.014 -1.4029 -0.3062  3.5046
 9298SOL    HW239528   3.136   1.539  10.951  0.7195 -0.6081  2.7213
 9299SOL     OW39529   0.504   0.324   2.924 -0.4521 -0.0400 -0.3457
 9299SOL    HW139530   0.460   0.349   2.843 -0.6257  0.5011 -0.0818
 9299SOL    HW239531   0.439   0.347   2.990  0.6969  3.4313 -0.3772
 9300SOL     OW39532   0.477   1.609   2.500  0.1063 -0.1413 -0.4414
 9300SOL    HW139533   0.532   1.685   2.522  2.3091 -1.9988  0.5091
 9300SOL    HW239534   0.428   1.598   2.582  0.6520 -0.9687 -0.2257
 9301SOL     OW39535   2.599   0.437   8.156 -0.0471 -0.6580 -0.7616
 9301SOL    HW139536   2.563   0.454   8.243  0.8180  0.0085 -0.5240
 9301SOL    HW239537   2.691   0.464   8.164  0.4901 -2.2648 -1.4825
 9302SOL     OW39538   0.010   2.023   9.054 -0.1722  0.1554 -0.4630
 9302SOL    HW139539   0.083   1.967   9.082  0.3127  0.3427 -1.3723
 9302SOL    HW239540   0.072   2.067   8.996  0.3327  0.6498  0.4534
 9303SOL     OW39541   3.113   0.886   0.891  0.1732 -0.1778 -0.3845
 9303SOL    HW139542   3.185   0.847   0.941  0.4207  1.1516  0.3049
 9303SOL    HW239543   3.121   0.980   0.905 -2.3343  0.0459 -0.3885
 9304SOL     OW39544   0.056   1.111   1.232  0.1966  0.0272  0.2543
 9304SOL    HW139545   0.067   1.101   1.326 -2.9736 -1.2751  0.4843
 9304SOL    HW239546   0.030   1.021   1.210 -1.3348  0.7186 -0.8179
 9305SOL     OW39547   2.147   4.442   5.033 -0.5055 -0.1153 -0.2613
 9305SOL    HW139548   2.188   4.496   4.965 -2.1778  0.5836 -0.7140
 9305SOL    HW239549   2.219   4.390   5.069 -0.0386 -0.1264 -1.2056
 9306SOL     OW39550   1.767   0.838   4.202  0.5769 -0.1744 -0.7636
 9306SOL    HW139551   1.834   0.856   4.269  1.2777  1.7298 -1.9768
 9306SOL    HW239552   1.734   0.751   4.224 -0.0558  0.0419 -0.8837
 9307SOL     OW39553   2.794   0.461  13.035 -0.4680 -0.4753 -0.1494
 9307SOL    HW139554   2.883   0.428  13.048 -0.3064 -0.5362 -1.3834
 9307SOL    HW239555   2.790   0.526  13.105  0.2313 -0.5480 -0.0417
 9308SOL     OW39556   0.856   1.804   4.784 -0.8654  0.9774 -0.2488
 9308SOL    HW139557   0.924   1.751   4.743  1.0461  2.2216  1.3053
 9308SOL    HW239558   0.800   1.730   4.806 -0.1370  0.8465  1.1754
 9309SOL     OW39559   3.329   3.603   2.388  0.3094  0.0385  0.2317
 9309SOL    HW139560   3.422   3.613   2.370  0.3801 -0.4658  0.3249
 9309SOL    HW239561   3.341   3.576   2.479  0.5115  0.1420  0.2357
 9310SOL     OW39562   3.400   3.551   6.325  0.4372  0.1850  0.0896
 9310SOL    HW139563   3.433   3.571   6.412 -0.4008 -0.8829  0.6611
 9310SOL    HW239564   3.313   3.520   6.351  1.5047 -0.4600  2.8490
 9311SOL     OW39565   2.794   1.687  16.843  0.3193 -0.3546  0.4326
 9311SOL    HW139566   2.856   1.616  16.827  0.3738 -0.6542  2.0036
 9311SOL    HW239567   2.764   1.713  16.756  0.8990  0.5363  0.5028
 9312SOL     OW39568   1.652   2.837  12.064  0.3482 -0.2475  0.4035
 9312SOL    HW139569   1.561   2.862  12.051 -0.4604 -2.0924  2.5598
 9312SOL    HW239570   1.685   2.927  12.067  0.4463 -0.2066 -1.6672
 9313SOL     OW39571   0.101   3.036   8.044 -0.0772 -0.5748 -0.2886
 9313SOL    HW139572   0.076   3.002   7.958  1.6618 -1.2248 -0.5408
 9313SOL    HW239573   0.027   3.024   8.103  0.0403  1.8790  0.3388
 9314SOL     OW39574   2.153   2.127  12.518  0.3532  0.1480  0.0260
 9314SOL    HW139575   2.152   2.042  12.563 -0.4528  1.0558  1.7514
 9314SOL    HW239576   2.214   2.173  12.576  0.6227  0.3198 -0.3941
 9315SOL     OW39577   3.342   4.312   6.107 -0.0594 -0.1640 -0.0012
 9315SOL    HW139578   3.292   4.249   6.056  0.0942 -1.3403  1.3125
 9315SOL    HW239579   3.357   4.270   6.192  0.9202  1.3754  0.5878
 9316SOL     OW39580   4.112   1.037   8.652 -0.3720 -0.0710  0.0049
 9316SOL    HW139581   4.038   1.095   8.639 -1.1683 -1.1819 -0.4511
 9316SOL    HW239582   4.066   0.994   8.725 -1.8889 -1.4278 -1.7488
 9317SOL     OW39583   2.806   4.011   6.005 -0.5767 -0.6396 -0.0731
 9317SOL    HW139584   2.809   3.963   5.923 -0.8465 -0.4705 -0.1803
 9317SOL    HW239585   2.899   4.035   6.009 -0.9194  0.3128  2.1781
 9318SOL     OW39586   3.883   0.689   6.767 -0.0913 -0.2730  0.0410
 9318SOL    HW139587   3.814   0.754   6.752  1.4824  0.8584 -2.2855
 9318SOL    HW239588   3.887   0.638   6.686  1.6593 -0.5768  0.3160
 9319SOL     OW39589   1.682   0.632  14.725 -0.1133  0.2868 -0.1482
 9319SOL    HW139590   1.642   0.706  14.771  0.6354  0.7482 -0.2331
 9319SOL    HW239591   1.706   0.572  14.796  0.2253  2.4462  1.5598
 9320SOL     OW39592   4.584   0.615   7.223  0.0224  0.0565 -0.3091
 9320SOL    HW139593   4.515   0.614   7.157 -2.3395 -0.7941  2.1585
 9320SOL    HW239594   4.538   0.671   7.286 -1.7570 -0.4358 -1.1646
 9321SOL     OW39595   2.895   3.250   3.634 -0.6919 -0.6259  0.2193
 9321SOL    HW139596   2.813   3.258   3.586 -0.6171 -0.3791  0.1317
 9321SOL    HW239597   2.938   3.336   3.627  0.3661 -1.0731  1.2437
 9322SOL     OW39598   2.738   2.419   9.148 -0.4824 -0.1572 -0.1232
 9322SOL    HW139599   2.791   2.497   9.135  0.4568 -1.0375 -1.6212
 9322SOL    HW239600   2.652   2.461   9.147 -0.5825 -0.3437  0.7915
 9323SOL     OW39601   4.499   1.940  10.971  0.0725 -0.2916 -0.1642
 9323SOL    HW139602   4.443   1.894  10.909  1.8304  0.7994 -2.5698
 9323SOL    HW239603   4.462   1.906  11.052  1.3935 -0.1912  0.4884
 9324SOL     OW39604   0.173   1.287   3.406 -0.6226 -0.2021  0.1134
 9324SOL    HW139605   0.157   1.192   3.407  0.3079 -0.3586  0.3266
 9324SOL    HW239606   0.135   1.307   3.492  0.6483  1.3470  0.3064
 9325SOL     OW39607   1.088   0.631   7.095 -0.3085 -0.1691 -0.2638
 9325SOL    HW139608   1.177   0.664   7.080 -0.3985 -0.2146 -0.8828
 9325SOL    HW239609   1.048   0.696   7.152 -1.8821 -0.2306 -1.3075
 9326SOL     OW39610   3.805   3.135   5.204 -0.2769  0.1985 -0.1058
 9326SOL    HW139611   3.750   3.205   5.239  0.2771  0.0947  0.9406
 9326SOL    HW239612   3.789   3.141   5.109  1.8751  1.3567 -0.3960
 9327SOL     OW39613   1.224   2.781  11.343  0.7332 -0.4908 -0.3182
 9327SOL    HW139614   1.265   2.711  11.393 -1.4802 -0.7697  1.1297
 9327SOL    HW239615   1.239   2.855  11.402 -1.5710  0.7304 -1.2683
 9328SOL     OW39616   2.519   1.432   4.258 -0.0427  0.1490 -0.8895
 9328SOL    HW139617   2.565   1.426   4.175  2.3933  1.0927  0.4008
 9328SOL    HW239618   2.523   1.528   4.266 -1.9704  0.2019 -0.5012
 9329SOL     OW39619   1.571   2.812   0.010  0.5136 -0.0021 -0.0227
 9329SOL    HW139620   1.550   2.744   0.074  0.9997 -0.1720 -0.0418
 9329SOL    HW239621   1.651   2.850   0.048  0.6123  0.0261 -0.2571
 9330SOL     OW39622   2.259   4.310   2.317 -0.0746  0.4409  0.2568
 9330SOL    HW139623   2.227   4.252   2.387 -0.9472 -1.0276 -1.3609
 9330SOL    HW239624   2.190   4.315   2.251 -1.4808  2.5033  1.8742
 9331SOL     OW39625   4.432   2.257   3.765  0.6951  0.1288 -0.2642
 9331SOL    HW139626   4.401   2.340   3.801 -0.0623 -0.0673 -0.4642
 9331SOL    HW239627   4.391   2.248   3.678  1.7287  1.5482 -0.8851
 9332SOL     OW39628   0.876   4.098   6.439  1.1896 -0.0216  0.0640
 9332SOL    HW139629   0.931   4.024   6.414  0.1512 -0.8932  0.3309
 9332SOL    HW239630   0.868   4.062   6.528  2.1309 -0.7045 -0.1316
 9333SOL     OW39631   2.564   4.656   3.856  0.1695  0.7364  0.3227
 9333SOL    HW139632   2.490   4.675   3.914 -0.6235 -0.9461 -0.1254
 9333SOL    HW239633   2.539   4.715   3.785 -1.0998 -1.0908 -0.7557
 9334SOL     OW39634   4.689   1.978   0.696 -0.4007 -0.3678  0.4122
 9334SOL    HW139635   4.704   2.063   0.654 -1.4402 -0.4663 -0.1562
 9334SOL    HW239636   0.012   1.929   0.637  0.6216  1.5592 -0.1932
 9335SOL     OW39637   4.215   0.318   5.271  0.1250  0.0381 -0.1320
 9335SOL    HW139638   4.290   0.368   5.301 -0.4435  0.4282  0.6511
 9335SOL    HW239639   4.242   0.302   5.181  0.0162 -0.4430 -0.0799
 9336SOL     OW39640   2.384   2.537   3.716  0.7062 -0.2164 -0.2601
 9336SOL    HW139641   2.447   2.582   3.771  0.0376  2.1203 -1.4174
 9336SOL    HW239642   2.435   2.534   3.635  0.7573  0.9505 -0.2749
 9337SOL     OW39643   1.587   3.915   0.760  0.5988  0.5144 -0.5053
 9337SOL    HW139644   1.534   3.990   0.733 -2.0429 -0.8181  0.9399
 9337SOL    HW239645   1.556   3.888   0.847 -0.2378 -1.1119 -1.3016
 9338SOL     OW39646   2.214   3.675   6.830  0.1515  0.4784 -0.2265
 9338SOL    HW139647   2.275   3.613   6.871 -1.0869 -1.1216 -0.8060
 9338SOL    HW239648   2.264   3.752   6.857  2.9485 -0.5036 -2.5229
 9339SOL     OW39649   2.446   1.817   7.654  0.1965 -0.6255  0.1491
 9339SOL    HW139650   2.449   1.778   7.567 -1.1317 -1.3133  0.4086
 9339SOL    HW239651   2.439   1.908   7.626  1.9275 -0.6784 -0.4267
 9340SOL     OW39652   2.636   3.220  16.041  0.0438 -0.0363  0.0376
 9340SOL    HW139653   2.675   3.303  16.015  0.7487 -1.1789 -2.6109
 9340SOL    HW239654   2.542   3.236  16.030  0.1124 -0.1196 -0.6905
 9341SOL     OW39655   3.652   2.188   1.330 -0.5150  0.6545 -0.4049
 9341SOL    HW139656   3.692   2.193   1.243  0.0534 -0.6231 -0.2107
 9341SOL    HW239657   3.599   2.268   1.340  1.8301  2.3472 -1.5157
 9342SOL     OW39658   2.126   0.660   9.747  0.1211  0.3644 -0.1005
 9342SOL    HW139659   2.090   0.641   9.834 -2.7819 -0.6196 -1.5428
 9342SOL    HW239660   2.220   0.658   9.767 -0.4112 -0.6873  2.3594
 9343SOL     OW39661   1.623   3.128   5.738  0.0628  0.3283  0.0335
 9343SOL    HW139662   1.646   3.180   5.660  0.0627  0.4722  0.1299
 9343SOL    HW239663   1.709   3.144   5.776  0.1878  2.6145 -1.1961
 9344SOL     OW39664   1.712   3.150   8.103  0.4307  0.2760  0.2009
 9344SOL    HW139665   1.779   3.189   8.158 -1.2078  2.1137  0.9023
 9344SOL    HW239666   1.631   3.167   8.152 -0.3503 -0.2668 -0.8901
 9345SOL     OW39667   0.232   4.651  11.213  0.3605 -0.9521 -0.3740
 9345SOL    HW139668   0.210   4.641  11.120  0.3789 -1.6863 -0.2988
 9345SOL    HW239669   0.214   4.561  11.242 -1.3072 -0.5464 -0.1698
 9346SOL     OW39670   0.951   3.987   2.513  0.1523 -1.1787 -0.2545
 9346SOL    HW139671   0.933   4.066   2.461  1.7332 -0.3849  0.4017
 9346SOL    HW239672   0.919   4.011   2.599 -3.8702 -0.0437 -2.0799
 9347SOL     OW39673   1.461   1.107   3.102 -0.0126  0.2629  0.5430
 9347SOL    HW139674   1.487   1.026   3.146  0.4506  0.4338  0.5749
 9347SOL    HW239675   1.368   1.085   3.115 -0.1004  0.4580  0.2255
 9348SOL     OW39676   0.430   2.311   1.679  0.0455 -0.1592 -0.3097
 9348SOL    HW139677   0.339   2.321   1.650 -0.4079 -1.2147  0.7320
 9348SOL    HW239678   0.413   2.234   1.733  3.5530 -0.4796  0.3644
 9349SOL     OW39679   3.478   2.542  17.220  0.1492 -0.0585  0.2591
 9349SOL    HW139680   3.395   2.588  17.204  0.4104  0.5931  0.8012
 9349SOL    HW239681   3.445   2.452  17.216  3.2201 -1.1701  0.4339
 9350SOL     OW39682   3.295   3.398  17.023 -0.1975  0.5111  0.0496
 9350SOL    HW139683   3.230   3.454  16.980  1.8270  2.6374 -0.2508
 9350SOL    HW239684   3.242   3.345  17.082 -0.1302  1.8657  1.3403
 9351SOL     OW39685   1.044   4.683  16.236 -0.1895 -0.3825 -0.0167
 9351SOL    HW139686   0.970   4.635  16.200 -2.2113 -0.2844  3.9990
 9351SOL    HW239687   1.038   0.038  16.204  0.0363 -0.3288  0.0867
 9352SOL     OW39688   3.195   1.984  13.843 -0.1676  0.2178  0.0117
 9352SOL    HW139689   3.134   1.915  13.815  2.3403 -1.7045 -0.7282
 9352SOL    HW239690   3.139   2.058  13.868  2.0787  1.4932  1.2240
 9353SOL     OW39691   2.686   4.163  15.545  0.8657 -0.7165  0.2281
 9353SOL    HW139692   2.633   4.115  15.481  2.5743 -0.6840 -1.1971
 9353SOL    HW239693   2.752   4.100  15.572  0.0807 -2.4963 -2.0317
 9354SOL     OW39694   1.353   2.302   6.627  0.2281  0.5453  0.3727
 9354SOL    HW139695   1.282   2.365   6.636 -1.2702 -1.3477  1.6594
 9354SOL    HW239696   1.358   2.249   6.706  0.5396 -2.7534 -1.8405
 9355SOL     OW39697   0.448   2.107   9.462 -0.2553  0.1125  0.0644
 9355SOL    HW139698   0.444   2.072   9.551  0.9886  0.8522  0.4100
 9355SOL    HW239699   0.542   2.124   9.457 -0.8797  2.6959 -2.3359
 9356SOL     OW39700   0.204   1.961  14.550  0.5177  0.2634 -0.2246
 9356SOL    HW139701   0.189   1.926  14.462  2.4374  1.7200 -1.1017
 9356SOL    HW239702   0.291   1.923  14.564 -1.0058 -2.5002  1.8119
 9357SOL     OW39703   3.070   1.770  12.737 -0.1287 -0.1897  0.2200
 9357SOL    HW139704   3.133   1.779  12.809 -0.1724  1.7731 -0.0067
 9357SOL    HW239705   3.053   1.860  12.710 -0.3764 -0.8038 -1.7020
 9358SOL     OW39706   2.042   0.195  10.081 -0.7420  0.0533 -0.0122
 9358SOL    HW139707   2.036   0.216   9.988  0.3606  1.2462  0.1880
 9358SOL    HW239708   2.103   0.122  10.091  0.5044  1.0604 -0.3661
 9359SOL     OW39709   4.299   0.129   8.794 -0.2068 -0.6433 -0.4124
 9359SOL    HW139710   4.215   0.172   8.813  1.9219  3.0374  0.7885
 9359SOL    HW239711   4.274   0.042   8.824  0.5568 -1.3185 -1.7449
 9360SOL     OW39712   2.429   2.769   3.953 -0.0352 -0.3619  0.1508
 9360SOL    HW139713   2.341   2.768   3.991  0.5514 -1.9132  1.4508
 9360SOL    HW239714   2.490   2.729   4.014  1.0854 -0.0620 -0.7616
 9361SOL     OW39715   0.781   4.046  13.318 -0.5622  0.0001 -0.5141
 9361SOL    HW139716   0.769   4.103  13.394  0.6098  0.8161 -0.9356
 9361SOL    HW239717   0.696   4.003  13.313  0.7803 -2.7575  0.0648
 9362SOL     OW39718   1.827   1.845   1.576  0.3927  0.3428  0.2502
 9362SOL    HW139719   1.827   1.936   1.606  2.5184  0.9440 -1.5901
 9362SOL    HW239720   1.911   1.812   1.607  1.6215  1.9777 -1.3668
 9363SOL     OW39721   3.434   0.650   1.768 -0.0785 -0.6788  0.0740
 9363SOL    HW139722   3.491   0.714   1.727  0.6795  0.3108  2.6512
 9363SOL    HW239723   3.499   0.601   1.819  1.3027  0.1101 -0.9303
 9364SOL     OW39724   0.744   0.888   4.141 -0.3503  0.1918  0.3642
 9364SOL    HW139725   0.729   0.814   4.199 -1.0442 -1.6268 -2.1537
 9364SOL    HW239726   0.839   0.897   4.146  0.0247 -3.7600 -0.2127
 9365SOL     OW39727   2.213   3.906   9.214  0.3649 -0.0880 -0.4082
 9365SOL    HW139728   2.232   3.981   9.158  1.7535  0.0682  0.2596
 9365SOL    HW239729   2.278   3.846   9.177 -0.4730 -0.3637 -1.4197
 9366SOL     OW39730   1.746   0.829   9.328  0.0546 -0.0614 -0.2916
 9366SOL    HW139731   1.797   0.904   9.299  0.6351 -1.2180 -2.2421
 9366SOL    HW239732   1.808   0.756   9.327 -1.7236 -1.5726 -1.1074
 9367SOL     OW39733   3.742   1.028   3.713  0.3887  0.5941 -0.4462
 9367SOL    HW139734   3.692   0.946   3.719 -1.3236  1.5462 -1.5643
 9367SOL    HW239735   3.750   1.048   3.806 -1.4138  1.1279 -0.3999
 9368SOL     OW39736   2.515   3.171   5.982 -0.3843  0.1341  0.5462
 9368SOL    HW139737   2.443   3.191   6.041  0.0810 -1.4407  1.6572
 9368SOL    HW239738   2.467   3.167   5.899  1.2112  1.3514 -0.4383
 9369SOL     OW39739   0.926   2.674   0.061  0.0920 -0.2362  0.1015
 9369SOL    HW139740   0.855   2.735   0.077 -1.0136 -0.7572 -2.8404
 9369SOL    HW239741   0.891   2.597   0.107  1.7301 -1.8864 -1.4195
 9370SOL     OW39742   0.614   2.212   1.043  0.4034  0.1738  0.1307
 9370SOL    HW139743   0.582   2.130   1.079 -1.9773  2.2337  2.7296
 9370SOL    HW239744   0.702   2.203   1.077  0.8942  0.3633 -1.0843
 9371SOL     OW39745   1.802   3.463   4.627 -0.0863  0.1175  0.1450
 9371SOL    HW139746   1.820   3.404   4.554 -3.2035  0.3629 -0.8447
 9371SOL    HW239747   1.827   3.549   4.591  1.0000 -0.3807 -0.2724
 9372SOL     OW39748   1.980   0.308   6.650  0.0280 -0.0042  0.4172
 9372SOL    HW139749   2.068   0.335   6.623  0.9982 -2.5257  1.0115
 9372SOL    HW239750   1.989   0.318   6.744  1.0718 -0.9658  0.4237
 9373SOL     OW39751   0.767   0.001   0.962 -0.5618  0.5300  0.0233
 9373SOL    HW139752   0.729   0.089   0.968 -0.6491  0.5920 -1.3752
 9373SOL    HW239753   0.699   4.682   0.921 -0.9758  0.7564  0.4174
 9374SOL     OW39754   4.557   3.402   1.916  0.4173  0.6458  0.7232
 9374SOL    HW139755   4.530   3.478   1.968  0.2213  0.2725  1.1617
 9374SOL    HW239756   4.623   3.371   1.978 -0.6349  0.0848  1.5799
 9375SOL     OW39757   3.363   3.239   1.184  0.0088  0.1389  0.0732
 9375SOL    HW139758   3.391   3.185   1.257  0.8902 -1.2332 -1.2772
 9375SOL    HW239759   3.368   3.331   1.210  1.7024 -0.1721  0.7901
 9376SOL     OW39760   2.306   4.264   4.319  0.0798  0.5541  0.0606
 9376SOL    HW139761   2.364   4.282   4.245 -0.1914  3.2445  0.5087
 9376SOL    HW239762   2.269   4.348   4.344  2.9198  2.1675 -1.1484
 9377SOL     OW39763   3.813   2.252   5.978  0.3749 -0.3827 -0.1026
 9377SOL    HW139764   3.719   2.233   5.987  0.2152  0.2328 -0.4339
 9377SOL    HW239765   3.839   2.221   6.064 -0.4905 -2.0334 -0.4408
 9378SOL     OW39766   2.045   3.909   2.772  0.0239  0.1303  0.0148
 9378SOL    HW139767   1.983   3.892   2.701  1.4130 -1.2685 -0.8549
 9378SOL    HW239768   2.038   3.828   2.823 -0.9995 -0.3677 -0.9000
 9379SOL     OW39769   4.498   0.108   4.997 -0.0086  0.3644  0.1840
 9379SOL    HW139770   4.469   0.199   4.984  1.7495  0.9984  0.7793
 9379SOL    HW239771   4.436   0.088   5.067  0.6318  1.8031  1.1551
 9380SOL     OW39772   3.613   3.094  12.883  0.3819  0.4131 -0.4003
 9380SOL    HW139773   3.551   3.068  12.951  1.4052  3.4821  1.6992
 9380SOL    HW239774   3.682   3.141  12.930  2.3685 -0.7708 -2.1115
 9381SOL     OW39775   2.580   4.237   1.965  0.1751 -0.4587  0.1609
 9381SOL    HW139776   2.546   4.213   2.051  0.1341 -0.6258  0.0978
 9381SOL    HW239777   2.507   4.284   1.925  0.0069 -1.3566 -0.6125
 9382SOL     OW39778   2.051   2.681   5.632  0.7296 -0.1201  0.2795
 9382SOL    HW139779   1.989   2.611   5.611 -0.8190  0.6417  2.3950
 9382SOL    HW239780   2.121   2.639   5.683  1.7300  0.2219 -0.7940
 9383SOL     OW39781   3.064   1.155   7.144  0.0595 -0.2526  0.2234
 9383SOL    HW139782   3.115   1.146   7.225  2.3321 -1.0042 -1.2945
 9383SOL    HW239783   3.090   1.069   7.109  2.4866  0.0855  1.1876
 9384SOL     OW39784   0.700   2.424  11.358 -0.3574  0.4348  0.2043
 9384SOL    HW139785   0.684   2.414  11.264  0.2795 -0.3371  0.1688
 9384SOL    HW239786   0.789   2.458  11.349 -0.6350  1.8536  2.8998
 9385SOL     OW39787   2.408   0.596   6.556  1.0488  0.0232 -0.2303
 9385SOL    HW139788   2.397   0.682   6.515 -0.7429  0.0027  0.1961
 9385SOL    HW239789   2.500   0.574   6.544  1.1030  0.0715  0.1059
 9386SOL     OW39790   0.628   1.700  10.772 -0.2075 -0.0334 -0.2174
 9386SOL    HW139791   0.691   1.683  10.702  2.7139  2.7845  1.7507
 9386SOL    HW239792   0.542   1.696  10.731 -1.0437 -0.7862  1.6009
 9387SOL     OW39793   3.060   3.524   5.507  0.5422 -0.4129  0.6991
 9387SOL    HW139794   3.009   3.548   5.585  1.7918  0.0362  1.3850
 9387SOL    HW239795   3.069   3.606   5.458 -3.0449 -0.2323  0.3447
 9388SOL     OW39796   3.899   0.500   8.882 -0.2658  0.6252 -0.5729
 9388SOL    HW139797   3.820   0.493   8.936  0.9417  0.3656  1.1641
 9388SOL    HW239798   3.850   0.488   8.800  0.5725 -0.5466 -0.8981
 9389SOL     OW39799   4.469   3.513   7.000  0.5977 -0.0524  0.6571
 9389SOL    HW139800   4.560   3.509   7.028  0.4978 -0.9331  0.8692
 9389SOL    HW239801   4.442   3.589   7.052  1.3513  1.2541 -0.8676
 9390SOL     OW39802   3.746   2.097   7.586 -0.0709  0.8924  0.2756
 9390SOL    HW139803   3.795   2.150   7.523  1.9462 -2.8385 -1.2921
 9390SOL    HW239804   3.662   2.132   7.557 -0.3653  1.9560  2.3715
 9391SOL     OW39805   3.062   3.487   8.934 -0.4788 -0.3962  0.4203
 9391SOL    HW139806   3.154   3.492   8.960 -0.5824  0.0926  0.6877
 9391SOL    HW239807   3.013   3.542   8.995 -0.1089 -1.7476  1.9739
 9392SOL     OW39808   4.032   0.905   7.989  0.0239 -0.0449  0.5259
 9392SOL    HW139809   4.027   0.986   7.939  0.0129 -1.2044 -1.3691
 9392SOL    HW239810   3.965   0.854   7.942  1.0794 -1.6510  0.7546
 9393SOL     OW39811   3.135   1.756   8.017  0.2628  0.2176  0.3989
 9393SOL    HW139812   3.191   1.726   7.946  2.0671  0.7316  1.6047
 9393SOL    HW239813   3.054   1.726   7.976  0.7063 -2.0660  1.1925
 9394SOL     OW39814   2.870   2.528   9.727 -0.3734 -0.1629 -0.1766
 9394SOL    HW139815   2.802   2.495   9.786  1.0684  0.0553  1.5950
 9394SOL    HW239816   2.911   2.443   9.709 -0.2110 -0.3765  1.2165
 9395SOL     OW39817   1.826   2.835   7.272  0.7973  0.1677 -0.5627
 9395SOL    HW139818   1.829   2.775   7.347 -2.3361 -0.3123 -0.8428
 9395SOL    HW239819   1.862   2.778   7.204  2.9998  0.4693  0.3354
 9396SOL     OW39820   2.395   1.717  12.150  0.0413 -0.3189  0.3546
 9396SOL    HW139821   2.393   1.695  12.056 -0.8519 -0.9581  0.5188
 9396SOL    HW239822   2.418   1.809  12.148  1.7425 -0.7425  0.5682
 9397SOL     OW39823   0.884   4.355  13.493  0.1101  0.4052  0.0414
 9397SOL    HW139824   0.796   4.389  13.507  0.6697  1.6726  0.5018
 9397SOL    HW239825   0.899   4.368  13.399 -0.1756 -1.8434 -0.3015
 9398SOL     OW39826   3.433   4.062   4.916  0.6319 -0.0230  0.0262
 9398SOL    HW139827   3.476   4.089   4.998  1.9617  4.2957 -2.0955
 9398SOL    HW239828   3.496   4.093   4.851  1.0788 -0.4751  0.2398
 9399SOL     OW39829   3.116   0.729   4.470  0.1952 -0.1647  0.0802
 9399SOL    HW139830   3.152   0.671   4.537 -1.0920  0.3532  1.2335
 9399SOL    HW239831   3.184   0.727   4.403  0.5002 -1.2747  0.4135
 9400SOL     OW39832   1.024   1.176   1.240  0.5336 -0.5994  0.2301
 9400SOL    HW139833   0.947   1.127   1.210  0.0215 -0.3394  1.1355
 9400SOL    HW239834   0.996   1.264   1.213 -1.5211 -1.3770 -0.2215
 9401SOL     OW39835   2.580   1.923   9.098  0.4180 -0.5598  0.1803
 9401SOL    HW139836   2.535   1.940   9.016  1.7066  0.9063 -0.2183
 9401SOL    HW239837   2.655   1.983   9.092  1.2640 -1.5191  1.0372
 9402SOL     OW39838   2.666   4.239  15.823  0.1732  0.8945 -0.1287
 9402SOL    HW139839   2.758   4.264  15.825  0.4093  0.0299 -0.1045
 9402SOL    HW239840   2.670   4.199  15.736  0.7784  3.0930 -1.1095
 9403SOL     OW39841   3.821   1.716   2.670 -0.3580 -0.0462  0.0193
 9403SOL    HW139842   3.733   1.701   2.634 -0.9719  2.8546  0.2569
 9403SOL    HW239843   3.867   1.641   2.632  0.3112  0.5637 -0.3666
 9404SOL     OW39844   0.870   2.213  15.887  0.4740 -0.1347 -0.6186
 9404SOL    HW139845   0.906   2.292  15.928 -0.8414  0.2133 -0.1535
 9404SOL    HW239846   0.787   2.250  15.857 -0.0371  1.1026  2.3019
 9405SOL     OW39847   3.921   3.177  16.325 -0.3015 -0.1017  0.4059
 9405SOL    HW139848   3.854   3.162  16.393 -1.7428  2.7093 -0.4260
 9405SOL    HW239849   3.920   3.272  16.326  0.6143 -0.0705 -2.0137
 9406SOL     OW39850   2.836   4.304   3.649 -0.8568 -0.2855 -0.0290
 9406SOL    HW139851   2.788   4.383   3.626 -2.4049 -1.4352 -0.7808
 9406SOL    HW239852   2.811   4.259   3.569 -0.9581 -2.7683  1.3843
 9407SOL     OW39853   1.244   1.178   2.822 -0.2120  0.0026  0.0954
 9407SOL    HW139854   1.246   1.137   2.908  0.6856 -1.5219 -0.6511
 9407SOL    HW239855   1.176   1.245   2.822  0.5520  0.7805  1.7162
 9408SOL     OW39856   2.516   0.146  13.933 -0.0452  0.1558  0.2171
 9408SOL    HW139857   2.553   0.213  13.876  0.3293 -1.0820 -1.0057
 9408SOL    HW239858   2.537   0.071  13.876 -0.6006  0.1493  0.0180
 9409SOL     OW39859   0.731   1.767   3.864 -0.3479  0.4416  0.2237
 9409SOL    HW139860   0.768   1.730   3.945 -0.4648  1.6841  0.8477
 9409SOL    HW239861   0.792   1.841   3.858  0.6700 -0.3105  1.2067
 9410SOL     OW39862   4.572   4.442   6.814 -0.3313 -0.1864 -0.0314
 9410SOL    HW139863   4.572   4.355   6.775 -0.8670  0.2109 -0.9407
 9410SOL    HW239864   4.593   4.421   6.905 -1.5885  0.1481  0.3384
 9411SOL     OW39865   0.333   0.318   7.108 -0.2258  0.2623  0.0522
 9411SOL    HW139866   0.257   0.362   7.069  0.1103  1.0655  0.3046
 9411SOL    HW239867   0.377   0.391   7.151 -0.8919  0.0261  1.1160
 9412SOL     OW39868   1.593   1.608   4.602  0.0231 -0.4022 -0.1219
 9412SOL    HW139869   1.604   1.654   4.685  2.2376 -1.1528  0.0056
 9412SOL    HW239870   1.669   1.636   4.553 -1.4514 -1.6762 -3.1306
 9413SOL     OW39871   1.389   1.903   3.630  0.3452  0.0055  0.6571
 9413SOL    HW139872   1.360   1.910   3.721 -0.4356 -1.6741  0.5340
 9413SOL    HW239873   1.454   1.837   3.654 -2.1823 -2.1250  1.5772
 9414SOL     OW39874   2.338   0.168   2.742  0.6166  0.3768  0.1113
 9414SOL    HW139875   2.248   0.147   2.715  1.1442 -0.9567 -0.6327
 9414SOL    HW239876   2.382   0.089   2.711  0.6602 -0.5082  2.4278
 9415SOL     OW39877   1.472   2.087  15.679  0.1706  0.0181 -0.0377
 9415SOL    HW139878   1.388   2.126  15.702  0.2400 -0.3562  0.8408
 9415SOL    HW239879   1.477   2.028  15.754  0.9380  2.3341  1.7525
 9416SOL     OW39880   1.123   4.100   8.137 -0.2496  0.2151 -0.0884
 9416SOL    HW139881   1.148   4.192   8.124  0.2440  0.4062  2.1026
 9416SOL    HW239882   1.154   4.098   8.228 -1.3595  0.0473  0.2874
 9417SOL     OW39883   1.852   3.363   6.213 -0.3367 -0.0722  0.8611
 9417SOL    HW139884   1.777   3.339   6.158  0.6618 -1.1235 -0.0392
 9417SOL    HW239885   1.862   3.442   6.160 -1.0495 -1.1867 -0.9825
 9418SOL     OW39886   2.501   1.469  16.033 -0.3235 -0.3546 -0.2315
 9418SOL    HW139887   2.483   1.542  15.974 -1.4475  0.9564  1.6866
 9418SOL    HW239888   2.565   1.417  15.985 -0.8241 -2.0405  0.9192
 9419SOL     OW39889   4.223   0.637   9.114 -0.8166 -0.1951 -0.5576
 9419SOL    HW139890   4.191   0.582   9.185  0.6583  1.2376  1.2134
 9419SOL    HW239891   4.309   0.598   9.108 -1.2935 -1.2924 -0.2234
 9420SOL     OW39892   0.571   3.991   7.204  0.1016  0.5364  0.5110
 9420SOL    HW139893   0.639   4.044   7.245  0.5529 -0.8698  1.5879
 9420SOL    HW239894   0.582   3.901   7.236 -1.4043  0.2910  0.3491
 9421SOL     OW39895   1.721   0.288   5.035 -0.5038  0.2647 -0.2813
 9421SOL    HW139896   1.742   0.376   5.003  1.7368 -1.3381 -3.1650
 9421SOL    HW239897   1.660   0.299   5.109 -1.6432 -0.0876 -1.1678
 9422SOL     OW39898   0.326   2.806   6.498  0.1614  0.0108 -0.3472
 9422SOL    HW139899   0.413   2.814   6.536  0.6124 -0.6546 -1.2474
 9422SOL    HW239900   0.339   2.758   6.417  0.2663 -0.7853  0.1404
 9423SOL     OW39901   3.498   0.084   3.900 -0.4411 -0.3012 -0.4147
 9423SOL    HW139902   3.549   0.051   3.826  0.6011  0.9027 -0.2378
 9423SOL    HW239903   3.496   0.008   3.958  0.3502  0.9088  1.1996
 9424SOL     OW39904   0.959   2.638  11.891  0.1167 -0.5934 -0.3172
 9424SOL    HW139905   1.003   2.643  11.976  2.5139 -1.4371 -1.5072
 9424SOL    HW239906   1.018   2.684  11.831 -0.0793  0.5010  0.3126
 9425SOL     OW39907   1.363   3.602   4.466 -0.3584 -0.2715 -0.1665
 9425SOL    HW139908   1.318   3.685   4.455 -1.1767 -0.7332 -0.2951
 9425SOL    HW239909   1.452   3.635   4.457  0.2791 -2.1962 -0.9318
 9426SOL     OW39910   0.430   0.970  17.206  0.4948 -0.0167 -0.5028
 9426SOL    HW139911   0.458   0.883  17.178  1.2522 -0.0351  0.3225
 9426SOL    HW239912   0.338   0.974  17.180  0.2587  0.3291  0.4098
 9427SOL     OW39913   0.855   1.737  15.650 -0.2601 -0.5471  0.6360
 9427SOL    HW139914   0.770   1.779  15.638  0.6106  1.6218  2.0963
 9427SOL    HW239915   0.903   1.803  15.700 -1.9734 -0.5570  2.2510
 9428SOL     OW39916   1.819   1.284   6.309 -0.3859 -0.0841 -0.2438
 9428SOL    HW139917   1.871   1.236   6.244  0.7542 -1.3239  1.5452
 9428SOL    HW239918   1.854   1.372   6.316  1.2261 -0.6403 -1.2832
 9429SOL     OW39919   1.320   2.458  15.519  0.1325 -0.4075  0.2823
 9429SOL    HW139920   1.268   2.538  15.513  0.3124 -0.5872 -3.5199
 9429SOL    HW239921   1.411   2.488  15.520 -0.4217  1.3493 -2.6355
 9430SOL     OW39922   1.183   2.841   9.190  0.0506 -0.3054  0.2939
 9430SOL    HW139923   1.209   2.826   9.100  1.6598  2.2436  0.3324
 9430SOL    HW239924   1.171   2.754   9.228 -0.3126  0.2635  1.4937
 9431SOL     OW39925   1.118   0.152  13.036 -0.3143  0.4529 -0.0294
 9431SOL    HW139926   1.124   0.107  12.952 -1.2743  1.1484 -0.4711
 9431SOL    HW239927   1.040   0.103  13.062 -0.9044  1.0708 -0.6440
 9432SOL     OW39928   2.228   2.081   4.147 -0.3235 -0.2241  0.5430
 9432SOL    HW139929   2.300   2.039   4.099  0.5850 -1.0774  2.6695
 9432SOL    HW239930   2.274   2.109   4.226 -0.3202  0.7704  0.1887
 9433SOL     OW39931   3.875   3.189  12.988  0.1383  0.2622 -0.0950
 9433SOL    HW139932   3.891   3.147  12.904 -0.5700  0.3430 -0.2742
 9433SOL    HW239933   3.906   3.123  13.050 -1.6206 -0.7764 -0.3301
 9434SOL     OW39934   0.573   0.047   2.982 -0.0997  0.2488  0.0526
 9434SOL    HW139935   0.535   0.123   2.939  0.9666 -0.1226 -1.5226
 9434SOL    HW239936   0.582   0.081   3.071 -0.5651  1.1863 -0.2536
 9435SOL     OW39937   0.833   3.026   6.331  0.4613 -0.0520 -0.6097
 9435SOL    HW139938   0.916   3.021   6.282  0.2987 -1.0713 -0.7848
 9435SOL    HW239939   0.805   3.106   6.288 -1.5446 -0.4284  0.0278
 9436SOL     OW39940   0.672   3.967  11.824  0.3729 -0.1720 -0.0202
 9436SOL    HW139941   0.604   3.992  11.886 -0.8119 -0.0400 -1.3650
 9436SOL    HW239942   0.718   3.904  11.879  1.2599  0.1158 -0.4434
 9437SOL     OW39943   3.308   0.446   3.450 -0.0577  0.6553 -0.0108
 9437SOL    HW139944   3.307   0.381   3.520 -2.1960  0.8772  0.1512
 9437SOL    HW239945   3.253   0.403   3.384 -0.0001 -0.5692  0.7405
 9438SOL     OW39946   2.498   2.538   5.985 -0.1952 -0.0841  0.0708
 9438SOL    HW139947   2.513   2.448   6.015 -0.0482 -0.4743 -1.1574
 9438SOL    HW239948   2.580   2.548   5.936 -0.6498 -0.8047 -0.8473
 9439SOL     OW39949   2.672   1.873   6.544 -0.5208  0.2119 -0.5366
 9439SOL    HW139950   2.744   1.936   6.539  2.0201 -2.5578  1.3154
 9439SOL    HW239951   2.697   1.798   6.490 -0.2589  1.1412 -1.7287
 9440SOL     OW39952   1.609   2.588   6.603 -0.4495 -0.0350 -0.4012
 9440SOL    HW139953   1.614   2.496   6.628 -0.3778  0.7579  2.5566
 9440SOL    HW239954   1.621   2.589   6.509  1.2126 -1.2823 -0.1886
 9441SOL     OW39955   0.377   2.125  15.510 -0.0517 -0.2418 -0.0106
 9441SOL    HW139956   0.443   2.141  15.442 -1.0035 -1.6129 -1.2773
 9441SOL    HW239957   0.437   2.108  15.582  1.0039 -0.8244 -1.0323
 9442SOL     OW39958   1.464   4.481   4.321 -0.7258  0.1380  0.0590
 9442SOL    HW139959   1.520   4.533   4.379  1.9419 -1.4040 -1.1034
 9442SOL    HW239960   1.496   4.391   4.325 -1.4687 -0.0229  2.4848
 9443SOL     OW39961   0.371   4.085   2.705 -0.0707 -0.3633 -0.5228
 9443SOL    HW139962   0.324   4.038   2.636  2.1481 -1.5253 -1.2271
 9443SOL    HW239963   0.408   4.014   2.757  0.0257  0.3378  0.3657
 9444SOL     OW39964   0.315   1.202   4.674  0.7575 -0.5554 -0.4277
 9444SOL    HW139965   0.336   1.292   4.649 -0.1967 -1.2945 -3.8102
 9444SOL    HW239966   0.219   1.210   4.675  0.7126 -1.0361 -0.9948
 9445SOL     OW39967   0.119   0.787   4.693  0.0075  0.0710 -1.3270
 9445SOL    HW139968   0.193   0.734   4.725 -0.3878  0.6578  0.5658
 9445SOL    HW239969   0.123   0.869   4.742  1.2855 -2.2636  2.4796
 9446SOL     OW39970   0.570   4.355   2.009  0.1469  0.6223  0.2844
 9446SOL    HW139971   0.533   4.353   1.921 -0.0241 -1.6339  0.4185
 9446SOL    HW239972   0.540   4.437   2.047 -1.7126 -0.6027  1.4620
 9447SOL     OW39973   4.552   0.399   2.547 -0.1589 -0.1781  0.5040
 9447SOL    HW139974   4.621   0.377   2.485  0.6675  2.0590  0.6314
 9447SOL    HW239975   4.522   0.311   2.569 -0.7021 -0.0607  0.2379
 9448SOL     OW39976   1.698   1.001   4.609  0.4245  0.1062 -0.3018
 9448SOL    HW139977   1.619   1.041   4.572  0.0763 -0.4884 -0.2024
 9448SOL    HW239978   1.694   0.910   4.582 -0.6115  0.0893 -0.0789
 9449SOL     OW39979   1.276   3.546   3.680 -0.9530 -0.4224 -0.2685
 9449SOL    HW139980   1.265   3.631   3.639  0.0069 -1.7048 -3.1879
 9449SOL    HW239981   1.367   3.526   3.659 -1.0479 -2.6805  1.4572
 9450SOL     OW39982   4.598   3.950   5.197 -0.3264  0.0855 -0.1649
 9450SOL    HW139983   4.519   3.983   5.153 -1.5134  0.3454  2.1431
 9450SOL    HW239984   4.584   3.856   5.200 -2.6416  0.5242  2.4015
 9451SOL     OW39985   3.067   1.974  14.605  0.1076 -0.0348 -0.6463
 9451SOL    HW139986   3.082   1.894  14.656 -0.6127 -0.1912 -0.6741
 9451SOL    HW239987   2.996   2.022  14.648 -0.3008 -1.1991 -0.0150
 9452SOL     OW39988   1.287   4.535   5.877  0.1449 -0.4593 -0.0927
 9452SOL    HW139989   1.372   4.560   5.914 -0.0704 -1.6786  1.2491
 9452SOL    HW239990   1.228   4.606   5.903  0.3068 -0.2054 -0.4185
 9453SOL     OW39991   2.877   1.577   1.479  0.0995 -0.1041  0.0230
 9453SOL    HW139992   2.888   1.517   1.404 -0.0660  0.5003 -0.4803
 9453SOL    HW239993   2.944   1.644   1.468  1.9907 -2.2549 -1.7696
 9454SOL     OW39994   4.536   4.024  12.886 -0.3769  0.1801  0.0683
 9454SOL    HW139995   4.463   4.058  12.938  1.4405  2.2865  1.2360
 9454SOL    HW239996   4.569   4.103  12.844  1.0879 -1.4269 -1.8476
 9455SOL     OW39997   3.026   0.743   2.091  0.5227 -0.0884  0.3778
 9455SOL    HW139998   2.976   0.714   2.167  0.9795  0.6370  0.9439
 9455SOL    HW239999   3.005   0.674   2.028 -1.7341 -1.5280  2.6983
 9456SOL     OW40000   2.583   3.008   3.901 -0.4443 -0.4496 -0.0577
 9456SOL    HW140001   2.570   3.072   3.971  0.5666 -1.2473  0.8638
 9456SOL    HW240002   2.534   2.933   3.936  1.6660 -1.9384 -0.2889
 9457SOL     OW40003   0.064   2.816  14.012 -0.2070 -0.0848 -0.1247
 9457SOL    HW140004   0.029   2.740  14.059  1.3613 -1.3113 -0.9190
 9457SOL    HW240005   0.078   2.875  14.086  0.6071  1.0647 -1.1834
 9458SOL     OW40006   2.691   1.369   2.266 -0.0621 -0.5332 -0.5122
 9458SOL    HW140007   2.634   1.445   2.260  0.8443  0.3164  1.4241
 9458SOL    HW240008   2.633   1.302   2.302 -1.0559  0.1416 -0.8873
 9459SOL     OW40009   4.022   2.910   7.894  0.3512 -0.1121 -0.0708
 9459SOL    HW140010   4.078   2.905   7.971  0.6201 -0.1623 -0.2691
 9459SOL    HW240011   4.045   2.829   7.848 -1.4458 -1.8634  2.1062
 9460SOL     OW40012   2.091   1.625   3.636 -0.4383 -0.5692 -0.6152
 9460SOL    HW140013   2.107   1.713   3.669  0.4054 -0.2328 -1.9104
 9460SOL    HW240014   2.166   1.630   3.576 -1.8213  1.6505 -2.1432
 9461SOL     OW40015   0.938   0.895   1.792  0.2699  0.0965 -0.0067
 9461SOL    HW140016   0.989   0.976   1.783  0.5737 -0.1641 -0.5930
 9461SOL    HW240017   0.988   0.837   1.735 -2.2897 -1.8493 -0.2831
 9462SOL     OW40018   4.043   4.598   6.510  0.6469  0.3923 -0.4835
 9462SOL    HW140019   4.138   4.589   6.500  0.8828  1.7508  0.6271
 9462SOL    HW240020   4.043   4.692   6.496 -1.5935  0.6739  1.5062
 9463SOL     OW40021   1.285   4.194   4.643 -0.1727  0.5603  0.0853
 9463SOL    HW140022   1.310   4.109   4.679 -1.8365 -0.6902 -1.6861
 9463SOL    HW240023   1.229   4.168   4.569  1.1077 -1.0251 -0.3324
 9464SOL     OW40024   4.104   3.392   0.983 -0.3433  0.1516 -1.0972
 9464SOL    HW140025   4.172   3.370   1.047 -0.6999  0.7535 -0.5171
 9464SOL    HW240026   4.160   3.397   0.906  2.0372 -1.0576  0.5531
 9465SOL     OW40027   2.689   1.610   1.867 -0.2221  0.8781  0.1015
 9465SOL    HW140028   2.737   1.530   1.887 -1.4454  0.5290  1.5934
 9465SOL    HW240029   2.699   1.613   1.772  0.2393  0.1876  0.1351
 9466SOL     OW40030   3.260   3.276  10.092  0.5913 -0.1365  0.3985
 9466SOL    HW140031   3.291   3.215  10.159 -2.7196 -1.4218  0.7617
 9466SOL    HW240032   3.193   3.217  10.057  1.0869 -0.5684  0.1936
 9467SOL     OW40033   3.344   0.057   8.022 -0.2787  0.1188  0.3178
 9467SOL    HW140034   3.426   0.052   8.071  1.5134 -0.3325 -2.7295
 9467SOL    HW240035   3.313   4.702   8.039 -0.3012  0.1341  0.3569
 9468SOL     OW40036   0.404   0.127  13.387  0.2154  0.7192 -0.2188
 9468SOL    HW140037   0.337   0.060  13.372 -0.7446  1.7882 -0.6841
 9468SOL    HW240038   0.396   0.175  13.305  1.0945  0.7790 -0.2615
 9469SOL     OW40039   3.302   4.359   4.755  0.1913  0.3803  0.2371
 9469SOL    HW140040   3.366   4.383   4.688  1.7280 -1.8294  0.8969
 9469SOL    HW240041   3.351   4.346   4.836  1.9031  0.0197 -0.8516
 9470SOL     OW40042   3.207   2.254   1.527 -0.0839  0.1174  0.2853
 9470SOL    HW140043   3.295   2.292   1.527 -1.1660  2.6013  0.3702
 9470SOL    HW240044   3.198   2.206   1.610  1.4675 -2.3151 -0.9536
 9471SOL     OW40045   3.901   2.279   3.225 -0.1306 -0.2603  0.0093
 9471SOL    HW140046   3.899   2.354   3.166 -0.8281  0.2644  0.6986
 9471SOL    HW240047   3.893   2.202   3.169  1.4150  0.4705 -1.2150
 9472SOL     OW40048   2.593   0.855   5.493 -0.4433 -0.1818 -0.9807
 9472SOL    HW140049   2.606   0.888   5.404 -0.2103  1.1014 -0.4590
 9472SOL    HW240050   2.500   0.876   5.500 -0.5307 -0.6615 -0.6384
 9473SOL     OW40051   4.511   3.883   2.092 -0.1358 -0.3189 -0.0314
 9473SOL    HW140052   4.519   3.916   2.003  2.5513 -1.2140 -0.1315
 9473SOL    HW240053   4.474   3.956   2.141 -0.0450 -1.2013  1.3788
 9474SOL     OW40054   1.618   0.044  16.126 -0.2210 -0.2124  0.3813
 9474SOL    HW140055   1.631   0.138  16.133 -0.3605 -0.1825  0.2299
 9474SOL    HW240056   1.524   0.038  16.113  0.0948 -0.1594 -1.8794
 9475SOL     OW40057   2.305   0.444   3.649 -0.5337  0.1982  0.3363
 9475SOL    HW140058   2.371   0.453   3.719 -0.1201  0.7436 -0.1261
 9475SOL    HW240059   2.335   0.366   3.602  1.2668 -0.2924  2.2713
 9476SOL     OW40060   0.124   1.666  12.384 -0.2528  0.1169 -0.0254
 9476SOL    HW140061   0.118   1.657  12.288 -0.6091 -0.0290  0.0119
 9476SOL    HW240062   0.034   1.690  12.406 -0.9326 -0.3016 -2.3188
 9477SOL     OW40063   2.892   2.447   2.810  0.2296 -0.0582 -0.3614
 9477SOL    HW140064   2.816   2.474   2.861  0.8335 -0.2742  0.6548
 9477SOL    HW240065   2.865   2.362   2.774  1.2031 -0.1477 -0.9062
 9478SOL     OW40066   2.198   0.902   3.416  0.0200 -0.1394 -0.1790
 9478SOL    HW140067   2.137   0.884   3.344  0.2965 -1.0527 -0.1830
 9478SOL    HW240068   2.186   0.820   3.464  0.2823 -0.4750 -0.6866
 9479SOL     OW40069   0.560   1.948   7.665 -0.3119  0.2732 -0.6456
 9479SOL    HW140070   0.581   1.893   7.590 -0.7883 -1.4585  0.4747
 9479SOL    HW240071   0.640   1.995   7.684  0.2693 -1.0085  0.0838
 9480SOL     OW40072   2.590   4.024   5.275 -0.2082 -0.4231 -0.5469
 9480SOL    HW140073   2.540   4.095   5.316  0.7515 -1.4946  2.4849
 9480SOL    HW240074   2.651   3.990   5.340  0.1128 -1.8767 -1.6264
 9481SOL     OW40075   1.736   4.405   3.472 -0.6289  0.5737  0.3257
 9481SOL    HW140076   1.702   4.401   3.383 -0.8921 -0.4241  0.4693
 9481SOL    HW240077   1.660   4.450   3.508  0.1396  0.4848  2.0703
 9482SOL     OW40078   3.235   2.168  11.462  0.5217  0.8783 -0.3254
 9482SOL    HW140079   3.200   2.256  11.448  0.8031  1.4256  2.3321
 9482SOL    HW240080   3.169   2.129  11.519 -0.5683  2.3600 -0.5707
 9483SOL     OW40081   4.552   4.014  16.857  0.0972 -0.2448 -0.7576
 9483SOL    HW140082   4.641   3.983  16.870  0.2179  0.3119 -0.2276
 9483SOL    HW240083   4.511   3.929  16.844  0.2570 -0.6462  1.4059
 9484SOL     OW40084   1.465   0.974   5.333  0.0008  0.5096 -1.1848
 9484SOL    HW140085   1.478   1.053   5.281  0.6845  0.3668 -1.2310
 9484SOL    HW240086   1.512   1.009   5.409 -1.7300  2.5372 -1.0614
 9485SOL     OW40087   2.139   3.271   4.060  0.6298 -0.2255  0.1369
 9485SOL    HW140088   2.214   3.326   4.081  0.2297  0.2492  0.3329
 9485SOL    HW240089   2.093   3.325   3.996  1.0761  1.3753  1.1563
 9486SOL     OW40090   3.089   3.732  14.211 -0.2204 -0.1407 -0.7672
 9486SOL    HW140091   3.018   3.681  14.174 -0.2646 -1.7400  1.4712
 9486SOL    HW240092   3.089   3.699  14.301 -1.8686  4.4798  0.9119
 9487SOL     OW40093   4.530   4.446  12.253 -0.0252 -0.0517  0.0204
 9487SOL    HW140094   4.569   4.414  12.171  1.2251  0.4895  0.4064
 9487SOL    HW240095   4.480   4.373  12.290  2.0151  0.1725  3.1804
 9488SOL     OW40096   3.762   4.305   8.323 -0.2133 -0.3641 -0.1092
 9488SOL    HW140097   3.674   4.328   8.351  0.0325  0.5578 -0.0726
 9488SOL    HW240098   3.800   4.391   8.343 -1.0388 -0.1052  0.3607
 9489SOL     OW40099   1.225   4.063   7.299  0.1374 -0.3517  0.1153
 9489SOL    HW140100   1.130   4.063   7.288 -0.0403 -3.0595  1.5010
 9489SOL    HW240101   1.229   3.987   7.357 -0.9612 -1.3216 -1.0572
 9490SOL     OW40102   1.300   0.108  17.025  0.2022 -0.1298 -0.0744
 9490SOL    HW140103   1.221   0.148  17.060 -0.2538 -1.2982  0.2467
 9490SOL    HW240104   1.262   0.061  16.950 -0.1275 -0.8253  0.5243
 9491SOL     OW40105   1.303   1.713  12.553  0.5156  0.2921  0.8883
 9491SOL    HW140106   1.343   1.676  12.631 -0.6731 -1.4643  0.6596
 9491SOL    HW240107   1.371   1.769  12.515  1.8693 -0.6552  1.9384
 9492SOL     OW40108   3.773   3.566   6.662  0.1327  0.0532  0.4538
 9492SOL    HW140109   3.788   3.594   6.752 -1.5408 -0.8221  1.0212
 9492SOL    HW240110   3.858   3.591   6.627 -0.0405 -1.1109 -0.7977
 9493SOL     OW40111   3.003   0.827   3.817  0.1687  0.0923  0.1400
 9493SOL    HW140112   3.020   0.745   3.864 -1.0551  0.4681  1.2333
 9493SOL    HW240113   2.975   0.799   3.729  1.1530 -1.3483  0.2879
 9494SOL     OW40114   0.832   1.728   9.277  0.6859  0.1549  0.1225
 9494SOL    HW140115   0.820   1.635   9.299  1.4906 -0.7010 -3.0068
 9494SOL    HW240116   0.776   1.767   9.344 -0.8595  0.0414 -1.1025
 9495SOL     OW40117   2.304   0.422   3.341 -0.2123  0.4959 -0.1097
 9495SOL    HW140118   2.381   0.472   3.369  1.1552 -0.0617 -2.9504
 9495SOL    HW240119   2.300   0.360   3.414 -0.8603  2.1957  1.2977
 9496SOL     OW40120   1.294   2.018   1.578 -0.2295 -0.3214 -0.0117
 9496SOL    HW140121   1.287   1.980   1.666  0.3730 -0.4722 -0.0275
 9496SOL    HW240122   1.211   2.065   1.574  0.6117  1.1539 -0.3693
 9497SOL     OW40123   2.649   3.301  16.544  0.6960 -0.3933  0.6089
 9497SOL    HW140124   2.683   3.213  16.528  0.0194 -0.7409  1.0400
 9497SOL    HW240125   2.664   3.307  16.639 -1.2611  2.2448  0.7578
 9498SOL     OW40126   0.087   4.707  14.674  0.0909 -0.0135 -0.2925
 9498SOL    HW140127   0.096   0.001  14.765  0.4784  1.9986 -0.9378
 9498SOL    HW240128   0.176   4.677  14.653  0.1742  0.8119 -1.1461
 9499SOL     OW40129   0.776   3.338   9.149 -0.4147 -0.6419  0.3174
 9499SOL    HW140130   0.819   3.254   9.131  0.1140 -0.4257  0.5534
 9499SOL    HW240131   0.736   3.317   9.233  0.1611 -0.0938  0.7370
 9500SOL     OW40132   1.210   0.200   8.713 -0.0223  0.0520 -0.4123
 9500SOL    HW140133   1.203   0.131   8.779 -0.3635  0.4059 -0.0822
 9500SOL    HW240134   1.269   0.260   8.759  0.9463 -1.0835 -0.1466
 9501SOL     OW40135   4.332   3.769   7.055  0.3541 -0.3683 -0.1640
 9501SOL    HW140136   4.270   3.803   6.991 -0.4799 -0.1710  0.7507
 9501SOL    HW240137   4.355   3.833   7.123 -0.3160 -1.5449  1.1584
 9502SOL     OW40138   2.474   3.408  11.963  0.2345  0.2382  0.0671
 9502SOL    HW140139   2.499   3.333  12.018  0.2022  0.4457  0.3608
 9502SOL    HW240140   2.560   3.433  11.928 -1.4796  1.6927 -3.0479
 9503SOL     OW40141   2.197   0.635   8.184  0.7670 -0.3772  0.2422
 9503SOL    HW140142   2.264   0.578   8.224  1.8999  1.0316  0.3810
 9503SOL    HW240143   2.191   0.591   8.100  0.4797  0.7839 -0.3375
 9504SOL     OW40144   4.394   3.058   8.044 -0.0151 -0.0366 -0.2603
 9504SOL    HW140145   4.462   3.086   7.982 -0.1523  1.7475  0.3884
 9504SOL    HW240146   4.390   2.965   8.021  0.3957 -0.1918  0.2936
 9505SOL     OW40147   3.998   0.764  14.810  0.1267  0.1167  0.5010
 9505SOL    HW140148   4.072   0.822  14.829  0.2004  1.0558 -2.6722
 9505SOL    HW240149   3.958   0.804  14.734 -1.0254 -1.0056  0.5184
 9506SOL     OW40150   2.572   4.377   3.872 -0.2950  0.0547  0.0187
 9506SOL    HW140151   2.513   4.396   3.798 -1.4091  1.3861  1.2630
 9506SOL    HW240152   2.627   4.454   3.861  0.8185 -0.4962  1.7731
 9507SOL     OW40153   0.772   4.418   6.753 -0.2651 -0.1190  0.2404
 9507SOL    HW140154   0.859   4.386   6.730  1.4591  4.1102  0.8188
 9507SOL    HW240155   0.790   4.438   6.845  1.0538  0.3474 -0.1196
 9508SOL     OW40156   1.491   0.799  11.840 -0.5233  0.1571 -1.0771
 9508SOL    HW140157   1.554   0.786  11.769  0.5132  2.1675 -0.5234
 9508SOL    HW240158   1.411   0.813  11.789  0.1893  0.5896 -2.0845
 9509SOL     OW40159   3.391   4.555   1.187  0.3650  0.4194 -0.1903
 9509SOL    HW140160   3.464   4.493   1.184  0.5775  0.6518  0.2387
 9509SOL    HW240161   3.347   4.546   1.271 -0.2271  0.2589 -0.5192
 9510SOL     OW40162   1.521   0.199   8.305  0.4122  0.1707 -0.1348
 9510SOL    HW140163   1.589   0.261   8.278  1.6086 -0.2936  1.8071
 9510SOL    HW240164   1.547   0.182   8.396 -0.0525 -1.7208 -0.3616
 9511SOL     OW40165   0.152   2.846  10.174 -0.5260 -0.0041 -0.2750
 9511SOL    HW140166   0.236   2.881  10.143 -1.0613  0.2516 -1.4246
 9511SOL    HW240167   0.182   2.760  10.204  0.3788  0.2416 -0.4559
 9512SOL     OW40168   2.783   4.199   9.721  0.2657  0.5611  0.0678
 9512SOL    HW140169   2.687   4.201   9.725  0.3402 -0.5489  2.5545
 9512SOL    HW240170   2.796   4.290   9.695 -1.1577  0.7123 -0.1040
 9513SOL     OW40171   3.903   3.537   1.090  0.9176  0.0147  0.0535
 9513SOL    HW140172   3.952   3.475   1.035  0.9753 -0.4177  0.5941
 9513SOL    HW240173   3.955   3.539   1.170  0.1498  1.2580  0.5231
 9514SOL     OW40174   1.060   3.436   5.068  0.0636  0.0919  0.2449
 9514SOL    HW140175   0.986   3.488   5.036  0.3632  1.2704  1.4495
 9514SOL    HW240176   1.139   3.471   5.028  0.1190 -0.8388 -0.4606
 9515SOL     OW40177   4.248   0.482   7.393 -0.3865 -0.8262 -0.2961
 9515SOL    HW140178   4.205   0.559   7.430  1.0021  0.4527 -1.3019
 9515SOL    HW240179   4.336   0.515   7.375 -0.8335 -1.1127 -2.9541
 9516SOL     OW40180   0.222   3.025  12.060 -0.2348  0.4339 -0.1063
 9516SOL    HW140181   0.286   2.956  12.080  1.9836  2.1524 -1.3676
 9516SOL    HW240182   0.215   3.075  12.141 -2.6003 -1.5425  0.9276
 9517SOL     OW40183   0.472   0.923   2.391  0.3702  0.0902 -0.3409
 9517SOL    HW140184   0.491   1.008   2.430 -0.7132  0.3531 -0.3604
 9517SOL    HW240185   0.386   0.915   2.432  1.2021 -1.4082  1.0972
 9518SOL     OW40186   0.258   2.696   5.186 -0.1814  0.4992  0.4128
 9518SOL    HW140187   0.263   2.655   5.100  0.3703 -0.8691  1.1079
 9518SOL    HW240188   0.218   2.782   5.172 -0.1992  0.5568  0.8165
 9519SOL     OW40189   0.476   0.958   3.654 -0.0857 -0.5488  0.4256
 9519SOL    HW140190   0.526   0.951   3.736 -1.3252 -2.9368  1.0017
 9519SOL    HW240191   0.536   0.962   3.580 -0.1706 -0.4406  0.3627
 9520SOL     OW40192   3.760   2.695   4.582 -0.7026  0.8223 -0.2553
 9520SOL    HW140193   3.711   2.675   4.662 -2.3562  0.6965 -1.2948
 9520SOL    HW240194   3.819   2.620   4.575 -0.6751  0.8433 -0.2458
 9521SOL     OW40195   1.593   4.531   5.507  0.4078  0.1087 -0.2061
 9521SOL    HW140196   1.504   4.507   5.531  0.3561 -0.0180 -0.5271
 9521SOL    HW240197   1.579   4.623   5.486 -0.0556 -0.1089 -0.8479
 9522SOL     OW40198   2.279   0.206   5.208  1.2943 -0.4983 -0.0443
 9522SOL    HW140199   2.208   0.225   5.147  1.7237  3.9489  0.8530
 9522SOL    HW240200   2.277   0.273   5.276 -0.5153  2.6188 -3.1125
 9523SOL     OW40201   0.559   4.442   8.932  0.3101  0.7286  0.6666
 9523SOL    HW140202   0.566   4.529   8.893  1.3927 -0.2552 -1.3064
 9523SOL    HW240203   0.490   4.402   8.880  0.6248 -0.4449  1.1499
 9524SOL     OW40204   3.534   4.691   8.181 -0.4275  0.1507 -0.1641
 9524SOL    HW140205   3.628   4.691   8.163 -0.5476  0.1277 -0.7934
 9524SOL    HW240206   3.543   4.643   8.264 -2.9003  0.9018  0.5508
 9525SOL     OW40207   2.191   4.620   6.772  0.1009  0.5800 -0.5624
 9525SOL    HW140208   2.210   4.529   6.794 -0.0864  0.4281 -1.0343
 9525SOL    HW240209   2.113   4.640   6.825  1.5212 -0.1236  1.7715
 9526SOL     OW40210   3.832   1.714  14.996  0.0426 -0.3286  0.0166
 9526SOL    HW140211   3.751   1.691  15.041 -0.5470  0.1484 -0.8159
 9526SOL    HW240212   3.876   1.629  14.988  0.6608  0.0748 -0.8835
 9527SOL     OW40213   3.310   0.835   6.635 -1.1104  0.4309  0.1464
 9527SOL    HW140214   3.327   0.882   6.553 -1.4129 -1.5797 -1.0778
 9527SOL    HW240215   3.303   0.905   6.699  1.3923  0.7509  0.0624
 9528SOL     OW40216   3.818   4.565   7.836 -0.1319  0.0843 -0.0193
 9528SOL    HW140217   3.893   4.553   7.778  2.3312  2.0163  2.7398
 9528SOL    HW240218   3.755   4.495   7.816 -0.7224  0.7152 -0.3716
 9529SOL     OW40219   3.357   2.530   8.209 -0.8093  0.3580  0.1033
 9529SOL    HW140220   3.370   2.488   8.294  1.1378 -0.0560 -0.4091
 9529SOL    HW240221   3.268   2.563   8.223 -0.6299  0.9284 -0.1209
 9530SOL     OW40222   2.035   0.325   9.430  0.7341  0.0294  0.5574
 9530SOL    HW140223   2.050   0.308   9.336  0.5158 -1.9364  0.8655
 9530SOL    HW240224   2.024   0.232   9.450 -1.8996  0.3615  0.6205
 9531SOL     OW40225   1.883   1.664   5.410 -0.0886 -0.6534 -0.5500
 9531SOL    HW140226   1.790   1.682   5.419  0.2843  0.8876  0.2939
 9531SOL    HW240227   1.918   1.732   5.352  0.0669 -2.4802 -2.6102
 9532SOL     OW40228   0.890   1.837   1.645 -0.0500  0.7449 -0.1884
 9532SOL    HW140229   0.916   1.772   1.710 -0.0708  0.1243 -0.8034
 9532SOL    HW240230   0.797   1.854   1.661  0.0432 -1.1880  2.3274
 9533SOL     OW40231   3.356   4.243   2.525  0.4696 -0.5069  0.4379
 9533SOL    HW140232   3.295   4.314   2.510 -1.4032 -1.6515  2.6590
 9533SOL    HW240233   3.440   4.287   2.539  0.3937 -0.2736  0.1474
 9534SOL     OW40234   3.259   1.316   8.197 -0.1820  0.2710 -0.5590
 9534SOL    HW140235   3.225   1.251   8.136  0.9986 -0.9039  0.0130
 9534SOL    HW240236   3.182   1.362   8.231 -0.3931  0.6590 -1.5876
 9535SOL     OW40237   2.176   1.901   5.596 -0.6347  0.2944  0.1785
 9535SOL    HW140238   2.175   1.938   5.685  0.3149 -0.1123  0.3664
 9535SOL    HW240239   2.163   1.808   5.615  1.7751  0.1009  0.8914
 9536SOL     OW40240   0.614   3.795   6.368  0.1173  0.4746  0.2096
 9536SOL    HW140241   0.697   3.773   6.326  0.7029  1.4655  0.8443
 9536SOL    HW240242   0.614   3.891   6.365  0.6076  0.3891 -2.0291
 9537SOL     OW40243   2.568   4.226  17.239 -0.4505 -1.0581 -0.0147
 9537SOL    HW140244   2.531   4.189  17.159 -0.2732  1.4235 -1.2135
 9537SOL    HW240245   2.488   4.234  17.292  0.1773 -0.6779  0.8766
 9538SOL     OW40246   0.404   2.673   2.206 -0.1654 -0.3826 -0.2894
 9538SOL    HW140247   0.445   2.750   2.166  2.0159 -0.5888  1.5456
 9538SOL    HW240248   0.441   2.668   2.294 -0.3551 -1.2631 -0.2613
 9539SOL     OW40249   0.138   4.402   2.573 -0.3748  0.4133 -0.1285
 9539SOL    HW140250   0.097   4.340   2.633  0.6083  1.5476  1.7272
 9539SOL    HW240251   0.206   4.351   2.530  1.0454  0.5475  1.9660
 9540SOL     OW40252   4.477   3.296  15.182 -0.2693 -0.2087  0.7161
 9540SOL    HW140253   4.389   3.266  15.203 -0.9509  0.8795 -0.5594
 9540SOL    HW240254   4.501   3.330  15.268  0.5097 -0.7817  0.7255
 9541SOL     OW40255   3.327   3.993  12.645 -0.1970  0.0719 -0.1156
 9541SOL    HW140256   3.282   3.920  12.688 -0.1213 -0.2415 -0.5757
 9541SOL    HW240257   3.269   4.010  12.571  1.6039  1.7814 -1.1291
 9542SOL     OW40258   0.536   3.559   9.433  0.4004  0.2913 -0.0345
 9542SOL    HW140259   0.481   3.527   9.360  0.9193 -1.0310  0.1414
 9542SOL    HW240260   0.576   3.637   9.395  2.1467  0.1273  1.4842
 9543SOL     OW40261   2.689   1.504   8.643 -0.3514 -0.0942  0.2617
 9543SOL    HW140262   2.621   1.448   8.682 -0.6326  0.6294  0.8087
 9543SOL    HW240263   2.664   1.594   8.664  0.4464  0.7821 -2.5494
 9544SOL     OW40264   2.885   3.325  11.174  0.4557 -0.5191  0.0265
 9544SOL    HW140265   2.854   3.330  11.083 -1.4819 -2.9375  0.5441
 9544SOL    HW240266   2.824   3.377  11.225  2.0115  0.8745  0.4638
 9545SOL     OW40267   1.817   3.330   3.607  0.0154  0.4199 -0.0543
 9545SOL    HW140268   1.758   3.256   3.625  1.7754 -0.6886  1.1837
 9545SOL    HW240269   1.903   3.292   3.625  0.1243  1.5167  1.6640
 9546SOL     OW40270   3.213   2.095   0.387 -0.0670  0.1029  0.1107
 9546SOL    HW140271   3.270   2.050   0.325  1.9794 -0.7752  2.6797
 9546SOL    HW240272   3.137   2.110   0.331 -1.3187  0.0606  1.7945
 9547SOL     OW40273   1.056   4.596   3.319 -0.0423 -0.4311 -0.7713
 9547SOL    HW140274   1.109   4.650   3.260  0.3926  0.0983  0.1178
 9547SOL    HW240275   1.109   4.591   3.398  0.0325  0.0989 -0.7904
 9548SOL     OW40276   3.378   2.621  11.060  0.7593 -0.5660 -0.1979
 9548SOL    HW140277   3.373   2.526  11.068  0.3569 -0.6689 -1.5612
 9548SOL    HW240278   3.331   2.641  11.141  0.1013  3.0849 -1.4733
 9549SOL     OW40279   2.654   3.004   9.449 -0.8977 -0.1218 -0.3676
 9549SOL    HW140280   2.619   3.093   9.457  0.7557  0.4882  0.0790
 9549SOL    HW240281   2.735   3.026   9.403 -1.6664 -0.8393 -2.0671
 9550SOL     OW40282   1.684   2.942   0.739 -0.1322  0.2052  0.4202
 9550SOL    HW140283   1.658   2.850   0.749 -0.0740  0.2296  0.7714
 9550SOL    HW240284   1.719   2.946   0.650 -1.6225  2.5118 -0.0527
 9551SOL     OW40285   2.245   1.540  13.147 -0.1303 -0.1403 -0.2277
 9551SOL    HW140286   2.156   1.517  13.172 -0.3755  1.4118  0.3385
 9551SOL    HW240287   2.280   1.544  13.236 -1.1189  4.7489 -0.0786
 9552SOL     OW40288   1.717   1.102   9.619 -0.9939  0.1489 -0.0056
 9552SOL    HW140289   1.654   1.143   9.678 -0.5027  1.3569 -0.3170
 9552SOL    HW240290   1.671   1.019   9.626  1.3391 -1.0369  1.1944
 9553SOL     OW40291   2.153   1.601   4.200 -0.1028  0.5946 -0.2477
 9553SOL    HW140292   2.162   1.547   4.279  2.1161  1.2944 -0.0283
 9553SOL    HW240293   2.168   1.686   4.240  0.9370  0.6231 -0.7140
 9554SOL     OW40294   4.074   1.905  10.730  0.3539  0.2588 -0.9033
 9554SOL    HW140295   4.082   1.935  10.640 -1.1153 -1.2586 -1.5464
 9554SOL    HW240296   3.978   1.904  10.731  0.3917 -0.7614  2.2787
 9555SOL     OW40297   4.679   0.266   6.945  0.0184 -0.3580 -0.4191
 9555SOL    HW140298   0.002   0.306   6.879 -1.6161  0.3919 -1.3626
 9555SOL    HW240299   4.693   0.318   7.024 -0.8977 -0.7462  0.0052
 9556SOL     OW40300   3.293   2.255   7.668 -0.2477  0.0041  0.5204
 9556SOL    HW140301   3.213   2.240   7.618 -0.6087  0.1721  1.0402
 9556SOL    HW240302   3.285   2.189   7.737  0.3312  1.2676  1.8047
 9557SOL     OW40303   2.830   3.091   5.616  0.4391 -0.4006 -0.0211
 9557SOL    HW140304   2.854   3.023   5.680  0.2184 -1.1404 -0.7336
 9557SOL    HW240305   2.763   3.141   5.662  0.2360 -0.1825 -0.5597
 9558SOL     OW40306   2.728   2.683   0.797  0.3256  0.2859  0.3401
 9558SOL    HW140307   2.682   2.672   0.880 -0.6786 -1.3086 -0.4223
 9558SOL    HW240308   2.739   2.778   0.789  3.2056 -0.1406 -0.6492
 9559SOL     OW40309   0.121   3.137  10.901 -0.0016 -0.0176  0.3992
 9559SOL    HW140310   0.116   3.050  10.862 -1.9175 -0.3675  1.4549
 9559SOL    HW240311   0.100   3.193  10.826  1.4321  0.5278  0.3919
 9560SOL     OW40312   2.538   2.435  15.944 -0.0681 -0.2607  0.2061
 9560SOL    HW140313   2.545   2.393  15.859  0.3644  2.7401 -1.2197
 9560SOL    HW240314   2.597   2.385  16.001  1.6776  2.3690  0.7317
 9561SOL     OW40315   3.693   3.006   3.890 -0.2457 -0.5252 -1.0178
 9561SOL    HW140316   3.775   3.033   3.848 -1.0393  1.8560 -1.0399
 9561SOL    HW240317   3.648   3.010   3.806 -0.5905  1.2548 -0.7499
 9562SOL     OW40318   0.491   3.094   5.741  0.6355  0.1473 -0.4867
 9562SOL    HW140319   0.453   3.163   5.796 -0.0069 -1.2307  0.7768
 9562SOL    HW240320   0.427   3.113   5.672  1.3244  0.2725 -1.0912
 9563SOL     OW40321   3.406   2.702   3.461 -0.4868 -0.1328  0.0469
 9563SOL    HW140322   3.328   2.654   3.433  0.7580 -2.6277  0.8366
 9563SOL    HW240323   3.369   2.790   3.456  0.0120  0.0607 -0.2881
 9564SOL     OW40324   1.011   2.448  15.862  0.3216  0.0055 -0.1458
 9564SOL    HW140325   1.064   2.384  15.814  1.1688 -1.2257  2.4710
 9564SOL    HW240326   1.062   2.457  15.942 -0.3363 -0.8261  0.3643
 9565SOL     OW40327   3.232   4.148   3.437 -0.0516  0.0728 -0.1613
 9565SOL    HW140328   3.275   4.191   3.511 -0.2872 -0.0262  0.0332
 9565SOL    HW240329   3.253   4.059   3.467  2.2624  0.9774  0.9045
 9566SOL     OW40330   2.019   0.575   3.288 -0.6330 -0.0098  0.2395
 9566SOL    HW140331   2.024   0.660   3.244  2.3505 -1.9173 -3.0693
 9566SOL    HW240332   2.101   0.528   3.272  0.3285  1.4343  0.9161
 9567SOL     OW40333   0.738   2.472   9.117 -0.1808 -0.5965 -0.3537
 9567SOL    HW140334   0.833   2.478   9.112 -0.3164 -0.1473 -2.4814
 9567SOL    HW240335   0.704   2.561   9.126  0.0898 -0.7632  2.1533
 9568SOL     OW40336   1.883   3.133   5.824 -0.3651 -0.0325 -0.2916
 9568SOL    HW140337   1.955   3.090   5.778 -0.6276 -0.9858  0.1830
 9568SOL    HW240338   1.904   3.105   5.913  1.0162  1.7189 -0.0744
 9569SOL     OW40339   4.596   2.812   2.167  0.2733  0.1989  0.0175
 9569SOL    HW140340   4.682   2.780   2.139  0.7543  1.7036 -0.2117
 9569SOL    HW240341   4.529   2.782   2.106 -0.2625 -0.6466  1.0271
 9570SOL     OW40342   2.727   1.623   9.220  0.1839 -0.1928  1.0014
 9570SOL    HW140343   2.792   1.630   9.289  0.8835  1.0568  0.2098
 9570SOL    HW240344   2.725   1.714   9.193  0.7386  0.1409  2.0944
 9571SOL     OW40345   1.884   1.102   0.841  0.0994 -0.0822 -0.3185
 9571SOL    HW140346   1.867   1.133   0.930 -1.4104  0.0092 -0.6276
 9571SOL    HW240347   1.968   1.060   0.857 -0.7856 -0.8451  2.3506
   4.73402   4.73402  17.73519
